Membrane in water
40155
    1TCq1    O1    1   0.240   0.210  12.044 -0.4933  0.1195 -0.1665
    1TCq1    C1    2   0.228   0.075  12.035 -0.1908 -0.7904 -0.9757
    1TCq1    O2    3   0.323   0.003  12.010  0.8421 -0.1333  0.3872
    1TCq1    C2    4   0.093   0.039  12.003  0.0900  0.0153 -1.1585
    1TCq1    C3    5   0.005   0.132  11.959  0.1568  0.2004  0.4542
    1TCq1    C4    6   4.598   0.098  11.924 -0.1917 -0.3341 -0.0777
    1TCq1    C5    7   4.564   4.689  11.931 -0.1764 -0.3090  0.3673
    1TCq1    C6    8   4.656   4.593  11.963  0.0927 -0.0145 -0.3574
    1TCq1    C7    9   0.061   4.628  12.005 -0.5753 -0.0188  0.1569
    1TCq1    C8   10   4.625   4.448  11.953 -0.5181 -0.1632 -0.5530
    1TCq1    O4   11   4.510   4.422  11.926  0.1188  0.3048  0.4671
    1TCq1    C9   12   4.495   0.202  11.903  0.6563  0.4758 -0.0146
    1TCq1    O5   13   4.374   0.166  11.903 -0.3586 -0.0284  0.2797
    1TCq1    O6   14   4.530   0.322  11.931  0.7207 -0.8232  0.2182
    1TCq1    H1   15   0.149   0.245  12.056  0.0826  1.8293 -0.8464
    1TCq1    H2   16   0.021   0.239  11.949  0.2840  0.1904  0.5493
    1TCq1    H3   17   4.460   4.662  11.917 -0.2010 -1.3915  2.6130
    1TCq1    H4   18   0.154   4.574  12.018 -1.0443 -0.6530  0.8071
    2MPD2     C   19   0.039   3.964  11.874 -0.2543  0.4585  0.6874
    2MPD2    C1   20   4.635   4.022  11.883 -0.0377 -0.2540  0.0266
    2MPD2    C2   21   4.619   4.157  11.905  0.1660  0.5589 -0.8212
    2MPD2    C3   22   0.013   4.233  11.904  0.1826  0.2972  0.1682
    2MPD2    C4   23   0.135   4.175  11.901  0.1164  0.2750 -0.5379
    2MPD2    C5   24   0.144   4.036  11.893 -0.0312  0.1575 -0.9434
    2MPD2     H   25   4.517   4.189  11.923  0.0351 -0.0069 -0.5396
    2MPD2    H1   26   0.223   4.234  11.924 -0.0123 -0.4883  1.9073
    2MPD2    H2   27   0.052   3.857  11.865 -0.8571  0.6333 -2.1506
    2MPD2    H3   28   0.240   3.990  11.870  0.8768  0.5686  1.9897
    2MPD2     N   29   0.014   4.370  11.937  0.1056 -0.6367 -0.4189
    2MPD2    H5   30   0.108   4.398  11.962 -0.4230 -0.9977  1.9152
    2MPD2    N1   31   4.515   3.952  11.890 -0.0118 -0.1260  0.4494
    2MPD2    H7   32   4.426   3.988  11.924  0.1352 -0.0190  0.7216
    3TCq1    O1   33   3.982   4.697  10.002  0.3682  0.0999 -0.6918
    3TCq1    C1   34   4.101   4.692  10.056 -0.3338  0.2435 -0.6261
    3TCq1    O2   35   4.209   4.678  10.001 -0.0488  0.1123 -0.1454
    3TCq1    C2   36   4.088   0.049  10.179 -0.1567 -0.3114 -0.1110
    3TCq1    C3   37   4.192   0.134  10.218  0.3037  0.4380 -0.4859
    3TCq1    C4   38   4.181   0.192  10.344 -0.0014 -0.4356  0.0435
    3TCq1    C5   39   4.077   0.165  10.429 -0.4614 -0.3479 -0.2484
    3TCq1    C6   40   3.979   0.079  10.382 -0.5235 -0.2743 -0.2353
    3TCq1    C7   41   3.983   0.021  10.258 -0.4312 -0.7694  0.0134
    3TCq1    C8   42   3.874   0.048  10.477  0.4529  0.5248  1.0694
    3TCq1    O4   43   3.801   4.671  10.452 -0.0142  0.4018 -0.3676
    3TCq1    C9   44   4.293   0.269  10.385 -0.0713  0.3611  0.4723
    3TCq1    O5   45   4.319   0.275  10.508  0.1974  0.7424 -0.2293
    3TCq1    O6   46   4.372   0.312  10.297  0.5501  0.3743 -0.0699
    3TCq1    H1   47   3.915   0.038  10.042 -1.2943 -1.8404 -0.5759
    3TCq1    H2   48   4.277   0.155  10.155  0.5239  3.4310  0.7857
    3TCq1    H3   49   4.078   0.199  10.533 -0.3619  1.5399 -0.8617
    3TCq1    H4   50   3.911   4.664  10.229  0.3422 -1.2502 -0.6297
    4MPD2     C   51   3.500   0.100  10.809 -0.2691 -0.0636  0.2206
    4MPD2    C1   52   3.534   0.226  10.771  0.3444  0.3908  0.1642
    4MPD2    C2   53   3.646   0.242  10.691 -0.4238 -0.2479  0.1616
    4MPD2    C3   54   3.717   0.132  10.644  0.1000  0.5590 -0.9991
    4MPD2    C4   55   3.685   0.008  10.693  0.6021  0.1685 -0.7502
    4MPD2    C5   56   3.577   4.712  10.766  0.2217  0.1624  0.3726
    4MPD2     H   57   3.672   0.339  10.651 -1.0121  0.1020  0.6357
    4MPD2    H1   58   3.726   4.629  10.671 -0.4431 -0.6497  0.9302
    4MPD2    H2   59   3.417   0.075  10.875 -0.9830  1.4667 -0.0970
    4MPD2    H3   60   3.546   4.613  10.797  1.0641  0.1659  1.2171
    4MPD2     N   61   3.826   0.153  10.557  1.0201  0.2336 -0.7712
    4MPD2    H5   62   3.866   0.245  10.540 -0.0047  0.6375 -0.9927
    4MPD2    N1   63   3.466   0.339  10.820 -0.1588  0.1127 -0.5159
    4MPD2    H7   64   3.502   0.432  10.800  1.9135 -0.8078 -1.0713
    5TCq1    O1   65   4.101   1.594  12.223  0.4999 -0.4519  0.4192
    5TCq1    C1   66   4.140   1.640  12.098  0.4354  0.1986 -0.2427
    5TCq1    O2   67   4.250   1.643  12.047  0.0630 -0.0229  0.2806
    5TCq1    C2   68   4.021   1.604  12.026  0.2959  0.4805 -0.6580
    5TCq1    C3   69   3.899   1.653  12.063 -0.4009  0.2327  0.1991
    5TCq1    C4   70   3.796   1.624  11.972 -0.5091  0.6677 -1.0037
    5TCq1    C5   71   3.823   1.572  11.852  0.2539  0.1876  0.3856
    5TCq1    C6   72   3.948   1.517  11.824  0.4366 -0.2983  0.3643
    5TCq1    C7   73   4.047   1.541  11.909 -0.8557  0.0684  0.3296
    5TCq1    C8   74   3.987   1.482  11.688  0.7661  0.4316 -0.4057
    5TCq1    O4   75   4.109   1.472  11.670 -0.0755 -0.3592  0.0862
    5TCq1    C9   76   3.665   1.674  12.001  0.1974  0.2643 -0.4533
    5TCq1    O5   77   3.572   1.646  11.922  0.0366  0.5142  0.2580
    5TCq1    O6   78   3.645   1.746  12.100  0.9651 -0.0462 -0.5648
    5TCq1    H1   79   4.006   1.569  12.223  0.3838 -0.0175 -0.5454
    5TCq1    H2   80   3.892   1.706  12.157 -2.4169  0.7381 -0.2409
    5TCq1    H3   81   3.738   1.565  11.784  1.7717 -1.3067 -1.3681
    5TCq1    H4   82   4.150   1.514  11.887 -0.6153  0.4328  0.9930
    6MPD2     C   83   3.763   1.465  11.400  0.3233 -0.2965  0.3644
    6MPD2    C1   84   3.877   1.442  11.471  0.0599 -0.4126  0.4401
    6MPD2    C2   85   3.996   1.407  11.405 -0.2729  0.4804 -0.3576
    6MPD2    C3   86   4.003   1.377  11.267  0.4333 -0.9837  0.7982
    6MPD2    C4   87   3.890   1.410  11.195  0.3772  0.0854 -0.3344
    6MPD2    C5   88   3.775   1.450  11.261 -0.6523  0.0476  0.0484
    6MPD2     H   89   4.085   1.394  11.466  0.8584  0.4763 -2.0140
    6MPD2    H1   90   3.881   1.405  11.087 -3.2373  0.0616 -0.0362
    6MPD2    H2   91   3.669   1.498  11.441 -0.0131  1.8379 -2.1642
    6MPD2    H3   92   3.681   1.466  11.209 -0.0954 -1.1555 -1.3448
    6MPD2     N   93   4.127   1.335  11.209  0.0313 -0.3164 -0.1905
    6MPD2    H5   94   4.197   1.314  11.280  0.6632  1.6946 -0.2203
    6MPD2    N1   95   3.875   1.469  11.611 -0.0160 -0.3901  0.4217
    6MPD2    H7   96   3.789   1.492  11.658  0.8843  1.3474  1.2289
    7TCq1    O1   97   0.523   0.840  12.655  0.6523  0.0880  0.1969
    7TCq1    C1   98   0.536   0.979  12.675 -0.7702 -0.5210  0.6548
    7TCq1    O2   99   0.504   1.068  12.598 -0.2067 -0.6151 -0.2888
    7TCq1    C2  100   0.586   1.007  12.802 -1.1327 -0.7373  0.0755
    7TCq1    C3  101   0.564   1.132  12.856 -0.1846 -0.3598  1.2006
    7TCq1    C4  102   0.619   1.181  12.969  0.3630 -0.6217  0.9165
    7TCq1    C5  103   0.710   1.107  13.034 -0.3829  0.4756  0.2088
    7TCq1    C6  104   0.741   0.986  12.977  0.0656 -0.3030 -0.2788
    7TCq1    C7  105   0.678   0.929  12.870 -0.6850 -0.4957  0.9772
    7TCq1    C8  106   0.821   0.891  13.049 -1.3460 -0.4050 -0.0966
    7TCq1    O4  107   0.815   0.772  13.029  0.5186 -0.4501 -0.0940
    7TCq1    C9  108   0.565   1.298  13.026  0.1012 -0.2738  0.0700
    7TCq1    O5  109   0.627   1.341  13.128  0.0357  0.6423 -0.3711
    7TCq1    O6  110   0.447   1.334  12.992 -0.4933 -0.0366 -0.3807
    7TCq1    H1  111   0.538   0.783  12.734 -1.0695  0.8076  1.0517
    7TCq1    H2  112   0.483   1.192  12.817  1.8600  2.3748  1.1141
    7TCq1    H3  113   0.755   1.147  13.124  1.9501  0.0369 -0.7693
    7TCq1    H4  114   0.713   0.835  12.829 -1.2605 -0.1804 -0.2351
    8MPD2     C  115   1.202   0.767  13.349 -0.0027 -0.0582  0.4766
    8MPD2    C1  116   1.095   0.683  13.308  0.0078  0.1384 -0.5897
    8MPD2    C2  117   0.993   0.746  13.244 -0.2754 -0.2329 -0.0397
    8MPD2    C3  118   1.000   0.883  13.218 -0.2616  0.8780  0.6248
    8MPD2    C4  119   1.107   0.962  13.265 -0.0114  0.0151 -0.2726
    8MPD2    C5  120   1.212   0.903  13.331  0.2760 -0.1407 -0.7202
    8MPD2     H  121   0.908   0.685  13.215  0.6386 -2.2128  1.3920
    8MPD2    H1  122   1.118   1.067  13.240 -0.9829 -0.0102 -0.8297
    8MPD2    H2  123   1.293   0.721  13.385 -0.3567 -0.0156  1.4346
    8MPD2    H3  124   1.298   0.959  13.365 -0.3223  0.0356  0.5173
    8MPD2     N  125   0.901   0.952  13.141 -0.1569 -0.0625 -0.1392
    8MPD2    H5  126   0.917   1.052  13.139  2.1926 -0.4742 -1.3652
    8MPD2    N1  127   1.109   0.546  13.327  0.2581 -0.2490 -0.3870
    8MPD2    H7  128   1.191   0.514  13.378 -0.1039  1.3861  1.2513
    9TCq1    O1  129   4.566   4.427  11.128  0.2980  0.0897  0.1826
    9TCq1    C1  130   4.568   4.450  11.260  0.2852  0.3253 -0.2111
    9TCq1    O2  131   4.488   4.393  11.335  0.2347  0.3830 -0.0883
    9TCq1    C2  132   4.562   4.595  11.259 -0.6495  0.0053  0.2242
    9TCq1    C3  133   4.681   4.662  11.261 -0.3809 -0.5932 -0.1173
    9TCq1    C4  134   4.673   0.063  11.205 -1.0166 -0.5302  0.2936
    9TCq1    C5  135   4.560   0.120  11.161 -0.2104 -0.3914  0.2225
    9TCq1    C6  136   4.438   0.057  11.185  0.4579  0.0914 -0.5459
    9TCq1    C7  137   4.440   4.649  11.235  0.3600 -0.4273 -0.0376
    9TCq1    C8  138   4.316   0.139  11.177 -0.6219  0.0074 -0.6345
    9TCq1    O4  139   4.324   0.245  11.117  0.3305 -0.5953  0.2223
    9TCq1    C9  140   0.074   0.141  11.199 -0.2600 -0.3524 -0.1376
    9TCq1    O5  141   0.175   0.080  11.237  0.0403  0.1364 -0.3624
    9TCq1    O6  142   0.064   0.264  11.174 -0.0859 -0.1839 -0.2616
    9TCq1    H1  143   4.640   4.477  11.089 -1.9424  2.5730 -0.8793
    9TCq1    H2  144   0.053   4.609  11.284  0.2862  0.3254 -0.6253
    9TCq1    H3  145   4.561   0.225  11.135  2.3806  0.0367  1.9897
    9TCq1    H4  146   4.352   4.586  11.231  2.2448 -3.3156  3.8788
   10MPD2     C  147   4.064   0.283  11.259 -0.3946  0.7940  0.0937
   10MPD2    C1  148   4.095   0.147  11.293 -0.0082 -0.2138  0.1509
   10MPD2    C2  149   4.010   0.083  11.378 -0.7758 -0.3597  0.7176
   10MPD2    C3  150   3.901   0.155  11.441 -0.3413  0.0816  0.2642
   10MPD2    C4  151   3.887   0.290  11.423 -0.4064 -0.3012 -0.6173
   10MPD2    C5  152   3.958   0.343  11.316 -0.1913  0.0773  0.4071
   10MPD2     H  153   4.029   4.698  11.398  3.0200  0.2254  0.1057
   10MPD2    H1  154   3.821   0.346  11.489 -0.5612 -0.4880 -0.6135
   10MPD2    H2  155   4.123   0.351  11.197  1.4283 -0.5793  0.3173
   10MPD2    H3  156   3.946   0.449  11.303 -1.6186 -0.0819  0.4818
   10MPD2     N  157   3.821   0.093  11.542  0.6516  0.6445 -0.4691
   10MPD2    H5  158   3.773   0.150  11.610 -1.0596  0.3759 -1.4443
   10MPD2    N1  159   4.215   0.080  11.249 -0.8349 -0.7801 -0.1861
   10MPD2    H7  160   4.243   4.716  11.300 -0.5578 -1.6227 -1.6858
   11TCq1    O1  161   3.800   4.365  14.823  0.2599 -0.3115 -0.4528
   11TCq1    C1  162   3.859   4.384  14.702 -0.2287 -1.2477 -0.7147
   11TCq1    O2  163   3.854   4.489  14.644 -0.0118 -0.1669  0.0806
   11TCq1    C2  164   3.979   4.300  14.707 -0.4662  0.1907 -0.0982
   11TCq1    C3  165   4.069   4.346  14.801  0.0277 -0.4569 -0.0218
   11TCq1    C4  166   4.196   4.320  14.793 -0.6625  0.4257 -0.3157
   11TCq1    C5  167   4.248   4.238  14.697  0.1019 -0.2885 -0.0679
   11TCq1    C6  168   4.153   4.201  14.596 -0.3042 -0.2483 -0.0263
   11TCq1    C7  169   4.018   4.230  14.597 -0.6182 -0.0808  0.1820
   11TCq1    C8  170   4.194   4.112  14.489  0.4699  0.3774 -0.0296
   11TCq1    O4  171   4.104   4.088  14.406  0.3608 -0.0617 -0.1237
   11TCq1    C9  172   4.287   4.352  14.905  0.0274 -0.7601  0.1305
   11TCq1    O5  173   4.261   4.452  14.983 -0.5477 -0.2583 -0.1412
   11TCq1    O6  174   4.401   4.307  14.894  0.1650 -0.1924 -0.1792
   11TCq1    H1  175   3.831   4.280  14.861  1.0890 -0.1954 -0.8622
   11TCq1    H2  176   4.034   4.415  14.877 -0.4581 -0.6522 -0.0694
   11TCq1    H3  177   4.350   4.201  14.689 -0.0468 -0.2405 -2.2762
   11TCq1    H4  178   3.944   4.206  14.522 -0.3004  0.0369 -0.1715
   12MPD2     C  179   4.528   4.000  14.362  0.3628  0.2697 -0.4347
   12MPD2    C1  180   4.391   3.992  14.375  0.0701 -0.0968 -0.1080
   12MPD2    C2  181   4.323   3.912  14.284  0.4284  0.2611  0.4512
   12MPD2    C3  182   4.388   3.842  14.187 -0.0603 -0.4792 -0.8481
   12MPD2    C4  183   4.523   3.835  14.190  0.5418  0.9941 -0.3164
   12MPD2    C5  184   4.592   3.914  14.277 -0.3332  0.1260  0.3239
   12MPD2     H  185   4.214   3.909  14.280  0.4902 -2.2227  0.6112
   12MPD2    H1  186   4.585   3.766  14.134 -0.5627 -0.5287  0.3274
   12MPD2    H2  187   4.578   4.063  14.435  0.8210 -0.4011 -0.1686
   12MPD2    H3  188   4.700   3.908  14.275 -0.5004 -2.4103 -1.4230
   12MPD2     N  189   4.320   3.747  14.108 -0.4297 -0.1901  0.8385
   12MPD2    H5  190   4.386   3.680  14.071 -1.2379  0.1527 -1.2193
   12MPD2    N1  191   4.327   4.074  14.475  0.1969 -0.0367 -0.0220
   12MPD2    H7  192   4.389   4.116  14.543 -0.0232  0.4401 -0.1174
   13TCq1    O1  193   4.307   0.465  11.599  0.1008  0.2587  0.2211
   13TCq1    C1  194   4.387   0.424  11.499 -0.8374 -0.5377  0.0779
   13TCq1    O2  195   4.443   0.506  11.427 -0.0966 -0.1867 -0.7322
   13TCq1    C2  196   4.430   0.287  11.524  0.1516  0.3928 -0.2603
   13TCq1    C3  197   4.565   0.261  11.528  0.4131  0.1983  0.6665
   13TCq1    C4  198   4.607   0.138  11.577 -1.0796 -0.2607  0.4847
   13TCq1    C5  199   4.511   0.043  11.609  0.3298 -0.1128  0.1202
   13TCq1    C6  200   4.379   0.076  11.600 -0.5146 -0.0329 -0.0444
   13TCq1    C7  201   4.335   0.198  11.565  0.1931  0.6868 -0.0873
   13TCq1    C8  202   4.286   4.695  11.638 -0.3798  0.2999 -0.4623
   13TCq1    O4  203   4.180   0.016  11.691  0.0638  0.7415 -0.2007
   13TCq1    C9  204   0.026   0.115  11.563  0.1838 -0.2887 -0.2029
   13TCq1    O5  205   0.063   4.715  11.565 -0.4391  0.4773  0.2774
   13TCq1    O6  206   0.105   0.214  11.563  0.0482  0.5803  0.3105
   13TCq1    H1  207   4.273   0.389  11.651 -0.0283  1.2488  1.5820
   13TCq1    H2  208   4.633   0.335  11.490 -0.7983  1.0838  0.2387
   13TCq1    H3  209   4.547   4.668  11.651  0.1780 -0.0167  0.4643
   13TCq1    H4  210   4.231   0.207  11.539  0.5821  3.1365 -0.7131
   14MPD2     C  211   4.331   4.344  11.693 -0.1138  0.2353  0.4052
   14MPD2    C1  212   4.259   4.454  11.660 -0.2509  0.3013  0.4732
   14MPD2    C2  213   4.121   4.442  11.643  0.4081 -0.0264  0.3088
   14MPD2    C3  214   4.051   4.320  11.650 -0.6163 -0.8925  0.2273
   14MPD2    C4  215   4.132   4.208  11.676  1.0182  0.3358  0.1550
   14MPD2    C5  216   4.268   4.225  11.702  0.0333  0.8083 -0.2347
   14MPD2     H  217   4.072   4.530  11.602  1.4609  0.4353  0.0563
   14MPD2    H1  218   4.093   4.108  11.680  0.6468  0.5043  0.6304
   14MPD2    H2  219   4.435   4.348  11.724  0.1816 -2.4795 -0.3185
   14MPD2    H3  220   4.324   4.143  11.743 -1.0398 -0.2535 -0.8840
   14MPD2     N  221   3.919   4.304  11.604  0.7490 -0.0822  0.0488
   14MPD2    H5  222   3.874   4.394  11.584 -1.1018 -0.7745  1.0523
   14MPD2    N1  223   4.331   4.567  11.632 -0.1513 -0.2471  0.6740
   14MPD2    H7  224   4.428   4.559  11.602 -0.1876  0.5037  0.3572
   15TCq1    O1  225   4.670   3.930   2.340 -0.6215 -0.1639 -0.0036
   15TCq1    C1  226   0.054   3.914   2.256 -0.5059 -0.0055  0.3702
   15TCq1    O2  227   0.084   3.978   2.156  0.5697 -0.4956 -0.2731
   15TCq1    C2  228   0.098   3.778   2.268 -0.5477  0.0597 -0.0415
   15TCq1    C3  229   0.127   3.737   2.395  0.2451  0.5100  0.1641
   15TCq1    C4  230   0.186   3.614   2.411  0.0633  0.2384  0.8549
   15TCq1    C5  231   0.216   3.529   2.304  0.1812 -0.3047  0.0340
   15TCq1    C6  232   0.194   3.578   2.179 -0.1706 -0.4067 -0.6258
   15TCq1    C7  233   0.131   3.701   2.160  0.2858 -0.4619  0.4711
   15TCq1    C8  234   0.231   3.491   2.059  0.0629  0.1479 -0.4864
   15TCq1    O4  235   0.289   3.392   2.091  0.4715  0.6817  0.1513
   15TCq1    C9  236   0.229   3.570   2.544  0.9900 -0.2464 -0.1376
   15TCq1    O5  237   0.240   3.452   2.580 -0.8928  0.3118 -0.2155
   15TCq1    O6  238   0.245   3.666   2.627 -0.6616  0.1377  0.8485
   15TCq1    H1  239   4.661   3.851   2.398  0.6537 -0.1435  0.2237
   15TCq1    H2  240   0.102   3.784   2.489 -0.3463  2.1393 -0.7921
   15TCq1    H3  241   0.260   3.432   2.324  2.1044  1.0463  2.2912
   15TCq1    H4  242   0.115   3.745   2.062  0.4349  1.9413  1.5249
   16MPD2     C  243   0.056   3.447   1.751  0.3140  1.1469  0.5688
   16MPD2    C1  244   0.163   3.437   1.835 -0.2181  0.0216 -0.5562
   16MPD2    C2  245   0.276   3.368   1.797 -0.3147 -0.3386 -0.0967
   16MPD2    C3  246   0.282   3.299   1.674 -0.1199 -0.2558  0.4850
   16MPD2    C4  247   0.168   3.301   1.593 -0.2331  0.0073 -0.0842
   16MPD2    C5  248   0.058   3.377   1.632 -0.0947 -0.8517 -0.3428
   16MPD2     H  249   0.360   3.364   1.866  0.1141  4.1300 -0.3968
   16MPD2    H1  250   0.154   3.253   1.496 -2.8433 -0.5633  0.5827
   16MPD2    H2  251   4.685   3.498   1.783 -1.6975  0.5435 -4.2652
   16MPD2    H3  252   4.683   3.383   1.579  0.9231  2.2455 -1.7698
   16MPD2     N  253   0.406   3.234   1.633  0.5982 -0.4977  0.3766
   16MPD2    H5  254   0.486   3.245   1.695  0.5296 -3.0647  0.9316
   16MPD2    N1  255   0.162   3.519   1.944  0.3654 -0.1666 -1.2868
   16MPD2    H7  256   0.083   3.584   1.942  0.0470 -0.5134  0.6854
   17TCq1    O1  257   4.680   4.488  11.567 -0.1475 -0.1111  0.4730
   17TCq1    C1  258   4.717   4.365  11.607  0.0938  0.3772  0.5112
   17TCq1    O2  259   4.641   4.267  11.609  0.1311  0.0953 -0.1375
   17TCq1    C2  260   0.142   4.341  11.577 -0.2936 -0.1208  0.3903
   17TCq1    C3  261   0.215   4.433  11.510 -0.0302 -0.5492  0.3313
   17TCq1    C4  262   0.333   4.399  11.458 -0.3397 -0.1961 -0.0086
   17TCq1    C5  263   0.383   4.276  11.460 -0.2108 -0.0868 -0.2399
   17TCq1    C6  264   0.304   4.182  11.522  0.4972 -0.1947 -0.0006
   17TCq1    C7  265   0.182   4.212  11.582  0.4456  0.1511  0.0128
   17TCq1    C8  266   0.333   4.045  11.522  0.4857 -0.7427 -0.5955
   17TCq1    O4  267   0.274   3.967  11.596  0.1456  0.1816  0.5108
   17TCq1    C9  268   0.401   4.497  11.383  0.1641 -0.0039  0.6339
   17TCq1    O5  269   0.503   4.473  11.321 -0.1736 -0.6732  0.2848
   17TCq1    O6  270   0.361   4.613  11.391 -0.2492 -0.6000  0.9330
   17TCq1    H1  271   0.027   4.560  11.577  1.5239 -1.3794 -1.3229
   17TCq1    H2  272   0.178   4.533  11.490  1.7848  0.3371  1.4698
   17TCq1    H3  273   0.476   4.258  11.406  0.3350  0.3196  0.5703
   17TCq1    H4  274   0.127   4.135  11.635  2.6849 -0.4956  1.3617
   18MPD2     C  275   0.411   3.775  11.424  0.0181  0.1191 -0.5157
   18MPD2    C1  276   0.441   3.889  11.360 -0.8861  1.1300  0.6158
   18MPD2    C2  277   0.494   3.896  11.234 -0.5104 -0.4599  0.1915
   18MPD2    C3  278   0.518   3.770  11.172  0.0901  0.3004 -0.4925
   18MPD2    C4  279   0.493   3.656  11.242 -0.2734  0.3210 -0.2261
   18MPD2    C5  280   0.421   3.663  11.354  0.0475 -0.5435 -0.2312
   18MPD2     H  281   0.520   3.994  11.195 -1.0430 -0.9024 -1.2891
   18MPD2    H1  282   0.520   3.569  11.183 -1.0869 -0.3992  0.4555
   18MPD2    H2  283   0.358   3.769  11.518  1.1472  2.0710  0.2405
   18MPD2    H3  284   0.391   3.575  11.409 -1.0004  1.3811  2.2463
   18MPD2     N  285   0.555   3.757  11.030 -0.2788 -0.5413  0.1737
   18MPD2    H5  286   0.577   3.666  10.992 -0.8827 -0.6078 -0.0135
   18MPD2    N1  287   0.405   4.016  11.412 -0.0284 -0.2864 -0.8646
   18MPD2    H7  288   0.421   4.095  11.350  3.2098 -0.8815 -0.7614
   19TMC2    C1  289   0.793   3.796  13.941 -0.2297 -0.0611 -0.0276
   19TMC2    C2  290   0.732   3.859  13.837 -0.4870  0.0546 -0.0419
   19TMC2    C3  291   0.604   3.831  13.811  0.9157  0.1677 -0.6722
   19TMC2    C4  292   0.733   3.703  14.018 -0.1341 -0.5177 -1.2927
   19TMC2    C5  293   0.603   3.676  13.986 -0.1976  0.2518 -0.0832
   19TMC2    C6  294   0.535   3.732  13.879 -0.2098 -0.4390  0.0574
   19TMC2     C  295   0.927   3.832  13.979 -0.1261 -0.6493 -0.0251
   19TMC2     O  296   0.966   3.942  13.936 -1.0079  0.2948 -0.3258
   19TMC2     H  297   0.784   3.930  13.774  0.2890 -1.6466 -1.3279
   19TMC2    H1  298   0.780   3.669  14.109 -2.0450 -1.7488 -0.7713
   19TMC2    H2  299   0.432   3.711  13.853  0.0354 -0.4141 -0.9356
   19TMC2    C7  300   0.534   3.574  14.058 -0.3590 -0.8550 -0.3204
   19TMC2    C8  301   0.541   3.897  13.700 -0.2900 -0.0354  0.2417
   19TMC2    O1  302   0.439   3.515  14.005  0.6887  0.6739  0.1541
   19TMC2    O2  303   0.604   3.956  13.608  0.2571  0.2721  0.1322
   19TMC2    O5  304   0.405   3.889  13.716 -0.1724 -0.0123 -0.4891
   19TMC2    H5  305   0.373   3.881  13.808 -0.1648  1.3882 -0.3621
   20MPD2     C  306   1.193   3.882  14.111 -0.3635  0.1961 -0.4651
   20MPD2    C1  307   1.117   3.770  14.121 -0.2754  0.4162  0.1281
   20MPD2    C2  308   1.167   3.669  14.197 -0.6792  0.1163 -0.9334
   20MPD2    C3  309   1.287   3.676  14.260  0.1689  0.7109  0.7805
   20MPD2    C4  310   1.360   3.795  14.253  1.0176  0.1792  0.0038
   20MPD2    C5  311   1.311   3.894  14.182 -0.1396 -0.9367  0.3517
   20MPD2     H  312   1.107   3.580  14.209 -0.3373 -0.0305 -0.3489
   20MPD2    H1  313   1.442   3.821  14.319  0.0426  2.4327  0.3051
   20MPD2    H2  314   1.174   3.967  14.047  0.3961  0.3092 -0.5376
   20MPD2    H3  315   1.372   3.982  14.163 -1.0217 -0.5729 -0.8302
   20MPD2     N  316   1.328   3.587  14.357  0.0085  0.1312  0.3416
   20MPD2    H5  317   1.415   3.611  14.404 -0.4586  0.7622  0.8941
   20MPD2    N1  318   0.989   3.745  14.070  0.1226 -0.1790  0.4793
   20MPD2    H7  319   0.959   3.648  14.067  0.9142 -0.3298 -2.4819
   21MPD2     C  320   3.051   3.966  14.120 -0.0789  0.1051 -0.1147
   21MPD2    C1  321   3.134   3.901  14.211  0.0606 -0.1609  0.1725
   21MPD2    C2  322   3.112   3.922  14.348  0.4566  0.5420  0.1951
   21MPD2    C3  323   3.001   3.980  14.396 -0.7700 -0.2434  0.1040
   21MPD2    C4  324   2.922   4.047  14.304 -0.4071 -0.5505 -0.0256
   21MPD2    C5  325   2.945   4.039  14.172  0.4041  0.5008 -0.4169
   21MPD2     H  326   3.179   3.866  14.412 -1.7506 -1.5630  0.6760
   21MPD2    H1  327   2.836   4.106  14.333  0.6619  0.0176  2.0034
   21MPD2    H2  328   3.065   3.969  14.013  1.5643  0.9051  0.1378
   21MPD2    H3  329   2.877   4.091  14.105  0.7281  2.4007  0.7352
   21MPD2     N  330   2.962   3.981  14.527 -0.2004  0.1444  0.1289
   21MPD2    H5  331   2.866   4.014  14.538 -0.4532 -1.0867  1.6362
   21MPD2    N1  332   3.249   3.844  14.164 -0.0627 -0.3362  0.3333
   21MPD2    H7  333   3.306   3.808  14.240  0.0836 -3.0076 -1.0743
   22TCq2    C1  334   3.011   3.903  14.629 -0.0226 -0.7196  0.4327
   22TCq2    O2  335   3.090   3.806  14.621 -0.7188  0.1062 -0.0708
   22TCq2    C2  336   2.936   3.922  14.747 -0.4988 -1.2037 -0.3101
   22TCq2    C3  337   2.956   3.835  14.853  0.0859  0.3797 -0.0960
   22TCq2    C4  338   2.911   3.855  14.976  0.2530  0.8049 -0.9857
   22TCq2    C5  339   2.858   3.979  15.002 -0.6084  0.4295 -0.1174
   22TCq2    C6  340   2.851   4.075  14.900  0.4648 -0.0797  0.0834
   22TCq2    C7  341   2.895   4.051  14.775 -0.7277 -0.3325  0.5021
   22TCq2    C8  342   2.765   4.194  14.929 -0.1503 -0.2822 -0.4231
   22TCq2    O4  343   2.744   4.216  15.047 -0.7114  0.0376  0.0670
   22TCq2    C9  344   2.938   3.758  15.078  0.2586  0.0916 -0.0842
   22TCq2    O5  345   2.915   3.795  15.195  0.1018  0.5223  0.1357
   22TCq2    O6  346   3.004   3.654  15.050 -0.4342 -0.2732 -0.2052
   22TCq2    H2  347   3.010   3.743  14.835 -0.3670  0.2749 -0.9075
   22TCq2    H3  348   2.819   4.000  15.101 -1.2509  1.5402 -0.6094
   22TCq2    H4  349   2.913   4.135  14.709 -0.6881 -1.3117 -0.7342
   23MPD2     C  350   4.529   0.741  14.968 -0.2193 -1.0326  0.1342
   23MPD2    C1  351   4.450   0.633  14.954  0.9658  0.2523  0.3321
   23MPD2    C2  352   4.376   0.618  14.839 -0.2699  0.1446  0.1201
   23MPD2    C3  353   4.381   0.716  14.742 -0.0427  0.3753 -0.0322
   23MPD2    C4  354   4.464   0.822  14.756  0.3903  1.2678 -0.8004
   23MPD2    C5  355   4.542   0.836  14.867  0.1938 -0.4148  0.2658
   23MPD2     H  356   4.310   0.533  14.825 -0.1455 -0.0407  0.6264
   23MPD2    H1  357   4.470   0.904  14.685 -0.3529  2.3135  0.3561
   23MPD2    H2  358   4.583   0.754  15.061 -1.0078  0.8277  0.3348
   23MPD2    H3  359   4.598   0.927  14.886 -1.3333  0.6467 -0.3247
   23MPD2     N  360   4.305   0.709  14.617 -0.0423 -0.2992  0.4751
   23MPD2    H5  361   4.330   0.788  14.559 -1.4384 -0.4272 -0.2990
   23MPD2    N1  362   4.440   0.542  15.059 -0.6533  0.0620  0.3572
   23MPD2    H7  363   4.501   0.554  15.139 -1.2133 -0.6732  0.8916
   24TCq2    C1  364   4.217   0.607  14.584  0.8963 -0.2252  0.7441
   24TCq2    O2  365   4.165   0.517  14.651  0.1683 -0.2468  0.3106
   24TCq2    C2  366   4.199   0.615  14.444  0.0740  0.3709 -0.9582
   24TCq2    C3  367   4.284   0.679  14.362 -0.5460  1.0525  0.5384
   24TCq2    C4  368   4.271   0.671  14.222  0.3739 -0.3592  0.3141
   24TCq2    C5  369   4.165   0.611  14.160 -0.2613 -1.0504  0.0769
   24TCq2    C6  370   4.077   0.547  14.247  0.1945  0.1307 -0.9101
   24TCq2    C7  371   4.085   0.552  14.387  0.5247 -0.1750 -0.7212
   24TCq2    C8  372   3.991   0.455  14.170  0.4286  0.5342 -0.6782
   24TCq2    O4  373   4.036   0.410  14.064 -0.2175 -0.1273 -0.0243
   24TCq2    C9  374   4.374   0.731  14.146  0.8540  0.5014  0.0791
   24TCq2    O5  375   4.444   0.823  14.204  0.5947  0.0037  0.4971
   24TCq2    O6  376   4.354   0.730  14.026  0.2604  0.0627  0.6375
   24TCq2    H2  377   4.380   0.720  14.391  1.0707 -2.9291  0.8039
   24TCq2    H3  378   4.163   0.614  14.051 -1.8443 -1.3656  0.0938
   24TCq2    H4  379   4.015   0.498  14.450  2.6669 -1.0554  0.9230
   25TMC2    C1  380   3.675   3.167  11.546  0.2844  0.2667  0.0898
   25TMC2    C2  381   3.723   3.282  11.608  0.4023  0.0196  0.8319
   25TMC2    C3  382   3.660   3.324  11.725  0.3189 -1.2053 -0.2655
   25TMC2    C4  383   3.564   3.104  11.594  0.1717  0.3258  0.8785
   25TMC2    C5  384   3.498   3.151  11.705  0.1325 -0.9697 -0.1205
   25TMC2    C6  385   3.544   3.261  11.775 -0.7123 -0.6722 -0.3160
   25TMC2     C  386   3.715   3.148  11.408  0.6887 -0.2797  0.8958
   25TMC2     O  387   3.804   3.224  11.365  0.1460 -0.7533  0.0959
   25TMC2     H  388   3.817   3.328  11.581  0.2091  0.7217  1.3520
   25TMC2    H1  389   3.525   3.030  11.525  3.1448 -0.2986 -0.1362
   25TMC2    H2  390   3.502   3.301  11.867 -0.2833  0.3200 -0.5496
   25TMC2    C7  391   3.362   3.114  11.730  0.3368 -0.3530  0.1007
   25TMC2    C8  392   3.734   3.420  11.803  0.2180 -0.3557 -0.3471
   25TMC2    O1  393   3.344   2.992  11.721 -0.0126 -0.0166  0.3213
   25TMC2    O2  394   3.713   3.434  11.922 -0.2659  0.5286 -0.3540
   25TMC2    O5  395   3.784   3.524  11.723  0.9756 -0.1190  0.1595
   25TMC2    H5  396   3.769   3.519  11.626 -0.6133  3.1102  0.2416
   26MPD2     C  397   3.644   2.969  10.914  0.5337  0.1717 -0.6046
   26MPD2    C1  398   3.580   2.887  11.001 -0.4555 -0.4792 -0.1379
   26MPD2    C2  399   3.579   2.919  11.141  0.0279 -0.3756  0.8637
   26MPD2    C3  400   3.661   3.019  11.190  0.1376  0.7335  1.1595
   26MPD2    C4  401   3.734   3.090  11.098  0.0870 -0.5119  0.3060
   26MPD2    C5  402   3.721   3.069  10.963  0.9164 -0.0053  0.7019
   26MPD2     H  403   3.516   2.859  11.206 -0.8462 -0.1624  0.2240
   26MPD2    H1  404   3.808   3.161  11.132  0.3024 -0.3161 -0.5864
   26MPD2    H2  405   3.638   2.956  10.807 -2.6247  0.0780 -0.3967
   26MPD2    H3  406   3.790   3.116  10.893  2.0323 -1.2500  0.9565
   26MPD2     N  407   3.652   3.047  11.328  0.3971 -0.0584 -0.1862
   26MPD2    H5  408   3.592   2.990  11.386 -0.8576  2.4808  1.0210
   26MPD2    N1  409   3.507   2.778  10.948 -0.1258 -0.0436 -0.0345
   26MPD2    H7  410   3.515   2.771  10.847  0.1027  1.7953 -0.1405
   27TMC2    C1  411   1.650   4.563  11.834 -0.1368  0.0192 -0.1447
   27TMC2    C2  412   1.576   4.527  11.726  0.3262  0.3193 -0.3256
   27TMC2    C3  413   1.565   4.621  11.623  0.4461  0.3275  1.3144
   27TMC2    C4  414   1.686   4.698  11.856  1.4438  0.1378 -0.6591
   27TMC2    C5  415   1.684   0.063  11.750  0.0308 -0.1209  0.0751
   27TMC2    C6  416   1.616   0.031  11.634 -0.3476  0.3108 -0.0956
   27TMC2     C  417   1.680   4.455  11.924 -0.4983 -0.1137 -0.2182
   27TMC2     O  418   1.665   4.341  11.887  0.1097 -0.1494  0.0284
   27TMC2     H  419   1.547   4.423  11.710  0.9339  0.3433 -1.6474
   27TMC2    H1  420   1.738   0.008  11.947 -0.3001  0.8814  0.1032
   27TMC2    H2  421   1.622   0.094  11.545  2.3722  0.9181  0.4919
   27TMC2    C7  422   1.716   0.199  11.790  0.8292  1.2769 -0.4983
   27TMC2    C8  423   1.474   4.586  11.509  0.0888 -0.0978  0.1788
   27TMC2    O1  424   1.776   0.201  11.895 -0.1103  0.6323 -0.0849
   27TMC2    O2  425   1.443   4.470  11.486 -0.4699  0.4993 -0.5522
   27TMC2    O5  426   1.426   4.700  11.455 -0.1621 -0.1457  0.0398
   27TMC2    H5  427   1.459   0.061  11.502 -1.7284 -0.6438  1.9745
   28MPD2     C  428   1.687   4.302  12.421 -0.4130  0.8951 -0.0917
   28MPD2    C1  429   1.714   4.439  12.413  0.2356 -0.3013  0.5277
   28MPD2    C2  430   1.707   4.498  12.291 -0.2060  0.4403 -1.0607
   28MPD2    C3  431   1.692   4.428  12.172  0.6692  0.1100  0.0038
   28MPD2    C4  432   1.697   4.288  12.178 -0.0671 -0.5795 -0.5125
   28MPD2    C5  433   1.682   4.232  12.301  0.1952 -0.4581  0.0488
   28MPD2     H  434   1.702   4.605  12.277 -0.3913  0.1410 -3.2844
   28MPD2    H1  435   1.695   4.221  12.094  0.2691  0.3000 -1.2246
   28MPD2    H2  436   1.694   4.246  12.514  3.3612  0.0857 -0.8959
   28MPD2    H3  437   1.682   4.124  12.302  1.1902 -0.4601  0.4865
   28MPD2     N  438   1.698   4.499  12.051  0.0400  0.0213  0.2270
   28MPD2    H5  439   1.720   4.596  12.068  0.5905 -0.5213  2.7038
   28MPD2    N1  440   1.696   4.516  12.529  0.1582 -0.1565  1.1091
   28MPD2    H7  441   1.672   4.463  12.613  0.4446 -1.8529  0.1177
   29MPD2     C  442   1.468   2.175  13.759  0.0778 -0.8129  0.3804
   29MPD2    C1  443   1.543   2.120  13.864 -0.3733  0.3495  0.5685
   29MPD2    C2  444   1.535   2.194  13.982 -0.7634  0.1481 -0.2898
   29MPD2    C3  445   1.478   2.321  13.987  0.5735  0.3111  0.1359
   29MPD2    C4  446   1.386   2.357  13.889  0.0047 -0.1224 -0.2086
   29MPD2    C5  447   1.383   2.287  13.772 -0.0557 -0.6487 -0.1179
   29MPD2     H  448   1.587   2.145  14.063 -1.0154 -1.7845 -1.3097
   29MPD2    H1  449   1.335   2.453  13.898 -0.5578 -0.5400  1.2475
   29MPD2    H2  450   1.477   2.137  13.658  0.6203  0.9036 -0.2205
   29MPD2    H3  451   1.339   2.323  13.680 -0.1479  0.5390  0.3830
   29MPD2     N  452   1.480   2.405  14.104  0.5500 -0.1946  0.3006
   29MPD2    H5  453   1.417   2.482  14.126 -1.7304 -1.9673 -0.0680
   29MPD2    N1  454   1.620   1.997  13.857 -0.1718 -0.5694 -0.5167
   29MPD2    H7  455   1.683   1.978  13.935 -3.5318 -0.9302  2.1353
   30TCq2    C1  456   1.563   2.375  14.210 -0.5615  0.6316 -0.2791
   30TCq2    O2  457   1.617   2.273  14.244  0.2093  0.3534 -0.2724
   30TCq2    C2  458   1.563   2.489  14.300  0.3024 -0.4320  0.5950
   30TCq2    C3  459   1.582   2.467  14.435 -0.4076  0.5822  0.3619
   30TCq2    C4  460   1.579   2.578  14.522  0.5104 -0.5493  0.2747
   30TCq2    C5  461   1.570   2.710  14.481 -0.2504 -0.1822  0.5072
   30TCq2    C6  462   1.562   2.727  14.351  0.1099  0.3102 -0.2279
   30TCq2    C7  463   1.550   2.624  14.254  0.5209 -0.0361 -0.5625
   30TCq2    C8  464   1.612   2.849  14.291  0.0539 -0.3122  0.2428
   30TCq2    O4  465   1.571   2.882  14.180 -0.5659  0.0620  0.2389
   30TCq2    C9  466   1.571   2.545  14.663 -0.2828  0.2858  0.4243
   30TCq2    O5  467   1.599   2.429  14.697 -0.6682  0.4556  0.1399
   30TCq2    O6  468   1.590   2.642  14.737 -0.0981 -0.5082  0.2125
   30TCq2    H2  469   1.613   2.376  14.485  0.4028  1.1569  0.9003
   30TCq2    H3  470   1.558   2.787  14.556  1.1107  0.0948  0.4391
   30TCq2    H4  471   1.547   2.647  14.148  1.4115  0.5680 -0.4571
   31MPD2     C  472   4.511   1.292  14.613 -0.1175  0.3496  0.3086
   31MPD2    C1  473   4.373   1.303  14.597  0.1410 -0.1504  0.2501
   31MPD2    C2  474   4.290   1.234  14.680 -0.1398  1.2380  0.7297
   31MPD2    C3  475   4.341   1.159  14.782 -0.3417 -0.8310 -0.4632
   31MPD2    C4  476   4.474   1.176  14.806  0.2395  0.3064  0.0413
   31MPD2    C5  477   4.560   1.241  14.728  1.3692  0.3181  0.1230
   31MPD2     H  478   4.182   1.246  14.681 -0.4705 -1.3326 -2.7367
   31MPD2    H1  479   4.517   1.128  14.893  2.7100 -1.1122 -1.9500
   31MPD2    H2  480   4.576   1.342  14.542  0.9566 -2.2740 -0.5399
   31MPD2    H3  481   4.660   1.254  14.766  1.8222 -3.3031  0.2433
   31MPD2     N  482   4.260   1.074  14.862  0.2741 -0.1235  0.4723
   31MPD2    H5  483   4.295   1.032  14.947  1.8747  2.2548  0.9684
   31MPD2    N1  484   4.327   1.386  14.492  0.5656 -0.2477  0.1901
   31MPD2    H7  485   4.400   1.427  14.433 -2.7650  1.4038 -2.7653
   32TCq2    C1  486   4.137   1.028  14.813 -0.0278 -0.3008  0.3196
   32TCq2    O2  487   4.063   1.055  14.716  0.3547  0.5601  0.2947
   32TCq2    C2  488   4.071   0.936  14.905 -0.4176 -0.0891  0.2936
   32TCq2    C3  489   3.951   0.890  14.861  0.2316 -0.4628  0.2592
   32TCq2    C4  490   3.893   0.787  14.933 -0.3409  0.1977  0.2607
   32TCq2    C5  491   3.947   0.736  15.046  0.0041 -0.0832 -0.4589
   32TCq2    C6  492   4.073   0.778  15.081  0.2859  0.4679 -0.4844
   32TCq2    C7  493   4.133   0.879  15.009  0.6583  0.5459 -0.4801
   32TCq2    C8  494   4.102   0.771  15.218  0.4886 -0.1731  0.4119
   32TCq2    O4  495   4.216   0.800  15.253  0.3237  0.4236  0.4800
   32TCq2    C9  496   3.774   0.721  14.884 -0.1951  0.0863 -0.1621
   32TCq2    O5  497   3.725   0.768  14.776  0.6676 -0.0714  0.2611
   32TCq2    O6  498   3.713   0.651  14.971  0.4400  0.1125 -0.2212
   32TCq2    H2  499   3.900   0.910  14.767 -0.0353 -1.3597  0.2044
   32TCq2    H3  500   3.908   0.645  15.090 -0.7430  0.9024  0.9135
   32TCq2    H4  501   4.239   0.878  15.030  0.5359  1.1486  0.1671
   33MPD2     C  502   0.781   4.110  10.233  0.0952 -0.3155 -0.2517
   33MPD2    C1  503   0.654   4.083  10.286 -0.9166 -0.2362  0.0851
   33MPD2    C2  504   0.537   4.122  10.220 -0.2748  0.6042 -0.3278
   33MPD2    C3  505   0.554   4.188  10.098 -0.0538 -0.1328 -0.3214
   33MPD2    C4  506   0.677   4.196  10.041  0.2605 -0.9061  0.2582
   33MPD2    C5  507   0.789   4.153  10.104  0.1206  0.3396 -0.5618
   33MPD2     H  508   0.445   4.099  10.271 -1.2557  2.0341 -1.4569
   33MPD2    H1  509   0.686   4.221   9.936 -0.3186 -2.7428 -0.2141
   33MPD2    H2  510   0.873   4.088  10.285  0.9388 -0.0692 -1.6304
   33MPD2    H3  511   0.883   4.171  10.053  0.7691  0.1930  0.5808
   33MPD2     N  512   0.455   4.227  10.012  0.0959 -0.1264  0.6185
   33MPD2    H5  513   0.476   4.272   9.923 -1.4094  2.2995  1.4989
   33MPD2    N1  514   0.629   4.012  10.407 -0.1808  0.4418 -0.4454
   33MPD2    H7  515   0.534   4.000  10.441 -0.1362 -1.5893 -1.0272
   34TCq2    C1  516   0.321   4.204  10.030  0.4293  1.0846  1.0210
   34TCq2    O2  517   0.263   4.143  10.117  0.3829  0.4549 -0.7430
   34TCq2    C2  518   0.235   4.259   9.925 -0.4214  0.1171  0.2313
   34TCq2    C3  519   0.105   4.230   9.929 -0.0003  0.3614  0.2545
   34TCq2    C4  520   0.021   4.273   9.835 -0.1086  0.2960 -0.2019
   34TCq2    C5  521   0.067   4.338   9.727  0.2992  0.5469  0.0135
   34TCq2    C6  522   0.204   4.364   9.715  0.4533  0.4434 -0.6068
   34TCq2    C7  523   0.285   4.327   9.814  0.4999 -0.6861  0.6007
   34TCq2    C8  524   0.274   4.439   9.606  0.9691 -0.2097  0.1649
   34TCq2    O4  525   0.381   4.487   9.633  0.3018 -0.7095  0.4910
   34TCq2    C9  526   4.603   4.234   9.854 -0.9151 -0.4905 -0.7989
   34TCq2    O5  527   4.516   4.285   9.783 -0.4198  0.1223  0.2920
   34TCq2    O6  528   4.565   4.175   9.959 -0.6135  0.0057  0.5434
   34TCq2    H2  529   0.071   4.165  10.010  0.2932  0.5281  0.5132
   34TCq2    H3  530   4.718   4.370   9.649 -3.1659 -3.3399  1.4558
   34TCq2    H4  531   0.393   4.330   9.799  0.1789 -1.0397 -1.6772
   35MPD2     C  532   1.366   0.614  11.637  0.2796 -0.1056 -0.3977
   35MPD2    C1  533   1.348   0.516  11.734  0.3507 -0.3248 -0.8678
   35MPD2    C2  534   1.246   0.424  11.708 -0.7137  0.2247 -0.1414
   35MPD2    C3  535   1.165   0.436  11.593  0.0633 -0.0271  0.6162
   35MPD2    C4  536   1.194   0.527  11.494  0.5447  0.0104  0.1028
   35MPD2    C5  537   1.300   0.610  11.513  0.1223  0.2006  0.4815
   35MPD2     H  538   1.215   0.353  11.784  1.5363 -0.8009 -0.1589
   35MPD2    H1  539   1.138   0.538  11.401 -0.4562  1.6509  0.8989
   35MPD2    H2  540   1.452   0.678  11.652  0.1274 -0.0840  0.3920
   35MPD2    H3  541   1.335   0.681  11.439  0.0284  0.7520  0.9690
   35MPD2     N  542   1.047   0.353  11.586  0.0742 -0.2766 -0.6716
   35MPD2    H5  543   1.029   0.295  11.668  1.8430  0.5391  0.2790
   35MPD2    N1  544   1.424   0.521  11.849 -0.4708  0.4211  0.1149
   35MPD2    H7  545   1.492   0.596  11.862 -0.9131  0.8875 -0.2649
   36TCq2    C1  546   0.952   0.362  11.485  0.0608  0.0124 -0.5713
   36TCq2    O2  547   0.951   0.434  11.387 -0.0891 -0.0434  0.3082
   36TCq2    C2  548   0.833   0.272  11.504 -0.2097 -0.1928  0.2003
   36TCq2    C3  549   0.717   0.314  11.438 -0.8027  0.3378  0.1520
   36TCq2    C4  550   0.610   0.227  11.424 -0.3287  0.4095  0.4688
   36TCq2    C5  551   0.630   0.097  11.457  0.0772 -0.3088 -1.0597
   36TCq2    C6  552   0.746   0.063  11.519 -0.0170 -0.6484  0.5690
   36TCq2    C7  553   0.856   0.150  11.537 -0.5597 -0.5998 -0.0249
   36TCq2    C8  554   0.745   4.659  11.595  0.9508  0.6469  0.6761
   36TCq2    O4  555   0.850   4.596  11.613 -0.5633  0.3134 -0.4035
   36TCq2    C9  556   0.496   0.269  11.349  0.3733  0.0662 -0.6509
   36TCq2    O5  557   0.396   0.191  11.348 -0.3405  0.1911 -0.6964
   36TCq2    O6  558   0.488   0.390  11.319  0.8221  0.1838 -0.6127
   36TCq2    H2  559   0.707   0.418  11.407 -2.9312 -0.2283 -1.0858
   36TCq2    H3  560   0.553   0.026  11.429 -0.1412  0.0855 -1.4657
   36TCq2    H4  561   0.945   0.110  11.584 -0.1790  0.0532 -0.1966
   37TMC2    C1  562   3.099   0.939  11.449 -0.2834  0.0909 -0.1628
   37TMC2    C2  563   3.098   0.945  11.311  0.2085  0.1930 -0.2614
   37TMC2    C3  564   3.223   0.954  11.251  0.7873  1.1038 -0.5063
   37TMC2    C4  565   3.209   0.963  11.527 -0.1315  0.1919  0.0374
   37TMC2    C5  566   3.323   0.988  11.467 -0.3857  0.0474  0.6607
   37TMC2    C6  567   3.331   0.989  11.328 -0.0089 -0.5628  0.6361
   37TMC2     C  568   2.969   0.949  11.503  0.2392 -0.0517  0.1965
   37TMC2     O  569   2.866   0.959  11.433 -0.1359 -0.5287 -0.3548
   37TMC2     H  570   3.017   0.912  11.248  0.1854  0.6263 -0.4558
   37TMC2    H1  571   3.219   0.971  11.634  0.8523 -5.1165  0.3398
   37TMC2    H2  572   3.427   1.002  11.278 -0.1128 -3.5783 -0.3473
   37TMC2    C7  573   3.448   0.980  11.541  0.5587 -0.1829 -0.0199
   37TMC2    C8  574   3.220   0.948  11.108  0.9341 -0.1370  0.4093
   37TMC2    O1  575   3.446   1.024  11.656 -0.2961  0.3178  0.2955
   37TMC2    O2  576   3.127   0.945  11.033  0.2328  0.4494 -0.1431
   37TMC2    O5  577   3.351   0.930  11.083  0.1650 -0.1282  0.1572
   37TMC2    H5  578   3.397   0.917  11.169 -0.2287 -1.0651  0.2204
   38MPD2     C  579   2.709   0.995  11.941 -0.0684 -0.0281 -0.3852
   38MPD2    C1  580   2.824   0.918  11.959 -0.9830 -0.2060 -0.0477
   38MPD2    C2  581   2.912   0.889  11.862 -0.3711 -0.3083 -0.1936
   38MPD2    C3  582   2.883   0.940  11.733 -0.2611  0.2348  0.4164
   38MPD2    C4  583   2.762   1.004  11.710 -0.7260  0.4346 -0.1290
   38MPD2    C5  584   2.671   1.034  11.813 -0.0918  0.0408 -0.2468
   38MPD2     H  585   3.001   0.830  11.879  0.6826  1.2889 -0.1696
   38MPD2    H1  586   2.741   1.057  11.618 -0.0856 -0.3082 -0.7064
   38MPD2    H2  587   2.637   1.011  12.021 -1.2789  2.6649 -2.0202
   38MPD2    H3  588   2.591   1.103  11.791 -0.8894 -0.9069 -0.3259
   38MPD2     N  589   2.983   0.926  11.635  0.7445  0.1308 -0.6531
   38MPD2    H5  590   3.067   0.879  11.670 -0.0998 -1.0499 -0.2197
   38MPD2    N1  591   2.848   0.863  12.088 -0.1219  0.0945  0.3150
   38MPD2    H7  592   2.920   0.792  12.093  0.7914  0.8513 -2.2239
   39MPD2     C  593   1.118   2.595   1.548  0.8469 -0.0639  1.0799
   39MPD2    C1  594   1.063   2.702   1.605  0.0594 -0.0206 -0.4406
   39MPD2    C2  595   0.927   2.717   1.609 -0.0192 -0.2643  0.3426
   39MPD2    C3  596   0.836   2.626   1.558 -0.7621  0.4257  0.6470
   39MPD2    C4  597   0.893   2.508   1.511  0.1321 -0.3647 -0.1634
   39MPD2    C5  598   1.033   2.504   1.499 -0.1146  0.0635  0.0045
   39MPD2     H  599   0.888   2.808   1.654  0.0382  0.3565 -0.8963
   39MPD2    H1  600   0.835   2.436   1.455  2.5898 -3.2210  0.9700
   39MPD2    H2  601   1.224   2.589   1.529  0.5183 -0.1868 -0.7829
   39MPD2    H3  602   1.083   2.423   1.448 -0.6290 -0.4885  0.3857
   39MPD2     N  603   0.697   2.636   1.568  0.3031  0.5441  0.1842
   39MPD2    H5  604   0.644   2.564   1.521  0.8492  1.1271 -1.3071
   39MPD2    N1  605   1.153   2.811   1.643 -0.4047 -0.1360 -0.1971
   39MPD2    H7  606   1.251   2.783   1.650 -0.1733  0.6530 -0.2253
   40TCq2    C1  607   1.118   2.934   1.691 -0.0610  1.7698  0.1329
   40TCq2    O2  608   1.009   2.983   1.708 -1.1089 -0.5944  0.5065
   40TCq2    C2  609   1.238   3.004   1.737  0.1364  0.6013  0.2685
   40TCq2    C3  610   1.229   3.098   1.838  0.6373 -0.2451  0.1742
   40TCq2    C4  611   1.343   3.157   1.875  0.4632  0.1564  0.3931
   40TCq2    C5  612   1.462   3.122   1.831 -0.5409 -0.7336 -0.0429
   40TCq2    C6  613   1.470   3.025   1.733  0.0988 -0.8971 -0.1613
   40TCq2    C7  614   1.358   2.964   1.688 -0.1742  0.1659 -0.2610
   40TCq2    C8  615   1.584   3.015   1.640  0.5263  0.0608  1.0430
   40TCq2    O4  616   1.593   2.914   1.571  0.7766 -0.0379  0.8286
   40TCq2    C9  617   1.332   3.270   1.974  0.1762  0.4473 -0.6985
   40TCq2    O5  618   1.436   3.333   2.002 -0.2147 -0.0268  0.2310
   40TCq2    O6  619   1.223   3.280   2.038  0.4706  0.3951 -0.5204
   40TCq2    H2  620   1.130   3.119   1.878 -0.0439 -1.0429 -1.1121
   40TCq2    H3  621   1.549   3.170   1.874 -1.6773  0.9611  0.3552
   40TCq2    H4  622   1.363   2.884   1.616 -0.4963 -0.2003  0.1198
   41TMC2    C1  623   0.070   0.073  13.664 -0.3755  0.9585 -0.0464
   41TMC2    C2  624   0.184   0.100  13.734 -0.5738  0.2201 -0.3734
   41TMC2    C3  625   0.297   0.112  13.663  0.4676  0.7751  0.3104
   41TMC2    C4  626   0.075   0.071  13.531  0.5599  0.0028  0.3017
   41TMC2    C5  627   0.188   0.091  13.463  0.4139  0.4330 -0.0644
   41TMC2    C6  628   0.306   0.117  13.526  0.5307 -0.9597  0.4750
   41TMC2     C  629   4.662   0.044  13.728  0.5444 -0.1410  0.1342
   41TMC2     O  630   4.563   0.022  13.665  0.6590 -0.3402  0.0126
   41TMC2     H  631   0.188   0.090  13.842  0.9970  1.8891 -0.2857
   41TMC2    H1  632   4.706   0.049  13.471  1.5069 -0.7145 -0.8176
   41TMC2    H2  633   0.406   0.125  13.483  0.0218  0.0377 -0.5348
   41TMC2    C7  634   0.172   0.097  13.312  0.5629 -0.1372 -0.0045
   41TMC2    C8  635   0.409   0.166  13.738  0.0141 -0.1234 -0.7310
   41TMC2    O1  636   0.061   0.082  13.265  0.5101  0.5738 -0.4596
   41TMC2    O2  637   0.453   0.279  13.739 -0.1406  0.1443  0.0698
   41TMC2    O5  638   0.462   0.066  13.811 -0.2533 -0.4841 -0.1057
   41TMC2    H5  639   0.418   4.699  13.797 -0.6003 -0.4026  0.5144
   42MPD2     C  640   4.472   4.646  13.921 -0.5545  0.3987 -0.3638
   42MPD2    C1  641   4.577   0.010  13.955 -0.2963  0.2414  0.4686
   42MPD2    C2  642   4.602   0.034  14.085  0.2856 -0.0973 -0.3078
   42MPD2    C3  643   4.522   4.698  14.188  0.2760  1.2126  0.1023
   42MPD2    C4  644   4.416   4.622  14.160  1.0199 -0.5826  0.3537
   42MPD2    C5  645   4.386   4.600  14.026 -0.4147 -0.3502 -0.1585
   42MPD2     H  646   4.692   0.085  14.116 -1.3786  2.0385  1.0315
   42MPD2    H1  647   4.354   4.576  14.236  1.2406  0.5217  1.1962
   42MPD2    H2  648   4.440   4.622  13.820  1.1746 -0.5910 -0.6679
   42MPD2    H3  649   4.325   4.512  14.007 -1.1096 -0.4158  2.3554
   42MPD2     N  650   4.560   4.710  14.322  0.2338  0.6554 -0.5984
   42MPD2    H5  651   4.492   4.673  14.388  0.7728  0.4309 -0.1704
   42MPD2    N1  652   4.669   0.059  13.863  0.4828  0.3979  0.7247
   42MPD2    H7  653   0.035   0.099  13.903 -0.1487  0.1770  2.3214
   43MPD2     C  654   1.464   3.807   0.294  0.2944 -0.3752 -0.5143
   43MPD2    C1  655   1.582   3.831   0.357 -0.1212  0.2007  0.5762
   43MPD2    C2  656   1.568   3.872   0.488  0.6844 -0.5405  0.4741
   43MPD2    C3  657   1.451   3.893   0.555 -0.2692 -0.0168  0.1907
   43MPD2    C4  658   1.332   3.893   0.473  0.2435  0.2964  0.2916
   43MPD2    C5  659   1.346   3.856   0.340  1.1922  1.6470  0.0146
   43MPD2     H  660   1.660   3.871   0.545  0.6271  1.4324  0.5807
   43MPD2    H1  661   1.232   3.914   0.508 -0.2214 -1.3352 -0.0653
   43MPD2    H2  662   1.465   3.761   0.196 -1.2575 -1.7787  0.1279
   43MPD2    H3  663   1.264   3.830   0.274  1.1766 -0.7610  1.0036
   43MPD2     N  664   1.442   3.925   0.694 -0.8217  0.3535 -0.3853
   43MPD2    H5  665   1.353   3.960   0.729 -1.0027 -0.9622  0.4563
   43MPD2    N1  666   1.710   3.802   0.314  0.0855  0.7069 -0.0598
   43MPD2    H7  667   1.780   3.806   0.388 -0.5515  0.8259  0.5422
   44TCq2    C1  668   1.651   3.980   1.226 -0.1202 -0.4931 -0.4968
   44TCq2    O2  669   1.761   3.947   1.184 -0.5279 -0.5381 -0.0509
   44TCq2    C2  670   1.548   3.969   1.136 -0.5656  0.5909  0.2261
   44TCq2    C3  671   1.420   3.937   1.180  0.1794  0.1266 -0.1679
   44TCq2    C4  672   1.337   3.898   1.083  0.3660 -0.2065  0.1788
   44TCq2    C5  673   1.367   3.912   0.950  0.4668 -0.5563 -0.8382
   44TCq2    C6  674   1.492   3.949   0.915  0.0041  0.3242  0.5371
   44TCq2    C7  675   1.584   3.984   1.008 -0.1490  1.0142  0.3911
   44TCq2    C8  676   1.544   3.916   0.778  0.3362 -0.4005  0.0012
   44TCq2    O4  677   1.654   3.856   0.771  0.3620 -0.6968  0.0488
   44TCq2    C9  678   1.204   3.844   1.128 -0.1505 -0.0908  0.4086
   44TCq2    O5  679   1.201   3.816   1.252  0.4393  0.3452  0.5854
   44TCq2    O6  680   1.121   3.810   1.042  0.2643  0.0814 -0.4652
   44TCq2    H2  681   1.398   3.928   1.286  0.2659 -0.4967 -0.2027
   44TCq2    H3  682   1.292   3.873   0.881  0.5669  0.1054 -1.3198
   44TCq2    H4  683   1.678   4.028   0.980 -0.2220 -0.1913 -1.7658
   45TMC2    C1  684   2.563   0.810   9.429 -0.8529  0.0828  0.1863
   45TMC2    C2  685   2.688   0.756   9.460 -0.2552 -0.3931 -0.9548
   45TMC2    C3  686   2.795   0.843   9.476 -0.2026  0.1299 -0.4054
   45TMC2    C4  687   2.553   0.938   9.390  1.0394  0.0993 -0.3580
   45TMC2    C5  688   2.657   1.025   9.419 -0.7652 -0.3705  0.5466
   45TMC2    C6  689   2.780   0.983   9.461  0.1908 -0.1207  0.1085
   45TMC2     C  690   2.454   0.716   9.416 -0.3848 -0.2187 -0.6609
   45TMC2     O  691   2.483   0.598   9.412 -0.1772  0.2130  0.3176
   45TMC2     H  692   2.692   0.649   9.475  3.3148 -0.3539 -1.7123
   45TMC2    H1  693   2.457   0.976   9.357 -0.1939 -0.9247  1.9955
   45TMC2    H2  694   2.863   1.052   9.465  0.1053 -0.0291  0.2937
   45TMC2    C7  695   2.628   1.164   9.419  0.0650 -0.0517  0.2272
   45TMC2    C8  696   2.924   0.783   9.490 -0.0881 -0.2209 -0.2760
   45TMC2    O1  697   2.535   1.196   9.354  0.5808 -0.4825 -0.3011
   45TMC2    O2  698   2.947   0.666   9.523 -0.5841 -0.0038 -0.2855
   45TMC2    O5  699   3.017   0.849   9.422 -0.8555  0.1102  0.0562
   45TMC2    H5  700   2.994   0.922   9.361  2.8441  1.3422  0.1333
   46MPD2     C  701   2.209   0.569   9.329 -0.1394  0.9250 -0.2649
   46MPD2    C1  702   2.205   0.696   9.388 -0.4321  0.0270 -0.0464
   46MPD2    C2  703   2.083   0.740   9.417 -1.0905 -0.2405  0.1791
   46MPD2    C3  704   1.960   0.677   9.392 -0.0070  0.3172 -0.2461
   46MPD2    C4  705   1.964   0.559   9.322  0.3034  0.0883 -0.8751
   46MPD2    C5  706   2.089   0.512   9.294 -0.2873 -0.1040  0.5521
   46MPD2     H  707   2.080   0.842   9.453 -1.8852 -0.9679  2.2193
   46MPD2    H1  708   1.878   0.496   9.300  0.0745  0.3827 -0.8238
   46MPD2    H2  709   2.293   0.507   9.298  0.4660  0.6345  1.9791
   46MPD2    H3  710   2.096   0.417   9.242  2.0409  0.1095  0.4878
   46MPD2     N  711   1.834   0.743   9.419  0.3456 -0.0456 -0.4753
   46MPD2    H5  712   1.842   0.834   9.464  2.0463 -0.6903  0.5320
   46MPD2    N1  713   2.326   0.768   9.409  0.3654  0.3648  0.3046
   46MPD2    H7  714   2.314   0.865   9.437 -0.7143  0.4046 -0.3202
   47TMC2    C1  715   0.310   2.275   8.868  0.3422  0.7653  0.7317
   47TMC2    C2  716   0.390   2.229   8.764 -0.3629  0.7375  0.8458
   47TMC2    C3  717   0.364   2.280   8.644  0.5472 -0.1272 -0.2493
   47TMC2    C4  718   0.205   2.360   8.849  0.3284  0.2924  0.1499
   47TMC2    C5  719   0.180   2.406   8.729  0.3832  0.9489 -0.4039
   47TMC2    C6  720   0.267   2.374   8.621 -0.7045  0.5319 -0.2171
   47TMC2     C  721   0.336   2.250   9.010  0.1245 -0.4020  0.5737
   47TMC2     O  722   0.297   2.337   9.087 -0.0832  0.2233  0.0124
   47TMC2     H  723   0.474   2.164   8.786 -0.1549  0.9023  0.5349
   47TMC2    H1  724   0.138   2.382   8.931  2.9789  2.4562  1.7636
   47TMC2    H2  725   0.258   2.405   8.518 -4.0207  0.2277 -0.0200
   47TMC2    C7  726   0.117   2.536   8.724 -0.4827  0.4649 -0.3665
   47TMC2    C8  727   0.422   2.216   8.525 -0.0628  0.5336  0.1748
   47TMC2    O1  728   0.159   2.614   8.635 -0.1961 -0.1697  0.5849
   47TMC2    O2  729   0.435   2.281   8.420  0.3537 -0.2389 -0.3177
   47TMC2    O5  730   0.423   2.078   8.541 -0.6583 -0.5325 -0.6049
   47TMC2    H5  731   0.375   2.048   8.622  0.2792 -0.7479 -0.1360
   48MPD2     C  732   0.487   2.167   9.248 -0.0402  0.4107 -0.3921
   48MPD2    C1  733   0.448   2.078   9.149 -0.4086  0.6200  0.3263
   48MPD2    C2  734   0.492   1.950   9.163  0.3620  0.8454  0.2972
   48MPD2    C3  735   0.571   1.908   9.270  0.4149 -0.4597  0.7629
   48MPD2    C4  736   0.608   2.001   9.368  0.0000 -0.5164  0.2120
   48MPD2    C5  737   0.572   2.127   9.352 -0.3667 -0.1403 -0.3164
   48MPD2     H  738   0.475   1.870   9.091 -0.8999  2.2740 -0.9907
   48MPD2    H1  739   0.665   1.981   9.458 -0.2102  1.6712  0.8464
   48MPD2    H2  740   0.455   2.271   9.254 -0.9142  0.1608 -0.7127
   48MPD2    H3  741   0.610   2.206   9.416 -0.6613 -0.6367  0.4762
   48MPD2     N  742   0.603   1.772   9.276 -0.2125  0.0369 -0.4641
   48MPD2    H5  743   0.577   1.706   9.203 -1.1433  0.7945 -0.8156
   48MPD2    N1  744   0.396   2.123   9.023 -0.3651 -0.2400  0.3167
   48MPD2    H7  745   0.398   2.059   8.945  0.3910  0.8660 -0.5766
   49MPD2     C  746   3.520   2.604  10.182 -0.7097  0.8883 -0.1034
   49MPD2    C1  747   3.543   2.593  10.320 -0.6110  0.4043 -0.5301
   49MPD2    C2  748   3.511   2.698  10.405 -0.6237  0.1763 -0.0575
   49MPD2    C3  749   3.442   2.815  10.358 -0.0843 -0.2830 -0.0976
   49MPD2    C4  750   3.408   2.812  10.222 -0.7077 -0.7009 -0.0335
   49MPD2    C5  751   3.449   2.707  10.135  0.2977 -0.7943 -0.5313
   49MPD2     H  752   3.542   2.691  10.509  1.4569 -0.4278 -0.7217
   49MPD2    H1  753   3.352   2.894  10.178  1.4702  0.1810 -1.1064
   49MPD2    H2  754   3.555   2.530  10.111  1.0503 -0.8065  2.5134
   49MPD2    H3  755   3.430   2.716  10.029  0.3580 -0.5980 -0.5254
   49MPD2     N  756   3.435   2.934  10.423 -0.1497  0.2818  0.2441
   49MPD2    H5  757   3.419   3.021  10.374  0.7915 -0.3522 -1.2063
   49MPD2    N1  758   3.602   2.474  10.377 -0.3262 -0.4165  0.9447
   49MPD2    H7  759   3.584   2.461  10.476 -0.9176 -1.0086  0.7579
   50TCq2    C1  760   3.659   2.380  10.303  0.5935  0.6884  0.1740
   50TCq2    O2  761   3.709   2.390  10.194  0.0628  0.0271 -0.2317
   50TCq2    C2  762   3.670   2.249  10.354 -0.0996  0.0250  0.4257
   50TCq2    C3  763   3.714   2.153  10.264 -0.0487  0.1408 -0.0453
   50TCq2    C4  764   3.663   2.023  10.294 -0.2519  0.4120  0.7562
   50TCq2    C5  765   3.587   1.991  10.398  0.1303 -0.0811  0.3286
   50TCq2    C6  766   3.553   2.085  10.489  0.5949  0.3134 -0.1842
   50TCq2    C7  767   3.586   2.215  10.458 -0.1997 -0.1031  0.3609
   50TCq2    C8  768   3.433   2.049  10.575  0.3392  0.1818 -0.4023
   50TCq2    O4  769   3.365   2.137  10.622  0.3875 -0.1074  0.1252
   50TCq2    C9  770   3.703   1.920  10.202 -0.2202 -0.0494  0.7012
   50TCq2    O5  771   3.636   1.817  10.200 -0.3139  0.0889 -0.5717
   50TCq2    O6  772   3.760   1.960  10.094 -0.5671 -0.2266 -0.1476
   50TCq2    H2  773   3.781   2.179  10.183  0.4039 -0.7153  0.0577
   50TCq2    H3  774   3.539   1.893  10.395 -0.1531  0.0416  0.7791
   50TCq2    H4  775   3.548   2.288  10.529  3.0124  2.2549 -0.3403
   51MPD2     C  776   3.048   2.085   1.341  0.5245  0.3833 -0.1681
   51MPD2    C1  777   3.123   1.970   1.344 -0.2255  0.2707 -0.0843
   51MPD2    C2  778   3.250   1.960   1.380 -0.1680 -0.2665  0.5828
   51MPD2    C3  779   3.306   2.077   1.436  0.2893  1.0679 -0.0964
   51MPD2    C4  780   3.244   2.199   1.432 -0.1774  0.5935  0.0194
   51MPD2    C5  781   3.114   2.201   1.388  0.1991  0.0939  0.9486
   51MPD2     H  782   3.293   1.861   1.386  3.0043  1.1574  1.5436
   51MPD2    H1  783   3.290   2.291   1.465  1.5703 -0.4221  0.4002
   51MPD2    H2  784   2.953   2.103   1.291 -0.0978 -1.2375  0.4426
   51MPD2    H3  785   3.059   2.293   1.405 -1.7681 -0.7482 -0.7241
   51MPD2     N  786   3.435   2.081   1.492 -0.0667 -0.5196  0.3724
   51MPD2    H5  787   3.461   2.174   1.523 -0.9465 -0.4581  0.9459
   51MPD2    N1  788   3.056   1.847   1.324 -0.5109 -0.3859  1.1578
   51MPD2    H7  789   3.105   1.758   1.319  1.8002  0.8624  1.7426
   52TCq2    C1  790   3.535   1.989   1.486 -1.0958  0.2012 -0.0557
   52TCq2    O2  791   3.533   1.868   1.455  0.0163  0.6982 -0.0392
   52TCq2    C2  792   3.663   2.043   1.533 -0.4021 -0.4809  0.8215
   52TCq2    C3  793   3.765   1.977   1.475  0.4768  0.6201 -0.6709
   52TCq2    C4  794   3.889   2.010   1.515  0.4179  0.1420 -0.0939
   52TCq2    C5  795   3.908   2.110   1.606  0.0212 -1.1107  0.6956
   52TCq2    C6  796   3.801   2.175   1.661  0.0868  0.0136 -0.0176
   52TCq2    C7  797   3.678   2.155   1.615  0.4609  1.1650 -0.5866
   52TCq2    C8  798   3.819   2.241   1.791 -0.4266  0.1310 -0.4773
   52TCq2    O4  799   3.727   2.308   1.838  0.4284  0.4574 -0.4026
   52TCq2    C9  800   4.004   1.946   1.449  0.7579 -0.4493  0.1339
   52TCq2    O5  801   4.112   1.981   1.504  0.4100 -0.3428 -0.2852
   52TCq2    O6  802   3.982   1.850   1.371 -0.4514 -0.5002 -0.5013
   52TCq2    H2  803   3.747   1.888   1.415  2.3698 -0.3335  0.1817
   52TCq2    H3  804   4.009   2.133   1.635  0.2073  1.0454 -1.6446
   52TCq2    H4  805   3.592   2.206   1.658  1.7739  0.8311  2.4371
   53TMC2    C1  806   3.988   0.782  12.043 -0.2752 -0.4241 -0.4407
   53TMC2    C2  807   4.109   0.745  12.093 -0.8096 -0.2644 -0.7400
   53TMC2    C3  808   4.124   0.728  12.229 -0.1938  0.3522 -0.6318
   53TMC2    C4  809   3.885   0.825  12.132  0.2400  0.0778 -1.1201
   53TMC2    C5  810   3.912   0.817  12.270  0.3129 -0.3203 -0.2017
   53TMC2    C6  811   4.023   0.758  12.325 -0.1932 -0.1537 -0.1237
   53TMC2     C  812   3.978   0.790  11.897 -0.2241  0.5888 -0.0009
   53TMC2     O  813   4.086   0.768  11.840  0.3023  0.4713 -0.3885
   53TMC2     H  814   4.198   0.713  12.041 -1.1948 -1.7115 -0.4888
   53TMC2    H1  815   3.784   0.846  12.098  0.2666 -0.8928 -1.7787
   53TMC2    H2  816   4.042   0.736  12.430  1.4306 -0.4122 -0.4767
   53TMC2    C7  817   3.798   0.829  12.363 -0.3059  0.0791 -0.5610
   53TMC2    C8  818   4.247   0.659  12.271  0.5522 -0.1118 -0.1294
   53TMC2    O1  819   3.711   0.899  12.312 -0.0828  0.8952 -0.3250
   53TMC2    O2  820   4.350   0.655  12.203  0.1388  0.0724 -0.0659
   53TMC2    O5  821   4.230   0.605  12.391 -0.0080 -0.2974 -0.5206
   53TMC2    H5  822   4.142   0.604  12.435 -0.3611  1.3422 -1.1792
   54MPD2     C  823   3.892   0.723  11.633  0.2036  0.6856  1.2198
   54MPD2    C1  824   3.822   0.809  11.711  0.8999 -0.3006  0.2363
   54MPD2    C2  825   3.704   0.874  11.670  0.2095  0.7581  0.7318
   54MPD2    C3  826   3.657   0.842  11.537 -1.0299 -0.7337  0.0194
   54MPD2    C4  827   3.733   0.755  11.458 -0.5621 -0.2653  0.3986
   54MPD2    C5  828   3.846   0.693  11.503 -0.2651 -0.4998  0.5038
   54MPD2     H  829   3.651   0.928  11.748 -1.6147  0.2664 -0.1760
   54MPD2    H1  830   3.704   0.727  11.358  0.1547  1.2151 -0.2214
   54MPD2    H2  831   3.984   0.671  11.657 -1.1031 -1.9914  0.4543
   54MPD2    H3  832   3.887   0.610  11.447 -0.9253 -1.3505  1.2706
   54MPD2     N  833   3.541   0.899  11.479  0.0519 -0.5944 -0.3532
   54MPD2    H5  834   3.524   0.859  11.388  0.2913 -0.6960 -0.3548
   54MPD2    N1  835   3.857   0.835  11.849  0.5090 -0.9374  0.3058
   54MPD2    H7  836   3.795   0.875  11.919  2.2530 -0.2618  1.4592
   55MPD2     C  837   4.388   2.892  17.676  0.4028  0.8007 -0.2251
   55MPD2    C1  838   4.311   2.810   0.082 -0.0417  0.7070 -0.1452
   55MPD2    C2  839   4.201   2.862   0.142  0.6137  0.1397 -0.0397
   55MPD2    C3  840   4.155   2.992   0.122  0.2523 -0.9105  0.0898
   55MPD2    C4  841   4.224   3.066   0.030 -0.0910  0.5734  0.2454
   55MPD2    C5  842   4.337   3.018  17.647 -0.6174  0.1862 -0.7767
   55MPD2     H  843   4.138   2.799   0.203  0.4260 -1.4151 -1.8417
   55MPD2    H1  844   4.187   3.160  17.671 -0.9559 -0.9340 -2.6342
   55MPD2    H2  845   4.463   2.843  17.615  0.2863 -1.6213  1.5932
   55MPD2    H3  846   4.389   3.082  17.577 -0.7945 -1.4179 -2.3858
   55MPD2     N  847   4.040   3.044   0.188 -0.0148  0.2800 -0.0255
   55MPD2    H5  848   3.991   2.984   0.255  0.4068  1.6262  1.4766
   55MPD2    N1  849   4.352   2.673   0.104 -0.6104 -0.4729 -0.4794
   55MPD2    H7  850   4.434   2.637   0.055  0.1108 -0.5405  0.7874
   56TCq2    C1  851   4.297   2.579   0.182  0.2963 -0.5716  0.5253
   56TCq2    O2  852   4.212   2.595   0.268  0.2011  0.0033 -0.0396
   56TCq2    C2  853   4.349   2.445   0.162 -0.2846  0.3856 -0.2166
   56TCq2    C3  854   4.341   2.399   0.038  0.0377  0.3568  0.3177
   56TCq2    C4  855   4.330   2.263   0.003 -0.0101 -0.3523 -0.2885
   56TCq2    C5  856   4.306   2.172   0.096  0.3392 -0.3918  0.2762
   56TCq2    C6  857   4.310   2.218   0.225  0.6313 -0.9891  0.6844
   56TCq2    C7  858   4.331   2.352   0.257 -0.5557 -0.2972  0.1004
   56TCq2    C8  859   4.228   2.152   0.323  0.1129 -0.1449  0.0704
   56TCq2    O4  860   4.158   2.226   0.385  0.2042 -0.4015 -0.5096
   56TCq2    C9  861   4.303   2.231  17.542 -0.0122 -0.3252 -0.1484
   56TCq2    O5  862   4.284   2.328  17.468  0.0422 -0.5778  0.6981
   56TCq2    O6  863   4.278   2.107  17.507 -0.2272 -0.4441 -0.2078
   56TCq2    H2  864   4.350   2.471  17.637  0.2548  1.8429  1.6922
   56TCq2    H3  865   4.290   2.073   0.056  2.5792 -0.8474  0.5369
   56TCq2    H4  866   4.320   2.386   0.359  2.1781 -3.4635  1.4158
   57TMC2    C1  867   4.040   4.080  13.770 -0.5005 -0.4382 -0.2693
   57TMC2    C2  868   4.113   4.179  13.842 -0.0136  0.0205  0.4771
   57TMC2    C3  869   4.248   4.149  13.871  0.5336 -0.7790  0.3545
   57TMC2    C4  870   4.096   3.959  13.733 -0.4089 -0.1039 -0.7593
   57TMC2    C5  871   4.233   3.951  13.740 -0.2778 -0.2042 -0.6225
   57TMC2    C6  872   4.306   4.042  13.819  0.0890  0.2183  0.1404
   57TMC2     C  873   3.902   4.101  13.764  0.8104 -0.9641 -0.2572
   57TMC2     O  874   3.857   4.206  13.808 -0.1046 -0.2129  0.0503
   57TMC2     H  875   4.062   4.267  13.879  1.4249  0.4097  1.5404
   57TMC2    H1  876   4.041   3.883  13.678  1.8033  0.3897 -3.6980
   57TMC2    H2  877   4.414   4.038  13.818  0.0503 -1.3174  1.4989
   57TMC2    C7  878   4.287   3.825  13.710  0.2033  0.0452  0.2173
   57TMC2    C8  879   4.322   4.244  13.947 -0.2951 -0.5719 -0.3957
   57TMC2    O1  880   4.391   3.789  13.767  0.5304  0.1607 -0.1238
   57TMC2    O2  881   4.431   4.301  13.915  0.6404  0.9215 -0.5338
   57TMC2    O5  882   4.252   4.273  14.060  0.1955  0.1153  0.4642
   57TMC2    H5  883   4.168   4.223  14.064  0.3864 -0.4462 -3.1249
   58MPD2     C  884   3.416   3.937  13.715 -0.1657  0.2501 -0.5079
   58MPD2    C1  885   3.464   4.055  13.769 -0.1448  0.7957  0.8551
   58MPD2    C2  886   3.602   4.077  13.768 -0.1869 -0.3113  0.0298
   58MPD2    C3  887   3.689   3.978  13.722  0.5474 -0.3784  0.4832
   58MPD2    C4  888   3.636   3.866  13.676  0.3360 -0.1361  0.1641
   58MPD2    C5  889   3.499   3.847  13.664  0.0161 -0.0899  0.1046
   58MPD2     H  890   3.632   4.173  13.806 -1.2723 -0.0964  0.3407
   58MPD2    H1  891   3.701   3.790  13.635  0.8658  0.3427  0.1147
   58MPD2    H2  892   3.309   3.920  13.714 -0.3763  1.4771  1.1082
   58MPD2    H3  893   3.468   3.749  13.629  0.8738 -0.2829 -0.1261
   58MPD2     N  894   3.830   3.990  13.722 -0.1411  0.2006  0.3844
   58MPD2    H5  895   3.891   3.915  13.689  1.3155  1.3759  0.4117
   58MPD2    N1  896   3.385   4.157  13.822 -0.4205  0.1434  1.0326
   58MPD2    H7  897   3.439   4.241  13.843 -0.2996 -0.7683  4.2987
   59MPD2     C  898   1.240   4.369  13.171  0.6778 -0.0226  0.3193
   59MPD2    C1  899   1.333   4.345  13.079 -0.0596  0.3849  0.1402
   59MPD2    C2  900   1.471   4.376  13.110  0.5650  0.8536  0.0126
   59MPD2    C3  901   1.500   4.433  13.231 -0.2406  0.6283  0.4894
   59MPD2    C4  902   1.397   4.459  13.315  0.3105  0.2247 -0.0385
   59MPD2    C5  903   1.268   4.422  13.292 -0.6060  0.9871  1.4217
   59MPD2     H  904   1.552   4.359  13.039 -2.3525  2.1336 -3.6548
   59MPD2    H1  905   1.422   4.507  13.410 -0.5670  0.2017  0.1989
   59MPD2    H2  906   1.138   4.335  13.155  0.3010  1.6388 -0.7072
   59MPD2    H3  907   1.192   4.437  13.368 -0.8425 -1.1118  1.6027
   59MPD2     N  908   1.625   4.460  13.285  0.2858 -0.1160 -0.4855
   59MPD2    H5  909   1.625   4.494  13.381  1.0498 -0.0015 -0.5252
   59MPD2    N1  910   1.299   4.282  12.956 -0.6003  0.2062  0.7034
   59MPD2    H7  911   1.204   4.246  12.952 -0.1196 -1.2806  2.7106
   60TCq2    C1  912   1.381   4.268  12.841  0.2136 -0.1304 -0.1355
   60TCq2    O2  913   1.493   4.319  12.815 -0.1640 -0.6496 -0.2032
   60TCq2    C2  914   1.314   4.208  12.726  0.2899 -0.4582 -0.1326
   60TCq2    C3  915   1.206   4.131  12.738  0.0933 -0.0350  1.2018
   60TCq2    C4  916   1.121   4.103  12.634 -0.1247  0.3362 -0.7370
   60TCq2    C5  917   1.153   4.156  12.511 -0.1732 -0.4338 -0.0920
   60TCq2    C6  918   1.249   4.252  12.502 -1.1229 -0.0084 -0.6504
   60TCq2    C7  919   1.335   4.278  12.606  0.2272  0.1152 -0.1351
   60TCq2    C8  920   1.289   4.285  12.364 -0.6520 -0.1201  0.3877
   60TCq2    O4  921   1.240   4.221  12.271 -1.0691  0.4273 -0.1591
   60TCq2    C9  922   1.009   4.014  12.667  0.2836  0.1840  0.6615
   60TCq2    O5  923   1.005   3.976  12.785  0.0011  0.1516  0.1458
   60TCq2    O6  924   0.947   3.974  12.571  0.3128  0.0626 -0.1580
   60TCq2    H2  925   1.190   4.082  12.834  0.2330 -1.1192  0.6725
   60TCq2    H3  926   1.090   4.134  12.425  0.4135 -1.2255 -0.3259
   60TCq2    H4  927   1.428   4.333  12.600  0.4851 -0.2331  0.5763
   61MPD2     C  928   0.542   0.250  14.201  0.0218  0.5206  0.4374
   61MPD2    C1  929   0.637   0.320  14.275 -0.4186 -0.2946 -0.7236
   61MPD2    C2  930   0.687   0.440  14.225  0.0490 -0.1266 -0.6491
   61MPD2    C3  931   0.643   0.495  14.103 -0.4807  0.2521  0.0445
   61MPD2    C4  932   0.550   0.423  14.028 -0.0888  0.0020  0.4874
   61MPD2    C5  933   0.501   0.307  14.084 -0.4279  0.4944 -0.6530
   61MPD2     H  934   0.754   0.496  14.289 -0.1000 -0.2803 -0.3599
   61MPD2    H1  935   0.496   0.451  13.938 -0.5843 -0.6267  0.5924
   61MPD2    H2  936   0.494   0.159  14.235  1.2628  0.0596  0.9462
   61MPD2    H3  937   0.428   0.256  14.024 -1.2635  2.2542 -1.1267
   61MPD2     N  938   0.679   0.631  14.063 -0.4047 -0.3251 -0.1015
   61MPD2    H5  939   0.646   0.658  13.971  0.3687  0.0316 -0.2709
   61MPD2    N1  940   0.652   0.272  14.410 -0.3693  0.6961  0.0699
   61MPD2    H7  941   0.600   0.189  14.433 -0.2661  0.5390 -0.2655
   62TCq2    C1  942   0.743   0.330  14.500  0.7208  0.8144 -0.3554
   62TCq2    O2  943   0.836   0.407  14.478  0.4317  0.5086 -0.1648
   62TCq2    C2  944   0.715   0.300  14.638  0.3762  0.1091 -0.2441
   62TCq2    C3  945   0.610   0.219  14.685  0.4985 -0.5346  0.6496
   62TCq2    C4  946   0.553   0.251  14.799  0.1014 -0.1556  0.0530
   62TCq2    C5  947   0.582   0.368  14.863  0.4698  0.2350 -0.4397
   62TCq2    C6  948   0.688   0.444  14.822 -0.0260  0.1336 -0.7176
   62TCq2    C7  949   0.758   0.412  14.712  0.6451 -0.1322  0.3073
   62TCq2    C8  950   0.716   0.577  14.870 -0.1071  0.2538  0.3077
   62TCq2    O4  951   0.797   0.645  14.804 -0.4590 -0.4089  0.1356
   62TCq2    C9  952   0.464   0.154  14.858  0.7059 -0.3301  0.0907
   62TCq2    O5  953   0.422   0.177  14.977 -0.6784  0.1095  0.4704
   62TCq2    O6  954   0.472   0.042  14.797 -0.4987 -0.4291  0.4994
   62TCq2    H2  955   0.581   0.129  14.632  0.7861 -0.4690  0.3786
   62TCq2    H3  956   0.514   0.395  14.943  0.9335  0.1586 -0.0198
   62TCq2    H4  957   0.845   0.466  14.679  0.0400 -0.6223 -2.1072
   63TMC2    C1  958   0.720   1.089  10.184 -0.0473  0.0196  0.1622
   63TMC2    C2  959   0.762   1.063  10.309 -0.3641 -0.7629 -0.1333
   63TMC2    C3  960   0.782   1.170  10.389 -0.1102 -0.1220  0.5687
   63TMC2    C4  961   0.714   1.221  10.136 -0.5625  0.9460 -1.0253
   63TMC2    C5  962   0.751   1.325  10.219 -0.0523 -0.1112 -0.1311
   63TMC2    C6  963   0.781   1.297  10.347  0.6992 -0.3079 -0.3960
   63TMC2     C  964   0.669   0.982  10.102  0.2913 -0.7100 -0.3269
   63TMC2     O  965   0.676   1.007   9.982 -0.0153  0.1511  0.6485
   63TMC2     H  966   0.782   0.964  10.349 -0.9200 -0.4291  0.9598
   63TMC2    H1  967   0.683   1.232  10.033 -0.1910  0.7904 -1.1541
   63TMC2    H2  968   0.823   1.374  10.411  0.6352  0.2385 -1.0141
   63TMC2    C7  969   0.713   1.460  10.175  0.1613 -0.5114 -0.2594
   63TMC2    C8  970   0.831   1.142  10.522 -0.9216 -0.1605 -0.2341
   63TMC2    O1  971   0.646   1.463  10.071 -0.1117 -0.0713 -0.5700
   63TMC2    O2  972   0.862   1.031  10.564 -0.0326 -0.0174  0.2513
   63TMC2    O5  973   0.819   1.246  10.605 -0.2461 -0.3960 -0.3550
   63TMC2    H5  974   0.778   1.329  10.572  1.4117 -0.3136 -2.1999
   64MPD2     C  975   0.397   0.555  10.001  0.3241 -0.2478 -0.0127
   64MPD2    C1  976   0.430   0.554  10.134  0.1378 -0.0752  0.1944
   64MPD2    C2  977   0.494   0.660  10.190  0.3790 -0.1216 -0.7103
   64MPD2    C3  978   0.551   0.762  10.110 -0.1391  0.6205  0.8582
   64MPD2    C4  979   0.519   0.764   9.973 -0.8652 -1.1229  0.0633
   64MPD2    C5  980   0.433   0.663   9.929  0.3060  0.0463 -0.1557
   64MPD2     H  981   0.519   0.655  10.295  1.5217 -1.6296 -1.0353
   64MPD2    H1  982   0.542   0.847   9.907  2.2399 -0.0540  2.4833
   64MPD2    H2  983   0.353   0.465   9.959 -2.9756  1.5933 -0.5106
   64MPD2    H3  984   0.423   0.658   9.821  2.0769  1.1003 -0.3826
   64MPD2     N  985   0.624   0.871  10.170  0.1450 -0.6648  0.8429
   64MPD2    H5  986   0.634   0.870  10.271 -0.2848  0.4429  0.8947
   64MPD2    N1  987   0.414   0.439  10.207 -0.2344 -0.3231  0.0878
   64MPD2    H7  988   0.468   0.431  10.292 -0.3544 -2.3295 -0.0308
   65MPD2     C  989   1.337   0.136  15.917  0.1630  0.2852  0.3223
   65MPD2    C1  990   1.389   0.121  15.788 -0.9004 -0.2871  0.5876
   65MPD2    C2  991   1.475   0.021  15.752 -0.2456  0.1981 -0.3843
   65MPD2    C3  992   1.519   4.649  15.852  0.0771  0.4197  0.4645
   65MPD2    C4  993   1.474   4.667  15.982 -0.5363  0.3506 -0.9555
   65MPD2    C5  994   1.376   0.047  16.011  0.3815 -0.1352 -0.2940
   65MPD2     H  995   1.519   0.035  15.654 -2.0351  2.9137 -0.7876
   65MPD2    H1  996   1.519   4.604  16.058 -1.9004 -0.9390 -1.2337
   65MPD2    H2  997   1.270   0.218  15.942 -0.3127  0.8781 -2.9323
   65MPD2    H3  998   1.335   0.057  16.110  1.2449  0.8967 -0.0330
   65MPD2     N  999   1.603   4.538  15.819  0.1356 -0.2218 -0.8429
   65MPD2    H5 1000   1.603   4.466  15.891  0.3312  1.2689  0.6497
   65MPD2    N1 1001   1.340   0.201  15.685  0.1794  0.1902  0.1395
   65MPD2    H7 1002   1.370   0.181  15.590 -0.9722 -1.1445  0.0453
   66TCq2    C1 1003   1.257   0.307  15.692 -0.5011  0.3760 -0.2401
   66TCq2    O2 1004   1.212   0.367  15.789  0.3838 -0.1487 -0.6115
   66TCq2    C2 1005   1.225   0.362  15.560  0.5040  0.3858 -0.7175
   66TCq2    C3 1006   1.246   0.290  15.451 -0.1906 -0.6679  0.2812
   66TCq2    C4 1007   1.247   0.360  15.336 -0.0220  0.5608 -0.2085
   66TCq2    C5 1008   1.217   0.498  15.331  0.5738  0.0970  0.8201
   66TCq2    C6 1009   1.196   0.561  15.446  0.0112 -0.1912  0.2288
   66TCq2    C7 1010   1.194   0.494  15.565 -0.2893 -0.1244 -0.3660
   66TCq2    C8 1011   1.194   0.704  15.446 -0.2978 -0.2646  0.3636
   66TCq2    O4 1012   1.222   0.761  15.341  0.5581 -0.1414 -0.6570
   66TCq2    C9 1013   1.270   0.297  15.211  0.3103 -0.0928  0.4808
   66TCq2    O5 1014   1.326   0.184  15.210 -0.0072 -0.1475 -0.9991
   66TCq2    O6 1015   1.242   0.355  15.100  0.1229  0.0237  0.3856
   66TCq2    H2 1016   1.254   0.182  15.450 -0.1877 -0.6494 -1.2118
   66TCq2    H3 1017   1.217   0.552  15.237  0.5042  0.0613  0.7999
   66TCq2    H4 1018   1.173   0.545  15.659  0.4818 -0.6164  0.0792
   67MPD2     C 1019   1.319   3.989  14.623  0.4149  0.0751  0.4690
   67MPD2    C1 1020   1.293   4.112  14.568 -0.5964  0.7384  0.8809
   67MPD2    C2 1021   1.179   4.127  14.486  0.6726  0.3810 -0.1704
   67MPD2    C3 1022   1.111   4.017  14.440  0.2484  0.0576  0.2369
   67MPD2    C4 1023   1.138   3.890  14.492 -0.1582 -0.4321  0.3732
   67MPD2    C5 1024   1.245   3.881  14.588  0.3216  0.5538 -0.8579
   67MPD2     H 1025   1.151   4.225  14.450 -2.5682 -0.0857  1.0915
   67MPD2    H1 1026   1.083   3.802  14.460 -0.4575  0.0140 -0.3455
   67MPD2    H2 1027   1.386   3.985  14.708 -0.9184  1.6290  1.5835
   67MPD2    H3 1028   1.258   3.784  14.634 -0.6186  1.5695  1.5556
   67MPD2     N 1029   1.007   4.028  14.348  0.3730 -0.6744 -0.4476
   67MPD2    H5 1030   0.967   3.939  14.322  0.1936 -1.0344  1.0562
   67MPD2    N1 1031   1.366   4.226  14.618 -0.4569 -0.6586 -0.0233
   67MPD2    H7 1032   1.324   4.317  14.602 -0.0610 -0.1885  1.5600
   68TCq2    C1 1033   1.491   4.215  14.681 -0.1738 -0.4157 -0.5542
   68TCq2    O2 1034   1.571   4.118  14.689 -0.1811  0.2591 -0.3106
   68TCq2    C2 1035   1.540   4.335  14.745 -0.5440  0.0515  0.2654
   68TCq2    C3 1036   1.452   4.440  14.767 -0.0045  0.1854  0.3194
   68TCq2    C4 1037   1.470   4.531  14.868 -0.9751  0.6229 -0.1790
   68TCq2    C5 1038   1.589   4.530  14.934  0.2876  0.2284  0.4438
   68TCq2    C6 1039   1.679   4.441  14.895 -0.7437 -0.1258 -0.0491
   68TCq2    C7 1040   1.658   4.337  14.806  0.5129  0.7130  0.2089
   68TCq2    C8 1041   1.813   4.442  14.964  0.1398  0.1834 -0.2897
   68TCq2    O4 1042   1.903   4.377  14.917  0.4883 -0.0458 -0.1293
   68TCq2    C9 1043   1.362   4.629  14.885  0.5762  0.4729 -1.2579
   68TCq2    O5 1044   1.358   4.699  14.991 -0.4983  0.4867  0.5748
   68TCq2    O6 1045   1.281   4.642  14.790  0.0924 -0.2389 -1.1679
   68TCq2    H2 1046   1.357   4.441  14.714  1.2945 -0.5461 -2.0262
   68TCq2    H3 1047   1.605   4.606  15.010  3.5661  0.1926 -0.2184
   68TCq2    H4 1048   1.732   4.259  14.792 -0.1712 -0.1991  1.6780
   69TMC2    C1 1049   3.313   1.468  12.315 -0.3358  0.7590 -0.3862
   69TMC2    C2 1050   3.199   1.482  12.237 -0.8461 -0.1118 -0.5317
   69TMC2    C3 1051   3.225   1.463  12.103 -0.0615  0.3857  0.2645
   69TMC2    C4 1052   3.432   1.421  12.271 -0.0517 -0.4627  0.2730
   69TMC2    C5 1053   3.447   1.388  12.138  0.4969  0.1868  0.0191
   69TMC2    C6 1054   3.345   1.417  12.049 -0.1527 -0.1389  0.0147
   69TMC2     C 1055   3.307   1.470  12.456 -0.0203 -0.4632  0.8190
   69TMC2     O 1056   3.198   1.447  12.505 -0.0144 -0.1304 -0.2312
   69TMC2     H 1057   3.103   1.505  12.283 -1.2997 -1.6763 -0.7138
   69TMC2    H1 1058   3.516   1.399  12.335 -1.1008 -0.3924  1.6601
   69TMC2    H2 1059   3.344   1.387  11.944 -0.7049  1.5742 -0.4719
   69TMC2    C7 1060   3.577   1.329  12.096 -0.5163 -0.1820 -0.7894
   69TMC2    C8 1061   3.147   1.531  12.012  0.7486 -0.5105 -0.0938
   69TMC2    O1 1062   3.658   1.297  12.183 -0.2705 -0.3183  0.7156
   69TMC2    O2 1063   3.153   1.510  11.895 -0.7675  0.2372 -0.3576
   69TMC2    O5 1064   3.090   1.631  12.078 -0.4613  0.7104  0.5303
   69TMC2    H5 1065   3.114   1.651  12.171 -0.7517  1.8552  0.3619
   70MPD2     C 1066   3.572   1.572  12.693 -0.2266  0.7363  0.1876
   70MPD2    C1 1067   3.453   1.512  12.655  0.3032  0.2169 -0.2098
   70MPD2    C2 1068   3.373   1.440  12.747  0.0131 -0.0928  0.0584
   70MPD2    C3 1069   3.417   1.432  12.878  0.8068 -0.5796  0.3830
   70MPD2    C4 1070   3.531   1.500  12.917 -0.5985 -0.2432  0.7926
   70MPD2    C5 1071   3.604   1.573  12.822 -0.3409 -0.3444  0.3054
   70MPD2     H 1072   3.284   1.388  12.715  0.8071 -1.9293  0.8665
   70MPD2    H1 1073   3.556   1.516  13.022 -3.0170 -2.1669  1.6579
   70MPD2    H2 1074   3.632   1.622  12.617  0.3986 -2.0195 -1.1138
   70MPD2    H3 1075   3.691   1.628  12.856 -0.5122 -0.6355  1.1960
   70MPD2     N 1076   3.362   1.349  12.970  0.0706 -0.0905  0.7571
   70MPD2    H5 1077   3.404   1.345  13.062  1.3549  1.0411  0.2215
   70MPD2    N1 1078   3.422   1.519  12.515  0.7958 -0.1807 -0.1247
   70MPD2    H7 1079   3.495   1.565  12.461 -1.2809  0.4277 -2.3915
   71TMC2    C1 1080   4.617   2.641   1.809 -0.6606  0.2724 -0.1825
   71TMC2    C2 1081   4.689   2.688   1.917 -0.4023  0.0753  0.2562
   71TMC2    C3 1082   4.623   2.731   2.025  0.3551  0.5254  0.1409
   71TMC2    C4 1083   4.479   2.652   1.807  0.2641 -0.6617  0.4059
   71TMC2    C5 1084   4.417   2.693   1.928  0.3123  0.2654 -1.0066
   71TMC2    C6 1085   4.488   2.728   2.040  0.2693 -0.6092  0.3885
   71TMC2     C 1086   4.685   2.549   1.710  0.3582 -0.5007 -0.3707
   71TMC2     O 1087   0.086   2.518   1.723 -0.5761  0.1288  0.7395
   71TMC2     H 1088   0.078   2.679   1.919 -0.4348  0.3970  2.7868
   71TMC2    H1 1089   4.416   2.634   1.721  1.4316 -0.7289 -0.4349
   71TMC2    H2 1090   4.439   2.735   2.136 -2.6715 -1.9313 -1.0252
   71TMC2    C7 1091   4.270   2.691   1.943  0.1688  0.4013  0.9949
   71TMC2    C8 1092   4.711   2.748   2.139  0.5432 -0.1572 -0.3338
   71TMC2    O1 1093   4.218   2.761   2.030 -0.4274  0.1608  0.1748
   71TMC2    O2 1094   0.097   2.691   2.162  0.4171  0.0187 -0.0556
   71TMC2    O5 1095   4.664   2.855   2.210 -0.2457 -0.0346 -0.0391
   71TMC2    H5 1096   4.576   2.891   2.186 -1.0424 -0.7700  1.7695
   72MPD2     C 1097   4.675   2.254   1.294 -0.1780  0.9999 -0.3311
   72MPD2    C1 1098   0.059   2.284   1.383 -0.4218 -0.5131  0.7926
   72MPD2    C2 1099   0.033   2.361   1.498 -0.0714 -0.4158 -0.1107
   72MPD2    C3 1100   4.629   2.416   1.514 -0.1514  0.5220  0.7817
   72MPD2    C4 1101   4.529   2.397   1.424  0.3761 -0.4683  0.2497
   72MPD2    C5 1102   4.555   2.313   1.317 -0.1906  0.1187  0.1999
   72MPD2     H 1103   0.117   2.384   1.561 -0.0163 -1.8997  0.3669
   72MPD2    H1 1104   4.447   2.469   1.422  1.4346  0.7628  1.1575
   72MPD2    H2 1105   4.695   2.202   1.201  0.2199 -1.0212  0.8870
   72MPD2    H3 1106   4.467   2.318   1.255  1.0283  1.7669 -1.4113
   72MPD2     N 1107   4.592   2.502   1.619 -0.6283 -0.3052 -0.1952
   72MPD2    H5 1108   4.496   2.527   1.636 -1.1406 -2.9096  0.8267
   72MPD2    N1 1109   0.192   2.238   1.361  0.3126  0.4957  0.3306
   72MPD2    H7 1110   0.254   2.265   1.437  0.5315  2.1695 -0.4635
   73TMC2    C1 1111   0.812   3.231  14.070  0.5642  0.0715  0.2076
   73TMC2    C2 1112   0.757   3.122  14.008  0.3323 -0.2052  0.9098
   73TMC2    C3 1113   0.817   3.005  14.041  0.4993  0.5926  0.8336
   73TMC2    C4 1114   0.903   3.221  14.174 -0.2998  0.7017  0.0060
   73TMC2    C5 1115   0.964   3.100  14.203  0.2091  0.2016  0.2830
   73TMC2    C6 1116   0.917   2.997  14.128 -0.4651 -1.1060  0.4558
   73TMC2     C 1117   0.835   3.350  13.988 -0.4957 -0.1274 -0.2069
   73TMC2     O 1118   0.908   3.429  14.042 -0.1806  0.6710 -0.4775
   73TMC2     H 1119   0.691   3.129  13.922  2.2638  1.3121 -0.4502
   73TMC2    H1 1120   0.935   3.312  14.223  0.1395  0.5947 -0.0791
   73TMC2    H2 1121   0.968   2.901  14.135  1.1576 -0.3613 -1.2385
   73TMC2    C7 1122   1.108   3.120  14.193  0.1880 -0.3914 -0.1928
   73TMC2    C8 1123   0.745   2.879  14.002 -0.0340  0.7658  0.4096
   73TMC2    O1 1124   1.171   3.025  14.226  0.2962  0.3872 -0.3473
   73TMC2    O2 1125   0.740   2.789  14.083  0.2552  0.1626 -0.3463
   73TMC2    O5 1126   0.753   2.864  13.869 -0.3182 -0.2023 -0.1438
   73TMC2    H5 1127   0.792   2.940  13.821  0.2592  0.2971  1.1134
   74MPD2     C 1128   0.818   3.628  13.558  0.2968  0.5563  0.0994
   74MPD2    C1 1129   0.909   3.620  13.654 -0.2953  0.7359  0.0449
   74MPD2    C2 1130   0.895   3.530  13.761 -0.2555  0.6860 -0.1625
   74MPD2    C3 1131   0.777   3.462  13.771  0.3392 -0.1051  0.4459
   74MPD2    C4 1132   0.683   3.475  13.673  0.1903  0.0011 -0.5236
   74MPD2    C5 1133   0.698   3.559  13.570  0.0473  0.0775  0.1595
   74MPD2     H 1134   0.979   3.513  13.827  1.2868  0.6245 -2.1268
   74MPD2    H1 1135   0.588   3.423  13.679  1.7670 -2.7776  0.6493
   74MPD2    H2 1136   0.829   3.691  13.470  2.0780 -0.1867 -0.2046
   74MPD2    H3 1137   0.626   3.572  13.490 -0.7826  1.7956  1.1955
   74MPD2     N 1138   0.757   3.367  13.877 -0.2803 -0.0378  0.6173
   74MPD2    H5 1139   0.677   3.307  13.861 -0.8445  0.2960  2.2540
   74MPD2    N1 1140   1.022   3.700  13.632  0.2803  0.3274  0.9172
   74MPD2    H7 1141   1.028   3.768  13.557 -0.4673 -0.9789 -0.3149
   75TCq2    C1 1142   0.963   4.139  14.288 -0.0313 -0.6847  0.2294
   75TCq2    O2 1143   1.008   4.251  14.273  0.2851  0.0657  0.2532
   75TCq2    C2 1144   0.838   4.113  14.214  0.5579  0.2225  0.4328
   75TCq2    C3 1145   0.751   4.015  14.252  0.0498 -0.3980  1.1344
   75TCq2    C4 1146   0.641   3.998  14.180  0.6985 -0.0444  0.1355
   75TCq2    C5 1147   0.607   4.084  14.081 -0.0391 -0.3692 -0.5798
   75TCq2    C6 1148   0.684   4.189  14.045  0.1037 -0.2174  0.5301
   75TCq2    C7 1149   0.808   4.200  14.108  0.0208  0.4514  0.6024
   75TCq2    C8 1150   0.653   4.267  13.925 -0.0668 -0.5620  0.1491
   75TCq2    O4 1151   0.579   4.207  13.846  0.3586  1.0834  0.1105
   75TCq2    C9 1152   0.541   3.899  14.223 -0.1309 -1.5584 -0.0188
   75TCq2    O5 1153   0.434   3.898  14.156  0.2364 -0.3003 -0.4888
   75TCq2    O6 1154   0.569   3.823  14.316  0.0646  0.6719 -0.0851
   75TCq2    H2 1155   0.764   3.956  14.342 -1.0331 -0.9865  0.9058
   75TCq2    H3 1156   0.513   4.073  14.028  0.5639  0.2863 -1.7995
   75TCq2    H4 1157   0.868   4.288  14.086  0.5724 -0.8744 -3.0919
   76MPD2     C 1158   4.713   0.962  12.432 -0.4994  0.5307 -0.1252
   76MPD2    C1 1159   0.010   1.047  12.319 -0.0072 -0.2268 -0.6286
   76MPD2    C2 1160   0.125   1.113  12.282 -0.4132  0.0332 -0.0797
   76MPD2    C3 1161   0.226   1.101  12.370 -1.6170 -0.6306  0.4274
   76MPD2    C4 1162   0.216   1.034  12.492 -0.7036 -0.0225 -0.6754
   76MPD2    C5 1163   0.104   0.968  12.519 -0.1936 -0.3196  0.5013
   76MPD2     H 1164   0.128   1.176  12.193  0.0377 -0.0384 -0.1143
   76MPD2    H1 1165   0.299   1.028  12.561 -1.6159  0.6683  0.4875
   76MPD2    H2 1166   4.618   0.914  12.450 -1.0433  0.9483 -1.8734
   76MPD2    H3 1167   0.092   0.931  12.621 -2.8750  0.0424  0.3239
   76MPD2     N 1168   0.357   1.154  12.351  0.2894  0.5523  0.0871
   76MPD2    H5 1169   0.416   1.149  12.434  0.5384  0.7494 -0.0791
   76MPD2    N1 1170   4.625   1.076  12.229  0.0596  0.3533 -0.0337
   76MPD2    H7 1171   4.650   1.136  12.151 -1.5302 -0.9547 -1.5477
   77TCq2    C1 1172   0.394   1.222  12.236  0.1913  0.1257 -0.1033
   77TCq2    O2 1173   0.329   1.246  12.137  0.1627  0.2895  0.5309
   77TCq2    C2 1174   0.533   1.232  12.224 -1.2980  0.8389  0.0272
   77TCq2    C3 1175   0.576   1.309  12.120 -0.1209  0.2612 -0.1454
   77TCq2    C4 1176   0.709   1.329  12.110  0.8038 -0.0528 -0.1624
   77TCq2    C5 1177   0.798   1.281  12.203 -0.0754 -0.8724 -0.3826
   77TCq2    C6 1178   0.752   1.193  12.291  0.4626 -0.6799 -0.2454
   77TCq2    C7 1179   0.618   1.166  12.310  0.3230  0.1762  0.1980
   77TCq2    C8 1180   0.836   1.164  12.405 -0.4912 -0.3982 -0.3836
   77TCq2    O4 1181   0.941   1.228  12.407  0.4188 -0.1783 -0.8592
   77TCq2    C9 1182   0.771   1.417  12.011  0.0507  1.0541 -0.1974
   77TCq2    O5 1183   0.708   1.449  11.905  0.7665  0.3605 -0.0464
   77TCq2    O6 1184   0.875   1.478  12.046  0.2819 -0.3227 -0.1022
   77TCq2    H2 1185   0.506   1.368  12.060  1.5102  2.1219 -0.2344
   77TCq2    H3 1186   0.905   1.296  12.194 -0.2084  0.3355 -0.0358
   77TCq2    H4 1187   0.592   1.099  12.391 -0.2613  0.4021  0.1982
   78MPD1     C 1188   3.387   4.519   2.146 -0.6919  0.5512 -0.4652
   78MPD1    C1 1189   3.277   4.571   2.085 -0.8665  0.9081  0.4742
   78MPD1    C2 1190   3.242   4.703   2.105 -0.1728  0.0895  0.0724
   78MPD1    C3 1191   3.328   0.071   2.170 -0.4782  0.0730 -0.4265
   78MPD1    C4 1192   3.449   0.019   2.219  0.1530  0.5624 -0.3951
   78MPD1    C5 1193   3.468   4.606   2.216  0.5588 -0.5571  0.5570
   78MPD1     H 1194   3.153   0.016   2.051  0.1163  3.3305  1.5126
   78MPD1    H1 1195   3.527   0.081   2.262 -0.7577  1.8967 -0.6616
   78MPD1    H2 1196   3.427   4.418   2.150  0.7509  1.0374 -2.7274
   78MPD1    H3 1197   3.564   4.574   2.254  0.9714  2.1168  1.7659
   78MPD1     N 1198   3.301   0.208   2.198 -0.0657  0.2047  0.1824
   78MPD1    H5 1199   3.376   0.258   2.244  1.6388 -0.8059 -1.4942
   78MPD1    N1 1200   3.187   4.478   2.024  0.6056  0.3934 -0.0874
   78MPD1    H6 1201   3.241   4.405   1.979 -0.9663 -0.4218 -0.6835
   78MPD1    H7 1202   3.133   4.507   1.942  2.6935  1.3168 -1.1166
   79TCq2    C1 1203   3.189   0.275   2.165  0.0702 -0.3661 -0.1264
   79TCq2    O2 1204   3.080   0.224   2.131  0.1712 -0.1729 -0.4882
   79TCq2    C2 1205   3.187   0.414   2.211 -0.2727  0.2619 -0.9493
   79TCq2    C3 1206   3.252   0.445   2.327 -0.0626  0.1751  0.0847
   79TCq2    C4 1207   3.234   0.571   2.370 -0.4165  0.6550 -0.5126
   79TCq2    C5 1208   3.152   0.662   2.307  0.4931  0.0610  0.4050
   79TCq2    C6 1209   3.078   0.617   2.204  0.0655 -0.4820  0.0327
   79TCq2    C7 1210   3.093   0.492   2.152  0.2900 -0.3371 -1.0088
   79TCq2    C8 1211   2.983   0.709   2.147  0.5889 -0.0813  0.2425
   79TCq2    O4 1212   2.951   0.808   2.208 -0.1877  0.1202 -0.1053
   79TCq2    C9 1213   3.303   0.624   2.481 -0.0319  0.3722  0.0793
   79TCq2    O5 1214   3.371   0.543   2.546 -0.3794 -0.3332 -0.1378
   79TCq2    O6 1215   3.275   0.739   2.520 -0.3983  0.0779 -0.8966
   79TCq2    H2 1216   3.317   0.374   2.377  0.2821  0.3139 -0.1675
   79TCq2    H3 1217   3.131   0.758   2.353 -2.9255 -0.0903 -0.8654
   79TCq2    H4 1218   3.031   0.455   2.071  1.2721 -0.5826 -1.6543
   80MPD2     C 1219   3.622   0.466  12.449 -0.3891 -0.2529 -0.7639
   80MPD2    C1 1220   3.581   0.531  12.335  0.1427 -0.6387 -0.2637
   80MPD2    C2 1221   3.452   0.589  12.335 -0.0479 -0.0925  0.2334
   80MPD2    C3 1222   3.361   0.548  12.424 -0.3760  0.3744 -0.0932
   80MPD2    C4 1223   3.397   0.469  12.534 -0.0419 -0.6388  0.0101
   80MPD2    C5 1224   3.530   0.433  12.542 -0.2275  0.0538  0.5164
   80MPD2     H 1225   3.412   0.644  12.251 -0.0560  0.4961  0.6194
   80MPD2    H1 1226   3.324   0.431  12.604 -0.4578  1.1665  0.5641
   80MPD2    H2 1227   3.720   0.423  12.463 -0.3943 -0.6379 -1.8917
   80MPD2    H3 1228   3.572   0.364  12.614  2.5594 -1.1513 -2.2446
   80MPD2     N 1229   3.228   0.589  12.428  0.4154  0.2132  0.2620
   80MPD2    H5 1230   3.173   0.536  12.494  1.0054  1.3170  1.6381
   80MPD2    N1 1231   3.667   0.553  12.221 -0.2621 -0.0712  0.5959
   80MPD2    H7 1232   3.628   0.601  12.140  0.8853  2.5517  1.6139
   81TCq2    C1 1233   3.791   0.502  12.208 -0.8400  0.0415 -0.4158
   81TCq2    O2 1234   3.873   0.485  12.298 -0.2208 -0.2572  0.1561
   81TCq2    C2 1235   3.816   0.443  12.078  0.0599  0.4760 -0.0123
   81TCq2    C3 1236   3.946   0.426  12.042  0.1248  0.9020  0.2252
   81TCq2    C4 1237   3.972   0.399  11.913  0.1457 -0.1267  0.3240
   81TCq2    C5 1238   3.872   0.369  11.824  0.6229  0.4291  0.1974
   81TCq2    C6 1239   3.743   0.373  11.873  0.8807  0.3769 -0.0398
   81TCq2    C7 1240   3.711   0.419  11.994 -0.2137 -0.2780 -0.6757
   81TCq2    C8 1241   3.637   0.308  11.793  0.1497 -0.0642  0.4590
   81TCq2    O4 1242   3.652   0.297  11.672  0.0220 -0.0288 -0.0743
   81TCq2    C9 1243   4.106   0.401  11.861 -1.0490 -0.0151  0.1873
   81TCq2    O5 1244   4.197   0.447  11.943 -0.1178  0.0159  0.2248
   81TCq2    O6 1245   4.128   0.314  11.774 -0.1673  0.3484  0.0240
   81TCq2    H2 1246   4.025   0.450  12.112  0.4375 -2.4577  1.0545
   81TCq2    H3 1247   3.892   0.313  11.734  2.2261  0.8254  0.3090
   81TCq2    H4 1248   3.606   0.442  12.012 -0.0280  2.1108 -2.6178
   82MPD2     C 1249   2.251   0.067  10.720 -0.9979 -0.5332  0.3265
   82MPD2    C1 1250   2.199   4.665  10.674 -0.7423 -0.5494  0.3571
   82MPD2    C2 1251   2.227   4.549  10.750 -0.2673 -0.0677  0.3056
   82MPD2    C3 1252   2.293   4.553  10.870 -0.3337 -0.1540  0.2129
   82MPD2    C4 1253   2.333   4.677  10.915  0.2608 -0.2485 -0.7037
   82MPD2    C5 1254   2.316   0.075  10.840 -0.0092 -0.3500  0.6950
   82MPD2     H 1255   2.196   4.448  10.728 -1.9661  0.1980  1.4328
   82MPD2    H1 1256   2.387   4.682  11.008 -1.3609 -0.5649  0.2622
   82MPD2    H2 1257   2.216   0.159  10.676  0.2065 -1.2413 -2.1155
   82MPD2    H3 1258   2.352   0.173  10.868  0.9225 -1.3716  3.1349
   82MPD2     N 1259   2.327   4.440  10.953 -0.4407  0.4758 -0.2035
   82MPD2    H5 1260   2.391   4.449  11.032 -1.7634 -2.3103  1.1501
   82MPD2    N1 1261   2.121   4.657  10.558 -0.4471 -0.4804  0.8834
   82MPD2    H7 1262   2.120   0.019  10.497  2.5249 -0.6626  0.5569
   83TCq2    C1 1263   2.259   4.321  10.939 -0.4500 -0.1818 -1.0816
   83TCq2    O2 1264   2.151   4.291  10.895  0.6276 -0.0251  0.5252
   83TCq2    C2 1265   2.318   4.208  11.017  0.0651 -0.5837 -0.1275
   83TCq2    C3 1266   2.450   4.224  11.067 -0.0807  0.0360  0.2689
   83TCq2    C4 1267   2.519   4.109  11.109 -0.3581 -0.2261  0.3141
   83TCq2    C5 1268   2.470   3.982  11.087 -0.0246 -0.3327  0.8980
   83TCq2    C6 1269   2.350   3.975  11.019 -0.1134  0.5189  0.7341
   83TCq2    C7 1270   2.270   4.082  10.991  0.3394 -0.4765  0.4751
   83TCq2    C8 1271   2.278   3.851  11.031  0.5893  0.1566 -0.0088
   83TCq2    O4 1272   2.307   3.770  11.119  0.7781  0.2278 -0.7839
   83TCq2    C9 1273   2.654   4.123  11.156  0.7500 -1.0354  0.1498
   83TCq2    O5 1274   2.709   4.023  11.211  0.5299  0.2337  0.2146
   83TCq2    O6 1275   2.697   4.239  11.142 -0.6823  0.5532  0.3242
   83TCq2    H2 1276   2.488   4.321  11.099 -0.0487  1.0284 -2.7684
   83TCq2    H3 1277   2.531   3.896  11.113 -0.5359 -0.5475  1.3850
   83TCq2    H4 1278   2.172   4.071  10.948 -0.2865  2.1437  1.2616
   84TCq2    C1 1279   3.466   2.953  10.556 -0.0976  0.5666 -0.3218
   84TCq2    O2 1280   3.466   2.874  10.646 -0.3175 -0.2214  0.3795
   84TCq2    C2 1281   3.468   3.093  10.588 -0.1209 -0.2520 -0.4697
   84TCq2    C3 1282   3.462   3.185  10.480 -0.3568 -0.4779 -0.2218
   84TCq2    C4 1283   3.402   3.305  10.506  0.1799 -0.2283  0.0292
   84TCq2    C5 1284   3.356   3.340  10.625  0.1240 -0.1239 -1.5687
   84TCq2    C6 1285   3.377   3.255  10.735 -0.7794  0.5109 -0.1869
   84TCq2    C7 1286   3.429   3.129  10.720 -0.5496 -1.0425 -0.2434
   84TCq2    C8 1287   3.353   3.318  10.864  0.7702  0.3945 -0.0924
   84TCq2    O4 1288   3.303   3.426  10.853  0.1567 -0.5866 -0.3716
   84TCq2    C9 1289   3.395   3.401  10.392  0.7089 -0.6176  0.3130
   84TCq2    O5 1290   3.423   3.359  10.275  0.4393 -0.0505  0.3957
   84TCq2    O6 1291   3.363   3.521  10.413 -0.6260  0.3912  0.1989
   84TCq2    H2 1292   3.500   3.177  10.378  1.3338 -2.5901  0.5766
   84TCq2    H3 1293   3.322   3.443  10.625  2.8183  0.7568  0.0303
   84TCq2    H4 1294   3.425   3.052  10.796  3.9823  0.8049  1.8797
   85MPD2     C 1295   3.327   1.007  16.537 -0.3327  1.1042  0.3263
   85MPD2    C1 1296   3.336   0.988  16.398  0.6557  0.2574  0.2909
   85MPD2    C2 1297   3.402   1.077  16.319  0.5562  0.8778 -0.1313
   85MPD2    C3 1298   3.466   1.185  16.376  1.1291  0.0895 -0.0891
   85MPD2    C4 1299   3.450   1.204  16.506 -0.4796  0.2553 -0.0439
   85MPD2    C5 1300   3.383   1.121  16.585 -0.4561 -0.4471 -0.8600
   85MPD2     H 1301   3.386   1.071  16.212  0.5022 -1.0885 -0.0007
   85MPD2    H1 1302   3.486   1.292  16.559 -0.6238 -0.4891  1.2871
   85MPD2    H2 1303   3.260   0.953  16.602  0.1464  0.6382  0.4329
   85MPD2    H3 1304   3.366   1.150  16.688 -1.2396 -1.1435 -0.7914
   85MPD2     N 1305   3.534   1.274  16.286 -0.4843  0.2073  0.6007
   85MPD2    H5 1306   3.541   1.250  16.188 -1.3615  1.3223  0.2567
   85MPD2    N1 1307   3.251   0.894  16.338 -0.1598 -0.0132 -0.0270
   85MPD2    H7 1308   3.229   0.908  16.240 -0.0774 -3.4666 -0.5410
   86TCq2    C1 1309   3.578   1.404  16.313 -0.1526 -0.0467  0.4833
   86TCq2    O2 1310   3.538   1.475  16.408 -0.0793  0.0267  0.4417
   86TCq2    C2 1311   3.634   1.463  16.197  0.1745 -0.6203 -1.2375
   86TCq2    C3 1312   3.670   1.386  16.089 -0.5062 -0.8267 -0.9310
   86TCq2    C4 1313   3.713   1.449  15.973  0.0276  0.1070 -0.0538
   86TCq2    C5 1314   3.728   1.588  15.969 -0.1565 -0.3205 -0.2398
   86TCq2    C6 1315   3.710   1.656  16.081 -0.0365  0.0299 -0.7449
   86TCq2    C7 1316   3.671   1.595  16.195 -0.1474 -0.6506  0.4502
   86TCq2    C8 1317   3.768   1.790  16.076 -0.5502 -0.2024  0.0118
   86TCq2    O4 1318   3.774   1.830  15.961 -0.5878 -0.2696 -0.5606
   86TCq2    C9 1319   3.719   1.371  15.853  0.0302  0.1009  0.0427
   86TCq2    O5 1320   3.799   1.421  15.772 -0.2667  0.4964 -0.1146
   86TCq2    O6 1321   3.666   1.259  15.861  0.1669  0.0251  0.0072
   86TCq2    H2 1322   3.667   1.278  16.098  1.0570 -0.6538  1.6595
   86TCq2    H3 1323   3.755   1.630  15.872 -0.5710 -0.4089 -0.3971
   86TCq2    H4 1324   3.648   1.655  16.282  0.0928 -0.1033  0.1360
   87MPD2     C 1325   0.470   4.455   0.444 -0.2350 -0.3274  0.7802
   87MPD2    C1 1326   0.418   4.508   0.553  0.1881  0.4168 -0.4422
   87MPD2    C2 1327   0.319   4.602   0.540 -0.2290  0.0054 -0.4660
   87MPD2    C3 1328   0.268   4.639   0.415  0.2388 -0.2348 -0.9178
   87MPD2    C4 1329   0.324   4.587   0.305  0.0406  0.3922  0.4004
   87MPD2    C5 1330   0.427   4.492   0.319 -0.7806 -0.2078  0.0839
   87MPD2     H 1331   0.279   4.658   0.624  1.4897 -1.1840  1.1396
   87MPD2    H1 1332   0.295   4.628   0.209  0.8926  0.6123  0.2383
   87MPD2    H2 1333   0.547   4.379   0.441 -1.5055 -1.6044  0.6741
   87MPD2    H3 1334   0.466   4.446   0.229 -1.2026 -2.4099  1.0346
   87MPD2     N 1335   0.171   0.019   0.398 -0.0723  0.1498  0.3498
   87MPD2    H5 1336   0.149   0.048   0.303  1.7555 -0.8539 -0.3576
   87MPD2    N1 1337   0.489   4.487   0.673 -0.3528 -0.4577 -1.2139
   87MPD2    H7 1338   0.548   4.405   0.680 -1.5568 -1.1350  1.1835
   88TCq2    C1 1339   0.472   4.555   0.791  0.7500  0.9832  0.0913
   88TCq2    O2 1340   0.398   4.646   0.820 -0.1518 -0.2575 -0.3381
   88TCq2    C2 1341   0.579   4.533   0.885  0.0936 -0.2154  0.5170
   88TCq2    C3 1342   0.562   4.561   1.018  0.0331 -0.8820  0.6548
   88TCq2    C4 1343   0.676   4.563   1.098 -0.1745  0.1266  0.0473
   88TCq2    C5 1344   0.801   4.543   1.047 -0.7434  0.1560  0.5889
   88TCq2    C6 1345   0.811   4.524   0.908  0.0963 -0.1648  0.0054
   88TCq2    C7 1346   0.701   4.519   0.825 -0.3196  0.2062  0.7961
   88TCq2    C8 1347   0.930   4.477   0.854  0.6340  0.8848 -0.3436
   88TCq2    O4 1348   0.918   4.410   0.751  0.5904 -0.3568 -0.1126
   88TCq2    C9 1349   0.654   4.578   1.240  0.0111 -0.5793  0.1044
   88TCq2    O5 1350   0.533   4.595   1.278  0.4772  0.2959 -0.6349
   88TCq2    O6 1351   0.755   4.565   1.313 -0.1681  0.2240  0.2677
   88TCq2    H2 1352   0.462   4.569   1.060  0.6893  1.1430  1.8522
   88TCq2    H3 1353   0.889   4.528   1.109  0.1028 -0.8033 -0.8364
   88TCq2    H4 1354   0.707   4.519   0.717  0.8757  1.1530  0.8711
   89MPD2     C 1355   1.832   3.046   1.468 -0.4907  0.3369  0.3137
   89MPD2    C1 1356   1.789   3.136   1.568  0.3875  0.1284 -0.5343
   89MPD2    C2 1357   1.868   3.244   1.594 -0.7946  0.0102 -0.4680
   89MPD2    C3 1358   1.972   3.274   1.511  0.0746  0.4884 -0.0620
   89MPD2    C4 1359   2.016   3.179   1.416  0.4398  0.0377 -0.0292
   89MPD2    C5 1360   1.953   3.060   1.406  0.4974 -0.0210  0.5297
   89MPD2     H 1361   1.830   3.315   1.666 -1.8392 -0.9511 -0.0722
   89MPD2    H1 1362   2.105   3.200   1.359  0.7684 -0.1588  0.4084
   89MPD2    H2 1363   1.786   2.949   1.461  1.1449 -0.2652 -2.2232
   89MPD2    H3 1364   1.992   2.986   1.339  1.4495 -1.5602  2.7933
   89MPD2     N 1365   2.028   3.400   1.520  0.3570  0.2008  0.0155
   89MPD2    H5 1366   1.998   3.465   1.592 -2.1726  1.1742 -1.9280
   89MPD2    N1 1367   1.667   3.125   1.647 -0.2987 -0.1816  0.4168
   89MPD2    H7 1368   1.630   3.198   1.708 -1.8578 -0.9688  0.4055
   90TCq2    C1 1369   2.121   3.458   1.429  0.2485  0.3638 -0.1337
   90TCq2    O2 1370   2.172   3.405   1.329  0.2305 -0.2059  0.1656
   90TCq2    C2 1371   2.152   3.598   1.466 -0.0469 -0.8487  0.1603
   90TCq2    C3 1372   2.118   3.653   1.591 -0.5420 -0.7967  0.0861
   90TCq2    C4 1373   2.182   3.774   1.612  0.0109  0.5756 -0.1717
   90TCq2    C5 1374   2.271   3.829   1.533  0.4581 -0.3152 -0.6816
   90TCq2    C6 1375   2.319   3.750   1.434 -0.3271 -0.1240  0.7549
   90TCq2    C7 1376   2.248   3.644   1.383 -0.9808  0.1748 -0.1273
   90TCq2    C8 1377   2.449   3.774   1.373 -0.1652 -0.1826  0.4560
   90TCq2    O4 1378   2.479   3.710   1.275  0.0058 -0.2813 -0.9438
   90TCq2    C9 1379   2.154   3.836   1.746 -0.0234 -0.3580  0.2298
   90TCq2    O5 1380   2.075   3.769   1.816 -0.1945  0.2049  0.1600
   90TCq2    O6 1381   2.208   3.950   1.765 -0.3148  0.0174 -0.4997
   90TCq2    H2 1382   2.043   3.613   1.658 -1.1704 -1.3221 -0.9312
   90TCq2    H3 1383   2.333   3.910   1.568 -1.7724  0.9165  0.4303
   90TCq2    H4 1384   2.302   3.575   1.319 -2.8728 -0.1770 -1.3404
   91TMC2    C1 1385   3.697   2.342  16.303 -0.5566  0.0937 -0.1373
   91TMC2    C2 1386   3.761   2.315  16.420  0.4290 -0.5737 -0.1056
   91TMC2    C3 1387   3.687   2.273  16.528 -0.4345  0.2920  0.2317
   91TMC2    C4 1388   3.562   2.326  16.298 -0.4768  0.0738  0.1860
   91TMC2    C5 1389   3.495   2.272  16.407  0.5846 -0.4135  0.7853
   91TMC2    C6 1390   3.557   2.251  16.525 -0.9561  0.7784 -0.5530
   91TMC2     C 1391   3.758   2.425  16.198 -0.1302  0.3449 -0.0950
   91TMC2     O 1392   3.698   2.434  16.092 -0.0842 -0.0391  0.2506
   91TMC2     H 1393   3.869   2.325  16.431  0.8738 -3.8145 -1.5848
   91TMC2    H1 1394   3.502   2.351  16.211  1.5664 -0.7735 -1.4730
   91TMC2    H2 1395   3.501   2.203  16.604  2.8529  0.0402  1.7049
   91TMC2    C7 1396   3.359   2.227  16.396 -0.7794 -0.2407  0.5149
   91TMC2    C8 1397   3.770   2.232  16.638  0.2774 -0.3834 -0.0170
   91TMC2    O1 1398   3.295   2.235  16.501  0.4926 -0.6703  0.0078
   91TMC2    O2 1399   3.881   2.186  16.629  0.6965  0.3097  0.1754
   91TMC2    O5 1400   3.676   2.190  16.730 -0.5691 -0.1704 -0.2419
   91TMC2    H5 1401   3.603   2.256  16.730  0.6771  1.1728  0.4873
   92MPD2     C 1402   3.934   2.612  16.037  0.3900  0.2447 -0.3698
   92MPD2    C1 1403   3.952   2.575  16.164 -0.0785 -0.4327 -1.0199
   92MPD2    C2 1404   4.073   2.613  16.227  0.1624 -0.0587  1.0412
   92MPD2    C3 1405   4.163   2.696  16.152  0.1036  0.1701  0.2050
   92MPD2    C4 1406   4.128   2.742  16.028 -0.1243 -0.1465 -0.2480
   92MPD2    C5 1407   4.013   2.700  15.969  0.5573  0.0700  0.1305
   92MPD2     H 1408   4.084   2.585  16.331  1.0320 -1.2220  0.6285
   92MPD2    H1 1409   4.192   2.806  15.969 -1.3061  0.6499 -0.6580
   92MPD2    H2 1410   3.844   2.583  15.985  0.0868 -2.6950  1.7958
   92MPD2    H3 1411   3.982   2.738  15.872  1.6245 -0.8726 -0.5952
   92MPD2     N 1412   4.287   2.713  16.215 -0.3429  0.3717  0.4515
   92MPD2    H5 1413   4.302   2.657  16.299 -1.4701 -2.1021 -0.9843
   92MPD2    N1 1414   3.872   2.491  16.241  0.1021 -0.1421  0.0580
   92MPD2    H7 1415   3.912   2.473  16.333 -0.0690 -0.7012  0.0209
   93MPD2     C 1416   0.829   2.428  13.621  0.0404 -0.1596 -0.3486
   93MPD2    C1 1417   0.807   2.516  13.725  0.2183  0.2446  0.6189
   93MPD2    C2 1418   0.681   2.541  13.780 -0.6480  0.5777  0.0316
   93MPD2    C3 1419   0.577   2.465  13.734 -0.1171  0.6406 -0.1837
   93MPD2    C4 1420   0.603   2.374  13.634  0.0447 -0.1936 -0.1887
   93MPD2    C5 1421   0.722   2.357  13.578 -0.5092 -1.3038 -0.1432
   93MPD2     H 1422   0.675   2.627  13.846 -0.2077  0.7683 -0.1722
   93MPD2    H1 1423   0.520   2.317  13.593 -0.7079 -0.5524  1.8241
   93MPD2    H2 1424   0.928   2.403  13.584 -0.7805  0.2398 -2.8143
   93MPD2    H3 1425   0.746   2.273  13.514  1.1450 -0.1444 -1.0491
   93MPD2     N 1426   0.439   2.479  13.762  0.1085  0.4326  0.0702
   93MPD2    H5 1427   0.375   2.410  13.723 -1.9014  2.1979  0.2748
   93MPD2    N1 1428   0.907   2.607  13.765 -0.2959 -0.4227 -0.1075
   93MPD2    H7 1429   0.886   2.688  13.823 -0.8336 -0.7225  0.1229
   94TCq2    C1 1430   1.037   2.600  13.717  0.1059  0.0866  0.6924
   94TCq2    O2 1431   1.102   2.495  13.699 -0.0559 -0.8126  0.0480
   94TCq2    C2 1432   1.096   2.729  13.709 -0.1245  0.2299  0.0530
   94TCq2    C3 1433   1.013   2.841  13.710 -0.1218  0.3607 -0.2319
   94TCq2    C4 1434   1.075   2.959  13.734 -0.1912  0.9174 -0.4254
   94TCq2    C5 1435   1.204   2.966  13.757  0.7990  0.2064 -0.4861
   94TCq2    C6 1436   1.284   2.851  13.761  0.2743  0.4208  0.6615
   94TCq2    C7 1437   1.233   2.728  13.737  0.3063 -0.4052  0.2502
   94TCq2    C8 1438   1.425   2.860  13.765 -0.0620  0.3847 -0.0552
   94TCq2    O4 1439   1.488   2.752  13.762  0.4126  0.1848 -0.2647
   94TCq2    C9 1440   0.990   3.080  13.733  0.4664 -0.0250 -0.5649
   94TCq2    O5 1441   1.050   3.185  13.708 -0.0780  0.3434  0.7094
   94TCq2    O6 1442   0.867   3.059  13.730 -0.0526  0.3358  0.3779
   94TCq2    H2 1443   0.912   2.836  13.670  0.6259  1.4041 -2.2332
   94TCq2    H3 1444   1.251   3.062  13.774 -0.6541  0.8793 -0.2179
   94TCq2    H4 1445   1.286   2.634  13.735  1.2062  0.0743  2.1786
   95TMC2    C1 1446   0.854   4.264  15.943  0.0837  0.6677 -0.0029
   95TMC2    C2 1447   0.772   4.210  16.039 -0.7789  0.1479 -0.0936
   95TMC2    C3 1448   0.682   4.288  16.095 -0.4492  0.0232  0.8934
   95TMC2    C4 1449   0.842   4.394  15.901  0.0600  0.1256 -0.3174
   95TMC2    C5 1450   0.747   4.471  15.960  0.5632 -0.4190  0.0680
   95TMC2    C6 1451   0.670   4.419  16.064 -0.2551 -0.6996  0.4233
   95TMC2     C 1452   0.979   4.205  15.906 -0.6289  0.0012  0.9227
   95TMC2     O 1453   1.071   4.272  15.871  0.2156 -0.4381 -0.3501
   95TMC2     H 1454   0.792   4.110  16.077 -0.5592  0.3168  0.2314
   95TMC2    H1 1455   0.919   4.444  15.845 -2.0155  1.1556 -2.2706
   95TMC2    H2 1456   0.601   4.493  16.103 -0.6504 -2.0189  2.1808
   95TMC2    C7 1457   0.708   4.596  15.890 -0.0149  0.5519  0.0314
   95TMC2    C8 1458   0.613   4.221  16.202  0.0373 -0.2549 -0.4237
   95TMC2    O1 1459   0.653   4.685  15.956  0.2221  0.2901  0.1063
   95TMC2    O2 1460   0.597   4.100  16.204 -0.4642 -0.3068 -0.1831
   95TMC2    O5 1461   0.661   4.291  16.310 -0.3891  0.5256 -0.1705
   95TMC2    H5 1462   0.713   4.370  16.287 -0.1118  0.2526 -0.4776
   96MPD2     C 1463   1.280   3.808  15.813  0.5446 -0.3230 -0.0996
   96MPD2    C1 1464   1.314   3.942  15.812  0.2260 -0.7241  0.6885
   96MPD2    C2 1465   1.216   4.033  15.856  0.0251  0.0778 -0.1575
   96MPD2    C3 1466   1.095   3.988  15.904 -0.5472 -0.1978  0.0266
   96MPD2    C4 1467   1.069   3.854  15.911  0.2097  0.7190 -0.0518
   96MPD2    C5 1468   1.168   3.764  15.875  0.0175  0.3742  0.6257
   96MPD2     H 1469   1.238   4.138  15.844 -0.2867  0.2683  1.0205
   96MPD2    H1 1470   0.976   3.813  15.949  1.8179  0.0157  3.1448
   96MPD2    H2 1471   1.352   3.729  15.792  2.1168  0.5500  2.0763
   96MPD2    H3 1472   1.143   3.658  15.869 -1.4622  0.7430  0.5496
   96MPD2     N 1473   0.983   4.069  15.925 -0.2787  0.2878 -0.3747
   96MPD2    H5 1474   0.905   4.016  15.962  1.8173 -1.2758  1.8276
   96MPD2    N1 1475   1.438   3.987  15.756  0.1635  0.3017 -0.0383
   96MPD2    H7 1476   1.505   3.921  15.718 -1.2804 -1.0813 -0.1789
   97MPD2     C 1477   1.767   1.643   0.729  0.1927 -0.4061 -0.1873
   97MPD2    C1 1478   1.784   1.767   0.672  0.0082  0.1385 -0.5742
   97MPD2    C2 1479   1.810   1.782   0.538 -1.2163  0.0902 -0.2112
   97MPD2    C3 1480   1.835   1.670   0.457 -0.1848  0.5367  0.1353
   97MPD2    C4 1481   1.805   1.548   0.508 -0.4050 -0.5262 -0.0655
   97MPD2    C5 1482   1.767   1.537   0.642 -0.3084 -0.3222 -0.3762
   97MPD2     H 1483   1.842   1.879   0.502  0.5824  0.2140  1.7096
   97MPD2    H1 1484   1.823   1.453   0.460  0.8039  0.1085 -0.8586
   97MPD2    H2 1485   1.745   1.618   0.832  1.2890 -0.3587  0.0571
   97MPD2    H3 1486   1.744   1.443   0.690 -0.4744 -0.1928 -0.1950
   97MPD2     N 1487   1.902   1.669   0.332 -0.0176 -0.0714  0.5505
   97MPD2    H5 1488   1.910   1.576   0.293  1.5695 -0.7786  2.5579
   97MPD2    N1 1489   1.799   1.878   0.758  0.5546  0.2263  0.4135
   97MPD2    H7 1490   1.824   1.857   0.854  3.1715  0.0490 -0.2936
   98TCq2    C1 1491   1.960   1.785   0.273 -0.3379  0.2633  0.1454
   98TCq2    O2 1492   1.931   1.901   0.299  0.1718  0.1358  0.3709
   98TCq2    C2 1493   2.071   1.760   0.185 -0.4369  0.2032 -0.2187
   98TCq2    C3 1494   2.098   1.636   0.132  0.1940  0.0088 -0.3626
   98TCq2    C4 1495   2.210   1.624   0.051  0.4985 -0.4671  0.7611
   98TCq2    C5 1496   2.293   1.729   0.027  0.1684  0.1633 -0.2613
   98TCq2    C6 1497   2.254   1.856   0.076 -0.0693  0.1664  0.1047
   98TCq2    C7 1498   2.143   1.874   0.148  0.4786  0.0962 -0.4014
   98TCq2    C8 1499   2.347   1.968   0.067  0.3528  0.2639 -0.4281
   98TCq2    O4 1500   2.457   1.944   0.018 -0.9413  0.6450  0.0151
   98TCq2    C9 1501   2.241   1.489   0.001 -0.3266  0.1986 -0.3611
   98TCq2    O5 1502   2.153   1.401   0.027  0.2337 -0.3060  0.7744
   98TCq2    O6 1503   2.343   1.480  17.608  0.1804  0.4612 -0.1787
   98TCq2    H2 1504   2.037   1.549   0.153  0.7597 -0.6732 -1.5866
   98TCq2    H3 1505   2.394   1.708  17.671 -0.2221 -1.7794 -0.2102
   98TCq2    H4 1506   2.106   1.970   0.184 -0.6821  0.0723 -1.5398
   99MPD2     C 1507   1.859   3.990   1.691  0.0213 -0.1710 -0.1048
   99MPD2    C1 1508   1.715   3.998   1.702  0.0728  0.1688 -0.3510
   99MPD2    C2 1509   1.639   4.016   1.591 -0.2055  0.0619  0.4646
   99MPD2    C3 1510   1.700   4.012   1.466  0.7093  0.4255 -0.6373
   99MPD2    C4 1511   1.836   3.993   1.455 -0.2920  0.0698  0.5638
   99MPD2    C5 1512   1.910   3.980   1.568  0.2734  0.0240 -0.4889
   99MPD2     H 1513   1.530   4.021   1.591 -0.1675  0.9209  0.0168
   99MPD2    H1 1514   1.889   3.978   1.362 -2.3208 -1.9599 -0.2932
   99MPD2    H2 1515   1.938   3.976   1.764  0.6717 -2.8725 -1.3136
   99MPD2    H3 1516   2.017   3.969   1.553  0.5758  0.0758  1.6171
   99MPD2     N 1517   1.612   4.018   1.355  0.2370  0.2265 -0.1963
   99MPD2    H5 1518   1.514   4.037   1.376  0.1990 -0.7109  0.5023
   99MPD2    N1 1519   1.654   4.000   1.831 -0.1362  0.4425  0.3343
   99MPD2    H7 1520   1.553   3.994   1.823  0.0532  0.2383 -1.7794
  100TCq2    C1 1521   1.714   3.998   1.961 -0.1554  0.0300 -0.4308
  100TCq2    O2 1522   1.833   4.004   1.986 -0.5579 -0.4991  0.2239
  100TCq2    C2 1523   1.615   4.008   2.072  0.3299 -0.4151 -0.4382
  100TCq2    C3 1524   1.669   3.986   2.197  0.1515 -0.2521 -0.3496
  100TCq2    C4 1525   1.589   3.956   2.306  0.2807  0.6921  0.0016
  100TCq2    C5 1526   1.454   3.957   2.290  0.4811 -0.4491 -0.2123
  100TCq2    C6 1527   1.403   3.978   2.164  0.2512  0.3026  0.0174
  100TCq2    C7 1528   1.475   4.004   2.046 -0.0812  0.7333  0.1618
  100TCq2    C8 1529   1.263   3.944   2.161 -0.3848  0.6446  0.2313
  100TCq2    O4 1530   1.206   3.936   2.268  0.4164  0.3816  0.3459
  100TCq2    C9 1531   1.652   3.907   2.424 -0.3969 -0.5915 -0.0655
  100TCq2    O5 1532   1.776   3.924   2.435 -0.5496 -0.5603 -0.6806
  100TCq2    O6 1533   1.573   3.868   2.514  0.6197 -0.2288 -0.7415
  100TCq2    H2 1534   1.777   3.976   2.196  0.0119 -1.5951 -1.4604
  100TCq2    H3 1535   1.395   3.917   2.371 -0.1534  1.6112  0.3439
  100TCq2    H4 1536   1.424   4.031   1.954 -0.0303 -1.7118 -0.5769
  101MPD2     C 1537   2.554   0.035  13.014 -0.0029 -0.7166  0.4503
  101MPD2    C1 1538   2.437   0.019  12.941 -0.9377  0.1382  0.6291
  101MPD2    C2 1539   2.327   4.667  12.993  0.1212  0.1886  0.5527
  101MPD2    C3 1540   2.338   4.613  13.121 -0.4125 -0.3709 -0.3507
  101MPD2    C4 1541   2.458   4.630  13.191 -0.6944  0.3442 -0.8309
  101MPD2    C5 1542   2.560   4.703  13.139  0.1531 -0.8432  0.0018
  101MPD2     H 1543   2.233   4.670  12.940  0.1526  2.8998  0.6758
  101MPD2    H1 1544   2.472   4.581  13.287 -0.1083  1.0533 -0.5624
  101MPD2    H2 1545   2.634   0.093  12.971  0.4024 -1.0433  0.7600
  101MPD2    H3 1546   2.655   4.708  13.190  0.2248  1.7037 -0.3574
  101MPD2     N 1547   2.226   4.548  13.177  0.2984  0.5146 -0.2719
  101MPD2    H5 1548   2.139   4.556  13.126  0.1023  1.1135  0.1482
  101MPD2    N1 1549   2.437   0.094  12.821  0.2065 -0.2966 -0.8516
  101MPD2    H7 1550   2.507   0.167  12.812 -1.2901  1.4264  1.2905
  102TCq2    C1 1551   2.422   0.563  12.619  0.1336 -0.3547 -0.1459
  102TCq2    O2 1552   2.516   0.565  12.698 -0.2162 -0.1735  1.1585
  102TCq2    C2 1553   2.367   0.435  12.593  0.0080 -0.3649  0.0021
  102TCq2    C3 1554   2.294   0.419  12.478  0.5679 -0.0395  0.3892
  102TCq2    C4 1555   2.235   0.294  12.454  0.1525  0.2683  0.2025
  102TCq2    C5 1556   2.256   0.190  12.535  0.0450 -0.4279 -0.2755
  102TCq2    C6 1557   2.328   0.208  12.647 -0.0550 -0.5072  0.1678
  102TCq2    C7 1558   2.389   0.330  12.681 -0.1119 -0.1881  0.0220
  102TCq2    C8 1559   2.335   0.087  12.732  0.1318 -0.1145 -0.6785
  102TCq2    O4 1560   2.265   4.713  12.698  0.5886  0.8108 -0.6752
  102TCq2    C9 1561   2.159   0.262  12.332 -1.0249  0.9700 -0.1038
  102TCq2    O5 1562   2.096   0.154  12.320 -0.4101 -0.4906 -0.2250
  102TCq2    O6 1563   2.169   0.343  12.236 -0.1350  0.9159 -0.8466
  102TCq2    H2 1564   2.259   0.501  12.416  1.3015  1.4150  1.8828
  102TCq2    H3 1565   2.230   0.090  12.501 -0.5195 -0.0530 -0.9301
  102TCq2    H4 1566   2.434   0.344  12.779 -0.3491 -0.4994  0.1766
  103TMC2    C1 1567   0.903   0.448  12.768 -0.1635 -0.1263 -0.1773
  103TMC2    C2 1568   1.027   0.424  12.820 -0.4611  0.2482 -0.0588
  103TMC2    C3 1569   1.038   0.311  12.899  0.8155 -0.4634  0.2745
  103TMC2    C4 1570   0.796   0.367  12.787 -0.6252  0.4119 -0.2467
  103TMC2    C5 1571   0.814   0.252  12.859 -0.5906 -0.6477 -0.7839
  103TMC2    C6 1572   0.940   0.217  12.903 -0.9187 -0.2000 -0.0363
  103TMC2     C 1573   0.875   0.571  12.705 -0.6145 -0.0872 -0.6129
  103TMC2     O 1574   0.802   0.564  12.608  0.8068  0.3185  0.2039
  103TMC2     H 1575   1.115   0.471  12.779 -0.6787 -0.4309 -1.2830
  103TMC2    H1 1576   0.698   0.407  12.761 -0.8798  0.4631  0.7650
  103TMC2    H2 1577   0.945   0.133  12.971 -0.8056 -0.2082 -0.0558
  103TMC2    C7 1578   0.705   0.181  12.922  0.6438 -0.4802 -0.0080
  103TMC2    C8 1579   1.167   0.269  12.939  0.8121 -0.6185 -0.4003
  103TMC2    O1 1580   0.736   0.100  13.011  1.2690 -0.0625  0.3212
  103TMC2    O2 1581   1.196   0.155  12.970 -0.3968 -0.3535  0.1132
  103TMC2    O5 1582   1.230   0.382  12.978 -0.1505 -0.1784 -0.3056
  103TMC2    H5 1583   1.173   0.460  12.968 -0.3748 -0.4271 -0.9497
  104MPD2     C 1584   1.042   0.891  12.781  0.6447 -0.3687 -0.1562
  104MPD2    C1 1585   0.958   0.805  12.713  0.3238 -0.1864 -0.6424
  104MPD2    C2 1586   0.875   0.855  12.607  0.8354  0.3361 -0.0879
  104MPD2    C3 1587   0.883   0.993  12.570  0.1731 -0.4535 -0.4975
  104MPD2    C4 1588   0.965   1.080  12.644 -0.6263 -0.1002  0.6645
  104MPD2    C5 1589   1.050   1.020  12.738  0.4090  1.0335 -0.1047
  104MPD2     H 1590   0.797   0.801  12.555 -0.1138  2.1228 -0.5453
  104MPD2    H1 1591   0.988   1.183  12.622  0.1423  0.0690  2.2853
  104MPD2    H2 1592   1.105   0.861  12.864  0.5735 -2.1622 -0.7548
  104MPD2    H3 1593   1.133   1.075  12.782  1.4185  0.0504 -0.7897
  104MPD2     N 1594   0.809   1.043  12.465 -0.1910  0.4757  0.3965
  104MPD2    H5 1595   0.741   0.978  12.426 -0.5687  1.6645 -0.9386
  104MPD2    N1 1596   0.962   0.667  12.755 -0.0289  1.1119  0.0896
  104MPD2    H7 1597   1.025   0.644  12.831  1.3367  0.2533 -1.3088
  105MPD2     C 1598   2.111   4.211  17.513 -0.0230  0.5216 -0.2101
  105MPD2    C1 1599   1.987   4.240  17.459 -0.0123 -0.0445 -0.0243
  105MPD2    C2 1600   1.878   4.239  17.551 -0.2187 -0.5469 -0.2338
  105MPD2    C3 1601   1.890   4.202   0.005  0.0571 -0.3651  0.2046
  105MPD2    C4 1602   2.017   4.172   0.050 -0.6193  0.5607  0.4185
  105MPD2    C5 1603   2.123   4.193  17.648 -0.6488 -0.6665 -0.1051
  105MPD2     H 1604   1.779   4.272  17.519 -0.2720  0.6028  1.1318
  105MPD2    H1 1605   2.039   4.146   0.153 -0.8555 -1.6040 -0.0756
  105MPD2    H2 1606   2.200   4.226  17.452  0.0780 -0.4462 -0.2986
  105MPD2    H3 1607   2.219   4.172   0.016 -1.4624 -0.2433  1.7392
  105MPD2     N 1608   1.768   4.188   0.080 -0.4297  0.6096  0.2643
  105MPD2    H5 1609   1.681   4.217   0.036 -1.4468 -0.3310  1.6561
  105MPD2    N1 1610   1.975   4.278  17.320 -0.2625 -0.2471 -0.0559
  105MPD2    H7 1611   2.062   4.275  17.268 -1.3872 -0.8465 -1.9200
  106TCq2    C1 1612   1.771   4.153   0.218  0.0061 -0.4114  0.0787
  106TCq2    O2 1613   1.861   4.135   0.298 -0.5226  0.0042 -0.4221
  106TCq2    C2 1614   1.638   4.163   0.276  0.2983 -0.1301  0.6438
  106TCq2    C3 1615   1.522   4.155   0.196  0.1857  0.2551 -0.8991
  106TCq2    C4 1616   1.398   4.180   0.251 -0.0866  0.9675  0.0071
  106TCq2    C5 1617   1.389   4.217   0.383 -0.1514 -0.0531  0.0370
  106TCq2    C6 1618   1.502   4.218   0.461 -1.1145  0.2355  0.2887
  106TCq2    C7 1619   1.629   4.196   0.409  0.0660 -0.2613  0.0530
  106TCq2    C8 1620   1.496   4.250   0.601  0.0629  0.3789  0.4091
  106TCq2    O4 1621   1.588   4.209   0.677  0.0123  0.3057 -0.6334
  106TCq2    C9 1622   1.279   4.176   0.173 -0.0501 -0.3534  0.5431
  106TCq2    O5 1623   1.166   4.194   0.231 -0.1041  0.5424 -0.0011
  106TCq2    O6 1624   1.289   4.159   0.048  0.0114  0.0105  0.7618
  106TCq2    H2 1625   1.524   4.118   0.094 -1.6361 -0.4027 -0.7050
  106TCq2    H3 1626   1.289   4.218   0.424  1.1599  1.4832  3.2067
  106TCq2    H4 1627   1.719   4.193   0.469 -1.1058 -2.0940  1.7045
  107TMC2    C1 1628   3.009   3.857  11.623 -0.3822  0.0279 -0.2592
  107TMC2    C2 1629   3.051   3.962  11.541  0.2377 -0.0692 -0.3787
  107TMC2    C3 1630   3.122   3.928  11.423  0.1487 -0.2476 -0.0258
  107TMC2    C4 1631   3.021   3.728  11.587  0.3877  0.2435 -0.7182
  107TMC2    C5 1632   3.084   3.698  11.468 -0.0199  0.1514  0.0646
  107TMC2    C6 1633   3.136   3.797  11.387  0.4490  0.2164 -0.0446
  107TMC2     C 1634   2.900   3.882  11.711  0.5117  0.5029  0.5743
  107TMC2     O 1635   2.861   3.793  11.783  0.2341 -0.4112  0.0080
  107TMC2     H 1636   3.051   4.060  11.587  2.0826  0.6955 -2.0235
  107TMC2    H1 1637   2.983   3.648  11.650 -1.0985  1.3683 -0.1777
  107TMC2    H2 1638   3.181   3.771  11.292 -1.9267  0.7818 -1.3346
  107TMC2    C7 1639   3.126   3.562  11.450 -0.5921 -0.1515 -0.1098
  107TMC2    C8 1640   3.176   4.032  11.338  0.2400 -0.5688 -0.2616
  107TMC2    O1 1641   3.107   3.484  11.539  0.5667 -0.2495 -0.2568
  107TMC2    O2 1642   3.293   4.010  11.310  0.6189 -0.7842  0.4623
  107TMC2    O5 1643   3.133   4.151  11.379  0.1156  0.5610  0.2928
  107TMC2    H5 1644   3.037   4.147  11.401 -0.1875  0.8295 -0.9400
  108MPD2     C 1645   2.677   4.167  11.712  0.2818  0.9945  0.3405
  108MPD2    C1 1646   2.731   4.057  11.767 -0.4578 -0.2994  0.3587
  108MPD2    C2 1647   2.690   4.003  11.885 -0.0904 -0.3759  0.6016
  108MPD2    C3 1648   2.582   4.064  11.948 -0.0923  0.3604  0.1785
  108MPD2    C4 1649   2.535   4.182  11.894 -0.0226  0.4318 -0.1768
  108MPD2    C5 1650   2.587   4.241  11.780  0.3905  0.9108  0.1002
  108MPD2     H 1651   2.732   3.914  11.930 -1.3075 -0.8081  0.8623
  108MPD2    H1 1652   2.460   4.236  11.951  0.4046 -0.4118  1.2116
  108MPD2    H2 1653   2.701   4.215  11.617 -0.0843  0.5324  0.0152
  108MPD2    H3 1654   2.544   4.333  11.742 -0.3269  1.0990  1.3679
  108MPD2     N 1655   2.510   4.012  12.058 -0.3712  0.8212 -0.2236
  108MPD2    H5 1656   2.444   4.071  12.107  1.1179  2.5879 -0.3674
  108MPD2    N1 1657   2.847   4.012  11.700 -0.4562 -0.7425  0.5906
  108MPD2    H7 1658   2.884   4.072  11.627  0.6034 -1.1217  0.8163
  109MPD2     C 1659   2.845   1.729   2.100 -0.9683  0.4833  0.0640
  109MPD2    C1 1660   2.741   1.714   2.015 -0.0488  0.6548  0.3743
  109MPD2    C2 1661   2.748   1.791   1.895 -0.2475  0.3127  0.4058
  109MPD2    C3 1662   2.855   1.875   1.861 -0.4064 -0.3632 -0.0276
  109MPD2    C4 1663   2.958   1.877   1.954  0.5694 -0.1227  0.0584
  109MPD2    C5 1664   2.948   1.815   2.078 -0.4369 -0.8300  0.3582
  109MPD2     H 1665   2.671   1.769   1.821 -0.4924  0.3601  0.6447
  109MPD2    H1 1666   3.042   1.941   1.927 -0.7863  1.9738  0.8479
  109MPD2    H2 1667   2.849   1.670   2.191 -0.4271 -0.0289 -0.2951
  109MPD2    H3 1668   3.034   1.827   2.143 -0.9635 -1.3682  1.1568
  109MPD2     N 1669   2.860   1.962   1.752  0.3248  0.0368  0.6105
  109MPD2    H5 1670   2.943   2.019   1.739  0.8979 -1.2187 -1.3052
  109MPD2    N1 1671   2.630   1.627   2.028  0.1229  0.7522  0.6353
  109MPD2    H7 1672   2.564   1.631   1.951 -1.0586  0.9587  1.6539
  110TCq2    C1 1673   2.754   1.985   1.667  0.3144 -0.0904 -0.4938
  110TCq2    O2 1674   2.649   1.923   1.654  0.5747  0.0737  0.6566
  110TCq2    C2 1675   2.761   2.096   1.575  0.5545 -0.3041 -0.3499
  110TCq2    C3 1676   2.845   2.203   1.608  0.4020  0.5730  0.3679
  110TCq2    C4 1677   2.843   2.314   1.531 -0.3017 -1.5619 -0.5528
  110TCq2    C5 1678   2.756   2.327   1.428 -0.6112 -1.1376 -0.4704
  110TCq2    C6 1679   2.669   2.224   1.406  0.5323  0.0376  0.6004
  110TCq2    C7 1680   2.669   2.111   1.480 -0.1477  0.8309 -0.0379
  110TCq2    C8 1681   2.603   2.219   1.277 -0.2096 -0.0246 -0.5342
  110TCq2    O4 1682   2.536   2.317   1.244 -0.3388  0.1138  0.4816
  110TCq2    C9 1683   2.922   2.425   1.566  0.5713 -0.1059 -0.4318
  110TCq2    O5 1684   2.920   2.525   1.490 -0.0034 -0.1209 -0.5098
  110TCq2    O6 1685   2.973   2.430   1.686  0.4074  0.2515 -0.2127
  110TCq2    H2 1686   2.912   2.198   1.693  1.0247  0.9201 -0.1056
  110TCq2    H3 1687   2.745   2.410   1.359  2.1722 -0.5051 -0.1603
  110TCq2    H4 1688   2.604   2.027   1.456 -0.1062  0.4145  1.3307
  111TMC2    C1 1689   3.004   1.341  11.544 -0.1528 -0.7332  0.7613
  111TMC2    C2 1690   3.113   1.363  11.461  0.2336 -0.5371 -0.3725
  111TMC2    C3 1691   3.236   1.350  11.521 -0.3191 -0.6889 -0.0762
  111TMC2    C4 1692   3.019   1.264  11.657 -0.3059  0.1209 -0.5745
  111TMC2    C5 1693   3.141   1.245  11.707  0.1706 -0.3631 -0.4028
  111TMC2    C6 1694   3.249   1.284  11.642  0.2552 -0.3424 -0.2354
  111TMC2     C 1695   2.883   1.368  11.481 -0.1236  0.1567 -0.2007
  111TMC2     O 1696   2.887   1.390  11.360 -0.1911  0.6094 -0.0297
  111TMC2     H 1697   3.112   1.427  11.374 -0.1801  0.3897  0.3080
  111TMC2    H1 1698   2.936   1.218  11.709  0.0566  1.5792  1.2831
  111TMC2    H2 1699   3.350   1.285  11.679  0.2889  0.3286 -0.3513
  111TMC2    C7 1700   3.142   1.175  11.836 -0.4305 -0.2047 -0.8120
  111TMC2    C8 1701   3.346   1.365  11.425 -0.1742  0.4222  0.2163
  111TMC2    O1 1702   3.050   1.199  11.913  0.1242  0.7001  0.5415
  111TMC2    O2 1703   3.335   1.359  11.303 -0.8477  0.0461 -0.4684
  111TMC2    O5 1704   3.461   1.371  11.495 -0.4514 -0.0371 -1.3872
  111TMC2    H5 1705   3.432   1.402  11.584  2.6554  1.3787 -0.8940
  112MPD2     C 1706   2.365   1.360  11.449 -0.3860  0.1394 -0.4189
  112MPD2    C1 1707   2.467   1.352  11.351  0.1423 -0.9670  0.4538
  112MPD2    C2 1708   2.597   1.356  11.389 -0.5651 -0.6298  0.8276
  112MPD2    C3 1709   2.635   1.362  11.518  0.1997 -0.7522  0.4242
  112MPD2    C4 1710   2.533   1.363  11.610  0.1217  1.1053 -0.2133
  112MPD2    C5 1711   2.401   1.376  11.577 -0.5248  0.2131  0.6268
  112MPD2     H 1712   2.672   1.351  11.311 -3.5399  0.3516 -2.0588
  112MPD2    H1 1713   2.548   1.355  11.717 -0.9383 -1.6731 -0.2662
  112MPD2    H2 1714   2.262   1.356  11.416  0.5724 -3.6993 -2.9979
  112MPD2    H3 1715   2.319   1.386  11.647 -3.7499 -2.0228 -2.8331
  112MPD2     N 1716   2.768   1.347  11.562  0.5730  0.2755  0.7789
  112MPD2    H5 1717   2.782   1.341  11.662  3.6854  1.1477  0.4141
  112MPD2    N1 1718   2.443   1.340  11.216  1.3197 -0.0850  0.3884
  112MPD2    H7 1719   2.528   1.334  11.162  1.6506 -0.4564  0.9464
  113MPD2     C 1720   0.778   3.877   1.269  0.3450  0.2534  0.0230
  113MPD2    C1 1721   0.678   3.931   1.346  0.0749  0.5176 -0.2373
  113MPD2    C2 1722   0.548   3.923   1.307  0.2792 -0.0084 -0.0266
  113MPD2    C3 1723   0.522   3.881   1.177  0.0897 -0.1259 -0.2784
  113MPD2    C4 1724   0.622   3.841   1.097 -1.0080  0.1924 -0.1784
  113MPD2    C5 1725   0.749   3.842   1.140 -0.0941  0.0009 -0.3166
  113MPD2     H 1726   0.469   3.962   1.371  1.6520  0.1263  1.5844
  113MPD2    H1 1727   0.608   3.813   0.993 -5.5739 -0.4339  0.5816
  113MPD2    H2 1728   0.884   3.877   1.289  0.3251  0.0863  0.1333
  113MPD2    H3 1729   0.831   3.810   1.077  0.7306 -2.9876  2.3079
  113MPD2     N 1730   0.389   3.879   1.131  0.2511 -0.0242 -0.4183
  113MPD2    H5 1731   0.376   3.839   1.038 -1.3482  0.9761 -0.6336
  113MPD2    N1 1732   0.703   3.996   1.466  0.4013 -0.6555  0.6189
  113MPD2    H7 1733   0.615   4.026   1.507 -0.8345 -0.3911 -2.2229
  114TCq2    C1 1734   0.276   3.926   1.186 -0.3982 -0.5875 -0.3732
  114TCq2    O2 1735   0.257   3.983   1.291  0.4016  0.1958  0.0964
  114TCq2    C2 1736   0.165   3.907   1.089  0.0556  0.0968 -0.4778
  114TCq2    C3 1737   0.186   3.883   0.962  0.1380 -0.0872  0.2051
  114TCq2    C4 1738   0.082   3.859   0.881 -0.7207 -0.0399  0.4084
  114TCq2    C5 1739   4.669   3.856   0.927  0.3284  0.2617  0.0822
  114TCq2    C6 1740   4.650   3.886   1.061  0.2014  0.6202 -0.4241
  114TCq2    C7 1741   0.036   3.904   1.142 -0.3310 -0.5764  0.2807
  114TCq2    C8 1742   4.515   3.909   1.100  0.5572 -0.4674 -0.2004
  114TCq2    O4 1743   4.428   3.935   1.016 -0.0145  0.0085  0.3612
  114TCq2    C9 1744   0.103   3.850   0.736  0.0537  0.1527 -0.6759
  114TCq2    O5 1745   0.006   3.804   0.671  0.6339 -0.3879 -0.7312
  114TCq2    O6 1746   0.221   3.856   0.690 -0.3239 -0.0485 -0.4841
  114TCq2    H2 1747   0.277   3.909   0.910 -1.0416  0.3257 -1.6904
  114TCq2    H3 1748   4.590   3.844   0.853  0.1430 -0.5722  0.4181
  114TCq2    H4 1749   0.033   3.906   1.250 -0.8261  1.1395  0.2360
  115TMC2    C1 1750   1.160   1.324  17.651 -0.7787  0.4147 -0.1659
  115TMC2    C2 1751   1.273   1.250  17.615  0.2378  0.3122  0.9844
  115TMC2    C3 1752   1.401   1.307  17.623  0.0755  0.1497 -0.0434
  115TMC2    C4 1753   1.176   1.455   0.000 -0.3973  0.6319 -0.1246
  115TMC2    C5 1754   1.300   1.506   0.013 -0.3525  0.2338  0.0930
  115TMC2    C6 1755   1.413   1.440  17.658  0.1258  0.3546 -0.5737
  115TMC2     C 1756   1.036   1.264  17.599  1.6198 -0.0308  0.2642
  115TMC2     O 1757   1.038   1.154  17.542  0.2406 -0.3607  0.0996
  115TMC2     H 1758   1.269   1.147  17.580 -0.0286  0.8268 -0.4807
  115TMC2    H1 1759   1.086   1.508   0.029  0.0583  1.7568 -0.7673
  115TMC2    H2 1760   1.508   1.490  17.671  1.2265 -1.7367 -0.6880
  115TMC2    C7 1761   1.307   1.640   0.062  0.4442  0.5361  0.2995
  115TMC2    C8 1762   1.512   1.223  17.617 -0.7870  0.0479  0.7910
  115TMC2    O1 1763   1.217   1.684   0.133 -0.0246  0.5458  0.0080
  115TMC2    O2 1764   1.516   1.120  17.552 -0.2148  0.6958 -0.1255
  115TMC2    O5 1765   1.615   1.271   0.012 -0.3745 -0.3899 -0.1589
  115TMC2    H5 1766   1.597   1.328   0.090 -2.5387  0.9430 -1.6143
  116MPD2     C 1767   0.531   1.254  17.565  0.6931 -0.0276  0.4769
  116MPD2    C1 1768   0.634   1.204  17.487 -0.8053 -0.9217 -1.2601
  116MPD2    C2 1769   0.759   1.237  17.502  0.2681 -0.8030  0.7604
  116MPD2    C3 1770   0.794   1.314  17.614 -0.0817 -0.0745 -0.0035
  116MPD2    C4 1771   0.696   1.367   0.012  0.6550  0.3471 -0.2696
  116MPD2    C5 1772   0.563   1.339  17.660  0.7705 -0.1753  0.3218
  116MPD2     H 1773   0.838   1.189  17.445  1.0943  0.4140  0.8856
  116MPD2    H1 1774   0.722   1.414   0.106 -0.9574 -1.8836  1.2693
  116MPD2    H2 1775   0.427   1.227  17.551  0.0321  2.9715 -0.3880
  116MPD2    H3 1776   0.482   1.366   0.048  0.9437  0.8804  0.0960
  116MPD2     N 1777   0.925   1.339  17.645  0.5142  0.3552 -0.6960
  116MPD2    H5 1778   0.950   1.415   0.029 -0.1269  2.0025 -2.4312
  116MPD2    N1 1779   0.596   1.111  17.388 -0.1427  0.4693  0.1618
  116MPD2    H7 1780   0.499   1.108  17.358 -0.3475 -2.1961  1.0562
  117TMC2    C1 1781   0.118   2.818  14.107  0.1793  0.1454  0.7621
  117TMC2    C2 1782   0.145   2.734  14.213 -0.4582  0.0060  0.3105
  117TMC2    C3 1783   0.262   2.760  14.287 -0.3447  0.2331  0.6576
  117TMC2    C4 1784   0.204   2.915  14.063 -0.0538  0.3701 -0.3832
  117TMC2    C5 1785   0.316   2.939  14.152 -0.1465 -0.2861  0.0091
  117TMC2    C6 1786   0.345   2.864  14.265 -0.3297 -0.3261 -0.4340
  117TMC2     C 1787   4.711   2.799  14.038  0.3809  0.5995  0.7327
  117TMC2     O 1788   4.643   2.706  14.074  0.4041  0.0769  0.4448
  117TMC2     H 1789   0.081   2.650  14.238 -0.1409 -0.0202  1.0301
  117TMC2    H1 1790   0.185   2.973  13.974 -0.9115  0.5374 -0.0935
  117TMC2    H2 1791   0.436   2.886  14.319 -1.4062  1.1810  0.7569
  117TMC2    C7 1792   0.392   3.071  14.148  0.2816  1.0742  0.4711
  117TMC2    C8 1793   0.261   2.697  14.419 -0.5238 -0.2970 -0.3219
  117TMC2    O1 1794   0.416   3.120  14.039 -0.6532  0.5953  0.4002
  117TMC2    O2 1795   0.153   2.671  14.468 -0.5890 -0.2313 -0.4046
  117TMC2    O5 1796   0.375   2.619  14.415  0.3804 -0.2143  0.4022
  117TMC2    H5 1797   0.437   2.643  14.343 -0.6534  0.8022 -0.1378
  118MPD2     C 1798   0.456   3.271  14.446  0.0875 -0.1547  0.3569
  118MPD2    C1 1799   0.447   3.244  14.312 -0.3785 -0.0967 -0.4819
  118MPD2    C2 1800   0.498   3.340  14.227  0.4773 -0.7423  0.4390
  118MPD2    C3 1801   0.533   3.466  14.273  0.2231  0.4663  0.3223
  118MPD2    C4 1802   0.533   3.486  14.410 -1.2430 -0.1366  0.3085
  118MPD2    C5 1803   0.493   3.393  14.497  0.2721 -0.2844  0.0153
  118MPD2     H 1804   0.501   3.321  14.120 -0.1600 -1.9523  0.6473
  118MPD2    H1 1805   0.569   3.579  14.452  0.2812 -0.9556  0.7942
  118MPD2    H2 1806   0.418   3.198  14.516  1.1385 -0.1762  0.9101
  118MPD2    H3 1807   0.481   3.410  14.604 -0.2919 -0.0636 -0.0814
  118MPD2     N 1808   0.569   3.567  14.189 -0.0200 -0.0101 -0.0628
  118MPD2    H5 1809   0.606   3.651  14.231  0.8799 -0.9914  1.0627
  118MPD2    N1 1810   0.408   3.114  14.278  0.0479  0.3761 -0.6679
  118MPD2    H7 1811   0.366   3.053  14.347 -1.6266 -0.0301 -2.0279
  119MPD2     C 1812   3.360   4.597  13.403  0.3539 -0.0790  0.1425
  119MPD2    C1 1813   3.244   4.574  13.479  0.5432  0.3055  0.4812
  119MPD2    C2 1814   3.126   4.546  13.414 -0.2928 -0.4366 -0.0881
  119MPD2    C3 1815   3.116   4.533  13.278  0.9824 -0.4551  0.6817
  119MPD2    C4 1816   3.233   4.543  13.207 -0.7164  0.3984 -0.4654
  119MPD2    C5 1817   3.350   4.582  13.261 -0.1307  0.6202  0.0657
  119MPD2     H 1818   3.041   4.521  13.476  0.0483  0.3202  0.6953
  119MPD2    H1 1819   3.230   4.508  13.104 -0.7094 -2.8101  0.6189
  119MPD2    H2 1820   3.452   4.619  13.457 -0.6843 -0.8194  2.2266
  119MPD2    H3 1821   3.438   4.581  13.199 -1.7089 -1.7431 -2.1326
  119MPD2     N 1822   2.998   4.482  13.214 -0.0307 -0.3167  0.4738
  119MPD2    H5 1823   2.997   4.477  13.113  2.5316  3.3431  0.2553
  119MPD2    N1 1824   3.252   4.586  13.617 -1.0358  0.6370 -0.2549
  119MPD2    H7 1825   3.347   4.587  13.654 -2.8222 -1.5912  4.3726
  120TCq2    C1 1826   2.886   4.435  13.277 -0.6858 -0.3998  0.0772
  120TCq2    O2 1827   2.860   4.434  13.397  0.3255 -0.5333 -0.4783
  120TCq2    C2 1828   2.769   4.388  13.204 -0.1031 -0.5008  0.0912
  120TCq2    C3 1829   2.759   4.413  13.071  0.3870 -0.0770 -0.0032
  120TCq2    C4 1830   2.640   4.373  13.010 -0.3036  1.0939  0.6561
  120TCq2    C5 1831   2.539   4.314  13.084  0.0794 -0.2077 -0.3657
  120TCq2    C6 1832   2.553   4.287  13.216 -0.0119 -0.1609  0.2418
  120TCq2    C7 1833   2.663   4.334  13.281  0.6558 -0.8560 -0.3244
  120TCq2    C8 1834   2.450   4.222  13.295 -0.4968  0.0022  0.2178
  120TCq2    O4 1835   2.342   4.203  13.233  0.2382 -0.2607  0.0951
  120TCq2    C9 1836   2.608   4.391  12.867  0.3864  0.1576 -0.0837
  120TCq2    O5 1837   2.705   4.426  12.797  0.2837 -0.1564  0.0815
  120TCq2    O6 1838   2.500   4.340  12.822  0.8840 -0.0811 -0.6673
  120TCq2    H2 1839   2.831   4.476  13.020  0.5744 -0.0439  0.3030
  120TCq2    H3 1840   2.438   4.310  13.044  0.0956  0.9488 -0.5347
  120TCq2    H4 1841   2.666   4.333  13.390 -0.7958 -1.8609 -0.2884
  121TMC2    C1 1842   4.420   1.196  14.028  0.1365 -1.0053 -0.3274
  121TMC2    C2 1843   4.394   1.140  14.158  0.1415 -0.0646  0.4223
  121TMC2    C3 1844   4.267   1.132  14.196 -0.1529  0.0232 -0.2637
  121TMC2    C4 1845   4.316   1.230  13.944  0.8114 -0.7451 -0.2350
  121TMC2    C5 1846   4.189   1.220  13.992 -0.7987 -0.0500 -0.1962
  121TMC2    C6 1847   4.164   1.161  14.114 -0.0597 -0.2383  0.3033
  121TMC2     C 1848   4.539   1.166  13.957  0.3683  0.8054 -0.2413
  121TMC2     O 1849   4.582   1.055  13.973 -0.0212  0.3625  0.7023
  121TMC2     H 1850   4.476   1.116  14.225 -0.5243 -2.8044  0.2441
  121TMC2    H1 1851   4.340   1.248  13.840 -1.6054  1.6238 -0.3627
  121TMC2    H2 1852   4.063   1.145  14.151 -0.0879 -1.5759 -0.3638
  121TMC2    C7 1853   4.081   1.231  13.899  0.3747  0.0376  0.5347
  121TMC2    C8 1854   4.231   1.075  14.325 -0.0326 -0.0739  1.0183
  121TMC2    O1 1855   4.108   1.258  13.786  0.0046  0.0589 -0.6338
  121TMC2    O2 1856   4.133   1.112  14.386  0.2093 -0.0907 -0.1251
  121TMC2    O5 1857   4.324   0.984  14.366 -0.2067 -0.0053 -0.2075
  121TMC2    H5 1858   4.361   0.922  14.299  3.0093 -0.5235  2.0515
  122MPD2     C 1859   0.056   1.166  13.767  0.1382 -0.3828  0.2372
  122MPD2    C1 1860   4.682   1.267  13.790  0.8734  0.4898  0.0582
  122MPD2    C2 1861   4.716   1.393  13.734  0.5176 -0.6332  0.1934
  122MPD2    C3 1862   0.098   1.409  13.639  0.8937 -0.4345  0.5155
  122MPD2    C4 1863   0.176   1.298  13.611  0.5205 -0.3084 -0.1009
  122MPD2    C5 1864   0.156   1.184  13.678 -0.7482 -0.1368 -0.0188
  122MPD2     H 1865   4.641   1.469  13.753  1.1532 -0.0653  0.4439
  122MPD2    H1 1866   0.262   1.294  13.544  0.9552  1.4857  0.3722
  122MPD2    H2 1867   0.041   1.071  13.816  0.1270  0.7950  2.4943
  122MPD2    H3 1868   0.224   1.103  13.653 -0.8842 -0.9372  2.2455
  122MPD2     N 1869   0.132   1.530  13.574  0.2345  0.0969  0.0057
  122MPD2    H5 1870   0.209   1.516  13.509 -0.4988 -1.6418 -0.4948
  122MPD2    N1 1871   4.576   1.266  13.876 -0.3533 -0.2010  0.3524
  122MPD2    H7 1872   4.529   1.356  13.888 -1.1112 -0.7348  1.3480
  123MPD2     C 1873   1.858   0.378   9.580 -0.1560  0.4466 -0.2771
  123MPD2    C1 1874   1.944   0.274   9.583  0.1428 -0.4320  0.9721
  123MPD2    C2 1875   1.885   0.147   9.560  0.2977 -0.3625 -0.7475
  123MPD2    C3 1876   1.753   0.126   9.527 -0.2359  0.1010 -0.4872
  123MPD2    C4 1877   1.673   0.234   9.522  0.3377 -0.8980 -0.4425
  123MPD2    C5 1878   1.727   0.357   9.537 -0.2826 -0.5435  0.2809
  123MPD2     H 1879   1.959   0.069   9.574  2.4472  2.0347  1.3306
  123MPD2    H1 1880   1.570   0.225   9.490 -0.3464 -1.3162  1.8215
  123MPD2    H2 1881   1.881   0.483   9.598  0.8815 -0.3691  3.1497
  123MPD2    H3 1882   1.672   0.450   9.526  1.7553  0.4913 -1.1002
  123MPD2     N 1883   1.708   4.716   9.524  0.0250 -0.2309  0.1884
  123MPD2    H5 1884   1.777   4.643   9.538 -0.5538 -0.6274  0.9510
  123MPD2    N1 1885   2.080   0.301   9.610 -0.3606  0.6108 -0.6448
  123MPD2    H7 1886   2.097   0.398   9.631 -2.0076  0.3967  1.7309
  124TCq2    C1 1887   1.579   4.675   9.500  0.0930  0.7098  0.6574
  124TCq2    O2 1888   1.479   0.017   9.472 -0.0486  0.4258  0.5326
  124TCq2    C2 1889   1.566   4.527   9.522  0.6135 -0.2529  0.3178
  124TCq2    C3 1890   1.446   4.460   9.495 -0.1958  0.1323 -0.3036
  124TCq2    C4 1891   1.433   4.333   9.523  0.2323  0.0007  0.0700
  124TCq2    C5 1892   1.530   4.266   9.593  0.9726  0.1022 -0.0958
  124TCq2    C6 1893   1.649   4.337   9.619  0.1861 -0.6321 -0.1034
  124TCq2    C7 1894   1.674   4.462   9.582 -0.9578 -0.0408 -0.7211
  124TCq2    C8 1895   1.763   4.270   9.682  0.0404 -0.4076 -0.2649
  124TCq2    O4 1896   1.841   4.338   9.751  0.4236 -0.5253  0.5938
  124TCq2    C9 1897   1.326   4.252   9.471  0.2594  0.0044 -0.3628
  124TCq2    O5 1898   1.363   4.132   9.442 -0.2261 -0.5283 -0.1517
  124TCq2    O6 1899   1.220   4.304   9.435  0.2254 -0.3916 -0.3249
  124TCq2    H2 1900   1.380   4.507   9.423 -2.3577  0.6636  2.0408
  124TCq2    H3 1901   1.506   4.167   9.629  0.0588  0.2101 -0.4010
  124TCq2    H4 1902   1.760   4.514   9.622 -1.8428  0.3655  0.6528
  125TMC2    C1 1903   4.661   3.398   8.526 -0.0659 -0.4778 -0.3500
  125TMC2    C2 1904   4.710   3.507   8.585  0.3513 -0.0987 -0.5846
  125TMC2    C3 1905   0.004   3.519   8.725 -0.0245 -0.0117 -0.5035
  125TMC2    C4 1906   4.648   3.282   8.601  0.5277  0.0449  0.3799
  125TMC2    C5 1907   4.676   3.287   8.736 -0.3603 -0.3279  0.0748
  125TMC2    C6 1908   4.710   3.402   8.800  0.3553 -0.2797 -0.6466
  125TMC2     C 1909   4.690   3.387   8.387 -0.2316 -0.3971 -0.2763
  125TMC2     O 1910   4.687   3.487   8.320 -0.4373 -0.0158  0.3033
  125TMC2     H 1911   0.014   3.591   8.520 -1.7370  1.2103  0.3707
  125TMC2    H1 1912   4.601   3.193   8.562 -3.3560  1.0064  2.8355
  125TMC2    H2 1913   0.035   3.389   8.899  0.7671  3.3563 -0.3357
  125TMC2    C7 1914   4.649   3.177   8.830  0.3620  0.4430  0.3031
  125TMC2    C8 1915   0.097   3.611   8.769  0.5595  0.0926 -0.4547
  125TMC2    O1 1916   4.616   3.212   8.942  0.9068 -0.6518  0.1095
  125TMC2    O2 1917   0.170   3.671   8.692 -0.5263 -0.1213 -0.0424
  125TMC2    O5 1918   0.098   3.602   8.900 -0.2688  0.0415  0.0673
  125TMC2    H5 1919   0.004   3.585   8.924 -0.0617 -0.6534  0.3920
  126MPD1     C 1920   0.120   3.160   7.974 -0.0041  0.2145 -0.7066
  126MPD1    C1 1921   0.188   3.104   8.079  0.4288 -0.0163 -0.3835
  126MPD1    C2 1922   0.150   3.133   8.209 -0.0511  0.0820  0.1820
  126MPD1    C3 1923   0.063   3.235   8.223  0.4849  0.5028  0.1931
  126MPD1    C4 1924   4.705   3.288   8.122 -0.0809 -0.1201  0.3733
  126MPD1    C5 1925   0.019   3.252   7.995  0.1572  0.2977 -0.0721
  126MPD1     H 1926   0.204   3.085   8.290  1.6980  0.1883 -0.9315
  126MPD1    H1 1927   4.619   3.354   8.129  0.3418  0.5388 -0.5997
  126MPD1    H2 1928   0.138   3.126   7.872  1.1592  0.6518 -0.6532
  126MPD1    H3 1929   4.682   3.285   7.908  0.7145 -0.1844 -0.6165
  126MPD1     N 1930   0.030   3.268   8.355 -0.3425  0.2682 -0.2185
  126MPD1    H5 1931   0.033   3.194   8.425 -3.7641  0.1401 -0.2077
  126MPD1    N1 1932   0.283   3.001   8.057 -0.0164 -0.2854 -0.8394
  126MPD1    H6 1933   0.327   2.995   7.965  1.4719  1.8904 -0.2732
  126MPD1    H7 1934   0.346   2.975   8.133  1.3229  4.5204 -0.3310
  127MPD2     C 1935   0.438   0.846   8.993 -0.0241 -0.3302  0.5036
  127MPD2    C1 1936   0.532   0.821   9.092  0.3684 -0.7835 -0.2879
  127MPD2    C2 1937   0.591   0.927   9.155 -0.0165 -0.0165 -0.7684
  127MPD2    C3 1938   0.571   1.055   9.116  0.3108 -0.2240  0.9186
  127MPD2    C4 1939   0.491   1.076   9.007 -0.2284  0.4811  0.4710
  127MPD2    C5 1940   0.416   0.977   8.951  0.0131 -0.7340 -0.3878
  127MPD2     H 1941   0.652   0.913   9.244 -2.3046  0.3829  0.8728
  127MPD2    H1 1942   0.471   1.170   8.956 -0.6934 -0.3784 -0.9570
  127MPD2    H2 1943   0.368   0.769   8.962  1.1693  0.0215 -2.9561
  127MPD2    H3 1944   0.347   1.000   8.870  0.7032  1.3464 -0.3920
  127MPD2     N 1945   0.636   1.157   9.188 -0.2385 -0.0829  0.0900
  127MPD2    H5 1946   0.683   1.118   9.268 -0.5520  1.5482  1.0640
  127MPD2    N1 1947   0.568   0.686   9.108 -0.2286 -0.4023 -0.1665
  127MPD2    H7 1948   0.519   0.623   9.047 -1.2330 -0.3786  0.6237
  128TCq2    C1 1949   0.666   0.643   9.187  0.0411  0.1598 -0.1333
  128TCq2    O2 1950   0.746   0.701   9.259  0.0416 -0.4718 -0.4151
  128TCq2    C2 1951   0.678   0.497   9.217 -0.1329 -0.3838 -0.6584
  128TCq2    C3 1952   0.768   0.456   9.316  0.4191  0.2086 -0.1618
  128TCq2    C4 1953   0.748   0.346   9.390 -0.6675 -0.5703 -0.1282
  128TCq2    C5 1954   0.639   0.260   9.365  0.1525 -0.1253 -0.2173
  128TCq2    C6 1955   0.570   0.290   9.251  0.5035 -0.4734 -0.3587
  128TCq2    C7 1956   0.582   0.409   9.182  0.0509 -0.4702  0.8352
  128TCq2    C8 1957   0.462   0.203   9.216 -0.1215  0.4635 -0.3440
  128TCq2    O4 1958   0.401   0.241   9.113 -0.6685  0.8691  0.3387
  128TCq2    C9 1959   0.842   0.320   9.497  0.5566  0.4099  0.0804
  128TCq2    O5 1960   0.955   0.376   9.484  0.5826  0.1424 -0.0464
  128TCq2    O6 1961   0.799   0.246   9.593  0.2039  0.3225 -0.4739
  128TCq2    H2 1962   0.861   0.510   9.332  1.3594 -0.9904 -1.6450
  128TCq2    H3 1963   0.626   0.172   9.426  0.8222 -0.5636 -0.7036
  128TCq2    H4 1964   0.505   0.439   9.112 -1.0353 -1.6762  1.5349
  129MPD2     C 1965   2.997   1.206   1.984 -0.3745 -0.3745 -0.3570
  129MPD2    C1 1966   3.076   1.155   1.880  0.1516 -0.5707 -0.9532
  129MPD2    C2 1967   3.042   1.207   1.759 -0.7303 -0.3517  0.6647
  129MPD2    C3 1968   2.949   1.306   1.738 -0.3960 -0.4713  1.2484
  129MPD2    C4 1969   2.886   1.359   1.847  0.0170  0.6805  0.0925
  129MPD2    C5 1970   2.922   1.312   1.971  0.0867  0.4731  0.1375
  129MPD2     H 1971   3.107   1.181   1.676  1.4990  1.1594  1.9085
  129MPD2    H1 1972   2.804   1.429   1.838 -1.3987 -0.7333  1.9573
  129MPD2    H2 1973   3.011   1.173   2.087 -0.3913 -0.2622 -0.3187
  129MPD2    H3 1974   2.899   1.357   2.067 -1.1373 -0.6680  0.3921
  129MPD2     N 1975   2.935   1.351   1.602 -0.2511 -0.0910  0.3998
  129MPD2    H5 1976   2.983   1.306   1.525 -0.4762 -0.0163  0.2156
  129MPD2    N1 1977   3.181   1.061   1.895 -0.7513 -0.0758  0.0952
  129MPD2    H7 1978   3.223   1.015   1.815 -1.0692  1.1021 -0.7598
  130TCq2    C1 1979   3.228   1.022   2.015  0.1126  0.8551 -0.3289
  130TCq2    O2 1980   3.222   1.085   2.117 -0.2269  0.1140 -0.0041
  130TCq2    C2 1981   3.309   0.900   2.013  0.0993 -0.2879 -0.0410
  130TCq2    C3 1982   3.405   0.885   2.113 -0.3521  0.1057  0.6204
  130TCq2    C4 1983   3.456   0.760   2.125  0.3763 -0.6171 -0.0854
  130TCq2    C5 1984   3.422   0.655   2.043 -0.2071  0.8888 -0.0863
  130TCq2    C6 1985   3.333   0.679   1.943  0.0098 -0.0051 -0.6287
  130TCq2    C7 1986   3.274   0.800   1.923  0.3054  1.5608 -0.0516
  130TCq2    C8 1987   3.271   0.562   1.877  0.0163 -0.1788  0.4001
  130TCq2    O4 1988   3.151   0.550   1.860 -0.8179 -0.4036 -0.0181
  130TCq2    C9 1989   3.539   0.731   2.235  0.3288 -0.4813  0.1258
  130TCq2    O5 1990   3.564   0.826   2.317  0.0094 -0.0484  0.6118
  130TCq2    O6 1991   3.615   0.630   2.227  0.6229 -0.5613 -0.2623
  130TCq2    H2 1992   3.425   0.964   2.184 -2.0422  1.7766 -0.7574
  130TCq2    H3 1993   3.465   0.559   2.070  0.1737  0.2065 -3.0855
  130TCq2    H4 1994   3.181   0.810   1.869 -0.4524 -3.0092  0.4083
  131MPD2     C 1995   2.571   1.107   9.786  0.2515 -0.1929  0.5304
  131MPD2    C1 1996   2.675   1.019   9.794 -0.3977 -0.0028  0.1196
  131MPD2    C2 1997   2.651   0.886   9.789  0.6246 -0.0251 -0.1577
  131MPD2    C3 1998   2.526   0.837   9.769 -0.0535  0.0090  0.9166
  131MPD2    C4 1999   2.421   0.918   9.780 -0.3927 -0.1504  0.0923
  131MPD2    C5 2000   2.440   1.053   9.782 -0.5429 -0.0868 -0.2312
  131MPD2     H 2001   2.722   0.807   9.809 -1.1125 -1.2839  0.9761
  131MPD2    H1 2002   2.319   0.884   9.762 -0.4334 -1.1172  2.1984
  131MPD2    H2 2003   2.583   1.214   9.795  0.9906 -0.2228 -0.0555
  131MPD2    H3 2004   2.349   1.111   9.769 -0.4957 -0.3892 -1.9016
  131MPD2     N 2005   2.516   0.691   9.755  0.5211  0.0767  0.7804
  131MPD2    H5 2006   2.599   0.633   9.754 -0.9671 -2.0896  1.2978
  131MPD2    N1 2007   2.803   1.078   9.813  0.0814 -0.2212 -0.5724
  131MPD2    H7 2008   2.795   1.176   9.838  2.5457 -0.6214  1.7925
  132TCq2    C1 2009   3.300   1.029  10.129 -0.7954  0.5577 -0.2878
  132TCq2    O2 2010   3.303   0.905  10.145 -0.0711  0.3216  0.8055
  132TCq2    C2 2011   3.180   1.088  10.062 -0.2293  0.2289  0.0117
  132TCq2    C3 2012   3.171   1.224  10.070 -0.2793 -0.2839 -0.2580
  132TCq2    C4 2013   3.088   1.296   9.985 -0.2211 -0.2378 -0.0331
  132TCq2    C5 2014   3.010   1.227   9.890 -0.1466  0.1317 -0.5770
  132TCq2    C6 2015   3.020   1.086   9.888  0.2345  0.3994  0.9962
  132TCq2    C7 2016   3.095   1.015   9.982 -0.0546 -0.1299 -0.2460
  132TCq2    C8 2017   2.918   1.006   9.823 -0.1981 -0.0566  0.3102
  132TCq2    O4 2018   2.941   0.891   9.792  0.7840  0.4906 -0.3990
  132TCq2    C9 2019   3.078   1.437   9.984 -0.2902  0.6656  0.1971
  132TCq2    O5 2020   3.034   1.476   9.867  0.4073  0.5592  0.4306
  132TCq2    O6 2021   3.101   1.511  10.084 -0.0270 -0.5334 -0.0004
  132TCq2    H2 2022   3.224   1.285  10.142  0.2705  0.2993 -1.1675
  132TCq2    H3 2023   2.935   1.287   9.839  1.1933 -0.7938 -3.6388
  132TCq2    H4 2024   3.097   0.907   9.990 -0.3456 -0.1876 -0.9455
  133MPD2     C 2025   1.580   1.467   8.943  0.4370  0.2365  0.0197
  133MPD2    C1 2026   1.508   1.486   9.057  0.0644  0.4928  0.2756
  133MPD2    C2 2027   1.501   1.387   9.156 -0.0007 -0.4719 -0.3174
  133MPD2    C3 2028   1.578   1.271   9.134 -0.0936 -0.3494  0.3308
  133MPD2    C4 2029   1.634   1.251   9.011  0.0186 -0.0444  0.1841
  133MPD2    C5 2030   1.641   1.348   8.914  0.1541  0.4434 -0.0876
  133MPD2     H 2031   1.449   1.405   9.249  1.3401 -1.7479  0.6791
  133MPD2    H1 2032   1.699   1.166   8.994 -2.0058 -1.8451  1.4730
  133MPD2    H2 2033   1.601   1.555   8.883  3.7008  1.0658  2.3317
  133MPD2    H3 2034   1.710   1.337   8.831 -1.5611  1.0967 -1.6112
  133MPD2     N 2035   1.590   1.163   9.230 -0.0462  0.0833  0.3537
  133MPD2    H5 2036   1.656   1.092   9.201  0.7010  0.5481  0.8980
  133MPD2    N1 2037   1.449   1.617   9.066  0.2883 -0.1657 -0.1058
  133MPD2    H7 2038   1.478   1.687   8.998  2.4261  0.4068  1.4309
  134TCq2    C1 2039   1.372   1.658   9.172 -0.4035  0.0438  0.0590
  134TCq2    O2 2040   1.312   1.601   9.261 -0.0575  0.7329 -0.6796
  134TCq2    C2 2041   1.344   1.804   9.144 -0.2920  0.0880  0.1427
  134TCq2    C3 2042   1.360   1.853   9.014 -0.0461 -0.4321 -0.1126
  134TCq2    C4 2043   1.369   1.988   9.003 -0.0183 -0.1271  0.1598
  134TCq2    C5 2044   1.347   2.068   9.111  0.3601 -0.3481  0.2329
  134TCq2    C6 2045   1.346   2.008   9.238  0.5958  0.4287  0.8719
  134TCq2    C7 2046   1.340   1.875   9.258 -0.0040 -0.2367 -0.1962
  134TCq2    C8 2047   1.315   2.095   9.352 -0.6746  0.2416 -0.4668
  134TCq2    O4 2048   1.323   2.050   9.468  0.1535  0.9404 -0.0889
  134TCq2    C9 2049   1.378   2.054   8.875  0.3521 -0.1179 -0.1261
  134TCq2    O5 2050   1.385   1.976   8.775  0.1312  0.0297  0.3757
  134TCq2    O6 2051   1.397   2.178   8.858 -1.0220 -0.3094  0.0377
  134TCq2    H2 2052   1.364   1.803   8.918 -0.5046 -1.2114  0.2761
  134TCq2    H3 2053   1.353   2.175   9.092 -1.3461 -0.3837 -0.4992
  134TCq2    H4 2054   1.325   1.837   9.358 -0.6222 -1.1423 -0.6356
  135MPD2     C 2055   4.512   2.931   9.545  1.0193  0.3300  0.0697
  135MPD2    C1 2056   4.572   2.806   9.529  0.1928  0.4989 -0.4771
  135MPD2    C2 2057   4.653   2.782   9.417 -0.0251  0.3622 -0.2018
  135MPD2    C3 2058   4.709   2.889   9.345 -0.1031 -0.0557  0.4401
  135MPD2    C4 2059   4.653   3.020   9.363  0.4258 -0.6665  0.4851
  135MPD2    C5 2060   4.557   3.029   9.465  0.6755  0.7362 -0.1536
  135MPD2     H 2061   4.671   2.678   9.390 -0.5339  0.1636  0.2181
  135MPD2    H1 2062   4.682   3.106   9.304 -1.7102 -1.5157 -1.8193
  135MPD2    H2 2063   4.444   2.960   9.624  0.4875 -1.9343  0.4438
  135MPD2    H3 2064   4.515   3.127   9.486 -2.2819 -0.3964 -0.7974
  135MPD2     N 2065   0.089   2.875   9.244  0.5561  0.2995  0.2010
  135MPD2    H5 2066   0.120   2.962   9.203 -0.7029  0.7638  0.2324
  135MPD2    N1 2067   4.565   2.703   9.626 -0.2502 -0.9318  0.3109
  135MPD2    H7 2068   4.624   2.623   9.607  1.2411  0.2315  0.0754
  136TCq2    C1 2069   4.488   2.701   9.744 -0.4503  0.4798 -0.0129
  136TCq2    O2 2070   4.399   2.778   9.790 -0.3592 -0.2032 -0.0891
  136TCq2    C2 2071   4.508   2.580   9.814  0.2023  0.3547 -0.1048
  136TCq2    C3 2072   4.405   2.551   9.899  0.2702 -0.1529 -0.3621
  136TCq2    C4 2073   4.416   2.431   9.965 -0.2057 -0.3180  0.0701
  136TCq2    C5 2074   4.516   2.339   9.944 -0.3414 -0.2004  0.5619
  136TCq2    C6 2075   4.619   2.379   9.865 -1.0081 -0.0605 -0.0347
  136TCq2    C7 2076   4.614   2.494   9.792  0.2032 -0.5886 -0.2240
  136TCq2    C8 2077   4.716   2.276   9.826  0.2269 -0.6953  0.0073
  136TCq2    O4 2078   0.009   2.258   9.704  0.3545 -0.0943 -0.0291
  136TCq2    C9 2079   4.317   2.408  10.068 -0.4977 -0.4939 -0.6008
  136TCq2    O5 2080   4.262   2.511  10.121 -0.0927  0.2395  0.3234
  136TCq2    O6 2081   4.291   2.290  10.103  0.9860 -0.1347  0.0135
  136TCq2    H2 2082   4.322   2.618   9.912 -0.4510 -1.1631  0.2723
  136TCq2    H3 2083   4.518   2.245   9.998 -0.3065 -0.0471  0.8326
  136TCq2    H4 2084   4.702   2.528   9.738  0.4529  0.0487  0.5852
  137MPD2     C 2085   4.593   0.896   8.981  0.4513 -1.0267 -0.3930
  137MPD2    C1 2086   4.587   1.019   9.042  0.2314  0.1355  0.4217
  137MPD2    C2 2087   4.679   1.054   9.147  0.3642  0.0162  0.1260
  137MPD2    C3 2088   0.052   0.960   9.192  0.0591  0.1161  0.2050
  137MPD2    C4 2089   0.043   0.836   9.138 -0.2604  0.4335  0.9819
  137MPD2    C5 2090   4.675   0.801   9.036  0.1880  0.1044 -0.1045
  137MPD2     H 2091   4.684   1.153   9.191 -0.3015  0.3527 -0.5709
  137MPD2    H1 2092   0.101   0.751   9.170 -0.9000  0.0791  1.1857
  137MPD2    H2 2093   4.525   0.867   8.902 -0.9838 -2.4414  1.3502
  137MPD2    H3 2094   4.683   0.704   8.988  0.3959  0.5519 -0.9839
  137MPD2     N 2095   0.148   0.986   9.288 -0.1789 -0.2490 -0.8648
  137MPD2    H5 2096   0.166   1.084   9.305  0.3040 -0.7517  1.5169
  137MPD2    N1 2097   4.489   1.111   8.990  0.4854 -1.1125 -0.0826
  137MPD2    H7 2098   4.419   1.084   8.922  0.9800  0.5982 -1.2907
  138TCq2    C1 2099   4.455   1.221   9.059 -0.2943 -0.4765  0.2372
  138TCq2    O2 2100   4.496   1.259   9.173 -0.0906  0.4512 -0.3889
  138TCq2    C2 2101   4.350   1.288   8.987  0.5818  0.5698 -0.0792
  138TCq2    C3 2102   4.369   1.309   8.855 -0.6331  0.2019  0.2026
  138TCq2    C4 2103   4.310   1.415   8.803  0.8503  0.0181  0.1727
  138TCq2    C5 2104   4.224   1.500   8.877 -0.4323 -0.2939  0.6996
  138TCq2    C6 2105   4.218   1.487   9.013 -0.2504 -0.0611 -0.1359
  138TCq2    C7 2106   4.287   1.377   9.069  0.5027  0.5107 -0.6078
  138TCq2    C8 2107   4.170   1.597   9.094  0.9376  0.0943 -0.6470
  138TCq2    O4 2108   4.168   1.707   9.042  0.0982 -0.2674  0.3757
  138TCq2    C9 2109   4.321   1.436   8.657 -0.0034  0.0898 -0.2816
  138TCq2    O5 2110   4.257   1.532   8.607 -0.5934 -0.0013 -0.2043
  138TCq2    O6 2111   4.424   1.383   8.604 -1.0269 -0.3991  0.4096
  138TCq2    H2 2112   4.445   1.255   8.799 -1.1851 -1.1031  0.7287
  138TCq2    H3 2113   4.171   1.587   8.839  0.2801  0.1330  0.6837
  138TCq2    H4 2114   4.297   1.374   9.177  1.1960 -1.0366 -0.7121
  139TMC2    C1 2115   4.533   3.636  13.162  0.3698 -0.2013 -0.1928
  139TMC2    C2 2116   4.538   3.627  13.028  0.1870 -0.2376  0.3710
  139TMC2    C3 2117   4.467   3.723  12.957  0.1516 -0.3146 -0.5612
  139TMC2    C4 2118   4.480   3.743  13.239 -0.0394 -0.2227  0.4410
  139TMC2    C5 2119   4.404   3.829  13.159  0.2211  0.3004 -0.1853
  139TMC2    C6 2120   4.383   3.814  13.022  0.3331  0.2977 -0.4578
  139TMC2     C 2121   4.619   3.537  13.224  0.4146  0.5085  0.1319
  139TMC2     O 2122   4.630   3.432  13.164  0.3037  0.2924  0.4308
  139TMC2     H 2123   4.612   3.568  12.975  1.1928  1.7804 -0.4835
  139TMC2    H1 2124   4.486   3.745  13.347  0.5132 -1.3373  0.4269
  139TMC2    H2 2125   4.329   3.893  12.971  2.0567 -0.0277 -2.7720
  139TMC2    C7 2126   4.351   3.947  13.226  0.0088 -0.2596 -0.1271
  139TMC2    C8 2127   4.529   3.773  12.835 -0.4552 -0.6925 -0.1089
  139TMC2    O1 2128   4.245   3.989  13.184 -0.2411  0.2395  0.9631
  139TMC2    O2 2129   4.480   3.858  12.759 -0.1339  0.4431  0.8802
  139TMC2    O5 2130   4.654   3.726  12.825 -0.1999 -0.1048 -0.1191
  139TMC2    H5 2131   4.702   3.698  12.906 -2.5840 -0.0215  1.3269
  140MPD2     C 2132   0.170   3.546  13.478  0.5707 -0.6975 -0.3812
  140MPD2    C1 2133   0.107   3.526  13.354 -0.2616  0.1626 -0.0978
  140MPD2    C2 2134   0.180   3.451  13.260  0.7368 -0.3392  0.1969
  140MPD2    C3 2135   0.304   3.393  13.287 -0.2336 -0.0775 -0.1030
  140MPD2    C4 2136   0.366   3.414  13.407 -0.3924 -0.4504 -0.3200
  140MPD2    C5 2137   0.297   3.490  13.496  0.0818  0.0679  0.7683
  140MPD2     H 2138   0.139   3.432  13.162  0.1261  1.1273  0.1717
  140MPD2    H1 2139   0.469   3.387  13.430 -0.0779 -0.4562 -1.7625
  140MPD2    H2 2140   0.128   3.604  13.560  3.3367  1.0621 -0.2223
  140MPD2    H3 2141   0.341   3.504  13.594  0.3604  1.7175  0.3878
  140MPD2     N 2142   0.363   3.321  13.184  0.6850 -0.1384 -0.8393
  140MPD2    H5 2143   0.309   3.331  13.099 -1.1679 -0.2448  0.3201
  140MPD2    N1 2144   4.706   3.591  13.322 -0.3499 -0.1117 -0.0860
  140MPD2    H7 2145   4.667   3.664  13.381 -1.9587  0.0116 -1.2936
  141TCq2    C1 2146   4.659   0.066  14.377 -0.0216  0.0052 -1.0317
  141TCq2    O2 2147   0.014   0.149  14.320  0.5751  0.2647 -0.0553
  141TCq2    C2 2148   4.675   0.060  14.518  0.4867  0.0299  0.5062
  141TCq2    C3 2149   4.645   4.657  14.580 -0.1903 -0.0172 -0.2740
  141TCq2    C4 2150   4.650   4.648  14.716 -0.1652  0.3635  0.2529
  141TCq2    C5 2151   4.678   0.043  14.783  0.9179  0.4017  0.4961
  141TCq2    C6 2152   4.704   0.162  14.722 -0.4668 -0.0411 -0.3474
  141TCq2    C7 2153   4.715   0.170  14.586 -0.5612  0.0773 -0.0004
  141TCq2    C8 2154   0.022   0.278  14.794 -0.4321  0.7154  0.0748
  141TCq2    O4 2155   4.692   0.294  14.905  0.0882 -0.2277  0.0479
  141TCq2    C9 2156   4.632   4.522  14.781 -0.7535 -0.0725 -0.8400
  141TCq2    O5 2157   4.641   4.513  14.905  0.2691 -0.1866  0.4042
  141TCq2    O6 2158   4.624   4.424  14.702  0.0397  0.6109  0.7097
  141TCq2    H2 2159   4.614   4.570  14.523 -1.7770  2.0357 -2.5623
  141TCq2    H3 2160   4.686   0.045  14.891 -0.1028 -0.3087  0.5791
  141TCq2    H4 2161   0.003   0.261  14.528  0.0139  0.5410  0.7942
  142MPD2     C 2162   3.061   3.887  10.291 -0.5769 -0.7601  0.4698
  142MPD2    C1 2163   2.932   3.843  10.280 -0.2874 -0.5379  0.1456
  142MPD2    C2 2164   2.844   3.912  10.201 -0.0250 -0.5620  0.1646
  142MPD2    C3 2165   2.891   4.018  10.126 -1.1308  0.3429 -0.7075
  142MPD2    C4 2166   3.021   4.057  10.134  0.7992 -0.8746 -0.0240
  142MPD2    C5 2167   3.109   3.990  10.216 -0.2362  0.6079 -0.0833
  142MPD2     H 2168   2.741   3.878  10.188 -1.0393  3.8276 -3.4301
  142MPD2    H1 2169   3.059   4.137  10.071 -1.6027 -0.0592 -0.4533
  142MPD2    H2 2170   3.136   3.835  10.349  0.4026  0.7608  0.5759
  142MPD2    H3 2171   3.212   4.020  10.228  0.0531 -0.3072 -0.3063
  142MPD2     N 2172   2.805   4.093  10.044 -0.2992  0.0635  0.1613
  142MPD2    H5 2173   2.838   4.174   9.992 -2.5811  2.1401  1.9533
  142MPD2    N1 2174   2.892   3.725  10.350  0.0050  0.5182  0.4922
  142MPD2    H7 2175   2.975   3.677  10.384 -1.0438 -1.5806  0.1010
  143TCq2    C1 2176   2.671   4.065  10.014  0.7605 -0.2320  0.4000
  143TCq2    O2 2177   2.589   3.992  10.068 -0.1140  0.1331  0.5606
  143TCq2    C2 2178   2.614   4.153   9.908 -0.1234 -0.4569 -0.2753
  143TCq2    C3 2179   2.696   4.244   9.842 -0.2718 -0.0489 -0.6505
  143TCq2    C4 2180   2.648   4.321   9.739  0.2888  0.6504 -0.3112
  143TCq2    C5 2181   2.515   4.313   9.706  0.6795  0.0118  0.5180
  143TCq2    C6 2182   2.435   4.224   9.778 -0.1176 -0.4893 -0.3111
  143TCq2    C7 2183   2.483   4.144   9.874 -0.2545 -0.0183  0.0869
  143TCq2    C8 2184   2.292   4.212   9.742 -0.5541 -0.3071 -0.5494
  143TCq2    O4 2185   2.221   4.307   9.710 -0.1489  0.2787  0.1545
  143TCq2    C9 2186   2.742   4.410   9.677 -0.3953 -0.0978 -0.1513
  143TCq2    O5 2187   2.706   4.493   9.588 -0.7823 -0.1415 -0.4202
  143TCq2    O6 2188   2.865   4.402   9.709 -0.1818  0.0103  0.5142
  143TCq2    H2 2189   2.800   4.258   9.868 -0.6876  1.5009  0.2156
  143TCq2    H3 2190   2.476   4.391   9.642 -0.1906 -1.7531 -1.0880
  143TCq2    H4 2191   2.423   4.065   9.918 -1.7725  0.2093 -1.5728
  144MPD2     C 2192   0.702   3.181   0.482  0.0168 -0.0792 -0.2368
  144MPD2    C1 2193   0.721   3.045   0.488  0.3333 -0.3564 -0.4297
  144MPD2    C2 2194   0.853   2.997   0.515 -0.3494 -0.2040  0.0092
  144MPD2    C3 2195   0.963   3.090   0.519  0.2618 -0.4926 -0.8103
  144MPD2    C4 2196   0.929   3.222   0.514 -0.3240 -1.0864  0.3397
  144MPD2    C5 2197   0.801   3.269   0.499 -0.1963  0.5962  0.0747
  144MPD2     H 2198   0.881   2.893   0.524  1.8426  0.5784  2.2346
  144MPD2    H1 2199   1.004   3.299   0.528 -2.0736  0.3481  1.9270
  144MPD2    H2 2200   0.607   3.231   0.462  0.7747  1.4922  0.0928
  144MPD2    H3 2201   0.775   3.375   0.505  0.2015  0.9095 -3.6661
  144MPD2     N 2202   1.101   3.061   0.537  0.4615 -0.2191  0.2020
  144MPD2    H5 2203   1.166   3.139   0.540  1.5993 -1.2258  1.4656
  144MPD2    N1 2204   0.620   2.952   0.459  0.2190 -0.1707  0.6932
  144MPD2    H7 2205   0.641   2.853   0.458 -0.2962 -0.2412 -1.7835
  145TCq2    C1 2206   1.156   2.941   0.558 -0.6257  0.6443 -0.6148
  145TCq2    O2 2207   1.105   2.832   0.554  0.2747 -0.3616  0.1843
  145TCq2    C2 2208   1.298   2.950   0.609 -0.4137 -0.0762 -0.0869
  145TCq2    C3 2209   1.371   2.840   0.590 -0.1835 -0.4096 -0.1373
  145TCq2    C4 2210   1.508   2.843   0.618 -0.2232 -0.3070 -0.7809
  145TCq2    C5 2211   1.559   2.954   0.681  0.1135 -0.7776 -0.0192
  145TCq2    C6 2212   1.466   3.046   0.726  0.0531  0.2153  0.7405
  145TCq2    C7 2213   1.335   3.052   0.689  0.7026  0.1489  0.1948
  145TCq2    C8 2214   1.507   3.156   0.812 -0.1541 -0.5633 -0.1697
  145TCq2    O4 2215   1.622   3.193   0.815  0.3695 -0.1921  0.2907
  145TCq2    C9 2216   1.602   2.735   0.581 -0.5866  0.2770 -0.1240
  145TCq2    O5 2217   1.721   2.750   0.618  0.7614 -0.5379  0.0416
  145TCq2    O6 2218   1.563   2.643   0.501  0.0107 -0.0854 -0.2802
  145TCq2    H2 2219   1.322   2.757   0.541  1.2882 -0.9038 -0.7866
  145TCq2    H3 2220   1.659   2.954   0.724 -0.5180 -0.9007  1.4410
  145TCq2    H4 2221   1.260   3.123   0.722 -1.4811 -3.6672  3.3745
  146TMC2    C1 2222   2.165   1.844  12.840  0.2053  0.0931 -0.3514
  146TMC2    C2 2223   2.142   1.924  12.734 -0.1305 -0.0961  0.3612
  146TMC2    C3 2224   2.081   1.881  12.621 -0.1592  0.1019  0.4720
  146TMC2    C4 2225   2.118   1.718  12.839  0.2504 -0.1810 -0.3074
  146TMC2    C5 2226   2.057   1.673  12.724 -0.2110  0.4250 -0.5397
  146TMC2    C6 2227   2.041   1.755  12.613 -0.2340  0.3114 -0.0113
  146TMC2     C 2228   2.244   1.897  12.950  0.3959  0.3628 -0.0524
  146TMC2     O 2229   2.284   2.013  12.963 -0.0272  0.1017  0.2064
  146TMC2     H 2230   2.181   2.025  12.738 -0.7049  0.1525 -0.5529
  146TMC2    H1 2231   2.108   1.656  12.927 -0.1761 -0.0156 -0.2404
  146TMC2    H2 2232   2.001   1.708  12.524  2.1317 -1.0118 -0.3859
  146TMC2    C7 2233   2.016   1.531  12.716 -0.6308 -0.0555  0.5906
  146TMC2    C8 2234   2.072   1.972  12.511  0.3002  0.1698 -0.1493
  146TMC2    O1 2235   1.954   1.496  12.621  0.2500  0.4462  0.3362
  146TMC2    O2 2236   2.158   2.060  12.503  0.1967 -0.1164 -0.2705
  146TMC2    O5 2237   2.011   1.908  12.406  0.6327  0.4009 -0.0634
  146TMC2    H5 2238   1.944   1.842  12.434  0.2326  0.3910 -1.0482
  147MPD2     C 2239   2.072   1.035  12.798 -0.3172 -0.0370  0.5184
  147MPD2    C1 2240   2.166   1.101  12.867 -0.6958  0.4409 -0.3924
  147MPD2    C2 2241   2.160   1.238  12.871  0.8632  0.1773  0.1142
  147MPD2    C3 2242   2.065   1.310  12.802 -0.6156 -0.3263 -0.2945
  147MPD2    C4 2243   1.972   1.239  12.731 -0.6119  0.0262 -0.1243
  147MPD2    C5 2244   1.973   1.099  12.726 -0.6185 -0.1998 -0.7515
  147MPD2     H 2245   2.224   1.296  12.936  1.8489 -0.4965 -0.2491
  147MPD2    H1 2246   1.882   1.285  12.693 -0.0866  0.8093 -0.4060
  147MPD2    H2 2247   2.065   0.928  12.811 -0.5899 -0.1707 -0.7476
  147MPD2    H3 2248   1.897   1.040  12.676 -0.9577 -1.0697  0.7950
  147MPD2     N 2249   2.084   1.445  12.802 -0.3235  0.4680  0.1102
  147MPD2    H5 2250   2.157   1.477  12.864  1.3852 -4.5130  0.6492
  147MPD2    N1 2251   2.260   1.030  12.950  0.2439  0.1673 -1.2321
  147MPD2    H7 2252   2.279   0.932  12.931 -1.4332 -1.1849  4.2137
  148MPD2     C 2253   3.146   0.596  10.084 -0.4022 -0.3775 -0.0262
  148MPD2    C1 2254   3.155   0.525  10.198  0.5043 -0.0034  0.7703
  148MPD2    C2 2255   3.054   0.465  10.258  0.7632  0.2914 -0.6726
  148MPD2    C3 2256   2.930   0.465  10.204  0.5880  0.5629 -0.3352
  148MPD2    C4 2257   2.919   0.527  10.080 -0.3030 -0.3670  0.8175
  148MPD2    C5 2258   3.025   0.589  10.023  0.4819  0.6300 -1.2672
  148MPD2     H 2259   3.085   0.402  10.341  1.5209  0.4467 -0.8348
  148MPD2    H1 2260   2.831   0.535  10.017 -0.2226  0.4431  0.8106
  148MPD2    H2 2261   3.216   0.662  10.034 -2.0978 -0.7448 -2.9089
  148MPD2    H3 2262   3.022   0.636   9.926 -0.0354  0.9534 -1.0916
  148MPD2     N 2263   2.817   0.400  10.264  0.1679  0.4403 -0.4552
  148MPD2    H5 2264   2.731   0.413  10.212  0.4755  0.0692 -1.0533
  148MPD2    N1 2265   3.279   0.494  10.264 -0.1779 -0.2049  0.3572
  148MPD2    H7 2266   3.281   0.449  10.355  0.2388 -1.7329 -0.3997
  149TCq2    C1 2267   3.407   0.515  10.217  0.0084  0.2061 -0.3726
  149TCq2    O2 2268   3.442   0.533  10.107  0.4112  0.5406  0.2490
  149TCq2    C2 2269   3.494   0.435  10.300 -0.8229 -0.3200  0.1286
  149TCq2    C3 2270   3.619   0.424  10.241  0.8187  0.3550 -0.4122
  149TCq2    C4 2271   3.689   0.303  10.251 -0.1564  0.1862 -0.2312
  149TCq2    C5 2272   3.627   0.190  10.296 -0.0145 -0.6344  0.5404
  149TCq2    C6 2273   3.511   0.204  10.362 -0.3121  0.2175 -0.4483
  149TCq2    C7 2274   3.439   0.323  10.361  0.5808  0.1409 -0.0992
  149TCq2    C8 2275   3.427   0.087  10.389 -0.3737  0.8430  0.2580
  149TCq2    O4 2276   3.306   0.102  10.405  0.5423 -0.5045 -0.6284
  149TCq2    C9 2277   3.805   0.281  10.171 -0.1718 -0.4428  0.8749
  149TCq2    O5 2278   3.800   0.182  10.094 -0.5106 -0.0480 -0.2688
  149TCq2    O6 2279   3.877   0.384  10.158 -0.7022  0.6630  0.3322
  149TCq2    H2 2280   3.663   0.510  10.193 -0.5426  1.0731 -0.3609
  149TCq2    H3 2281   3.672   0.093  10.277  2.1216  0.3206  0.7379
  149TCq2    H4 2282   3.338   0.318  10.401  0.9489 -2.1757  0.5521
  150MPD2     C 2283   3.806   0.148  12.412 -0.0371  0.4609 -0.1563
  150MPD2    C1 2284   3.879   0.144  12.293  0.5365 -0.5541  0.1431
  150MPD2    C2 2285   4.013   0.187  12.296 -0.4620 -0.0866  0.7893
  150MPD2    C3 2286   4.074   0.217  12.413 -0.5756 -1.0655  0.2922
  150MPD2    C4 2287   4.000   0.227  12.531  0.2084 -0.4046 -0.1451
  150MPD2    C5 2288   3.865   0.186  12.529  0.0638  0.2580 -0.7548
  150MPD2     H 2289   4.066   0.183  12.202  1.0599 -3.0581  1.7783
  150MPD2    H1 2290   4.049   0.238  12.627  2.5731 -0.1694 -1.3895
  150MPD2    H2 2291   3.707   0.104  12.415 -0.2506  0.8663 -1.3666
  150MPD2    H3 2292   3.814   0.170  12.623  0.9889  0.1919 -0.2570
  150MPD2     N 2293   4.213   0.246  12.408 -0.1158  0.0865 -0.9261
  150MPD2    H5 2294   4.254   0.235  12.316 -2.0403 -0.6398 -1.6935
  150MPD2    N1 2295   3.820   0.098  12.171  0.2147  0.2055  0.2840
  150MPD2    H7 2296   3.726   0.060  12.173  0.2024  0.1863 -0.6987
  151TCq2    C1 2297   4.299   0.238  12.515 -0.4988 -0.6607  0.3699
  151TCq2    O2 2298   4.282   0.194  12.627  0.1304  0.1482  0.1979
  151TCq2    C2 2299   4.432   0.232  12.459 -0.5461 -0.1799  0.0931
  151TCq2    C3 2300   4.477   0.304  12.352  0.0144  0.1445 -0.0287
  151TCq2    C4 2301   4.609   0.297  12.307 -0.0689  0.1759  0.2633
  151TCq2    C5 2302   4.699   0.224  12.374 -0.3583 -0.7943  0.1401
  151TCq2    C6 2303   4.656   0.154  12.483  0.7616  0.0698 -0.0607
  151TCq2    C7 2304   4.521   0.153  12.526 -0.9063 -0.0683 -0.5827
  151TCq2    C8 2305   0.018   0.053  12.535 -0.3237 -0.1014  0.1092
  151TCq2    O4 2306   0.024   0.030  12.655  0.6167  0.2653 -0.2944
  151TCq2    C9 2307   4.655   0.384  12.204 -0.3893 -0.1715  0.3227
  151TCq2    O5 2308   0.057   0.374  12.170  0.5197  0.4325 -0.2547
  151TCq2    O6 2309   4.586   0.486  12.173 -0.1937  0.2686 -0.1400
  151TCq2    H2 2310   4.402   0.368  12.306 -0.3926  1.0539  1.8952
  151TCq2    H3 2311   0.081   0.231  12.335 -0.3354  1.3505  0.5869
  151TCq2    H4 2312   4.488   0.103  12.617  0.4859 -1.1858 -0.6782
  152MPD2     C 2313   3.673   4.085  12.791 -0.3267  0.0934 -0.6023
  152MPD2    C1 2314   3.736   4.158  12.695  0.3175  0.6769 -0.7184
  152MPD2    C2 2315   3.659   4.218  12.599  0.0747  0.3954 -0.3025
  152MPD2    C3 2316   3.519   4.203  12.595  0.4030 -0.2970 -0.3720
  152MPD2    C4 2317   3.456   4.127  12.691 -0.1004  0.3421 -0.8651
  152MPD2    C5 2318   3.536   4.066  12.785 -0.2531 -0.0763  0.1102
  152MPD2     H 2319   3.702   4.272  12.516 -1.9216 -0.2050 -1.7300
  152MPD2    H1 2320   3.349   4.119  12.709 -0.0255 -0.9230 -0.9518
  152MPD2    H2 2321   3.724   4.037  12.873 -0.3891  3.3491  1.3182
  152MPD2    H3 2322   3.490   4.021  12.872  1.2255  0.9654  1.4291
  152MPD2     N 2323   3.438   4.261  12.489  0.0241  0.0745 -0.1785
  152MPD2    H5 2324   3.491   4.324  12.430 -1.6766  2.5828  0.9642
  152MPD2    N1 2325   3.875   4.172  12.712 -0.2587  0.1591 -0.4127
  152MPD2    H7 2326   3.915   4.136  12.798 -1.1898  0.0392 -0.0350
  153TCq2    C1 2327   3.958   4.232  12.621 -0.1637  0.0554 -0.0684
  153TCq2    O2 2328   3.938   4.267  12.504 -0.1937  0.1498 -0.4912
  153TCq2    C2 2329   4.097   4.217  12.666  0.5102 -0.7595  0.6469
  153TCq2    C3 2330   4.195   4.191  12.578 -0.1544  0.2315  0.5194
  153TCq2    C4 2331   4.321   4.149  12.615 -0.7023 -0.2203 -0.1518
  153TCq2    C5 2332   4.354   4.159  12.748  0.5473 -0.6547 -0.3331
  153TCq2    C6 2333   4.261   4.205  12.834  0.3691  0.8029  0.3179
  153TCq2    C7 2334   4.133   4.226  12.795  0.9548  0.1689  0.3353
  153TCq2    C8 2335   4.304   4.255  12.963 -0.7232  0.0883  0.5133
  153TCq2    O4 2336   4.214   4.287  13.036 -0.2383 -0.6762  0.5649
  153TCq2    C9 2337   4.419   4.096  12.522 -0.1135  0.2640  0.1229
  153TCq2    O5 2338   4.540   4.089  12.558 -0.1825  0.4650 -0.2150
  153TCq2    O6 2339   4.381   4.100  12.402 -0.1778  0.4023  0.2475
  153TCq2    H2 2340   4.147   4.179  12.481 -0.4392  0.7758  0.5889
  153TCq2    H3 2341   4.455   4.126  12.769  0.1234 -2.3191 -0.8683
  153TCq2    H4 2342   4.063   4.275  12.862  2.2634  3.3154 -0.6023
  154MPD2     C 2343   0.302   4.241   0.777  0.0165 -0.3162  0.0690
  154MPD2    C1 2344   0.353   4.231   0.906 -0.2484 -0.6986  0.1274
  154MPD2    C2 2345   0.262   4.219   1.010 -0.5676  0.1199  0.5794
  154MPD2    C3 2346   0.125   4.228   0.988  1.0669  0.2204  0.5041
  154MPD2    C4 2347   0.075   4.251   0.861 -0.2604  0.0370  0.0264
  154MPD2    C5 2348   0.165   4.256   0.754 -0.2791  0.0532  0.1610
  154MPD2     H 2349   0.295   4.202   1.112 -0.8019  1.6263  0.9087
  154MPD2    H1 2350   4.688   4.250   0.836 -0.0477  2.1141 -0.9393
  154MPD2    H2 2351   0.368   4.233   0.691  1.1685 -2.5888  1.1537
  154MPD2    H3 2352   0.121   4.265   0.656  2.2700  2.5363 -0.7732
  154MPD2     N 2353   0.050   4.211   1.107  0.9227  0.0982  0.7674
  154MPD2    H5 2354   0.094   4.208   1.198  2.5727  2.3435  0.0086
  154MPD2    N1 2355   0.494   4.222   0.927  0.5152 -0.3172 -0.3062
  154MPD2    H7 2356   0.549   4.209   0.843  1.4441  0.4522  0.1965
  155TCq2    C1 2357   0.564   4.215   1.048 -0.8900  0.2616  0.1290
  155TCq2    O2 2358   0.519   4.246   1.156  0.5030  0.2960  0.5649
  155TCq2    C2 2359   0.711   4.204   1.040 -0.1732 -0.4831  0.1184
  155TCq2    C3 2360   0.783   4.213   1.161  0.0015  0.0378 -0.2202
  155TCq2    C4 2361   0.911   4.163   1.156 -0.4265 -0.2268  0.0367
  155TCq2    C5 2362   0.962   4.105   1.043  0.0713 -0.0469 -0.7151
  155TCq2    C6 2363   0.880   4.079   0.933  0.4660 -0.2231  0.3872
  155TCq2    C7 2364   0.753   4.126   0.933  0.0003 -0.0931 -0.0171
  155TCq2    C8 2365   0.935   4.035   0.807 -0.0603 -0.5392  0.2835
  155TCq2    O4 2366   0.902   4.098   0.705 -0.0980  0.4373 -0.0741
  155TCq2    C9 2367   1.001   4.180   1.270 -0.2954  0.1537  0.1443
  155TCq2    O5 2368   0.959   4.248   1.368 -0.6428  0.4034 -0.2223
  155TCq2    O6 2369   1.111   4.113   1.274 -0.1070 -0.2895 -0.3904
  155TCq2    H2 2370   0.755   4.268   1.250  0.5982 -0.7063  0.4355
  155TCq2    H3 2371   1.062   4.064   1.042 -0.1794 -0.6055 -2.9238
  155TCq2    H4 2372   0.687   4.087   0.857 -1.3525  0.5291  0.8463
  156MPD2     C 2373   4.338   1.641  10.936 -0.4810  0.4261  0.1018
  156MPD2    C1 2374   4.210   1.701  10.913  0.3876  0.2168  0.5966
  156MPD2    C2 2375   4.128   1.717  11.019  0.2340 -1.2485 -0.5725
  156MPD2    C3 2376   4.167   1.704  11.151  0.1881 -0.7606 -0.2759
  156MPD2    C4 2377   4.286   1.636  11.175  0.3588 -0.4178 -0.4527
  156MPD2    C5 2378   4.368   1.605  11.065  0.2483  0.3232  0.2769
  156MPD2     H 2379   4.027   1.747  10.996  0.2003  0.3367  1.6273
  156MPD2    H1 2380   4.327   1.619  11.274  0.2163  1.8243 -0.0024
  156MPD2    H2 2381   4.409   1.623  10.856  1.8255 -1.2784  2.5459
  156MPD2    H3 2382   4.460   1.551  11.086 -0.4317 -0.7656  0.3994
  156MPD2     N 2383   4.089   1.756  11.255 -0.0681  0.8643 -0.4901
  156MPD2    H5 2384   3.999   1.790  11.222 -1.1565 -0.8317  0.7077
  156MPD2    N1 2385   4.179   1.751  10.786  0.0840 -0.5237  0.3592
  156MPD2    H7 2386   4.250   1.761  10.713  0.1947  0.3549  0.5829
  157TCq2    C1 2387   4.052   1.773  10.745 -0.0361 -0.5258  0.0767
  157TCq2    O2 2388   3.955   1.723  10.793 -0.1775  0.4951 -0.3679
  157TCq2    C2 2389   4.035   1.884  10.654 -0.1818  0.2154 -0.3214
  157TCq2    C3 2390   4.136   1.940  10.577 -0.0231  0.4799  0.3191
  157TCq2    C4 2391   4.124   2.066  10.537 -0.5594  1.2204  0.0455
  157TCq2    C5 2392   4.023   2.144  10.574  0.2149 -0.2134  0.1494
  157TCq2    C6 2393   3.927   2.097  10.655  0.3035  0.0195  0.1018
  157TCq2    C7 2394   3.925   1.958  10.686 -0.0120 -0.0767  0.1802
  157TCq2    C8 2395   3.837   2.192  10.726 -0.5003 -0.5522  0.3079
  157TCq2    O4 2396   3.857   2.309  10.702  0.3047  1.0481  0.0398
  157TCq2    C9 2397   4.236   2.121  10.462  0.1107  0.9927 -0.3179
  157TCq2    O5 2398   4.328   2.046  10.421  0.5706  0.6784  0.0807
  157TCq2    O6 2399   4.214   2.230  10.402 -0.3203  0.5924 -0.2744
  157TCq2    H2 2400   4.217   1.879  10.538 -1.0435 -0.3088 -0.5341
  157TCq2    H3 2401   4.017   2.250  10.552  1.8730 -0.4415 -1.3858
  157TCq2    H4 2402   3.853   1.920  10.758 -0.7541 -0.2715 -0.6526
  158TMC2    C1 2403   4.634   0.431  12.898 -0.0880  0.3040 -0.5490
  158TMC2    C2 2404   4.675   0.512  12.792  0.2064 -0.3335  0.7034
  158TMC2    C3 2405   4.578   0.524  12.694 -0.4591  0.4718 -0.0218
  158TMC2    C4 2406   4.506   0.381  12.912 -0.3976  0.0497  0.5476
  158TMC2    C5 2407   4.410   0.415  12.816  1.0695  0.3703  0.6730
  158TMC2    C6 2408   4.448   0.485  12.711  1.2288  0.5865  0.0291
  158TMC2     C 2409   0.002   0.438  13.020 -0.6350  0.2361 -0.4288
  158TMC2     O 2410   0.118   0.478  12.999 -0.2193 -0.0801  0.1930
  158TMC2     H 2411   0.057   0.550  12.795 -0.2130  0.9008 -0.8144
  158TMC2    H1 2412   4.483   0.316  12.995 -2.3578  1.3408  1.0301
  158TMC2    H2 2413   4.373   0.506  12.635  0.2435 -0.5487  0.7061
  158TMC2    C7 2414   4.259   0.410  12.831 -0.4871 -0.8633 -0.1258
  158TMC2    C8 2415   4.611   0.603  12.580  0.3427  0.7952  0.3415
  158TMC2    O1 2416   4.187   0.482  12.761 -0.4032 -0.9725 -0.2500
  158TMC2    O2 2417   4.524   0.661  12.519 -0.0342 -0.0145 -0.2232
  158TMC2    O5 2418   0.006   0.552  12.534 -0.5293  0.2625  0.1680
  158TMC2    H5 2419   0.050   0.487  12.592 -0.4490  0.9179  0.8449
  159MPD2     C 2420   0.113   0.431  13.518 -0.0411  0.0664  0.0327
  159MPD2    C1 2421   4.697   0.421  13.509 -0.1562  0.0427  0.2692
  159MPD2    C2 2422   4.652   0.403  13.377 -0.3157  0.5762  0.3518
  159MPD2    C3 2423   0.009   0.404  13.262  0.5665 -0.7057 -0.2036
  159MPD2    C4 2424   0.140   0.415  13.281  0.5613 -0.0634  0.6633
  159MPD2    C5 2425   0.195   0.428  13.405 -0.3877  0.2524  0.8696
  159MPD2     H 2426   4.552   0.370  13.353  0.0254  0.1943 -0.5325
  159MPD2    H1 2427   0.207   0.404  13.196  0.6184  0.7749  0.6003
  159MPD2    H2 2428   0.154   0.446  13.617  3.5110 -0.6428 -1.3245
  159MPD2    H3 2429   0.301   0.441  13.424  0.0491 -1.4097 -0.3997
  159MPD2     N 2430   4.662   0.404  13.138  0.4173 -0.5977 -0.4292
  159MPD2    H5 2431   4.561   0.405  13.142  0.3587  0.0758 -2.0722
  159MPD2    N1 2432   4.613   0.400  13.622 -0.0274  0.4912 -0.1017
  159MPD2    H7 2433   4.658   0.393  13.713  0.4016  2.6846 -0.1570
  160TMC2    C1 2434   3.719   3.747   2.491  0.2314  0.8048 -0.2722
  160TMC2    C2 2435   3.642   3.648   2.545 -0.2197  0.0881  0.1877
  160TMC2    C3 2436   3.701   3.528   2.559 -0.5667  0.2077 -0.3275
  160TMC2    C4 2437   3.853   3.726   2.463  0.1316 -0.3657 -0.7055
  160TMC2    C5 2438   3.903   3.599   2.480  0.0737  0.2505  0.0733
  160TMC2    C6 2439   3.830   3.498   2.532  0.2412 -0.2992  0.1195
  160TMC2     C 2440   3.642   3.847   2.429 -0.5635 -0.0581 -0.0952
  160TMC2     O 2441   3.525   3.859   2.468  0.2746 -0.2024  0.0487
  160TMC2     H 2442   3.537   3.660   2.569 -0.2661  1.0856 -0.4973
  160TMC2    H1 2443   3.914   3.808   2.428 -0.5064  0.3851 -0.0735
  160TMC2    H2 2444   3.867   3.401   2.561 -1.0759 -0.9786 -0.4750
  160TMC2    C7 2445   4.040   3.564   2.464  0.0235  0.2407 -0.0435
  160TMC2    C8 2446   3.631   3.431   2.648  0.5372  0.6462  0.2859
  160TMC2    O1 2447   4.083   3.461   2.510  0.3170  0.0736 -0.0155
  160TMC2    O2 2448   3.688   3.359   2.725  0.2618 -0.3440 -0.3423
  160TMC2    O5 2449   3.502   3.431   2.611  0.0526  0.2621 -0.8012
  160TMC2    H5 2450   3.479   3.493   2.538 -0.8450  0.7173 -0.1387
  161MPD2     C 2451   3.540   4.076   2.285  0.1822  0.3356  0.1711
  161MPD2    C1 2452   3.656   4.006   2.245  0.7764  0.9776 -0.1036
  161MPD2    C2 2453   3.712   4.045   2.122 -0.9242 -0.2743 -0.1028
  161MPD2    C3 2454   3.649   4.135   2.036 -0.4176  0.7443 -0.3102
  161MPD2    C4 2455   3.532   4.192   2.082  0.3755  0.5601 -0.0249
  161MPD2    C5 2456   3.477   4.162   2.195 -0.2169 -0.6277  0.1313
  161MPD2     H 2457   3.802   3.995   2.086  0.1476  1.4848  0.1261
  161MPD2    H1 2458   3.489   4.272   2.022 -1.4045  1.1059  2.0003
  161MPD2    H2 2459   3.512   4.088   2.389  0.9938 -0.1576  0.4478
  161MPD2    H3 2460   3.389   4.216   2.226 -0.4505 -1.8326  1.5808
  161MPD2     N 2461   3.698   4.178   1.917  0.6212 -0.5460 -0.0276
  161MPD2    H5 2462   3.642   4.256   1.885 -1.2422 -1.6269  0.6059
  161MPD2    N1 2463   3.709   3.897   2.320  0.3203 -0.2539 -0.0929
  161MPD2    H7 2464   3.796   3.847   2.307  2.3907  3.0556  0.8959
  162TMC2    C1 2465   2.288   0.782   1.148  0.0844 -0.5050 -0.3903
  162TMC2    C2 2466   2.185   0.862   1.152 -0.4666  0.0302 -0.3691
  162TMC2    C3 2467   2.125   0.893   1.267 -0.2933 -0.1255 -0.7384
  162TMC2    C4 2468   2.321   0.706   1.255  0.8877  0.5868  0.0160
  162TMC2    C5 2469   2.257   0.737   1.369  0.3402 -0.0137  0.1544
  162TMC2    C6 2470   2.155   0.827   1.383  0.1535  0.3689 -0.4391
  162TMC2     C 2471   2.355   0.761   1.025  0.3666  0.5148  1.0810
  162TMC2     O 2472   2.414   0.656   1.009 -0.3293 -0.0807 -0.2779
  162TMC2     H 2473   2.144   0.892   1.056 -0.7388 -1.8198 -0.8210
  162TMC2    H1 2474   2.409   0.643   1.249 -0.5641 -1.4851  0.4220
  162TMC2    H2 2475   2.109   0.849   1.479 -0.9177 -2.2927 -0.3385
  162TMC2    C7 2476   2.333   0.728   1.495 -0.2589  0.2343  0.3576
  162TMC2    C8 2477   2.008   0.977   1.272 -0.2576  0.2016  0.6313
  162TMC2    O1 2478   2.311   0.814   1.579  0.0046  0.4860  0.0148
  162TMC2    O2 2479   1.921   0.956   1.354 -0.0717  0.6012 -1.0577
  162TMC2    O5 2480   1.998   1.051   1.158  0.9087 -0.0541  0.5791
  162TMC2    H5 2481   2.086   1.068   1.118  0.2935 -0.7943 -1.1015
  163MPD2     C 2482   2.413   0.941   0.547  0.2993  0.6321  0.9432
  163MPD2    C1 2483   2.431   0.813   0.597  0.3292  0.4990  0.5305
  163MPD2    C2 2484   2.432   0.795   0.736  0.0603 -0.0478 -0.0775
  163MPD2    C3 2485   2.404   0.900   0.822  0.2957  0.4927  0.5417
  163MPD2    C4 2486   2.374   1.029   0.769 -0.8203 -0.5415 -0.0349
  163MPD2    C5 2487   2.375   1.043   0.631 -0.6667 -0.6570 -0.8310
  163MPD2     H 2488   2.439   0.696   0.779 -0.7554  0.3208  0.8917
  163MPD2    H1 2489   2.339   1.113   0.829 -0.3192  0.3072 -0.9325
  163MPD2    H2 2490   2.425   0.960   0.441 -0.2741  1.7345  1.0773
  163MPD2    H3 2491   2.365   1.145   0.595 -0.9229 -0.0087  1.0998
  163MPD2     N 2492   2.371   0.883   0.958 -0.0992  0.7496 -0.3442
  163MPD2    H5 2493   2.326   0.964   0.998  0.4910  2.1360 -2.5233
  163MPD2    N1 2494   2.460   0.713   0.500  0.0426 -0.5881 -0.2208
  163MPD2    H7 2495   2.481   0.744   0.405  2.3725  1.2309  0.8572
  164TCq2    C1 2496   3.340   0.333  10.880 -0.6774  0.4285 -0.1341
  164TCq2    O2 2497   3.252   0.245  10.879 -0.0930 -0.3985  0.2402
  164TCq2    C2 2498   3.306   0.456  10.957  0.5786 -0.2913  0.5154
  164TCq2    C3 2499   3.419   0.519  11.008  0.2699  0.4721  0.2197
  164TCq2    C4 2500   3.402   0.603  11.114  1.1393  0.3114 -0.1350
  164TCq2    C5 2501   3.280   0.614  11.174 -0.0460  0.1529 -0.0527
  164TCq2    C6 2502   3.176   0.539  11.132 -0.8250  0.3901 -0.2331
  164TCq2    C7 2503   3.187   0.461  11.022  0.7996  0.5373  0.4681
  164TCq2    C8 2504   3.044   0.569  11.166 -0.5376 -0.1902  0.1170
  164TCq2    O4 2505   2.956   0.556  11.083  0.1744 -0.1064 -0.4636
  164TCq2    C9 2506   3.518   0.682  11.162 -0.3709 -0.4459  0.0051
  164TCq2    O5 2507   3.630   0.632  11.125 -0.0268  0.1441  0.3029
  164TCq2    O6 2508   3.492   0.774  11.242  0.1947 -0.1092 -0.3286
  164TCq2    H2 2509   3.516   0.518  10.959 -0.6417 -0.5855 -1.5429
  164TCq2    H3 2510   3.268   0.675  11.263 -1.0239 -0.0214 -0.0677
  164TCq2    H4 2511   3.096   0.410  10.992  1.3963 -0.3032  0.0913
  165MPD2     C 2512   4.135   2.266   1.968 -0.1239 -0.1824 -0.8664
  165MPD2    C1 2513   4.001   2.285   1.946 -0.0304  0.0326  0.6929
  165MPD2    C2 2514   3.934   2.367   2.037 -0.6054 -0.2979  0.3111
  165MPD2    C3 2515   4.007   2.434   2.135  0.3245  0.3650 -0.8322
  165MPD2    C4 2516   4.143   2.416   2.155 -0.1610 -0.3878  0.1960
  165MPD2    C5 2517   4.205   2.326   2.073 -0.0749  0.8084 -0.6545
  165MPD2     H 2518   3.828   2.388   2.031 -0.3401  1.1207  0.6301
  165MPD2    H1 2519   4.201   2.467   2.231  2.8135  0.6032 -2.7177
  165MPD2    H2 2520   4.198   2.219   1.894  1.9082 -1.6700  1.8259
  165MPD2    H3 2521   4.314   2.318   2.074 -0.3207 -2.2645  2.2555
  165MPD2     N 2522   3.945   2.528   2.222 -0.0607  0.2291 -0.3821
  165MPD2    H5 2523   4.004   2.598   2.265  1.4210 -2.5853  2.2121
  165MPD2    N1 2524   3.946   2.227   1.832 -0.4522  0.1760 -1.1246
  165MPD2    H7 2525   4.009   2.170   1.776  1.1930  0.7769  0.0950
  166TCq2    C1 2526   3.805   2.531   2.241  0.7642 -0.5951 -0.0811
  166TCq2    O2 2527   3.719   2.449   2.218 -0.0015  0.2622  0.6631
  166TCq2    C2 2528   3.746   2.646   2.316 -0.6377 -0.1321  0.0887
  166TCq2    C3 2529   3.618   2.637   2.367 -0.3390 -0.0917 -0.5165
  166TCq2    C4 2530   3.549   2.747   2.402  0.1618 -0.0162 -0.1408
  166TCq2    C5 2531   3.585   2.872   2.363 -0.0598 -0.2828 -0.5616
  166TCq2    C6 2532   3.713   2.876   2.312 -0.4643 -0.5144 -0.1645
  166TCq2    C7 2533   3.796   2.769   2.293  0.4514 -0.3952  0.0224
  166TCq2    C8 2534   3.776   3.004   2.276  0.1819  0.0471 -0.2290
  166TCq2    O4 2535   3.890   2.993   2.229  0.2527 -0.2596 -0.4414
  166TCq2    C9 2536   3.417   2.726   2.468  0.0008  0.4225 -0.8846
  166TCq2    O5 2537   3.364   2.828   2.521 -0.6366  0.1715  0.2413
  166TCq2    O6 2538   3.368   2.609   2.471 -0.5074  0.3590  0.2629
  166TCq2    H2 2539   3.584   2.539   2.398 -1.0348  0.2642 -0.1745
  166TCq2    H3 2540   3.537   2.960   2.404  2.4843  1.3042 -0.9734
  166TCq2    H4 2541   3.887   2.780   2.235 -0.0314 -0.0747 -0.6684
  167TMC2    C1 2542   2.083   0.790  12.030 -0.1903 -0.0547  0.0668
  167TMC2    C2 2543   2.089   0.908  12.084 -0.0650 -0.6501 -0.3234
  167TMC2    C3 2544   2.190   0.932  12.171  0.5608 -0.7257 -0.5030
  167TMC2    C4 2545   2.170   0.680  12.064  0.2318 -0.6696 -0.7821
  167TMC2    C5 2546   2.266   0.708  12.161 -0.0167 -0.1364 -0.4644
  167TMC2    C6 2547   2.280   0.833  12.213 -0.3251 -0.1157 -0.1278
  167TMC2     C 2548   1.991   0.778  11.917 -0.8592  0.2248  0.1878
  167TMC2     O 2549   1.962   0.877  11.849  0.5193 -0.1874 -0.0972
  167TMC2     H 2550   2.037   0.988  12.033  0.7014  0.2013  0.2179
  167TMC2    H1 2551   2.176   0.589  12.006  0.0602 -0.5352 -1.0145
  167TMC2    H2 2552   2.363   0.856  12.279 -2.3787  3.0797  1.3104
  167TMC2    C7 2553   2.391   0.637  12.136 -0.5077  0.4087 -0.2369
  167TMC2    C8 2554   2.264   1.048  12.127  0.2629 -0.6161 -0.9684
  167TMC2    O1 2555   2.480   0.723  12.136 -0.1949  0.4907 -0.2456
  167TMC2    O2 2556   2.212   1.146  12.074  0.7266 -0.2515 -0.1408
  167TMC2    O5 2557   2.382   0.998  12.079 -0.1661  0.2279 -0.2700
  167TMC2    H5 2558   2.400   0.912  12.121 -0.2622  0.9874  1.3181
  168MPD2     C 2559   1.858   0.678  11.662  0.2497 -0.8774  0.6322
  168MPD2    C1 2560   1.879   0.606  11.779  0.2906  0.3937  0.4544
  168MPD2    C2 2561   1.819   0.482  11.796  0.1117 -0.1081 -0.1916
  168MPD2    C3 2562   1.731   0.428  11.706  0.1760 -0.3855  0.5478
  168MPD2    C4 2563   1.694   0.513  11.603  0.2038  0.0913  0.5382
  168MPD2    C5 2564   1.766   0.629  11.579 -0.5933  0.1142 -0.1470
  168MPD2     H 2565   1.845   0.422  11.883 -1.1482  1.8137  1.5143
  168MPD2    H1 2566   1.623   0.481  11.529 -0.5171 -0.1689  1.3422
  168MPD2    H2 2567   1.896   0.777  11.640 -4.0761  0.9124  1.3324
  168MPD2    H3 2568   1.754   0.685  11.487  0.1813  1.0676  0.3363
  168MPD2     N 2569   1.675   0.297  11.707  0.3194  0.3162  0.0108
  168MPD2    H5 2570   1.611   0.282  11.630 -1.8362  0.5963  1.7412
  168MPD2    N1 2571   1.961   0.645  11.884  0.4241 -0.7519  0.2300
  168MPD2    H7 2572   1.996   0.572  11.946  1.1867 -0.6248 -0.0542
  169MPD1     C 2573   4.703   4.705   8.417 -0.7593 -0.6167 -0.1997
  169MPD1    C1 2574   4.656   4.579   8.454  0.3048 -0.2227 -0.4194
  169MPD1    C2 2575   0.011   4.501   8.546 -0.6622 -0.6366 -0.5694
  169MPD1    C3 2576   0.126   4.549   8.601 -0.7914  0.1175 -0.6260
  169MPD1    C4 2577   0.174   4.673   8.563  0.1251  0.6824  0.2359
  169MPD1    C5 2578   0.104   0.017   8.466 -0.0944  0.1940 -0.2100
  169MPD1     H 2579   4.680   4.409   8.572 -1.6922  0.2838  0.6958
  169MPD1    H1 2580   0.260   0.008   8.600 -0.1381  0.0915  1.7133
  169MPD1    H2 2581   4.651   0.042   8.341  0.6819  1.3637  0.2645
  169MPD1    H3 2582   0.136   0.113   8.425  0.7191  0.2048  0.4633
  169MPD1     N 2583   0.180   4.470   8.699  0.1216  0.4411  0.0364
  169MPD1    H5 2584   0.122   4.391   8.727  1.3776 -0.1292  1.0714
  169MPD1    N1 2585   4.532   4.536   8.399  0.0600 -0.0925  0.0753
  169MPD1    H6 2586   4.531   4.441   8.361 -1.5377 -0.5742  1.2939
  169MPD1    H7 2587   4.499   4.599   8.326 -1.7867  0.8910  1.7716
  170MPD1     C 2588   2.504   2.744  12.986 -1.1896 -0.0114 -0.5533
  170MPD1    C1 2589   2.625   2.807  12.947  0.0787  0.6616  0.5623
  170MPD1    C2 2590   2.728   2.793  13.044  0.0663 -0.0427 -0.0114
  170MPD1    C3 2591   2.723   2.696  13.144  0.0943 -0.3474 -0.0859
  170MPD1    C4 2592   2.609   2.620  13.154  0.3987  0.0642  0.4563
  170MPD1    C5 2593   2.496   2.660  13.091  0.1055  0.3054  0.1901
  170MPD1     H 2594   2.810   2.864  13.035 -2.9420  3.4072  0.0339
  170MPD1    H1 2595   2.600   2.550  13.236 -0.6986 -0.9671 -0.5381
  170MPD1    H2 2596   2.423   2.756  12.914 -1.5572  0.8248 -0.0059
  170MPD1    H3 2597   2.405   2.604  13.109  0.3163  0.0113  0.3483
  170MPD1     N 2598   2.840   2.688  13.223  0.7936 -0.7008  0.2748
  170MPD1    H5 2599   2.912   2.757  13.206 -1.4642  1.5520 -0.1855
  170MPD1    N1 2600   2.628   2.912  12.854 -0.7836 -0.1411 -0.0155
  170MPD1    H6 2601   2.723   2.926  12.821 -0.0389 -1.9382  1.3500
  170MPD1    H7 2602   2.572   2.903  12.770 -1.5568  1.5438  0.3071
  171MPD1     C 2603   2.154   3.779  15.492  0.2007  0.6904  0.1065
  171MPD1    C1 2604   2.115   3.696  15.392 -0.7939 -0.1259  0.5841
  171MPD1    C2 2605   2.086   3.561  15.419  0.1761  0.6176  0.4419
  171MPD1    C3 2606   2.102   3.513  15.544 -0.4602 -0.3855 -0.0904
  171MPD1    C4 2607   2.139   3.602  15.643  1.3825  0.1548 -0.5392
  171MPD1    C5 2608   2.158   3.737  15.619  0.0899 -0.5400  0.0285
  171MPD1     H 2609   2.055   3.490  15.344 -1.4952  1.6009  0.2118
  171MPD1    H1 2610   2.165   3.567  15.743  0.6891  1.8016  0.2201
  171MPD1    H2 2611   2.157   3.886  15.478  1.0906  0.6147 -0.3276
  171MPD1    H3 2612   2.198   3.804  15.695 -0.9908  0.5615 -0.3540
  171MPD1     N 2613   2.090   3.376  15.578  0.4505  0.8435  1.2380
  171MPD1    H5 2614   2.106   3.355  15.676  2.2270 -0.5322  0.6433
  171MPD1    N1 2615   2.055   3.735  15.272 -0.6054  0.4508  0.8228
  171MPD1    H6 2616   2.063   3.668  15.196  1.8859 -0.5447  1.9654
  171MPD1    H7 2617   2.085   3.826  15.237  0.4356 -0.9331 -1.9127
  172MPD1     C 2618   0.589   2.219   0.479 -0.3910  0.4755  0.5004
  172MPD1    C1 2619   0.569   2.350   0.495  0.6900 -0.3410 -0.1108
  172MPD1    C2 2620   0.637   2.442   0.420 -0.1230 -0.6899  0.0132
  172MPD1    C3 2621   0.746   2.407   0.349  0.6454  0.2062 -0.7787
  172MPD1    C4 2622   0.763   2.272   0.318 -1.0241  0.2608 -0.4900
  172MPD1    C5 2623   0.684   2.181   0.382 -0.0934 -0.0903  0.4143
  172MPD1     H 2624   0.606   2.545   0.435  0.8799 -0.4499  0.4276
  172MPD1    H1 2625   0.837   2.243   0.245 -0.5284 -0.3641  0.2592
  172MPD1    H2 2626   0.528   2.144   0.529 -1.2436 -0.0739 -1.3383
  172MPD1    H3 2627   0.716   2.077   0.376  1.4081  0.2691  2.1195
  172MPD1     N 2628   0.832   2.500   0.281 -0.0651  0.5224  0.4740
  172MPD1    H5 2629   0.903   2.462   0.220  0.0561 -0.9053  1.5054
  172MPD1    N1 2630   0.448   2.392   0.564 -0.0331  0.2654 -0.1159
  172MPD1    H6 2631   0.457   2.478   0.618 -2.6317  1.1313 -1.0598
  172MPD1    H7 2632   0.414   2.324   0.633 -0.9467  1.5211  0.6670
  173MPD1     C 2633   1.836   2.614  14.105  0.5185 -0.1460  0.4804
  173MPD1    C1 2634   1.925   2.645  14.206  0.0928  0.1999 -0.2897
  173MPD1    C2 2635   2.003   2.548  14.263 -0.6196  0.1203  0.2769
  173MPD1    C3 2636   1.989   2.417  14.211 -0.2896 -0.2677 -0.3751
  173MPD1    C4 2637   1.897   2.388  14.112 -0.3816 -0.1426 -0.1135
  173MPD1    C5 2638   1.824   2.487  14.054 -0.1443  0.3408 -0.0540
  173MPD1     H 2639   2.065   2.568  14.350 -2.8760 -1.2601  2.2054
  173MPD1    H1 2640   1.875   2.288  14.074  0.4132 -1.2605  2.3716
  173MPD1    H2 2641   1.783   2.694  14.055 -0.5060 -0.9560  0.2775
  173MPD1    H3 2642   1.757   2.456  13.975 -2.4865  1.6392  1.4055
  173MPD1     N 2643   2.079   2.323  14.277  0.1235 -0.4188  0.4720
  173MPD1    H5 2644   2.147   2.353  14.344 -0.6572 -0.1932  1.1596
  173MPD1    N1 2645   1.962   2.771  14.247  0.2507 -0.2619  0.0231
  173MPD1    H6 2646   1.889   2.842  14.243 -2.9888 -3.7252 -1.2957
  173MPD1    H7 2647   1.999   2.769  14.342 -1.6832 -0.4731  0.7836
  174MPD1     C 2648   2.883   2.457  14.143 -0.1261  0.0287 -0.3546
  174MPD1    C1 2649   2.889   2.333  14.202  0.5768  0.8574 -0.2398
  174MPD1    C2 2650   2.783   2.286  14.276 -0.3024  0.3749  0.4122
  174MPD1    C3 2651   2.668   2.362  14.283  0.2927 -0.3707  0.4539
  174MPD1    C4 2652   2.665   2.485  14.213  0.1971  0.4347 -0.0680
  174MPD1    C5 2653   2.764   2.525  14.141 -0.0409  0.0771 -0.5156
  174MPD1     H 2654   2.791   2.190  14.326 -2.9741 -0.2127 -0.3263
  174MPD1    H1 2655   2.570   2.535  14.200  0.2321  0.2280 -1.1513
  174MPD1    H2 2656   2.964   2.494  14.081 -0.1316 -0.8558 -0.8873
  174MPD1    H3 2657   2.752   2.625  14.100 -3.2593  0.7461  1.9948
  174MPD1     N 2658   2.544   2.312  14.340 -0.6951  0.2972  0.8850
  174MPD1    H5 2659   2.457   2.363  14.331 -0.9550 -0.2144  0.4839
  174MPD1    N1 2660   3.014   2.274  14.209 -0.7562  0.5506  0.4580
  174MPD1    H6 2661   3.026   2.179  14.241 -1.6448 -0.6359 -2.7377
  174MPD1    H7 2662   3.069   2.288  14.123  0.3985 -0.3649  1.0451
  175MPD1     C 2663   0.525   4.252  15.585 -0.6122 -0.3891  0.1737
  175MPD1    C1 2664   0.650   4.210  15.635 -0.0404  0.3706 -0.2825
  175MPD1    C2 2665   0.648   4.109  15.733  0.3164  0.0428 -0.1071
  175MPD1    C3 2666   0.528   4.040  15.761 -0.2904 -0.2063  0.5524
  175MPD1    C4 2667   0.406   4.073  15.693 -0.0780 -0.5545 -0.3828
  175MPD1    C5 2668   0.410   4.180  15.609 -0.4301  0.0353  0.7383
  175MPD1     H 2669   0.737   4.086  15.790  0.1099  2.7133  1.2728
  175MPD1    H1 2670   0.311   4.022  15.705 -1.5405  2.0305 -1.2245
  175MPD1    H2 2671   0.520   4.338  15.519  1.8116  0.5273  1.1855
  175MPD1    H3 2672   0.325   4.211  15.550 -1.2996 -0.5839  1.6865
  175MPD1     N 2673   0.525   3.933  15.859  0.4523  0.3330  0.6881
  175MPD1    H5 2674   0.432   3.898  15.878 -0.5485  1.8508 -1.4315
  175MPD1    N1 2675   0.770   4.295  15.608 -0.0347  0.0860  0.3818
  175MPD1    H6 2676   0.860   4.251  15.625 -0.8013 -1.9632 -0.7759
  175MPD1    H7 2677   0.767   4.320  15.509 -0.3530  2.6871  1.0574
  176MPD1     C 2678   2.476   4.501  16.325  0.0151 -0.4891  0.4737
  176MPD1    C1 2679   2.341   4.495  16.347  0.3571 -0.2514 -0.0640
  176MPD1    C2 2680   2.273   4.609  16.401 -0.8068  0.0615  0.0041
  176MPD1    C3 2681   2.345   4.717  16.451 -0.3481  0.1259  0.6414
  176MPD1    C4 2682   2.476   0.001  16.429 -0.0009 -0.5395 -0.2032
  176MPD1    C5 2683   2.542   4.612  16.370  0.6651  0.3343 -0.3196
  176MPD1     H 2684   2.166   4.623  16.394 -0.8053 -1.5053 -2.9353
  176MPD1    H1 2685   2.543   0.084  16.449 -0.0004 -0.7568  0.7234
  176MPD1    H2 2686   2.534   4.422  16.280 -0.4282 -0.7490  0.3633
  176MPD1    H3 2687   2.643   4.621  16.332  0.7758  0.3110 -0.0352
  176MPD1     N 2688   2.270   0.098  16.528  0.1292 -0.2838  0.1841
  176MPD1    H5 2689   2.169   0.088  16.537 -0.2770  1.9903 -1.8581
  176MPD1    N1 2690   2.267   4.394  16.298  0.0167  0.1187  0.0696
  176MPD1    H6 2691   2.320   4.307  16.303  0.6321  0.5388  0.7716
  176MPD1    H7 2692   2.175   4.383  16.339  0.3206 -1.8729  0.2028
  177MPD1     C 2693   1.207   1.014   9.785  0.5217  0.3765 -0.0466
  177MPD1    C1 2694   1.097   0.949   9.735  0.0009  0.5664 -0.2017
  177MPD1    C2 2695   1.010   1.025   9.653 -0.1853 -0.1398 -0.0003
  177MPD1    C3 2696   1.052   1.155   9.625  0.6108  0.1682 -0.6457
  177MPD1    C4 2697   1.160   1.211   9.674  0.3355  0.5215 -0.3155
  177MPD1    C5 2698   1.231   1.143   9.764  0.7833 -0.6589  0.4417
  177MPD1     H 2699   0.910   0.998   9.621 -0.8409  0.6602  1.3905
  177MPD1    H1 2700   1.189   1.309   9.638  0.5788 -0.1192 -1.8478
  177MPD1    H2 2701   1.281   0.959   9.841  0.0718  1.3319  1.4860
  177MPD1    H3 2702   1.325   1.191   9.789  0.4867 -0.3490  0.9682
  177MPD1     N 2703   0.963   1.231   9.546  0.6956 -1.0390 -0.6497
  177MPD1    H5 2704   0.877   1.180   9.525 -1.3776  1.9236  0.6772
  177MPD1    N1 2705   1.060   0.819   9.778  0.4491 -0.3761  0.1639
  177MPD1    H6 2706   1.030   0.762   9.699  1.0100  0.0235 -0.3455
  177MPD1    H7 2707   1.141   0.771   9.816  0.5480 -1.2448 -1.1415
  178MPD1     C 2708   2.550   1.758  17.434  0.3692  0.4692 -1.0336
  178MPD1    C1 2709   2.644   1.703  17.513 -0.2807 -0.2185 -0.9281
  178MPD1    C2 2710   2.739   1.620  17.459 -0.2326  1.0723  0.1066
  178MPD1    C3 2711   2.733   1.581  17.328  0.1674  0.1046 -1.0403
  178MPD1    C4 2712   2.622   1.621  17.255  0.1791  0.5479 -0.6562
  178MPD1    C5 2713   2.538   1.710  17.313 -0.0984  0.1376 -0.7661
  178MPD1     H 2714   2.816   1.586  17.527  0.5734  0.2479 -1.2217
  178MPD1    H1 2715   2.610   1.577  17.157  0.5236 -1.3707  0.1472
  178MPD1    H2 2716   2.475   1.819  17.482  1.5863  0.5454  0.7605
  178MPD1    H3 2717   2.456   1.750  17.255  1.7714  1.4984 -2.5128
  178MPD1     N 2718   2.825   1.493  17.268 -0.4327  0.4396  0.3342
  178MPD1    H5 2719   2.804   1.468  17.171 -1.6560  0.6430  0.5501
  178MPD1    N1 2720   2.659   1.750  17.647 -0.7322 -0.1635  0.8001
  178MPD1    H6 2721   2.693   1.692   0.045  1.7218  0.6181  0.3105
  178MPD1    H7 2722   2.577   1.806  17.669 -0.8826  0.1012 -0.4559
  179MPD1     C 2723   2.741   0.316  16.006 -0.4120  0.5971  0.2839
  179MPD1    C1 2724   2.628   0.257  16.051  0.4161  0.8684  0.1703
  179MPD1    C2 2725   2.619   0.117  16.039  0.0082  0.1441  0.2792
  179MPD1    C3 2726   2.709   0.035  15.967  0.3113 -0.3562 -0.0028
  179MPD1    C4 2727   2.818   0.101  15.919  0.4037  0.0221 -0.4395
  179MPD1    C5 2728   2.841   0.239  15.946  1.0131  0.3280 -0.4696
  179MPD1     H 2729   2.539   0.070  16.094  0.0361 -0.7896 -0.4739
  179MPD1    H1 2730   2.895   0.046  15.866 -0.4043 -0.5298 -1.0355
  179MPD1    H2 2731   2.758   0.421  16.027 -2.0197  0.6144  1.5320
  179MPD1    H3 2732   2.930   0.287  15.906  0.1155  0.4037 -2.3768
  179MPD1     N 2733   2.694   4.614  15.954 -0.1925  0.2198 -0.0181
  179MPD1    H5 2734   2.767   4.571  15.898  1.3476 -0.2399  2.3452
  179MPD1    N1 2735   2.539   0.326  16.134 -0.0326 -0.0700 -0.5542
  179MPD1    H6 2736   2.441   0.301  16.134 -0.0486  0.0034 -1.7252
  179MPD1    H7 2737   2.541   0.426  16.119 -1.6984  0.1825  0.9566
  180MPD1     C 2738   2.158   0.856  15.452 -0.3661  0.4665 -0.3986
  180MPD1    C1 2739   2.256   0.882  15.349 -0.8419 -0.2747 -0.3452
  180MPD1    C2 2740   2.232   0.803  15.238 -0.0920 -0.1232  0.3856
  180MPD1    C3 2741   2.133   0.709  15.232  0.2825 -0.2443 -1.0454
  180MPD1    C4 2742   2.045   0.686  15.335 -0.4128  0.0717 -0.5954
  180MPD1    C5 2743   2.059   0.765  15.442  0.1953  0.1306  0.7437
  180MPD1     H 2744   2.303   0.805  15.156  0.7265 -2.2459  1.0632
  180MPD1    H1 2745   1.956   0.625  15.329  0.4533 -1.0345 -2.0207
  180MPD1    H2 2746   2.162   0.908  15.547  2.4474 -0.7838  0.1467
  180MPD1    H3 2747   1.996   0.742  15.527  0.3485 -0.7188  0.6326
  180MPD1     N 2748   2.133   0.638  15.113  0.7868 -0.2257 -0.2205
  180MPD1    H5 2749   2.208   0.656  15.047  0.4406 -1.1383 -0.8646
  180MPD1    N1 2750   2.366   0.963  15.368 -0.0376 -0.4472  0.2640
  180MPD1    H6 2751   2.353   1.041  15.432 -2.0477 -1.3441  0.9168
  180MPD1    H7 2752   2.420   0.999  15.289  0.2593 -1.1587  0.1398
  181MPD1     C 2753   4.250   3.709  10.834 -0.0152 -0.2303  0.2892
  181MPD1    C1 2754   4.364   3.775  10.825 -0.2353  0.3564 -0.0614
  181MPD1    C2 2755   4.462   3.732  10.737  0.6294  0.7679 -0.6011
  181MPD1    C3 2756   4.449   3.616  10.662 -0.5209  0.7396  0.5468
  181MPD1    C4 2757   4.333   3.547  10.672 -0.8075 -0.4171 -0.1181
  181MPD1    C5 2758   4.231   3.591  10.755 -0.1728  0.2808 -0.1900
  181MPD1     H 2759   4.549   3.796  10.725  1.2013  0.0601 -0.2563
  181MPD1    H1 2760   4.317   3.454  10.618  1.8081 -0.0959 -1.4057
  181MPD1    H2 2761   4.170   3.732  10.904 -0.4213  0.1391 -0.2947
  181MPD1    H3 2762   4.133   3.546  10.753 -0.3290  0.6177 -0.0926
  181MPD1     N 2763   4.551   3.565  10.578  0.2378 -0.5263  0.4195
  181MPD1    H5 2764   4.543   3.473  10.536  0.4974  0.7376 -2.4045
  181MPD1    N1 2765   4.387   3.885  10.900 -0.3709 -0.5363  0.1687
  181MPD1    H6 2766   4.307   3.927  10.947  0.6546  0.4243  1.0720
  181MPD1    H7 2767   4.441   3.954  10.848 -1.6072  0.9579  0.8734
  182MPD1     C 2768   3.703   3.263   1.844  0.2759  0.3988  0.1685
  182MPD1    C1 2769   3.701   3.329   1.719  0.4859  0.0334  0.0534
  182MPD1    C2 2770   3.732   3.259   1.600  0.1230  0.5084  0.0346
  182MPD1    C3 2771   3.792   3.134   1.614 -0.7914  0.1571 -0.2963
  182MPD1    C4 2772   3.799   3.070   1.738  0.0099 -0.8263  0.1195
  182MPD1    C5 2773   3.755   3.132   1.849  0.0697 -0.1324 -0.7048
  182MPD1     H 2774   3.730   3.317   1.508 -0.9964 -1.1667 -0.9878
  182MPD1    H1 2775   3.852   2.977   1.750  1.5346  0.0222 -0.0361
  182MPD1    H2 2776   3.668   3.309   1.935 -0.4545  0.5222 -0.1772
  182MPD1    H3 2777   3.767   3.091   1.948  0.4115 -0.5951 -0.9389
  182MPD1     N 2778   3.837   3.059   1.503  0.2837 -0.3710 -0.2054
  182MPD1    H5 2779   3.897   2.978   1.515 -1.2566 -1.5301 -0.3079
  182MPD1    N1 2780   3.660   3.462   1.711 -0.9698 -0.7162  0.2933
  182MPD1    H6 2781   3.692   3.502   1.799  1.8357 -0.4571 -0.8331
  182MPD1    H7 2782   3.705   3.512   1.635 -0.3648 -1.1216  0.3823
  183MPD1     C 2783   1.205   3.376   8.835 -0.1252  0.1293  0.3642
  183MPD1    C1 2784   1.068   3.391   8.835 -0.3694 -0.0575 -0.0229
  183MPD1    C2 2785   1.002   3.359   8.951  0.2906  0.0648  0.7581
  183MPD1    C3 2786   1.068   3.303   9.060 -0.7416 -0.3675 -1.0122
  183MPD1    C4 2787   1.203   3.280   9.054  1.0177  0.2248 -0.0226
  183MPD1    C5 2788   1.269   3.314   8.938  0.1242 -0.0540  0.8505
  183MPD1     H 2789   0.894   3.366   8.950  0.2636 -0.3164  1.7179
  183MPD1    H1 2790   1.257   3.257   9.146 -2.3401 -0.7024  1.7222
  183MPD1    H2 2791   1.265   3.403   8.749  0.3437  2.6333  1.4710
  183MPD1    H3 2792   1.376   3.303   8.934  0.2285  2.4982 -3.3203
  183MPD1     N 2793   0.989   3.277   9.171  0.2787 -0.5008  0.1391
  183MPD1    H5 2794   0.899   3.324   9.175 -0.0624 -0.9354 -2.4316
  183MPD1    N1 2795   0.996   3.452   8.730  1.1098 -0.2656  0.3332
  183MPD1    H6 2796   0.901   3.418   8.721  1.0630 -0.0713  0.1004
  183MPD1    H7 2797   1.043   3.455   8.640  1.7739 -2.1729  0.6008
  184MPD1     C 2798   4.616   4.471  10.191  0.1457 -0.1669 -0.1975
  184MPD1    C1 2799   4.519   4.523  10.108  0.0719 -0.4805  0.3486
  184MPD1    C2 2800   4.563   4.586   9.994  0.2558 -0.4131  0.6213
  184MPD1    C3 2801   4.693   4.630   9.973  0.2134 -0.1119  0.5091
  184MPD1    C4 2802   0.068   4.576  10.064  0.0355  0.0317  0.0179
  184MPD1    C5 2803   0.028   4.497  10.171 -0.2347  0.2658 -0.6108
  184MPD1     H 2804   4.488   4.607   9.918  1.3579 -0.8368 -0.5714
  184MPD1    H1 2805   0.174   4.588  10.044 -0.0833 -0.8582 -1.1628
  184MPD1    H2 2806   4.598   4.410  10.278  2.7695 -1.0644 -0.2794
  184MPD1    H3 2807   0.105   4.450  10.231  0.8712  2.9822  0.0711
  184MPD1     N 2808   0.004   4.695   9.844 -0.0167 -0.2165  0.5866
  184MPD1    H5 2809   4.646   4.702   9.779  0.8893 -1.6081 -0.6441
  184MPD1    N1 2810   4.379   4.500  10.112  0.3731  0.2230  0.6588
  184MPD1    H6 2811   4.351   4.489  10.210 -0.7366  1.5893  0.4858
  184MPD1    H7 2812   4.337   4.584  10.074  0.8576  0.1079 -0.1222
  185MPD1     C 2813   4.112   0.135   9.365  0.0357  0.4621  0.3699
  185MPD1    C1 2814   4.206   0.157   9.273  0.1557  0.1967  0.1180
  185MPD1    C2 2815   4.339   0.140   9.304  1.0838 -0.1790 -0.2053
  185MPD1    C3 2816   4.377   0.098   9.430 -0.0822  0.0519 -0.3236
  185MPD1    C4 2817   4.279   0.064   9.518 -0.4935 -0.1523  0.4740
  185MPD1    C5 2818   4.148   0.075   9.480  0.7678  0.2464  0.7369
  185MPD1     H 2819   4.407   0.185   9.233  1.2106  0.4160  0.2954
  185MPD1    H1 2820   4.304   0.031   9.619 -0.6433 -0.8634  0.2722
  185MPD1    H2 2821   4.008   0.130   9.334  0.8199 -0.5766 -2.1116
  185MPD1    H3 2822   4.076   0.046   9.556  0.6231  2.1758  1.3238
  185MPD1     N 2823   4.517   0.095   9.473 -0.2252 -0.4966  0.5820
  185MPD1    H5 2824   4.539   0.077   9.570  0.6762 -2.0734  0.0797
  185MPD1    N1 2825   4.160   0.214   9.155  0.1164  0.1901 -0.4056
  185MPD1    H6 2826   4.226   0.212   9.077  1.9761  3.0333  1.1153
  185MPD1    H7 2827   4.086   0.148   9.129  0.4035 -0.0043 -0.7270
  186MPD1     C 2828   3.275   4.117  15.573  0.3637 -0.1971  0.1822
  186MPD1    C1 2829   3.217   4.045  15.678  0.4645 -0.1616 -0.2537
  186MPD1    C2 2830   3.169   4.122  15.779 -0.2232  0.7459 -0.2438
  186MPD1    C3 2831   3.179   4.254  15.780  0.3971  0.8264  0.1044
  186MPD1    C4 2832   3.227   4.322  15.667 -0.3995  0.1539  0.0724
  186MPD1    C5 2833   3.280   4.251  15.568 -0.8601 -0.2467 -0.4009
  186MPD1     H 2834   3.133   4.060  15.861 -0.5377  1.2245 -0.0197
  186MPD1    H1 2835   3.223   4.430  15.657  0.2574  0.0909 -0.8305
  186MPD1    H2 2836   3.318   4.070  15.485 -0.6126 -1.3000  0.2966
  186MPD1    H3 2837   3.320   4.295  15.477  0.8810  1.1351  1.0288
  186MPD1     N 2838   3.146   4.329  15.893  0.3138  0.1151 -0.4093
  186MPD1    H5 2839   3.167   4.428  15.889  0.2928  0.0974 -0.9625
  186MPD1    N1 2840   3.209   3.903  15.671 -0.1888 -0.4705  0.1618
  186MPD1    H6 2841   3.277   3.851  15.614  1.0030  2.4216 -1.0925
  186MPD1    H7 2842   3.177   3.857  15.755  1.2753  0.1623  1.0750
  187MPD1     C 2843   2.749   1.178  17.368  0.5764  0.0660  1.0955
  187MPD1    C1 2844   2.662   1.150  17.262  0.0143  0.1227  0.6061
  187MPD1    C2 2845   2.543   1.217  17.259  0.3302  0.6762  0.1659
  187MPD1    C3 2846   2.508   1.307  17.362 -0.1734 -0.1678 -0.1796
  187MPD1    C4 2847   2.593   1.328  17.468  0.0569  0.0601  0.0196
  187MPD1    C5 2848   2.711   1.262  17.469  0.0672  0.9371  0.3994
  187MPD1     H 2849   2.468   1.206  17.182 -0.4256 -0.7294  1.1075
  187MPD1    H1 2850   2.560   1.385  17.553 -1.2903  0.7584 -0.9579
  187MPD1    H2 2851   2.851   1.140  17.362  1.1672  1.9955 -0.8638
  187MPD1    H3 2852   2.779   1.296  17.546  2.2775 -0.9902 -0.6790
  187MPD1     N 2853   2.385   1.372  17.364 -0.1494 -0.5144  0.0356
  187MPD1    H5 2854   2.365   1.427  17.447 -0.7838  3.2807 -2.6100
  187MPD1    N1 2855   2.719   1.073  17.158 -0.0723 -0.2626  0.0397
  187MPD1    H6 2856   2.785   1.009  17.200  0.6417  0.7987  0.5145
  187MPD1    H7 2857   2.641   1.020  17.119  1.0795 -2.7152  1.1181
  188MPD1     C 2858   2.700   2.184  10.170 -0.6767 -0.2559  0.8373
  188MPD1    C1 2859   2.679   2.136  10.045  0.0588  0.1244 -0.7049
  188MPD1    C2 2860   2.627   2.007  10.037 -0.2788 -0.4858 -0.3490
  188MPD1    C3 2861   2.608   1.919  10.145  0.7055 -0.1643 -0.3299
  188MPD1    C4 2862   2.647   1.960  10.268 -1.1015  0.0653 -0.6883
  188MPD1    C5 2863   2.685   2.094  10.279  0.3855  0.2940 -0.6027
  188MPD1     H 2864   2.604   1.964   9.940  0.2324 -1.6977  0.0686
  188MPD1    H1 2865   2.646   1.892  10.352  2.4638 -0.7729 -1.3114
  188MPD1    H2 2866   2.753   2.270  10.209 -1.1035 -0.1674  1.2188
  188MPD1    H3 2867   2.724   2.133  10.372 -0.6253 -1.4659  0.5617
  188MPD1     N 2868   2.559   1.786  10.119  0.0777 -0.4002 -0.0330
  188MPD1    H5 2869   2.558   1.727  10.201 -0.9220  0.7855  0.8071
  188MPD1    N1 2870   2.670   2.225   9.937  0.1958  0.0949  0.1556
  188MPD1    H6 2871   2.748   2.291   9.940  0.5980 -0.3596 -0.5614
  188MPD1    H7 2872   2.680   2.181   9.846 -0.0551  1.7455 -0.6676
  189MPD1     C 2873   3.518   1.873   0.387  0.6091 -0.3272 -0.0787
  189MPD1    C1 2874   3.407   1.817   0.332 -0.0225 -0.1759 -0.1180
  189MPD1    C2 2875   3.323   1.902   0.259  0.0659 -0.9722  0.9166
  189MPD1    C3 2876   3.352   2.038   0.239  0.4030  0.3224  0.3565
  189MPD1    C4 2877   3.472   2.092   0.299  0.4308  0.5652 -0.3044
  189MPD1    C5 2878   3.552   2.006   0.367 -0.7956 -0.0992  0.3434
  189MPD1     H 2879   3.236   1.857   0.213 -1.1702  0.6888  1.6078
  189MPD1    H1 2880   3.497   2.197   0.301 -1.5030  1.0154 -0.1722
  189MPD1    H2 2881   3.582   1.816   0.454 -2.3700 -0.3771  2.6977
  189MPD1    H3 2882   3.642   2.036   0.419  1.3969 -1.3432 -2.6522
  189MPD1     N 2883   3.261   2.120   0.170 -0.3753  0.7504  0.1822
  189MPD1    H5 2884   3.199   2.070   0.107 -1.8759  0.8648  1.5796
  189MPD1    N1 2885   3.359   1.694   0.381  0.0055 -0.2562 -0.9399
  189MPD1    H6 2886   3.437   1.628   0.375  0.5972  0.0864  3.0853
  189MPD1    H7 2887   3.281   1.668   0.321 -0.4390 -0.0712 -0.4402
  190MPD1     C 2888   2.739   1.738  15.166 -0.1053  0.5172 -0.1624
  190MPD1    C1 2889   2.874   1.713  15.147  0.0474  0.2134 -0.2053
  190MPD1    C2 2890   2.944   1.627  15.227  0.2071  0.2547  0.8643
  190MPD1    C3 2891   2.871   1.543  15.310 -0.6036 -0.6709  0.0443
  190MPD1    C4 2892   2.739   1.573  15.334  0.5050 -0.3944 -0.3531
  190MPD1    C5 2893   2.673   1.676  15.269  0.3580  0.8237 -0.7888
  190MPD1     H 2894   3.049   1.601  15.217 -0.2762 -1.4878  0.2581
  190MPD1    H1 2895   2.672   1.521  15.402 -0.5696 -0.1145 -1.1890
  190MPD1    H2 2896   2.682   1.811  15.109 -0.8601  0.4388  0.4823
  190MPD1    H3 2897   2.572   1.707  15.292  0.5718  0.8005  0.1623
  190MPD1     N 2898   2.932   1.430  15.362 -0.3389 -0.3837 -0.3560
  190MPD1    H5 2899   3.020   1.397  15.326 -0.9874 -1.3936 -0.9997
  190MPD1    N1 2900   2.946   1.776  15.046  0.7312  0.3143  0.1126
  190MPD1    H6 2901   3.044   1.764  15.071 -0.3695 -2.7586  2.9908
  190MPD1    H7 2902   2.926   1.876  15.050 -0.4655  0.0696  0.3383
  191MPD1     C 2903   2.095   2.702  13.141 -0.2272  1.0899  0.1508
  191MPD1    C1 2904   1.987   2.697  13.062 -0.1089  0.0588 -0.7418
  191MPD1    C2 2905   1.977   2.794  12.965 -0.3373  0.1195  0.0948
  191MPD1    C3 2906   2.088   2.872  12.926  0.2957 -0.5771  0.1296
  191MPD1    C4 2907   2.194   2.871  13.008  0.7063 -0.6015  0.8567
  191MPD1    C5 2908   2.193   2.788  13.117 -0.4373  0.5795  0.1102
  191MPD1     H 2909   1.882   2.815  12.916  1.0270  1.9621 -1.7686
  191MPD1    H1 2910   2.277   2.941  13.001  0.6470 -0.5353  0.8076
  191MPD1    H2 2911   2.109   2.641  13.229 -0.9383 -0.2234 -0.6472
  191MPD1    H3 2912   2.274   2.801  13.188  0.6452 -2.0384 -0.6190
  191MPD1     N 2913   2.073   2.969  12.821 -0.6190 -0.0878  0.0249
  191MPD1    H5 2914   1.977   2.995  12.800  0.1063  3.0433  0.6338
  191MPD1    N1 2915   1.867   2.632  13.105  0.1249  0.0809 -0.3989
  191MPD1    H6 2916   1.806   2.619  13.025  0.4292  1.8860 -0.9375
  191MPD1    H7 2917   1.877   2.536  13.138  0.5142  0.1539 -0.3058
  192MPD1     C 2918   1.911   3.853  13.009  0.3535  0.2605  0.6559
  192MPD1    C1 2919   1.844   3.734  13.017 -0.1714  0.6974 -0.3376
  192MPD1    C2 2920   1.877   3.634  12.922  0.3381  0.1266 -0.3326
  192MPD1    C3 2921   1.979   3.646  12.832  0.2092  0.0112 -0.3249
  192MPD1    C4 2922   2.056   3.765  12.833  0.8359  0.3952  0.0578
  192MPD1    C5 2923   2.019   3.863  12.925  0.0387 -0.2863 -0.0216
  192MPD1     H 2924   1.820   3.543  12.933  1.4827 -0.3318  1.8601
  192MPD1    H1 2925   2.144   3.779  12.770  0.7851  0.8612  0.0904
  192MPD1    H2 2926   1.869   3.938  13.062  1.0984  0.0600  1.5663
  192MPD1    H3 2927   2.072   3.958  12.922  1.5868 -1.1309  0.2807
  192MPD1     N 2928   2.017   3.538  12.749 -0.3641 -0.3137  0.3794
  192MPD1    H5 2929   2.106   3.557  12.703  0.2065  0.2674  1.7182
  192MPD1    N1 2930   1.728   3.723  13.097  0.4056  0.1361  0.7491
  192MPD1    H6 2931   1.688   3.630  13.109  2.4726 -0.6860  1.1558
  192MPD1    H7 2932   1.756   3.750  13.191  0.4772 -2.7099  1.5194
  193MPD1     C 2933   1.566   2.978  16.560 -0.3896 -1.1918 -0.5999
  193MPD1    C1 2934   1.498   3.096  16.586 -0.3751 -0.4965 -0.1438
  193MPD1    C2 2935   1.574   3.184  16.665  0.1985  0.4251  0.4279
  193MPD1    C3 2936   1.691   3.143  16.730 -0.0325  0.8118 -0.1142
  193MPD1    C4 2937   1.740   3.016  16.714 -0.3240 -0.6603 -0.1112
  193MPD1    C5 2938   1.681   2.935  16.626  0.3635 -0.2588 -0.0446
  193MPD1     H 2939   1.545   3.288  16.670  0.9057  0.4904  3.4083
  193MPD1    H1 2940   1.835   2.987  16.756  0.0712  0.7596 -0.0040
  193MPD1    H2 2941   1.529   2.919  16.477 -1.5311 -0.4508 -0.6139
  193MPD1    H3 2942   1.732   2.843  16.598 -0.6512 -0.2097 -2.0188
  193MPD1     N 2943   1.769   3.230  16.814  0.1114  0.2831  0.4863
  193MPD1    H5 2944   1.850   3.184  16.853  0.2798 -0.2784 -0.5346
  193MPD1    N1 2945   1.391   3.140  16.505  0.3474 -0.6291  0.3869
  193MPD1    H6 2946   1.342   3.218  16.547 -1.3465 -0.8406 -1.1805
  193MPD1    H7 2947   1.317   3.070  16.492 -0.6327  0.5459 -0.3419
  194MPD1     C 2948   4.004   0.705  17.444  0.0803 -0.3779  0.8767
  194MPD1    C1 2949   4.094   0.678  17.546 -0.0684 -0.5615  0.6053
  194MPD1    C2 2950   4.173   0.567  17.549 -0.3314  0.4431  0.4336
  194MPD1    C3 2951   4.167   0.469  17.449  0.1050  0.0407  0.0534
  194MPD1    C4 2952   4.075   0.491  17.349  0.2684 -0.1274 -0.2552
  194MPD1    C5 2953   4.003   0.611  17.345 -0.0756 -0.0973 -0.0100
  194MPD1     H 2954   4.242   0.566  17.633  2.2727  2.0193 -1.6744
  194MPD1    H1 2955   4.065   0.427  17.262  3.3872 -0.7977 -0.1177
  194MPD1    H2 2956   3.946   0.795  17.430  2.0941  0.5617 -1.4158
  194MPD1    H3 2957   3.932   0.630  17.265  0.2762  0.0254 -0.2907
  194MPD1     N 2958   4.245   0.352  17.455 -0.3400  0.4096  0.2740
  194MPD1    H5 2959   4.228   0.285  17.381 -0.0709 -0.4764  1.0086
  194MPD1    N1 2960   4.089   0.766  17.654 -0.2447 -0.3965  0.1253
  194MPD1    H6 2961   4.033   0.848  17.631  0.0694  0.5213  2.6199
  194MPD1    H7 2962   4.178   0.797   0.014  0.0270  0.6079 -1.3091
  195MPD1     C 2963   2.092   0.829   0.558 -0.3735  0.1278 -0.5383
  195MPD1    C1 2964   2.075   0.702   0.500  0.8586  0.0943  0.0002
  195MPD1    C2 2965   2.006   0.691   0.378 -0.3520  0.5151  0.2416
  195MPD1    C3 2966   1.954   0.811   0.322  0.2792 -0.6567 -0.2420
  195MPD1    C4 2967   1.967   0.930   0.383  0.5594 -0.3273  0.3760
  195MPD1    C5 2968   2.036   0.938   0.504  0.4947  0.1505 -0.0245
  195MPD1     H 2969   2.000   0.594   0.330  1.1962 -0.1815  1.4586
  195MPD1    H1 2970   1.930   1.019   0.334  2.1920  3.0243  5.1756
  195MPD1    H2 2971   2.159   0.842   0.643  0.2944 -0.1979 -1.0168
  195MPD1    H3 2972   2.065   1.029   0.556 -2.1527  0.8895  0.1360
  195MPD1     N 2973   1.877   0.817   0.204  0.1693 -0.0577  0.7373
  195MPD1    H5 2974   1.823   0.903   0.197 -0.8762 -0.6948  0.8868
  195MPD1    N1 2975   2.103   0.583   0.577  0.2371  0.5972  1.1567
  195MPD1    H6 2976   2.124   0.511   0.508  1.2751 -0.1873  2.3097
  195MPD1    H7 2977   2.181   0.603   0.639  1.8415 -0.9327 -0.3830
  196MPD1     C 2978   0.741   1.837   0.510  0.0352 -0.6071  0.4429
  196MPD1    C1 2979   0.626   1.797   0.571  0.6269 -0.2947 -0.0179
  196MPD1    C2 2980   0.602   1.843   0.697 -0.6643 -0.7004 -0.2895
  196MPD1    C3 2981   0.668   1.947   0.757 -0.0343 -0.3298 -0.2914
  196MPD1    C4 2982   0.782   1.995   0.696  0.2879  0.3693  0.5452
  196MPD1    C5 2983   0.814   1.936   0.574  0.4382 -0.4078 -0.1187
  196MPD1     H 2984   0.517   1.804   0.752 -0.5713  0.4219  0.6569
  196MPD1    H1 2985   0.856   2.062   0.739 -1.0787  3.0433 -1.2349
  196MPD1    H2 2986   0.785   1.784   0.426 -0.7378  1.2326 -1.1154
  196MPD1    H3 2987   0.912   1.957   0.533 -0.3114  2.3556 -0.4681
  196MPD1     N 2988   0.640   1.997   0.884  0.1320  0.1223 -0.0613
  196MPD1    H5 2989   0.704   2.070   0.914  1.5231 -0.5617 -1.3861
  196MPD1    N1 2990   0.555   1.689   0.528  0.3970  0.5253  0.1774
  196MPD1    H6 2991   0.548   1.699   0.427 -1.0318 -1.3561  0.0850
  196MPD1    H7 2992   0.466   1.683   0.578 -0.6020  0.2728 -1.6031
  197MPD1     C 2993   0.516   3.175  17.511 -0.4033  0.1691 -0.0032
  197MPD1    C1 2994   0.425   3.250  17.442 -0.1470 -0.0726  0.3775
  197MPD1    C2 2995   0.468   3.366  17.378 -0.4046  0.5810  0.4394
  197MPD1    C3 2996   0.597   3.422  17.387  0.0618  0.0895  0.0537
  197MPD1    C4 2997   0.685   3.338  17.459 -0.2378 -0.3457  0.1588
  197MPD1    C5 2998   0.641   3.226  17.518  0.0328  0.4904  0.3926
  197MPD1     H 2999   0.392   3.416  17.319  1.3626  1.9576 -0.6812
  197MPD1    H1 3000   0.787   3.368  17.481 -0.3992 -0.4369  1.0370
  197MPD1    H2 3001   0.497   3.071  17.537 -0.8415  0.4319  0.7249
  197MPD1    H3 3002   0.721   3.169  17.563  0.4030  2.9537  2.8094
  197MPD1     N 3003   0.649   3.545  17.339 -0.0625  0.1013  0.0979
  197MPD1    H5 3004   0.750   3.549  17.328  0.0917 -0.7415  1.2321
  197MPD1    N1 3005   0.303   3.189  17.407 -0.9930  0.2816 -0.1316
  197MPD1    H6 3006   0.227   3.239  17.362  0.1439 -0.0483 -2.4120
  197MPD1    H7 3007   0.261   3.115  17.464 -0.4951  1.5955  1.9131
  198MPD1     C 3008   2.232   2.244  15.392 -0.6132  0.4602  0.2528
  198MPD1    C1 3009   2.253   2.227  15.525  0.5160  0.2389 -0.9343
  198MPD1    C2 3010   2.372   2.173  15.575 -0.2156 -0.3701  0.0521
  198MPD1    C3 3011   2.467   2.118  15.489  1.0837 -0.1671  0.4593
  198MPD1    C4 3012   2.447   2.143  15.355 -0.9362 -0.2011  0.4981
  198MPD1    C5 3013   2.338   2.196  15.308 -0.0596  0.1438  0.0185
  198MPD1     H 3014   2.386   2.157  15.681  0.4459 -0.7151 -0.0895
  198MPD1    H1 3015   2.513   2.100  15.280  0.1105  2.9687 -0.3988
  198MPD1    H2 3016   2.140   2.278  15.345 -0.1754  3.2120  1.3537
  198MPD1    H3 3017   2.333   2.186  15.200 -1.9144 -2.2464  0.3392
  198MPD1     N 3018   2.588   2.062  15.538 -0.8887  0.0487 -0.1951
  198MPD1    H5 3019   2.586   2.016  15.628  2.3371 -1.3283 -0.8119
  198MPD1    N1 3020   2.153   2.277  15.609  0.4879 -0.2206  0.0652
  198MPD1    H6 3021   2.073   2.300  15.551 -0.2777 -0.4076  1.0358
  198MPD1    H7 3022   2.124   2.221  15.689 -3.2163 -0.2789 -1.3291
  199MPD1     C 3023   1.207   3.372   9.508 -0.3697 -0.2142 -0.5950
  199MPD1    C1 3024   1.149   3.330   9.628  0.1748 -0.6758 -0.2495
  199MPD1    C2 3025   1.033   3.379   9.672 -0.4830 -0.6049 -0.4224
  199MPD1    C3 3026   0.972   3.478   9.596 -0.6344  0.3900  0.3181
  199MPD1    C4 3027   1.036   3.532   9.488 -0.2084  0.8567 -0.1958
  199MPD1    C5 3028   1.153   3.475   9.441 -0.3950 -0.4581 -0.4801
  199MPD1     H 3029   0.991   3.342   9.764 -1.2617 -2.6649 -1.5920
  199MPD1    H1 3030   1.000   3.619   9.435  1.9703  1.4485 -0.6992
  199MPD1    H2 3031   1.301   3.328   9.478 -0.1549 -0.1765  0.0142
  199MPD1    H3 3032   1.195   3.524   9.354  2.5351 -0.9012  0.6802
  199MPD1     N 3033   0.844   3.533   9.631  0.3091 -0.6277  0.0073
  199MPD1    H5 3034   0.808   3.593   9.558  3.3456  0.0400 -0.9328
  199MPD1    N1 3035   1.192   3.203   9.682  0.5833 -0.6233  0.2988
  199MPD1    H6 3036   1.289   3.181   9.661 -0.4117 -2.3685 -2.4425
  199MPD1    H7 3037   1.169   3.185   9.779 -3.7437 -1.0261 -0.8065
  200MPD1     C 3038   3.634   3.581  14.718  0.7639  0.6366  0.0146
  200MPD1    C1 3039   3.600   3.467  14.639  0.0982  0.1742  0.0895
  200MPD1    C2 3040   3.700   3.374  14.608 -0.4285 -0.4204 -0.4947
  200MPD1    C3 3041   3.826   3.381  14.663 -0.7811  0.3991 -0.3550
  200MPD1    C4 3042   3.853   3.487  14.743 -0.0078  0.4779  0.0677
  200MPD1    C5 3043   3.762   3.585  14.768  0.4371 -0.2802 -0.0408
  200MPD1     H 3044   3.681   3.286  14.547 -2.7901 -0.6918  0.6229
  200MPD1    H1 3045   3.952   3.497  14.784 -0.0294  1.7392 -0.1614
  200MPD1    H2 3046   3.571   3.668  14.733 -0.7967 -0.5805  0.5367
  200MPD1    H3 3047   3.785   3.658  14.845 -2.9346  0.6353  0.0888
  200MPD1     N 3048   3.911   3.278  14.615  0.1046 -0.1186 -0.0306
  200MPD1    H5 3049   3.871   3.218  14.544 -2.7690  1.1993  0.4715
  200MPD1    N1 3050   3.479   3.467  14.569 -0.0826  0.0919 -0.4834
  200MPD1    H6 3051   3.441   3.375  14.551  2.6161 -1.4046  1.5235
  200MPD1    H7 3052   3.409   3.521  14.619  0.3396 -1.7356  2.0863
  201MPD1     C 3053   1.493   2.894  13.012  0.3481  0.1209  1.0855
  201MPD1    C1 3054   1.519   2.792  12.927 -0.2305  0.0690  0.3050
  201MPD1    C2 3055   1.533   2.663  12.973 -0.2229 -0.4112 -0.2788
  201MPD1    C3 3056   1.510   2.635  13.112  0.3944 -0.3423  0.3645
  201MPD1    C4 3057   1.510   2.747  13.200 -0.3463 -0.8408  0.7086
  201MPD1    C5 3058   1.490   2.871  13.148 -0.8690 -0.2148  0.7240
  201MPD1     H 3059   1.546   2.579  12.905 -0.8238 -2.9511  2.7783
  201MPD1    H1 3060   1.505   2.738  13.308 -1.7656 -1.8502  0.5619
  201MPD1    H2 3061   1.507   2.996  12.979 -1.7758 -0.6475 -2.1716
  201MPD1    H3 3062   1.486   2.961  13.208 -1.5272 -0.4468  1.0293
  201MPD1     N 3063   1.534   2.502  13.149 -0.2752  0.1187 -0.1166
  201MPD1    H5 3064   1.544   2.440  13.070 -0.5699 -0.0986  0.0172
  201MPD1    N1 3065   1.557   2.830  12.800 -0.7461 -0.1395 -0.3442
  201MPD1    H6 3066   1.542   2.755  12.732 -0.2273 -0.9315  0.4072
  201MPD1    H7 3067   1.520   2.919  12.768 -0.9004 -0.1398 -0.1627
  202MPD1     C 3068   1.810   3.007   9.310  0.8548  0.1172  0.1894
  202MPD1    C1 3069   1.917   2.964   9.388 -0.1916 -1.1752  0.4985
  202MPD1    C2 3070   1.901   2.853   9.460 -0.5901 -0.4980  0.0497
  202MPD1    C3 3071   1.773   2.810   9.486  0.7715 -0.0145 -0.4544
  202MPD1    C4 3072   1.663   2.868   9.427 -0.0173 -0.1098  0.1518
  202MPD1    C5 3073   1.688   2.956   9.332 -0.1998 -0.2093 -0.0239
  202MPD1     H 3074   1.971   2.814   9.532  0.9470  0.6827 -0.7954
  202MPD1    H1 3075   1.561   2.836   9.448 -0.2045  0.1855 -0.3263
  202MPD1    H2 3076   1.819   3.081   9.231  1.9464  0.2281  0.4060
  202MPD1    H3 3077   1.611   3.011   9.280 -1.6794 -1.6210  0.6705
  202MPD1     N 3078   1.739   2.712   9.575 -0.0222  0.0912  0.2570
  202MPD1    H5 3079   1.643   2.680   9.587 -0.0827  0.1660 -0.0304
  202MPD1    N1 3080   2.049   2.978   9.330  0.8559  0.4427  0.3988
  202MPD1    H6 3081   2.068   3.066   9.282 -0.7466  1.9431  2.5156
  202MPD1    H7 3082   2.114   2.980   9.408 -0.0071 -0.0285  1.1174
  203MPD1     C 3083   4.611   3.066  12.631  0.1365 -0.5970  0.4166
  203MPD1    C1 3084   4.645   3.008  12.753  0.6838 -0.0882  0.0025
  203MPD1    C2 3085   0.019   2.903  12.752 -0.1110 -0.1627  0.0862
  203MPD1    C3 3086   0.070   2.858  12.625 -0.6437  0.0822 -0.4008
  203MPD1    C4 3087   0.032   2.916  12.505  0.1576 -0.3766  0.2196
  203MPD1    C5 3088   4.671   3.026  12.514 -0.3019 -0.2610 -0.0755
  203MPD1     H 3089   0.041   2.856  12.847  1.9105  1.6030  0.4992
  203MPD1    H1 3090   0.053   2.879  12.405 -0.2855 -1.0423  0.3712
  203MPD1    H2 3091   4.537   3.145  12.626 -1.5331 -2.1068  1.2137
  203MPD1    H3 3092   4.634   3.068  12.421 -0.5119  1.1392  0.6448
  203MPD1     N 3093   0.157   2.743  12.630 -0.0708 -0.1277  0.1435
  203MPD1    H5 3094   0.182   2.717  12.725  2.2608 -1.5225 -0.8386
  203MPD1    N1 3095   4.570   3.043  12.869  0.0438 -0.7096 -0.4493
  203MPD1    H6 3096   4.635   3.062  12.945 -0.2505  0.6821 -0.5434
  203MPD1    H7 3097   4.522   3.132  12.853 -0.7135 -1.1743 -0.7700
  204MPD1     C 3098   3.721   2.761   0.167 -0.8058 -0.0269  0.3787
  204MPD1    C1 3099   3.833   2.680   0.164  0.4205  0.0644  0.1377
  204MPD1    C2 3100   3.920   2.688   0.056 -0.0012 -0.0995  0.6925
  204MPD1    C3 3101   3.899   2.790  17.635  0.4975 -0.4777 -0.0160
  204MPD1    C4 3102   3.796   2.879  17.648 -1.1123  0.4178  0.1679
  204MPD1    C5 3103   3.700   2.857   0.065 -0.5226  0.3481  0.1578
  204MPD1     H 3104   4.011   2.631   0.067  1.5306  1.7277 -2.7070
  204MPD1    H1 3105   3.773   2.954  17.574 -0.0880  1.4092  0.8644
  204MPD1    H2 3106   3.640   2.755   0.238 -1.1887 -0.1062 -0.0626
  204MPD1    H3 3107   3.622   2.932   0.066  0.0185  0.9020  0.2709
  204MPD1     N 3108   4.003   2.806  17.539 -0.3558  0.0713  0.1489
  204MPD1    H5 3109   4.064   2.725  17.532 -3.6868 -2.2762 -1.6129
  204MPD1    N1 3110   3.842   2.582   0.265 -0.1918 -0.3031 -0.1546
  204MPD1    H6 3111   3.921   2.519   0.251  1.3415  1.3110  1.1145
  204MPD1    H7 3112   3.864   2.628   0.354  0.1629 -0.4709 -0.1531
  205MPD1     C 3113   0.529   1.497  17.333 -0.0611  0.6303 -0.2466
  205MPD1    C1 3114   0.576   1.623  17.313  0.3250  0.0737  0.2820
  205MPD1    C2 3115   0.506   1.732  17.364 -0.0121 -0.1673 -0.3066
  205MPD1    C3 3116   0.372   1.711  17.418 -0.0415  0.5145 -0.6440
  205MPD1    C4 3117   0.324   1.583  17.429 -0.0421  0.1158  0.6039
  205MPD1    C5 3118   0.404   1.482  17.386 -0.0060  0.0182  0.2798
  205MPD1     H 3119   0.555   1.828  17.364  0.5743 -0.4715 -1.9420
  205MPD1    H1 3120   0.227   1.560  17.472 -0.5531  3.1628  1.1071
  205MPD1    H2 3121   0.578   1.405  17.305  0.8797  0.3933  2.1712
  205MPD1    H3 3122   0.358   1.384  17.398 -0.9767  0.6103  1.3863
  205MPD1     N 3123   0.297   1.812  17.473 -0.3103 -0.1953  0.0717
  205MPD1    H5 3124   0.215   1.779  17.523  0.0197 -0.6984  0.2910
  205MPD1    N1 3125   0.710   1.646  17.273  0.5259  0.5028 -0.0416
  205MPD1    H6 3126   0.739   1.583  17.198  1.5798 -1.1949  1.7862
  205MPD1    H7 3127   0.739   1.739  17.243  1.3942  0.1788 -0.2262
  206MPD1     C 3128   4.376   0.536  16.688 -0.0911  0.0550 -0.0082
  206MPD1    C1 3129   4.480   0.473  16.625  0.6257  0.9204  0.6196
  206MPD1    C2 3130   4.475   0.457  16.489  0.1532  0.8591  0.0037
  206MPD1    C3 3131   4.372   0.504  16.414 -0.0389 -0.2687  0.2602
  206MPD1    C4 3132   4.272   0.571  16.486  0.0954 -0.1913 -0.4756
  206MPD1    C5 3133   4.275   0.589  16.618 -0.3335 -0.3182 -0.1903
  206MPD1     H 3134   4.554   0.399  16.445 -0.7103 -0.1542 -0.2002
  206MPD1    H1 3135   4.189   0.619  16.437  1.1899  1.5761 -0.6012
  206MPD1    H2 3136   4.371   0.534  16.796 -0.8480  0.7733 -0.0212
  206MPD1    H3 3137   4.190   0.649  16.651 -0.6772 -0.9360  0.0606
  206MPD1     N 3138   4.358   0.484  16.272  0.3797 -0.2163  1.1427
  206MPD1    H5 3139   4.268   0.510  16.232  0.3409 -0.4271  1.0924
  206MPD1    N1 3140   4.581   0.422  16.710  0.5559 -0.2275  0.6315
  206MPD1    H6 3141   4.590   0.457  16.806  2.4107  0.2250  0.2924
  206MPD1    H7 3142   4.676   0.396  16.682  0.2128 -0.6714 -0.1082
  207MPD1     C 3143   2.431   2.946   9.873 -0.0286  0.7792 -0.3385
  207MPD1    C1 3144   2.512   2.894   9.975 -0.0218 -0.6742  0.5109
  207MPD1    C2 3145   2.581   2.979  10.057  0.4230  0.9026 -0.4735
  207MPD1    C3 3146   2.593   3.114  10.024 -0.1817  0.3662 -0.4604
  207MPD1    C4 3147   2.534   3.162   9.911 -0.0948 -0.7319  0.2999
  207MPD1    C5 3148   2.454   3.072   9.835  0.8920 -0.4484 -0.2005
  207MPD1     H 3149   2.649   2.939  10.131  1.0656  1.1308 -0.9348
  207MPD1    H1 3150   2.558   3.265   9.887 -1.6450 -0.1632  1.1955
  207MPD1    H2 3151   2.369   2.876   9.819 -0.6920  0.4035  0.8968
  207MPD1    H3 3152   2.405   3.108   9.745  0.0529  0.2020  0.5119
  207MPD1     N 3153   2.675   3.208  10.097 -0.1675 -0.1547 -0.2063
  207MPD1    H5 3154   2.675   3.306  10.070 -1.0757 -0.2537 -0.5529
  207MPD1    N1 3155   2.491   2.760  10.014 -0.6332 -0.0508  0.0963
  207MPD1    H6 3156   2.456   2.711   9.931 -0.8017 -0.2860  0.3063
  207MPD1    H7 3157   2.581   2.732  10.052 -0.7422 -0.2383  0.2191
  208MPD1     C 3158   0.432   3.207   0.926  0.0822  0.3422 -0.4752
  208MPD1    C1 3159   0.400   3.157   1.050 -0.7786  0.4775 -0.1377
  208MPD1    C2 3160   0.332   3.036   1.057 -0.4904  0.0156  0.0403
  208MPD1    C3 3161   0.304   2.960   0.938  0.0470 -0.2024 -0.7098
  208MPD1    C4 3162   0.351   3.016   0.821  0.3078  0.5880  0.4134
  208MPD1    C5 3163   0.396   3.149   0.811  0.8021  0.5143  0.4119
  208MPD1     H 3164   0.311   2.993   1.154 -1.2377  0.5318  0.1123
  208MPD1    H1 3165   0.328   2.970   0.726 -0.1460  1.1428  0.2603
  208MPD1    H2 3166   0.471   3.308   0.923 -1.1048  0.8368  0.6878
  208MPD1    H3 3167   0.430   3.191   0.717 -0.1119  0.4042  0.0276
  208MPD1     N 3168   0.234   2.838   0.943 -0.1688 -0.2642 -0.4905
  208MPD1    H5 3169   0.178   2.824   1.026  1.4644 -0.4975  0.5797
  208MPD1    N1 3170   0.453   3.203   1.167 -0.1306  0.2004 -0.6280
  208MPD1    H6 3171   0.410   3.179   1.256 -0.4828 -1.0468 -1.1425
  208MPD1    H7 3172   0.472   3.302   1.181 -0.0744  0.1956 -0.6717
  209MPD1     C 3173   2.952   2.563  11.948 -0.2033  0.5288 -0.0097
  209MPD1    C1 3174   2.837   2.631  11.955 -0.1429 -0.2685 -0.3979
  209MPD1    C2 3175   2.822   2.736  11.864  0.0981 -0.4989  0.0917
  209MPD1    C3 3176   2.919   2.778  11.776 -0.1258 -0.3708  0.4357
  209MPD1    C4 3177   3.048   2.728  11.793 -0.1896 -0.9444  0.3765
  209MPD1    C5 3178   3.058   2.617  11.871 -0.4896  0.3337  0.5515
  209MPD1     H 3179   2.723   2.777  11.850  0.1401 -0.1736  0.7438
  209MPD1    H1 3180   3.128   2.761  11.727 -1.2458  0.0600 -0.4058
  209MPD1    H2 3181   2.977   2.477  12.009  1.0590  0.0681 -1.1788
  209MPD1    H3 3182   3.155   2.568  11.876 -1.1794 -1.1297 -0.4263
  209MPD1     N 3183   2.886   2.880  11.687 -0.0452  0.1968  0.6906
  209MPD1    H5 3184   2.803   2.935  11.705  0.5184  0.2616  3.1602
  209MPD1    N1 3185   2.726   2.583  12.026 -0.1444 -0.3481  0.1234
  209MPD1    H6 3186   2.743   2.513  12.098 -1.7118 -1.7042 -0.8108
  209MPD1    H7 3187   2.646   2.639  12.054  0.5578  2.0952 -2.7641
  210MPD1     C 3188   2.437   3.534  11.878 -0.0760  0.2858 -0.1833
  210MPD1    C1 3189   2.541   3.607  11.815  0.2655  0.6765 -0.2656
  210MPD1    C2 3190   2.632   3.534  11.751 -0.8403  0.0263  0.0437
  210MPD1    C3 3191   2.622   3.396  11.739 -0.4641  0.3140 -0.0899
  210MPD1    C4 3192   2.521   3.330  11.804 -0.2449 -0.1276  0.2060
  210MPD1    C5 3193   2.434   3.403  11.881  0.1292  0.5552 -0.1178
  210MPD1     H 3194   2.719   3.580  11.704 -0.4556 -0.9492 -0.1972
  210MPD1    H1 3195   2.512   3.222  11.809 -0.1711 -0.1021  0.9138
  210MPD1    H2 3196   2.355   3.578  11.934  0.9542  1.3576  0.5092
  210MPD1    H3 3197   2.356   3.348  11.932  2.2237 -1.0085  1.4098
  210MPD1     N 3198   2.714   3.309  11.668 -0.3579 -0.1357 -0.2840
  210MPD1    H5 3199   2.711   3.210  11.693 -0.3497  0.5077  2.3179
  210MPD1    N1 3200   2.524   3.746  11.789  0.5415 -0.3851 -0.2567
  210MPD1    H6 3201   2.615   3.784  11.765  0.8944 -0.5924  0.7463
  210MPD1    H7 3202   2.479   3.790  11.869 -1.0597 -2.8371  0.2213
  211MPD1     C 3203   0.441   3.271  16.496  0.1122  0.1270 -0.0056
  211MPD1    C1 3204   0.419   3.174  16.598  0.5699 -0.1075 -0.1334
  211MPD1    C2 3205   0.324   3.072  16.576 -0.1966 -0.0117  0.7700
  211MPD1    C3 3206   0.250   3.072  16.460 -0.4548 -0.1155  0.3843
  211MPD1    C4 3207   0.261   3.177  16.373 -0.0303  0.5505 -0.4986
  211MPD1    C5 3208   0.355   3.274  16.389 -0.0858  0.0114 -0.2068
  211MPD1     H 3209   0.323   2.990  16.647  0.1507  0.2869  1.1173
  211MPD1    H1 3210   0.203   3.182  16.281  1.2249 -1.0789 -1.3685
  211MPD1    H2 3211   0.514   3.349  16.514  2.0903 -1.9231  0.9006
  211MPD1    H3 3212   0.375   3.354  16.318  0.2419 -3.1118 -3.6336
  211MPD1     N 3213   0.170   2.953  16.428  1.4426 -0.5692 -0.4282
  211MPD1    H5 3214   0.160   2.887  16.505 -2.6446  0.4616 -0.0825
  211MPD1    N1 3215   0.513   3.158  16.701  0.2111  0.5658 -0.1037
  211MPD1    H6 3216   0.543   3.250  16.734 -0.1103  1.4236 -2.1540
  211MPD1    H7 3217   0.460   3.121  16.779 -0.8421  1.9782 -0.1537
  212MPD1     C 3218   3.922   0.767  16.242  0.2478  0.1996  0.1936
  212MPD1    C1 3219   3.951   0.640  16.251 -0.2760 -0.0645 -0.3371
  212MPD1    C2 3220   3.891   0.554  16.342 -0.1313  0.3041  0.3381
  212MPD1    C3 3221   3.789   0.606  16.421  0.7975  0.0393  0.3939
  212MPD1    C4 3222   3.746   0.738  16.394 -0.4080  0.5377 -0.6068
  212MPD1    C5 3223   3.815   0.819  16.310 -0.3129  0.5015  0.7739
  212MPD1     H 3224   3.940   0.459  16.360 -0.9768 -0.5962 -2.1616
  212MPD1    H1 3225   3.650   0.768  16.432 -1.7649 -0.4552 -3.2295
  212MPD1    H2 3226   3.970   0.837  16.175  1.2481  0.4016  1.1148
  212MPD1    H3 3227   3.778   0.916  16.279 -0.9469 -0.0029 -0.0544
  212MPD1     N 3228   3.731   0.533  16.524 -0.1574  0.0573 -0.6961
  212MPD1    H5 3229   3.653   0.580  16.569  0.8325  2.0040 -0.9758
  212MPD1    N1 3230   4.080   0.595  16.200  0.0536 -0.2747  0.2042
  212MPD1    H6 3231   4.117   0.644  16.119  0.5496  2.3043  2.0058
  212MPD1    H7 3232   4.075   0.497  16.174  1.4497 -0.5378  0.9461
  213MPD1     C 3233   1.914   1.468  15.857  0.3105 -0.6450 -0.0987
  213MPD1    C1 3234   1.884   1.351  15.789 -0.0091  0.0650 -0.5107
  213MPD1    C2 3235   1.846   1.375  15.664 -0.5313 -0.0071 -0.0070
  213MPD1    C3 3236   1.862   1.497  15.600  0.0540  0.4979  0.0385
  213MPD1    C4 3237   1.910   1.606  15.670  0.1581 -0.1393  0.1897
  213MPD1    C5 3238   1.937   1.588  15.798 -0.5460 -0.2737 -0.3798
  213MPD1     H 3239   1.800   1.297  15.604  2.3836 -1.9604  0.2910
  213MPD1    H1 3240   1.916   1.708  15.633  0.7989  0.1978  1.2197
  213MPD1    H2 3241   1.930   1.457  15.964  0.8704  2.0602  0.0959
  213MPD1    H3 3242   1.974   1.676  15.850  0.9120 -1.0832 -0.0347
  213MPD1     N 3243   1.831   1.504  15.465  0.1425 -0.2175 -0.0835
  213MPD1    H5 3244   1.812   1.416  15.418 -0.9668  0.4607 -0.9035
  213MPD1    N1 3245   1.825   1.248  15.855 -1.2178 -0.1555  0.0081
  213MPD1    H6 3246   1.803   1.168  15.796 -0.1860  0.8362 -1.7076
  213MPD1    H7 3247   1.863   1.224  15.947  1.5515 -0.0173 -1.1119
  214MPD1     C 3248   1.357   0.971  15.074  0.5057 -0.3078  0.3595
  214MPD1    C1 3249   1.475   0.949  15.004  0.2245 -0.1058 -0.3549
  214MPD1    C2 3250   1.572   1.044  15.014 -0.4257  0.7701  0.0179
  214MPD1    C3 3251   1.562   1.146  15.106  0.4460 -0.0440 -0.0562
  214MPD1    C4 3252   1.457   1.144  15.201 -0.3949 -0.4713 -0.9177
  214MPD1    C5 3253   1.356   1.062  15.176 -0.3032 -0.5677  0.1374
  214MPD1     H 3254   1.662   1.026  14.957  0.7246  1.5899  1.5776
  214MPD1    H1 3255   1.459   1.220  15.279 -2.0635 -2.2348  0.8535
  214MPD1    H2 3256   1.270   0.907  15.061 -0.8529  1.6197  0.0695
  214MPD1    H3 3257   1.270   1.062  15.242 -0.0843 -1.7167  0.4261
  214MPD1     N 3258   1.657   1.253  15.118  0.2320 -0.1307 -0.4890
  214MPD1    H5 3259   1.659   1.313  15.200  3.7233  1.2856 -1.6321
  214MPD1    N1 3260   1.485   0.840  14.908 -0.0436  0.7188  0.1763
  214MPD1    H6 3261   1.422   0.763  14.927  1.0976  0.1643  1.7482
  214MPD1    H7 3262   1.581   0.807  14.914 -0.9145 -1.8089  0.0792
  215MPD1     C 3263   2.910   2.238  10.529  0.5607  0.5849 -0.2546
  215MPD1    C1 3264   2.910   2.272  10.658 -0.2554 -0.3205  1.4334
  215MPD1    C2 3265   2.887   2.400  10.686  0.6299 -0.4666 -0.6861
  215MPD1    C3 3266   2.869   2.497  10.586  0.2043 -1.1802  0.0867
  215MPD1    C4 3267   2.871   2.454  10.453  0.3983  0.2073  0.6701
  215MPD1    C5 3268   2.891   2.323  10.428 -0.0441  0.1531  0.3074
  215MPD1     H 3269   2.890   2.428  10.791 -1.8509  0.3754 -0.8366
  215MPD1    H1 3270   2.870   2.520  10.367  0.4415  0.1425  0.6189
  215MPD1    H2 3271   2.942   2.136  10.507  0.0842 -0.1536  2.3819
  215MPD1    H3 3272   2.890   2.283  10.327  0.4600  0.0495  0.3394
  215MPD1     N 3273   2.852   2.633  10.624 -0.0433  0.3209 -0.2628
  215MPD1    H5 3274   2.871   2.661  10.720  0.8578 -0.4564 -0.2048
  215MPD1    N1 3275   2.904   2.171  10.757  0.3870  0.7002  0.2882
  215MPD1    H6 3276   2.953   2.086  10.729 -0.9252  0.6959 -2.0027
  215MPD1    H7 3277   2.928   2.200  10.851 -1.4897  1.1211  0.6285
  216MPD1     C 3278   3.560   1.007   0.144 -0.2792 -0.1033 -0.3201
  216MPD1    C1 3279   3.562   0.924   0.038 -0.3861  0.4823  0.4534
  216MPD1    C2 3280   3.552   0.790   0.056  0.0394  0.3848 -0.3138
  216MPD1    C3 3281   3.506   0.740   0.178  0.1732 -0.2116 -0.1681
  216MPD1    C4 3282   3.485   0.830   0.280 -0.1983  0.3657  0.4215
  216MPD1    C5 3283   3.514   0.962   0.259  0.2452  0.3925 -0.5121
  216MPD1     H 3284   3.564   0.719  17.655 -0.9238  0.5271 -0.5925
  216MPD1    H1 3285   3.455   0.791   0.377  0.2673 -1.5560 -0.2273
  216MPD1    H2 3286   3.594   1.108   0.128  0.4873  0.0932  2.5625
  216MPD1    H3 3287   3.523   1.022   0.349 -1.8206 -2.6679  1.7418
  216MPD1     N 3288   3.477   0.603   0.186  0.1335  0.0697 -0.2777
  216MPD1    H5 3289   3.492   0.549   0.102 -1.7057 -1.0089  0.0846
  216MPD1    N1 3290   3.610   0.980  17.597  0.0428 -0.3801  0.5229
  216MPD1    H6 3291   3.558   1.066  17.582  1.5053  0.5251  0.6930
  216MPD1    H7 3292   3.587   0.916  17.521  0.6923 -0.3388  0.2942
  217MPD1     C 3293   0.458   3.260   8.421 -0.0712 -0.2374 -0.2564
  217MPD1    C1 3294   0.380   3.299   8.525 -1.0928 -0.7840  0.1683
  217MPD1    C2 3295   0.357   3.198   8.614 -0.2804 -0.0843 -1.2772
  217MPD1    C3 3296   0.407   3.069   8.605  0.0071 -0.5444  0.8377
  217MPD1    C4 3297   0.487   3.038   8.498  0.3762 -0.5132 -0.4219
  217MPD1    C5 3298   0.509   3.130   8.403 -0.3225  0.7437  0.2683
  217MPD1     H 3299   0.290   3.219   8.696  1.0228 -1.3503  0.1272
  217MPD1    H1 3300   0.523   2.937   8.479  0.0582 -0.6406 -0.3474
  217MPD1    H2 3301   0.490   3.324   8.339  0.0480  0.6600  0.4921
  217MPD1    H3 3302   0.570   3.102   8.318  2.2481  1.4706  1.8849
  217MPD1     N 3303   0.382   2.970   8.706  0.3936  0.0989  0.1565
  217MPD1    H5 3304   0.418   2.876   8.692  0.6255  0.3517 -0.8860
  217MPD1    N1 3305   0.362   3.431   8.557  0.2490  0.2613 -0.1200
  217MPD1    H6 3306   0.340   3.483   8.473  2.1504  1.4828  0.1290
  217MPD1    H7 3307   0.280   3.441   8.616 -0.0500 -0.7071 -0.3772
  218MPD1     C 3308   1.788   2.143  12.640  0.8179 -0.3650 -0.1069
  218MPD1    C1 3309   1.863   2.117  12.754  0.3471  0.7765 -0.2184
  218MPD1    C2 3310   1.971   2.195  12.774  0.1490 -0.7458 -0.8914
  218MPD1    C3 3311   2.009   2.296  12.689 -1.1185  0.1213  0.5222
  218MPD1    C4 3312   1.927   2.326  12.586 -0.7023 -0.4826  0.4911
  218MPD1    C5 3313   1.816   2.250  12.557  0.6551 -0.1172  0.1945
  218MPD1     H 3314   2.025   2.185  12.868 -0.1260  1.8349 -0.4484
  218MPD1    H1 3315   1.938   2.412  12.520 -3.8919 -0.2952  0.1978
  218MPD1    H2 3316   1.701   2.083  12.619  0.5496 -1.3558  3.8021
  218MPD1    H3 3317   1.760   2.286  12.472  0.7533  1.2208  0.7038
  218MPD1     N 3318   2.119   2.374  12.726 -0.2340  0.2618  0.5076
  218MPD1    H5 3319   2.176   2.338  12.801  0.8557 -1.6454 -1.2459
  218MPD1    N1 3320   1.857   1.992  12.816 -0.1129  0.6682 -0.6042
  218MPD1    H6 3321   1.767   1.945  12.824 -0.1281  0.9885  1.0436
  218MPD1    H7 3322   1.889   2.004  12.912 -0.1387  1.2107 -0.6639
  219MPD1     C 3323   2.307   3.110  12.122  0.5706 -0.1077 -0.5818
  219MPD1    C1 3324   2.431   3.088  12.173  0.4903 -0.4668  0.1392
  219MPD1    C2 3325   2.440   3.012  12.289  0.3061 -0.3256 -0.0621
  219MPD1    C3 3326   2.328   2.962  12.348 -0.4657  0.0067  0.4759
  219MPD1    C4 3327   2.205   2.993  12.298  0.2324 -0.1695  0.2838
  219MPD1    C5 3328   2.201   3.061  12.186 -0.2392 -0.1212  0.4139
  219MPD1     H 3329   2.535   2.989  12.337 -0.4043  0.1583  1.5486
  219MPD1    H1 3330   2.111   2.963  12.342  0.3981 -0.7167  0.2654
  219MPD1    H2 3331   2.292   3.172  12.034  0.4978  0.4031 -0.2092
  219MPD1    H3 3332   2.108   3.086  12.136 -1.1700 -0.1601  2.1470
  219MPD1     N 3333   2.326   2.876  12.463  0.0297  0.2037  0.2959
  219MPD1    H5 3334   2.237   2.827  12.468 -0.3601  0.9269  0.5075
  219MPD1    N1 3335   2.545   3.122  12.103 -0.3159  0.5278  0.4528
  219MPD1    H6 3336   2.534   3.199  12.037  0.5974 -1.5831 -2.2094
  219MPD1    H7 3337   2.632   3.118  12.157 -1.0143  0.5949  1.5688
  220MPD1     C 3338   1.716   3.567   9.328  0.8302  0.4904 -0.2676
  220MPD1    C1 3339   1.857   3.544   9.321 -0.1465 -0.0402 -0.8166
  220MPD1    C2 3340   1.905   3.437   9.392  1.0386  0.2597  0.1775
  220MPD1    C3 3341   1.828   3.362   9.479  0.0166 -0.4022  0.4306
  220MPD1    C4 3342   1.692   3.388   9.485  0.2016 -0.3245 -0.2925
  220MPD1    C5 3343   1.637   3.484   9.401  0.4603  0.6634  0.7323
  220MPD1     H 3344   2.012   3.421   9.387  0.9547 -0.6795  1.3352
  220MPD1    H1 3345   1.623   3.335   9.549  0.6735 -1.6126 -0.8585
  220MPD1    H2 3346   1.676   3.643   9.262  0.5558  2.7338  2.4390
  220MPD1    H3 3347   1.529   3.492   9.398  0.6198  2.3455 -0.3672
  220MPD1     N 3348   1.891   3.263   9.552  0.3505  0.4884  0.0318
  220MPD1    H5 3349   1.991   3.255   9.538  0.3714  0.0967  0.3876
  220MPD1    N1 3350   1.928   3.631   9.241 -0.1754 -0.0457 -0.0013
  220MPD1    H6 3351   2.026   3.625   9.268 -0.0235 -1.0712 -0.7820
  220MPD1    H7 3352   1.904   3.728   9.257 -0.4150 -0.6048  3.0626
  221MPD1     C 3353   3.871   2.544  16.753  0.1326  0.1011  0.1785
  221MPD1    C1 3354   3.947   2.573  16.643  0.6745  0.9233 -0.3156
  221MPD1    C2 3355   4.070   2.517  16.633 -0.2325 -0.3800 -0.3542
  221MPD1    C3 3356   4.122   2.441  16.731 -0.2449 -0.5953 -0.6905
  221MPD1    C4 3357   4.050   2.420  16.848  0.0567 -0.5940 -0.6391
  221MPD1    C5 3358   3.923   2.479  16.856  0.1161  0.0752  0.2513
  221MPD1     H 3359   4.129   2.529  16.543 -0.5327 -2.0737 -0.7727
  221MPD1    H1 3360   4.077   2.356  16.931 -2.4095  1.0566  1.4204
  221MPD1    H2 3361   3.775   2.594  16.758  0.0699  0.0062 -0.0811
  221MPD1    H3 3362   3.868   2.475  16.949 -1.1772 -1.5216 -0.5866
  221MPD1     N 3363   4.245   2.379  16.704 -0.8708 -0.9521  0.5922
  221MPD1    H5 3364   4.294   2.385  16.616 -2.5834 -0.2224 -0.2998
  221MPD1    N1 3365   3.881   2.635  16.527 -0.0130 -0.2672  0.2300
  221MPD1    H6 3366   3.950   2.681  16.468 -0.3554  1.2450  0.9963
  221MPD1    H7 3367   3.806   2.699  16.551 -0.4821  0.2748 -2.6697
  222MPD1     C 3368   3.609   4.317  17.050  1.0360 -0.0072 -0.3329
  222MPD1    C1 3369   3.570   4.449  17.028 -0.6159 -0.0296  0.1148
  222MPD1    C2 3370   3.503   4.519  17.134  0.4275  0.2887 -0.8009
  222MPD1    C3 3371   3.471   4.460  17.251 -0.0468 -0.0735  0.6353
  222MPD1    C4 3372   3.509   4.327  17.269  0.5688 -0.4876 -0.2333
  222MPD1    C5 3373   3.572   4.256  17.169 -0.2260  0.4455 -0.6325
  222MPD1     H 3374   3.453   4.614  17.118 -1.8892 -0.8868 -0.6180
  222MPD1    H1 3375   3.509   4.283  17.368 -2.6072  0.0325  0.0152
  222MPD1    H2 3376   3.657   4.250  16.978  2.1321  0.7449 -0.3038
  222MPD1    H3 3377   3.582   4.150  17.184 -1.4941  0.1889 -1.5412
  222MPD1     N 3378   3.402   4.526  17.359  0.4451  0.2715 -0.2110
  222MPD1    H5 3379   3.375   4.467  17.437 -1.1903  0.6571 -0.4915
  222MPD1    N1 3380   3.620   4.517  16.918  0.1105  0.0170  0.1009
  222MPD1    H6 3381   3.660   4.449  16.853 -0.8373 -0.7327  0.3080
  222MPD1    H7 3382   3.542   4.568  16.875 -0.2245 -1.1097 -0.6309
  223MPD1     C 3383   3.387   4.482   0.648 -1.1387  0.1050 -0.0672
  223MPD1    C1 3384   3.322   4.607   0.635  0.5117  0.7782  0.4752
  223MPD1    C2 3385   3.305   4.658   0.505 -0.3726 -0.1182 -0.3854
  223MPD1    C3 3386   3.369   4.603   0.401 -0.0945 -0.0775  0.3573
  223MPD1    C4 3387   3.446   4.491   0.415 -0.2777 -0.2260 -0.2198
  223MPD1    C5 3388   3.448   4.431   0.533  0.3757 -0.0658 -0.5358
  223MPD1     H 3389   3.225   0.010   0.485 -1.0935 -0.1277  2.5378
  223MPD1    H1 3390   3.505   4.459   0.329 -2.1181 -3.9138 -0.1055
  223MPD1    H2 3391   3.395   4.421   0.737 -1.1010 -0.9585 -0.7957
  223MPD1    H3 3392   3.504   4.340   0.552 -1.9765 -1.4720 -0.2568
  223MPD1     N 3393   3.335   4.655   0.273 -0.2093 -0.0803 -0.1538
  223MPD1    H5 3394   3.275   0.018   0.275  0.9981  0.8001  0.1315
  223MPD1    N1 3395   3.233   4.645   0.738 -0.4632  0.4932 -0.3846
  223MPD1    H6 3396   3.272   4.625   0.830 -4.1374 -2.6450  0.5023
  223MPD1    H7 3397   3.206   0.024   0.743 -1.2792  0.2298  0.5470
  224MPD1     C 3398   0.486   3.030   9.138 -0.4351 -0.1277 -0.1598
  224MPD1    C1 3399   0.409   3.046   9.249  0.0529 -0.2270  0.6282
  224MPD1    C2 3400   0.444   2.981   9.363 -0.6413 -0.3724  0.2712
  224MPD1    C3 3401   0.561   2.913   9.374 -0.3341 -0.0118  0.4091
  224MPD1    C4 3402   0.639   2.893   9.264 -0.6665 -0.3523 -0.1924
  224MPD1    C5 3403   0.599   2.954   9.151 -0.2177 -0.3154  0.0803
  224MPD1     H 3404   0.377   2.990   9.448 -0.4927  0.3499  0.3080
  224MPD1    H1 3405   0.729   2.832   9.257 -1.0288 -0.9265  0.1913
  224MPD1    H2 3406   0.461   3.063   9.038  0.8367  0.6273 -0.2276
  224MPD1    H3 3407   0.662   2.938   9.064  0.2446  1.0357  0.1730
  224MPD1     N 3408   0.595   2.843   9.489  0.0289  0.0959 -0.2115
  224MPD1    H5 3409   0.649   2.758   9.475 -0.7824 -0.0602 -2.5109
  224MPD1    N1 3410   0.281   3.106   9.232 -0.6767  0.6142 -0.2618
  224MPD1    H6 3411   0.292   3.185   9.168 -0.0565  0.0008 -0.9055
  224MPD1    H7 3412   0.262   3.158   9.318  1.3135  0.6731  0.1505
  225MPD1     C 3413   1.737   4.018  12.670  0.3137  0.4436 -0.2462
  225MPD1    C1 3414   1.815   3.953  12.583 -0.6377  0.4878  0.1747
  225MPD1    C2 3415   1.771   3.906  12.461  0.1034 -0.7195  0.4735
  225MPD1    C3 3416   1.633   3.917  12.433 -0.2552  0.4555  0.2312
  225MPD1    C4 3417   1.555   3.986  12.519 -0.3738 -0.0771 -0.6460
  225MPD1    C5 3418   1.608   4.038  12.637  0.5204 -0.3095 -0.7628
  225MPD1     H 3419   1.842   3.862  12.391 -0.9472 -1.0656 -0.3731
  225MPD1    H1 3420   1.448   3.983  12.504 -0.2424 -0.2798 -1.5478
  225MPD1    H2 3421   1.773   4.064  12.761 -0.7902  1.7478 -0.4683
  225MPD1    H3 3422   1.540   4.083  12.709 -0.5511 -0.0420 -1.9372
  225MPD1     N 3423   1.569   3.867  12.314  0.3741  0.5118  0.3774
  225MPD1    H5 3424   1.475   3.900  12.295  0.6824  1.5903  0.7083
  225MPD1    N1 3425   1.952   3.959  12.610 -0.2026  0.4154 -0.0703
  225MPD1    H6 3426   1.964   3.971  12.711  0.0448  1.7665 -0.2562
  225MPD1    H7 3427   1.994   3.875  12.572  0.1581  1.1305 -1.2383
  226MPD1     C 3428   4.312   4.491   9.209  0.2991 -0.1548  0.1997
  226MPD1    C1 3429   4.427   4.486   9.130  0.1622 -0.3336 -0.1469
  226MPD1    C2 3430   4.497   4.370   9.119  0.7833  0.7828 -0.0709
  226MPD1    C3 3431   4.462   4.254   9.185  1.1322  0.5877  0.9820
  226MPD1    C4 3432   4.345   4.255   9.264 -0.3013  0.0932 -0.0027
  226MPD1    C5 3433   4.269   4.371   9.265  0.2770  0.0830 -0.0095
  226MPD1     H 3434   4.579   4.364   9.047 -0.0993  0.6295 -1.0645
  226MPD1    H1 3435   4.310   4.170   9.321  1.2891  0.1092  0.9927
  226MPD1    H2 3436   4.246   4.577   9.221 -0.1251 -0.4619  0.0803
  226MPD1    H3 3437   4.179   4.363   9.325 -0.4394  3.1161 -0.6872
  226MPD1     N 3438   4.537   4.136   9.163 -0.3601  0.6553 -0.2983
  226MPD1    H5 3439   4.629   4.147   9.121 -0.1115  0.5552  0.2290
  226MPD1    N1 3440   4.452   4.604   9.053 -0.3049 -0.2749  0.8382
  226MPD1    H6 3441   4.551   4.622   9.058  0.0543 -2.4817  1.9755
  226MPD1    H7 3442   4.414   4.695   9.076  0.6358  0.6718 -1.4796
  227MPD1     C 3443   0.420   4.165   8.625 -1.2012 -0.5732 -0.3003
  227MPD1    C1 3444   0.280   4.168   8.619 -0.2434 -0.0884 -0.1540
  227MPD1    C2 3445   0.210   4.095   8.710 -0.3421  0.0390 -0.1887
  227MPD1    C3 3446   0.263   4.046   8.821  0.9356 -0.4437  0.0185
  227MPD1    C4 3447   0.396   4.059   8.839 -0.0293 -0.1401 -0.1724
  227MPD1    C5 3448   0.485   4.122   8.745  0.3704 -0.7352 -0.0668
  227MPD1     H 3449   0.102   4.082   8.701 -0.5238  0.3962  1.4827
  227MPD1    H1 3450   0.447   4.022   8.928 -0.3788  0.4221  0.2609
  227MPD1    H2 3451   0.484   4.219   8.556 -1.7827  0.0933 -0.3220
  227MPD1    H3 3452   0.582   4.164   8.770 -0.0412  0.2442 -0.0950
  227MPD1     N 3453   0.186   3.978   8.914  0.2477  0.0135  0.2225
  227MPD1    H5 3454   0.087   3.976   8.891  0.3905 -0.1410 -0.3942
  227MPD1    N1 3455   0.220   4.211   8.499  0.2673  0.0492  0.2189
  227MPD1    H6 3456   0.269   4.294   8.464  1.4666 -0.5580  0.4504
  227MPD1    H7 3457   0.123   4.241   8.508  0.6572  0.6517  2.5883
  228MPD1     C 3458   3.072   1.397  13.440  0.0608 -0.5002  0.4557
  228MPD1    C1 3459   3.075   1.384  13.298  0.2166 -0.5398 -0.4311
  228MPD1    C2 3460   2.992   1.289  13.238 -0.0173  0.7966 -0.2833
  228MPD1    C3 3461   2.896   1.224  13.317 -0.2289 -0.1795 -0.0311
  228MPD1    C4 3462   2.897   1.243  13.452  0.8828  0.0093  0.1399
  228MPD1    C5 3463   2.983   1.329  13.514  0.1394  0.1354  0.8149
  228MPD1     H 3464   2.978   1.267  13.133  1.3122  0.6466 -0.4310
  228MPD1    H1 3465   2.819   1.197  13.510  1.1520  0.3194  0.7435
  228MPD1    H2 3466   3.145   1.459  13.490  0.5879  0.8322 -1.9425
  228MPD1    H3 3467   2.985   1.343  13.621  0.5809  2.9076  0.4431
  228MPD1     N 3468   2.804   1.136  13.250 -0.1263  0.0582  1.0437
  228MPD1    H5 3469   2.806   1.139  13.148  0.1965 -0.2387  1.0399
  228MPD1    N1 3470   3.176   1.444  13.227  0.2192  0.6017 -0.3448
  228MPD1    H6 3471   3.151   1.469  13.132 -1.1682 -2.5352 -0.7884
  228MPD1    H7 3472   3.218   1.523  13.276  0.1656 -0.8585  2.0682
  229MPD1     C 3473   2.824   0.641  15.289 -0.6528  0.5147  0.1421
  229MPD1    C1 3474   2.936   0.599  15.228 -0.4744 -0.0775  0.7761
  229MPD1    C2 3475   2.959   0.467  15.206  0.3797 -0.3535  0.8624
  229MPD1    C3 3476   2.848   0.375  15.216  0.5333 -0.8851 -0.0079
  229MPD1    C4 3477   2.729   0.430  15.248  0.1321 -0.0297  0.1977
  229MPD1    C5 3478   2.718   0.556  15.282  0.2236  0.0164  0.6271
  229MPD1     H 3479   3.057   0.433  15.173 -0.1166 -1.8662  0.9460
  229MPD1    H1 3480   2.647   0.360  15.261 -1.0615  1.8684  2.8517
  229MPD1    H2 3481   2.815   0.736  15.339  2.5519  0.9796 -0.1460
  229MPD1    H3 3482   2.624   0.591  15.322 -0.3845 -1.0753  0.1772
  229MPD1     N 3483   2.849   0.237  15.191 -0.3621  0.2036  0.8956
  229MPD1    H5 3484   2.761   0.187  15.203  0.3937 -1.2121  0.6225
  229MPD1    N1 3485   3.046   0.687  15.222 -0.0095 -0.0027  0.0938
  229MPD1    H6 3486   3.009   0.782  15.212 -0.4937 -0.2927 -0.9088
  229MPD1    H7 3487   3.116   0.664  15.153 -0.4578 -1.9991  0.3050
  230MPD1     C 3488   2.723   4.099  15.696 -0.1762  0.7092 -0.5050
  230MPD1    C1 3489   2.848   4.075  15.632  0.0092  0.1806 -0.1587
  230MPD1    C2 3490   2.892   4.156  15.528 -0.5079  0.6632 -0.4609
  230MPD1    C3 3491   2.819   4.269  15.493 -0.5462  0.6745 -0.2196
  230MPD1    C4 3492   2.688   4.285  15.540 -0.5653 -0.1903 -0.0520
  230MPD1    C5 3493   2.642   4.195  15.638 -0.1176 -0.1788 -0.2562
  230MPD1     H 3494   2.985   4.123  15.483 -0.3753 -2.0077  1.7909
  230MPD1    H1 3495   2.621   4.362  15.504 -3.2739 -2.3195  0.4647
  230MPD1    H2 3496   2.680   4.032  15.770  2.3960  1.0406  1.2674
  230MPD1    H3 3497   2.544   4.219  15.678 -0.5021  0.9719 -1.8872
  230MPD1     N 3498   2.877   4.361  15.397  0.2257 -0.6155 -0.0230
  230MPD1    H5 3499   2.958   4.329  15.344 -0.8058 -0.5720 -1.6279
  230MPD1    N1 3500   2.913   3.948  15.655 -0.0002  0.1867  0.3045
  230MPD1    H6 3501   3.012   3.965  15.639  0.0964 -0.9020 -0.1960
  230MPD1    H7 3502   2.905   3.935  15.756  1.6715 -2.3619  0.0870
  231MPD1     C 3503   0.772   1.351  15.362 -0.8015 -0.2027 -0.1770
  231MPD1    C1 3504   0.779   1.297  15.239  0.1919 -0.1484  0.3948
  231MPD1    C2 3505   0.888   1.326  15.163  0.1669  0.5866 -0.6647
  231MPD1    C3 3506   1.003   1.379  15.222  0.6394  0.4366  0.9132
  231MPD1    C4 3507   1.001   1.422  15.353  0.2075  0.2876 -0.2087
  231MPD1    C5 3508   0.878   1.411  15.418  0.4254 -0.3097 -0.2645
  231MPD1     H 3509   0.888   1.281  15.065  2.2556  1.7551 -1.2087
  231MPD1    H1 3510   1.085   1.478  15.393 -0.0901  0.7650 -0.2474
  231MPD1    H2 3511   0.680   1.353  15.419  0.7772 -1.3969  2.4115
  231MPD1    H3 3512   0.872   1.442  15.521 -1.2713  2.0222 -1.0662
  231MPD1     N 3513   1.120   1.387  15.142  0.5501  0.0400 -0.2671
  231MPD1    H5 3514   1.104   1.359  15.045  2.6883 -1.4819 -0.1914
  231MPD1    N1 3515   0.664   1.247  15.177 -0.0965  0.0214  0.0372
  231MPD1    H6 3516   0.685   1.181  15.102  0.5996  0.3570 -0.0676
  231MPD1    H7 3517   0.583   1.220  15.232 -0.7070  0.9672 -0.3913
  232MPD1     C 3518   3.036   3.737  17.417 -0.0612 -0.5519  0.2254
  232MPD1    C1 3519   3.037   3.765  17.553  0.2627  0.7556  0.8422
  232MPD1    C2 3520   2.987   3.882  17.603  0.6896 -0.6631  0.4519
  232MPD1    C3 3521   2.892   3.949  17.521 -0.0610  0.0730  0.1242
  232MPD1    C4 3522   2.871   3.909  17.390  0.3712 -0.0068  0.3195
  232MPD1    C5 3523   2.941   3.803  17.344  1.1970  0.0337  0.0014
  232MPD1     H 3524   2.987   3.899   0.031 -2.4777 -0.9450  0.4845
  232MPD1    H1 3525   2.804   3.961  17.322  1.8203 -1.5900 -2.3102
  232MPD1    H2 3526   3.093   3.659  17.368  0.2838 -0.3038  0.2302
  232MPD1    H3 3527   2.928   3.769  17.241 -0.9961 -0.9066  0.5860
  232MPD1     N 3528   2.836   4.067  17.583 -0.3283  0.0920 -0.4857
  232MPD1    H5 3529   2.880   4.099  17.669  0.1742 -0.1033 -0.6688
  232MPD1    N1 3530   3.108   3.674  17.634 -0.7207 -0.2339  0.2469
  232MPD1    H6 3531   3.088   3.580  17.600  1.4232 -0.6787  0.1891
  232MPD1    H7 3532   3.081   3.678   0.054  0.8341 -0.2900  0.6717
  233MPD1     C 3533   2.292   1.990   0.490 -0.2486 -0.7963  0.8231
  233MPD1    C1 3534   2.292   2.110   0.546  0.4305 -0.7208 -0.3944
  233MPD1    C2 3535   2.410   2.154   0.610 -0.0494 -0.6510 -0.1700
  233MPD1    C3 3536   2.526   2.081   0.615  0.1594 -0.0944 -0.6417
  233MPD1    C4 3537   2.515   1.958   0.561 -0.1199 -0.8344  0.0309
  233MPD1    C5 3538   2.399   1.909   0.498  0.1829 -0.4832  0.5396
  233MPD1     H 3539   2.400   2.256   0.647 -1.3327 -0.1002 -2.0357
  233MPD1    H1 3540   2.604   1.895   0.563  1.0275  0.7578 -0.8777
  233MPD1    H2 3541   2.202   1.957   0.439  0.8666 -0.4451 -1.4027
  233MPD1    H3 3542   2.406   1.814   0.446  0.4278  0.2691 -0.7995
  233MPD1     N 3543   2.640   2.109   0.693 -0.3137  0.2706 -0.1465
  233MPD1    H5 3544   2.710   2.037   0.705 -3.3366 -2.2546  2.3132
  233MPD1    N1 3545   2.167   2.174   0.557 -0.6339  0.0032  0.0481
  233MPD1    H6 3546   2.171   2.273   0.577  1.2069 -0.7146  3.1944
  233MPD1    H7 3547   2.088   2.148   0.498  2.1975 -0.0428 -3.7182
  234MPD1     C 3548   1.025   1.152   9.098  0.0318  0.3398 -0.2497
  234MPD1    C1 3549   1.128   1.213   9.174 -0.1818  0.1233  1.1744
  234MPD1    C2 3550   1.141   1.354   9.168 -0.4838 -0.4697 -0.3376
  234MPD1    C3 3551   1.043   1.434   9.114  0.2836 -0.3210 -0.0956
  234MPD1    C4 3552   0.936   1.371   9.042 -0.2299  0.9118  0.7572
  234MPD1    C5 3553   0.938   1.234   9.030 -0.1958 -0.3096  0.4457
  234MPD1     H 3554   1.228   1.400   9.212  0.1436 -0.2936 -1.7762
  234MPD1    H1 3555   0.849   1.424   9.006  0.5417 -0.0523 -2.5250
  234MPD1    H2 3556   1.005   1.046   9.089  1.3750 -0.1877  2.8213
  234MPD1    H3 3557   0.855   1.190   8.977  0.5301  1.0131 -1.7970
  234MPD1     N 3558   1.053   1.571   9.145  0.0777  0.0775 -0.3471
  234MPD1    H5 3559   1.141   1.600   9.188 -0.8291  0.5300  1.1981
  234MPD1    N1 3560   1.233   1.136   9.232 -0.0214 -0.0310  0.6174
  234MPD1    H6 3561   1.283   1.172   9.313  2.0133  1.2940 -1.2586
  234MPD1    H7 3562   1.191   1.052   9.271 -2.6213  0.7860 -0.4119
  235MPD1     C 3563   3.061   0.131  10.090  0.7490  0.0319  0.1829
  235MPD1    C1 3564   3.062   0.219   9.980 -0.1329  0.2060  0.2115
  235MPD1    C2 3565   2.941   0.253   9.910 -0.6741 -0.8126 -0.0099
  235MPD1    C3 3566   2.820   0.210   9.963 -0.4346  0.3405 -0.1630
  235MPD1    C4 3567   2.816   0.133  10.078 -0.1156  0.1657 -0.1283
  235MPD1    C5 3568   2.935   0.083  10.127  0.7120  0.1451  0.6857
  235MPD1     H 3569   2.941   0.322   9.826 -0.5899 -2.1928 -1.1226
  235MPD1    H1 3570   2.727   0.106  10.133 -1.6748  0.7011 -2.4185
  235MPD1    H2 3571   3.156   0.109  10.138  0.8780 -1.0434 -0.5551
  235MPD1    H3 3572   2.931   0.019  10.215 -0.6411 -1.6485 -0.6781
  235MPD1     N 3573   2.706   0.261   9.897  0.2270  0.1521  0.4424
  235MPD1    H5 3574   2.707   0.331   9.823  1.8364  1.3130  1.5680
  235MPD1    N1 3575   3.182   0.256   9.924 -0.1034  0.4669 -0.3495
  235MPD1    H6 3576   3.174   0.334   9.859 -0.3679 -0.3575 -1.3081
  235MPD1    H7 3577   3.263   0.264   9.986  0.0864  0.3991 -0.5875
  236MPD1     C 3578   1.999   0.641  10.478 -1.0515  0.6435 -0.0338
  236MPD1    C1 3579   1.993   0.521  10.413 -1.1109  0.3518  0.3389
  236MPD1    C2 3580   2.106   0.440  10.414 -0.3092  0.0738  0.1230
  236MPD1    C3 3581   2.222   0.485  10.471 -0.0443 -0.0227 -0.5341
  236MPD1    C4 3582   2.231   0.604  10.542 -0.1727  0.6241 -0.3814
  236MPD1    C5 3583   2.113   0.682  10.544  0.4919 -0.2799 -0.1577
  236MPD1     H 3584   2.104   0.356  10.346 -1.2863 -0.1798  0.4524
  236MPD1    H1 3585   2.318   0.638  10.596 -0.7406  1.5014 -0.0321
  236MPD1    H2 3586   1.906   0.695  10.486 -1.0396  0.4478  1.3570
  236MPD1    H3 3587   2.106   0.777  10.596 -2.0816 -0.2469 -0.5605
  236MPD1     N 3588   2.337   0.403  10.467  0.0733  0.1862  0.7889
  236MPD1    H5 3589   2.423   0.436  10.510 -0.2127 -1.5238  2.6858
  236MPD1    N1 3590   1.872   0.483  10.355 -0.0154 -0.1279 -0.9301
  236MPD1    H6 3591   1.835   0.572  10.322 -0.4058 -0.2685 -0.8813
  236MPD1    H7 3592   1.866   0.404  10.291  2.0761  0.3840 -1.7474
  237MPD1     C 3593   1.904   2.586  15.503  0.0641  0.5433  0.0660
  237MPD1    C1 3594   1.887   2.556  15.366  0.8522 -0.4370  1.3042
  237MPD1    C2 3595   1.762   2.536  15.321 -0.0273 -0.4470  0.5988
  237MPD1    C3 3596   1.650   2.563  15.402 -0.5050 -0.5925 -0.4732
  237MPD1    C4 3597   1.672   2.574  15.536  0.3217  0.9402 -0.1824
  237MPD1    C5 3598   1.801   2.579  15.586  0.3063 -0.7064  1.1084
  237MPD1     H 3599   1.738   2.511  15.218  2.2235 -0.2575  0.0417
  237MPD1    H1 3600   1.589   2.602  15.601  0.3942 -1.4212  0.9124
  237MPD1    H2 3601   1.999   2.610  15.549 -0.2312 -1.1683  1.5339
  237MPD1    H3 3602   1.815   2.596  15.692  0.1982  0.6800  0.9076
  237MPD1     N 3603   1.514   2.563  15.355 -0.2635  0.0095 -0.2202
  237MPD1    H5 3604   1.441   2.564  15.426  0.0132  1.8603  0.0453
  237MPD1    N1 3605   1.991   2.522  15.282  0.4168 -0.0802 -0.3969
  237MPD1    H6 3606   2.079   2.559  15.319 -0.1236  2.1874 -1.4115
  237MPD1    H7 3607   1.977   2.550  15.185  0.4726  2.2562  0.2698
  238MPD1     C 3608   3.463   1.334  15.075 -0.4965 -0.1289 -0.2552
  238MPD1    C1 3609   3.379   1.248  15.125  0.4882 -0.2050 -0.6748
  238MPD1    C2 3610   3.242   1.283  15.111  0.3371  0.6786 -0.3768
  238MPD1    C3 3611   3.195   1.394  15.039  0.3158  1.5667 -0.1970
  238MPD1    C4 3612   3.291   1.475  14.985  0.6849  0.2064  0.3826
  238MPD1    C5 3613   3.423   1.446  15.006 -0.5493 -1.1942  0.3432
  238MPD1     H 3614   3.175   1.206  15.148 -1.2819  2.9412  1.4328
  238MPD1    H1 3615   3.275   1.559  14.918 -0.9629 -2.1144 -2.1781
  238MPD1    H2 3616   3.569   1.320  15.088 -0.6086  0.7946  1.5838
  238MPD1    H3 3617   3.498   1.511  14.962  0.3763 -1.5780  1.3626
  238MPD1     N 3618   3.063   1.415  15.001 -0.8550  0.9171  0.1622
  238MPD1    H5 3619   3.046   1.486  14.931  1.2001  0.6433 -0.6358
  238MPD1    N1 3620   3.421   1.120  15.167 -0.1804  0.5111  0.5791
  238MPD1    H6 3621   3.351   1.056  15.203 -1.1619  1.4151  0.2944
  238MPD1    H7 3622   3.511   1.098  15.208  0.0171 -1.1208 -0.7448
  239MPD1     C 3623   3.736   2.615  14.858 -0.2904 -0.1808 -0.1119
  239MPD1    C1 3624   3.808   2.538  14.779 -0.2488 -0.2265  0.4511
  239MPD1    C2 3625   3.748   2.485  14.659  0.4497 -0.1510  0.5905
  239MPD1    C3 3626   3.625   2.536  14.624 -0.5366 -0.4779 -0.1621
  239MPD1    C4 3627   3.555   2.620  14.707 -0.1689 -0.3942  0.3627
  239MPD1    C5 3628   3.613   2.659  14.820 -0.2645 -0.0618 -0.3347
  239MPD1     H 3629   3.793   2.408  14.598 -0.0146 -0.6479  0.8711
  239MPD1    H1 3630   3.466   2.671  14.671  0.4712  0.7083  0.3437
  239MPD1    H2 3631   3.772   2.637  14.957 -1.8993  1.1383  0.1908
  239MPD1    H3 3632   3.561   2.730  14.883 -0.9618 -3.6555  3.1494
  239MPD1     N 3633   3.564   2.514  14.497  0.1389 -0.4041 -0.2908
  239MPD1    H5 3634   3.470   2.551  14.488  0.4414  0.5180  0.2617
  239MPD1    N1 3635   3.930   2.479  14.823  0.2565  0.0904  0.0102
  239MPD1    H6 3636   3.986   2.461  14.740  0.1914  1.7501 -0.3937
  239MPD1    H7 3637   3.991   2.540  14.877  0.5619  0.2602 -0.5342
  240MPD1     C 3638   2.398   2.623  13.506  0.0549  0.7652 -0.0396
  240MPD1    C1 3639   2.315   2.542  13.572  0.0332 -0.3110 -0.4193
  240MPD1    C2 3640   2.374   2.456  13.653 -0.4023  0.6820 -0.0608
  240MPD1    C3 3641   2.512   2.462  13.682 -0.5074 -0.0303 -0.4575
  240MPD1    C4 3642   2.595   2.546  13.611 -0.6970  0.0795 -0.8418
  240MPD1    C5 3643   2.532   2.634  13.533 -0.4326  0.1694  0.9927
  240MPD1     H 3644   2.313   2.377  13.694  0.0786  0.4652  0.2441
  240MPD1    H1 3645   2.702   2.555  13.619 -0.5629 -1.5921 -0.7173
  240MPD1    H2 3646   2.345   2.688  13.439 -1.1081 -0.9536 -0.7834
  240MPD1    H3 3647   2.602   2.690  13.473  0.1813 -1.2736  0.3681
  240MPD1     N 3648   2.562   2.364  13.768 -0.7007  0.1566  0.0576
  240MPD1    H5 3649   2.486   2.308  13.806 -1.4110  2.2671  1.7451
  240MPD1    N1 3650   2.178   2.535  13.543 -0.2149  0.0519  0.0405
  240MPD1    H6 3651   2.144   2.631  13.533 -0.3476  0.2379  2.3279
  240MPD1    H7 3652   2.129   2.496  13.623 -0.5168 -0.0676 -0.2011
  241MPD1     C 3653   3.399   1.818  13.919  0.0226  0.3638 -0.2750
  241MPD1    C1 3654   3.353   1.866  14.039  0.6290  0.0409  0.8361
  241MPD1    C2 3655   3.231   1.916  14.048 -0.3408 -0.4384  0.5734
  241MPD1    C3 3656   3.158   1.933  13.928  0.5885  0.3844 -0.2773
  241MPD1    C4 3657   3.208   1.899  13.803 -0.2366  0.9198 -0.0165
  241MPD1    C5 3658   3.328   1.830  13.803  0.0924 -1.2435  0.2583
  241MPD1     H 3659   3.186   1.953  14.140 -1.7589  2.5076 -1.3113
  241MPD1    H1 3660   3.168   1.914  13.704  2.2546  0.7379 -1.0250
  241MPD1    H2 3661   3.492   1.764  13.906 -1.4422 -2.4209  1.0499
  241MPD1    H3 3662   3.369   1.784  13.714  1.1887 -0.4228  0.3418
  241MPD1     N 3663   3.031   1.990  13.924  0.0904 -0.1685  0.0258
  241MPD1    H5 3664   2.991   1.992  13.831  1.6311 -0.3374 -0.6413
  241MPD1    N1 3665   3.421   1.837  14.161  0.1095  0.2330  0.0058
  241MPD1    H6 3666   3.397   1.901  14.236 -2.4044 -0.0979 -0.5317
  241MPD1    H7 3667   3.521   1.829  14.144 -0.1827  2.0308 -2.4714
  242MPD1     C 3668   2.089   0.273  16.206 -0.6493  0.0047  0.0976
  242MPD1    C1 3669   2.034   0.367  16.125  0.9468  0.4495 -0.5476
  242MPD1    C2 3670   2.052   0.349  15.990  0.8313  0.2917 -0.7776
  242MPD1    C3 3671   2.134   0.242  15.945 -0.5739 -0.6974  0.7464
  242MPD1    C4 3672   2.186   0.154  16.036 -0.0448  0.5972 -0.1745
  242MPD1    C5 3673   2.160   0.171  16.164  0.6050  0.1166  0.1333
  242MPD1     H 3674   2.005   0.418  15.920 -0.6329 -2.2402 -2.2740
  242MPD1    H1 3675   2.249   0.071  16.006 -0.3121  0.7775 -1.2012
  242MPD1    H2 3676   2.071   0.278  16.313  0.8326 -0.2285  0.3677
  242MPD1    H3 3677   2.210   0.105  16.234 -0.0494  0.4735  0.9348
  242MPD1     N 3678   2.171   0.236  15.811  0.2351  0.6103  0.1453
  242MPD1    H5 3679   2.247   0.174  15.783  1.1483  0.7678  2.2596
  242MPD1    N1 3680   1.978   0.489  16.170  0.7426  1.0097  0.4609
  242MPD1    H6 3681   1.929   0.477  16.258 -2.4145 -1.1991 -1.5998
  242MPD1    H7 3682   1.906   0.523  16.106 -0.1871  0.2393  1.1000
  243MPD1     C 3683   3.942   0.185   0.257 -0.1408 -0.4676 -0.6237
  243MPD1    C1 3684   3.920   0.047   0.250  0.1586 -0.4001 -0.4385
  243MPD1    C2 3685   3.964   4.699   0.142  0.7564  0.0547 -0.0795
  243MPD1    C3 3686   4.007   0.049   0.029  0.8342  0.9524  0.1049
  243MPD1    C4 3687   4.023   0.184   0.032  0.5749  0.8108  0.3833
  243MPD1    C5 3688   3.990   0.251   0.148 -0.2492 -0.0054 -0.4814
  243MPD1     H 3689   3.949   4.592   0.145 -1.8478  0.3868 -1.2649
  243MPD1    H1 3690   4.058   0.252  17.634 -0.2059  2.5573  1.5611
  243MPD1    H2 3691   3.915   0.253   0.337 -2.0520 -2.5287  0.4734
  243MPD1    H3 3692   3.988   0.360   0.151 -2.6128 -0.0702 -0.0123
  243MPD1     N 3693   4.035   4.684  17.594  0.1870  0.0594  0.2391
  243MPD1    H5 3694   4.033   4.584  17.610 -1.0959  0.4548  2.4637
  243MPD1    N1 3695   3.898   4.690   0.368 -0.5369 -0.3008 -0.2343
  243MPD1    H6 3696   3.869   4.595   0.351  1.4143 -0.8872 -0.2960
  243MPD1    H7 3697   3.840   0.019   0.436  1.4528 -0.1719  1.3958
  244MPD1     C 3698   4.337   3.790  17.307  1.1490  0.2740 -0.4018
  244MPD1    C1 3699   4.232   3.817  17.222 -0.0930  0.6701  0.4935
  244MPD1    C2 3700   4.194   3.944  17.208 -0.6291 -0.1320 -0.0241
  244MPD1    C3 3701   4.242   4.046  17.297 -0.0354 -0.0558  0.0467
  244MPD1    C4 3702   4.344   4.019  17.382  0.6904 -0.5801  0.0346
  244MPD1    C5 3703   4.394   3.889  17.384  0.7198  0.5232  0.2742
  244MPD1     H 3704   4.117   3.963  17.134  0.3175  4.0983  0.0851
  244MPD1    H1 3705   4.389   4.095  17.444 -0.0764  0.3919 -0.5977
  244MPD1    H2 3706   4.381   3.692  17.316  1.3796  0.5753  1.8156
  244MPD1    H3 3707   4.480   3.865  17.446  0.4211 -0.1978  0.4100
  244MPD1     N 3708   4.197   4.180  17.274  0.3718  0.1903  0.3093
  244MPD1    H5 3709   4.131   4.188  17.198  0.8071 -1.2312 -0.2214
  244MPD1    N1 3710   4.179   3.717  17.135 -0.1316 -0.4980  0.1464
  244MPD1    H6 3711   4.188   3.619  17.161 -1.3992 -0.6909 -0.1309
  244MPD1    H7 3712   4.083   3.725  17.103 -0.1411  1.5242  0.7157
  245MPD1     C 3713   0.811   4.220  13.337  0.0106  0.2091  0.0139
  245MPD1    C1 3714   0.852   4.249  13.463  0.1351 -0.1374 -0.3973
  245MPD1    C2 3715   0.920   4.366  13.475 -0.0475  0.2392  0.6465
  245MPD1    C3 3716   0.930   4.460  13.367  0.3537 -0.6618  0.4435
  245MPD1    C4 3717   0.896   4.416  13.240  1.1037  0.2291 -0.2648
  245MPD1    C5 3718   0.823   4.305  13.227 -0.3894 -0.2373 -0.2784
  245MPD1     H 3719   0.963   4.397  13.569  0.8590 -1.6493  0.8540
  245MPD1    H1 3720   0.920   4.477  13.154 -0.7515  1.0447 -0.1960
  245MPD1    H2 3721   0.791   4.116  13.312 -1.0517  0.1921  0.9374
  245MPD1    H3 3722   0.803   4.273  13.125 -0.4555 -0.0532 -0.3225
  245MPD1     N 3723   0.983   4.589  13.395 -0.3188  0.1658  0.2127
  245MPD1    H5 3724   1.013   4.604  13.490  0.6282  0.1334 -0.0849
  245MPD1    N1 3725   0.850   4.142  13.559 -0.1208  0.1663 -0.2134
  245MPD1    H6 3726   0.851   4.188  13.649  0.7419  0.6387 -0.4581
  245MPD1    H7 3727   0.760   4.096  13.562  0.1486 -0.3866 -0.5460
  246MPD1     C 3728   1.128   2.533   9.532 -0.3809 -0.6992 -0.3265
  246MPD1    C1 3729   1.154   2.547   9.398 -0.8392  0.9114  0.5396
  246MPD1    C2 3730   1.191   2.437   9.333 -0.6823 -0.0802  0.5627
  246MPD1    C3 3731   1.220   2.315   9.396  0.2330  0.1602  0.3323
  246MPD1    C4 3732   1.199   2.305   9.531 -0.3561  1.2556 -0.0727
  246MPD1    C5 3733   1.144   2.411   9.594  0.2472  0.5872  0.1828
  246MPD1     H 3734   1.200   2.442   9.225 -1.2752 -1.1306  0.4677
  246MPD1    H1 3735   1.191   2.217   9.593  0.8321  1.2356  0.0635
  246MPD1    H2 3736   1.082   2.613   9.590 -3.6740 -2.1907 -0.8740
  246MPD1    H3 3737   1.115   2.391   9.697  0.5417 -2.3379 -0.2903
  246MPD1     N 3738   1.260   2.210   9.307 -0.6396  0.0918  0.1617
  246MPD1    H5 3739   1.250   2.231   9.208 -0.1122  0.5131  0.2005
  246MPD1    N1 3740   1.117   2.662   9.337  0.1845  0.2804 -0.4579
  246MPD1    H6 3741   1.129   2.744   9.396 -0.8411  2.4371 -3.2543
  246MPD1    H7 3742   1.171   2.679   9.252 -0.3692 -2.7968 -1.4449
  247MPD1     C 3743   0.550   0.105  15.456  0.0340  0.8990  0.9087
  247MPD1    C1 3744   0.584   0.156  15.577 -0.3597 -0.3296 -0.0771
  247MPD1    C2 3745   0.629   0.073  15.676 -0.0484  0.0186  0.3197
  247MPD1    C3 3746   0.664   4.665  15.649 -0.1087 -0.6482  0.2115
  247MPD1    C4 3747   0.629   4.613  15.527 -0.3496 -0.7018 -0.4746
  247MPD1    C5 3748   0.575   4.692  15.430 -0.3054  0.4521  0.7262
  247MPD1     H 3749   0.642   0.113  15.776 -1.4274 -2.5801  1.5521
  247MPD1    H1 3750   0.657   4.512  15.501 -1.9242 -1.6367  1.4722
  247MPD1    H2 3751   0.505   0.165  15.378  0.1531 -1.2237 -0.7725
  247MPD1    H3 3752   0.543   4.661  15.331 -1.8567  0.2204  1.2968
  247MPD1     N 3753   0.712   4.572  15.750  0.1802  0.3292 -0.5707
  247MPD1    H5 3754   0.747   4.479  15.726  0.1522  1.1204 -3.6756
  247MPD1    N1 3755   0.545   0.285  15.606 -0.5869  0.2498 -0.5993
  247MPD1    H6 3756   0.546   0.351  15.529  1.2381 -0.5589 -1.2498
  247MPD1    H7 3757   0.607   0.334  15.669  0.9881  0.6333 -2.4646
  248MPD1     C 3758   1.088   3.651   0.518  0.8064 -0.0496  0.3558
  248MPD1    C1 3759   1.155   3.642   0.639 -0.2914  0.0360 -0.0460
  248MPD1    C2 3760   1.131   3.738   0.732  0.6914  0.1046 -0.3152
  248MPD1    C3 3761   1.045   3.845   0.712 -0.3648  0.0295  0.1376
  248MPD1    C4 3762   0.979   3.853   0.589  0.4314 -0.3331 -0.4596
  248MPD1    C5 3763   1.005   3.759   0.503 -0.3782 -0.1989 -1.0011
  248MPD1     H 3764   1.173   3.740   0.832 -1.1588 -0.0463  0.4598
  248MPD1    H1 3765   0.902   3.923   0.559  0.5076  0.1768  0.5313
  248MPD1    H2 3766   1.095   3.577   0.439  0.3796  1.8816 -1.4887
  248MPD1    H3 3767   0.954   3.763   0.407 -0.0917  0.2050 -1.1353
  248MPD1     N 3768   1.015   3.931   0.823  0.4696 -0.0885 -0.2812
  248MPD1    H5 3769   1.042   3.910   0.919 -0.3974  1.6325  0.3485
  248MPD1    N1 3770   1.208   3.517   0.684 -0.3747  0.1331 -0.3222
  248MPD1    H6 3771   1.292   3.525   0.742 -2.4750 -1.1086  2.8632
  248MPD1    H7 3772   1.224   3.446   0.613 -1.1752 -0.6701  0.3118
  249MPD1     C 3773   3.186   1.690  10.855 -0.2764 -0.6263 -0.7417
  249MPD1    C1 3774   3.288   1.634  10.784  0.5615  0.6778  0.1104
  249MPD1    C2 3775   3.371   1.712  10.705  0.3343  0.0536 -0.4181
  249MPD1    C3 3776   3.354   1.846  10.689 -0.5583 -0.2292 -0.0778
  249MPD1    C4 3777   3.256   1.898  10.762  0.2463 -1.3084 -0.2720
  249MPD1    C5 3778   3.178   1.827  10.850 -0.5051  0.5624 -0.3970
  249MPD1     H 3779   3.442   1.670  10.634 -0.4799  0.9506 -1.7563
  249MPD1    H1 3780   3.259   2.006  10.772 -0.5545 -1.1855 -1.3642
  249MPD1    H2 3781   3.128   1.624  10.918  0.0011 -2.7803 -2.7172
  249MPD1    H3 3782   3.108   1.878  10.914  0.5907  1.1207  0.3622
  249MPD1     N 3783   3.437   1.920  10.609 -0.5654  0.1802  0.3923
  249MPD1    H5 3784   3.524   1.877  10.579 -1.2860 -0.9933  0.0206
  249MPD1    N1 3785   3.298   1.494  10.783 -0.0902  0.2734  0.6570
  249MPD1    H6 3786   3.255   1.439  10.858  2.2165 -2.6948 -0.1948
  249MPD1    H7 3787   3.393   1.460  10.770 -0.6184 -0.2320 -1.8842
  250MPD2     C 3788   4.010   2.807  12.908 -0.0744 -0.8458 -0.0878
  250MPD2    C1 3789   4.027   2.909  12.813  0.0763  1.0884  0.4498
  250MPD2    C2 3790   4.003   2.888  12.679 -0.2881  0.3633  0.1077
  250MPD2    C3 3791   3.953   2.764  12.644  0.2928  0.1758 -0.2303
  250MPD2    C4 3792   3.915   2.670  12.739  0.3576 -0.2525 -0.0787
  250MPD2    C5 3793   3.952   2.684  12.867 -0.8844  0.2262 -0.1694
  250MPD2     H 3794   4.021   2.976  12.617  0.4925 -0.3015 -0.6180
  250MPD2    H1 3795   3.851   2.590  12.702 -0.5833 -0.0727  1.1610
  250MPD2    H2 3796   4.047   2.817  13.009 -0.7499  2.7404 -0.2097
  250MPD2    H3 3797   3.921   2.607  12.937  1.0594  0.3943  0.8789
  250MPD2     N 3798   3.916   2.740  12.508  0.0328  0.3406  0.5425
  250MPD2    H5 3799   3.865   2.653  12.493  3.4079 -1.1423 -2.4582
  250MPD2    N1 3800   4.061   3.043  12.846  0.4190  0.2843 -0.3292
  250MPD2    H7 3801   4.064   3.109  12.768 -1.2573  1.1854  0.3789
  251TMC3    C1 3802   4.139   3.221  12.953 -0.6645  0.0534  0.6353
  251TMC3    C2 3803   4.104   3.303  13.053  0.2610  0.7121 -0.1399
  251TMC3    C3 3804   4.138   3.435  13.037  0.3022 -0.5412 -0.3408
  251TMC3    C4 3805   4.212   3.259  12.853 -0.3404 -0.4213  0.7601
  251TMC3    C5 3806   4.266   3.382  12.845 -0.1858  0.1150 -0.5420
  251TMC3    C6 3807   4.223   3.475  12.935 -0.1834 -0.1547 -0.4073
  251TMC3     C 3808   4.094   3.086  12.969 -0.4242  0.0451  0.9479
  251TMC3     O 3809   4.091   3.030  13.075 -0.3469 -0.4645  0.7393
  251TMC3     H 3810   4.062   3.264  13.145  1.4301 -1.6655 -0.6342
  251TMC3    H1 3811   4.251   3.185  12.783 -0.3814 -0.7988  1.1327
  251TMC3    H2 3812   4.275   3.570  12.942 -0.7692  0.1466 -0.0962
  251TMC3    C7 3813   4.406   3.375  12.829 -0.5808 -0.2601 -0.6995
  251TMC3    C8 3814   4.152   3.512  13.156  1.3608  0.1261 -0.5279
  251TMC3    O1 3815   4.463   3.311  12.915  0.0004  0.2135 -0.3231
  251TMC3    O2 3816   4.120   3.627  13.141 -0.2545 -0.1541  0.1941
  252TMC3    C1 3817   0.339   4.423   8.859  0.6706  0.0524  0.1530
  252TMC3    C2 3818   0.473   4.423   8.887 -0.5085  0.6878  0.2382
  252TMC3    C3 3819   0.518   4.383   9.012 -0.1368  0.4492 -0.3837
  252TMC3    C4 3820   0.252   4.350   8.943  0.4019 -0.0940 -0.7469
  252TMC3    C5 3821   0.302   4.306   9.062 -0.4221  0.5293 -0.0049
  252TMC3    C6 3822   0.428   4.325   9.100 -0.0210 -0.8883 -0.5814
  252TMC3     C 3823   0.298   4.509   8.750  0.1068 -0.1927  0.0679
  252TMC3     O 3824   0.377   4.601   8.719  0.1616 -0.4713  0.1165
  252TMC3     H 3825   0.550   4.458   8.818 -1.0775  0.3783 -0.5458
  252TMC3    H1 3826   0.145   4.347   8.921  0.2139  0.5783  0.0613
  252TMC3    H2 3827   0.453   4.309   9.204 -0.7029 -2.0170 -0.5874
  252TMC3    C7 3828   0.208   4.241   9.157  0.0488 -0.3023 -0.6804
  252TMC3    C8 3829   0.638   4.431   9.081  0.2244 -0.2934  0.4635
  252TMC3    O1 3830   0.090   4.262   9.132 -0.3461 -0.0996 -0.1713
  252TMC3    O2 3831   0.665   4.374   9.183  0.3728  0.8330  0.4188
  253MPD2     C 3832   0.625   2.646  15.126 -0.1060 -0.1925 -0.3477
  253MPD2    C1 3833   0.485   2.649  15.124  0.4623  0.3316  0.5261
  253MPD2    C2 3834   0.419   2.649  15.241 -0.3779  0.5104 -0.2469
  253MPD2    C3 3835   0.490   2.672  15.361 -0.3023 -0.9234  0.2460
  253MPD2    C4 3836   0.627   2.671  15.363 -0.1675  0.5654 -1.1117
  253MPD2    C5 3837   0.693   2.649  15.245 -0.6475 -0.1674  0.1266
  253MPD2     H 3838   0.313   2.627  15.246 -0.6205  1.9424  0.7354
  253MPD2    H1 3839   0.674   2.687  15.460 -0.3962  0.2521 -0.9482
  253MPD2    H2 3840   0.686   2.645  15.036 -0.8378  2.2046 -0.8452
  253MPD2    H3 3841   0.801   2.644  15.244 -0.6521 -0.6610  2.8946
  253MPD2     N 3842   0.423   2.696  15.484  0.0752 -0.4985  0.3718
  253MPD2    H5 3843   0.479   2.703  15.568  1.4988 -2.0532 -0.4590
  253MPD2    N1 3844   0.412   2.629  15.008 -0.5180  0.3657  0.2594
  253MPD2    H7 3845   0.312   2.648  15.017 -0.6086  0.2046 -0.4130
  254TMC3    C1 3846   0.250   2.764  15.631 -0.2284  0.3429 -0.4927
  254TMC3    C2 3847   0.152   2.859  15.649  0.0961  0.1716 -0.1268
  254TMC3    C3 3848   0.132   2.914  15.766 -0.1116  0.6631  0.3325
  254TMC3    C4 3849   0.327   2.717  15.735  0.7201  0.2487  0.2368
  254TMC3    C5 3850   0.291   2.767  15.856 -0.2814 -0.1239 -0.0690
  254TMC3    C6 3851   0.192   2.860  15.878  0.1300  0.5057  0.0407
  254TMC3     C 3852   0.289   2.729  15.494  0.0622 -0.4013  0.0654
  254TMC3     O 3853   0.206   2.748  15.405 -0.4611 -0.6202  0.6713
  254TMC3     H 3854   0.092   2.894  15.566  0.2116  0.7304  0.0235
  254TMC3    H1 3855   0.407   2.645  15.721 -0.9251 -1.6821  0.7658
  254TMC3    H2 3856   0.170   2.886  15.981 -1.5948  0.8828 -0.4265
  254TMC3    C7 3857   0.367   2.727  15.970 -0.2082 -0.0795 -0.0339
  254TMC3    C8 3858   0.015   2.992  15.784 -0.2743  0.3987  0.1046
  254TMC3    O1 3859   0.393   2.807  16.058 -0.0965 -0.4192  0.4802
  254TMC3    O2 3860   4.655   2.997  15.689 -0.4791  0.1022  0.1633
  255MPD2     C 3861   0.315   1.145  10.300 -0.2593 -0.2650  0.5794
  255MPD2    C1 3862   0.325   1.266  10.233  0.0203 -0.1853  0.5555
  255MPD2    C2 3863   0.333   1.273  10.093 -0.0473 -0.0380  0.6397
  255MPD2    C3 3864   0.318   1.151  10.028 -0.3173  0.9437 -0.1957
  255MPD2    C4 3865   0.301   1.036  10.095  0.6811  0.3990  0.3692
  255MPD2    C5 3866   0.298   1.034  10.229 -0.6155 -0.2400 -0.2208
  255MPD2     H 3867   0.348   1.368  10.042  0.6504 -1.5298 -1.9708
  255MPD2    H1 3868   0.317   0.940  10.045 -0.3198  0.3477  0.1486
  255MPD2    H2 3869   0.313   1.133  10.407  1.7405  1.0210  0.7650
  255MPD2    H3 3870   0.287   0.943  10.288  0.5835 -0.3915 -0.2202
  255MPD2     N 3871   0.316   1.148   9.881 -0.1089  0.6973 -0.8405
  255MPD2    H5 3872   0.340   1.236   9.839 -0.0495  0.2765 -1.6793
  255MPD2    N1 3873   0.340   1.385  10.306 -0.7604  0.0829  0.2542
  255MPD2    H7 3874   0.315   1.472  10.259 -0.1922 -0.2939 -0.7631
  256TMC3    C1 3875   0.351   1.523  10.492  0.9227  1.0166  0.3186
  256TMC3    C2 3876   0.393   1.616  10.403 -0.3067  0.2000 -0.1315
  256TMC3    C3 3877   0.306   1.720  10.371  0.2144 -0.1447 -0.8662
  256TMC3    C4 3878   0.224   1.533  10.543  0.1856 -0.6539  0.5014
  256TMC3    C5 3879   0.141   1.637  10.508 -0.3955 -0.0576 -0.1439
  256TMC3    C6 3880   0.181   1.735  10.426  0.0367  0.0290 -0.4208
  256TMC3     C 3881   0.375   1.388  10.439  0.6212 -0.0908 -0.6838
  256TMC3     O 3882   0.413   1.297  10.515  0.4121  0.3863  0.5815
  256TMC3     H 3883   0.490   1.605  10.357 -0.5098 -1.4276 -0.1542
  256TMC3    H1 3884   0.169   1.446  10.578 -1.5156  0.2271  0.0337
  256TMC3    H2 3885   0.107   1.811  10.401 -0.8126 -0.9881 -0.9990
  256TMC3    C7 3886   0.011   1.593  10.467  0.0391 -0.4699  0.0126
  256TMC3    C8 3887   0.321   1.749  10.228 -0.1857  0.0461  0.2053
  256TMC3    O1 3888   4.707   1.582  10.347  0.0522 -0.3755 -0.2912
  256TMC3    O2 3889   0.369   1.665  10.153 -0.0108 -0.2049  0.3677
  257MPD2     C 3890   3.449   3.214  13.062  0.1316  0.3241 -0.4575
  257MPD2    C1 3891   3.371   3.125  12.993  0.2107  0.1249  0.2419
  257MPD2    C2 3892   3.321   3.015  13.059  0.4660 -0.5404 -0.1454
  257MPD2    C3 3893   3.345   2.995  13.188  0.6852 -0.2506 -0.7581
  257MPD2    C4 3894   3.420   3.087  13.258  0.1276  0.3061  0.0831
  257MPD2    C5 3895   3.472   3.199  13.195  0.1725 -0.1017  0.1107
  257MPD2     H 3896   3.256   2.941  13.013  1.4843 -0.2129 -2.0994
  257MPD2    H1 3897   3.439   3.085  13.365  3.4776  2.2624 -0.4637
  257MPD2    H2 3898   3.489   3.301  13.011 -2.0002  2.0874  0.8582
  257MPD2    H3 3899   3.532   3.272  13.250  1.0215 -1.9667  1.6761
  257MPD2     N 3900   3.278   2.887  13.248 -0.1270  0.9106  0.2180
  257MPD2    H5 3901   3.200   2.852  13.192 -0.0621 -1.9020  1.8945
  257MPD2    N1 3902   3.351   3.159  12.852  0.6067 -0.8156 -0.5238
  257MPD2    H7 3903   3.394   3.242  12.811  0.3515 -0.3722  0.1105
  258TMC3    C1 3904   3.187   2.739  13.420 -0.1590  0.0347  0.1408
  258TMC3    C2 3905   3.074   2.711  13.337  0.2069  0.6247 -0.1789
  258TMC3    C3 3906   2.995   2.604  13.376 -0.3515  0.1201  0.2752
  258TMC3    C4 3907   3.217   2.665  13.529 -0.3572  0.4646  0.0496
  258TMC3    C5 3908   3.137   2.558  13.559  0.4129 -0.9659  0.6709
  258TMC3    C6 3909   3.028   2.526  13.477  0.6530  1.0573  0.3507
  258TMC3     C 3910   3.287   2.845  13.380  0.5189  0.0651  0.6141
  258TMC3     O 3911   3.383   2.864  13.462  0.5553 -0.6839  0.1513
  258TMC3     H 3912   3.058   2.770  13.247  1.7047  0.9023 -0.2759
  258TMC3    H1 3913   3.306   2.680  13.590 -0.2342 -0.0577  0.0046
  258TMC3    H2 3914   2.954   2.459  13.521 -0.3481  1.3997 -0.8041
  258TMC3    C7 3915   3.205   2.449  13.620 -0.2745  0.1533  0.8278
  258TMC3    C8 3916   2.868   2.590  13.316 -0.2258  0.1470 -0.0072
  258TMC3    O1 3917   3.237   2.462  13.740 -0.2764 -0.1487 -0.1157
  258TMC3    O2 3918   2.800   2.492  13.351  0.4556 -1.0616  0.2136
  259MPD2     C 3919   1.477   4.641   1.048 -0.1735  0.6088  0.0744
  259MPD2    C1 3920   1.594   4.581   1.070  0.0875 -0.1745 -0.4956
  259MPD2    C2 3921   1.667   4.546   0.958 -0.0240 -0.2220 -0.2451
  259MPD2    C3 3922   1.621   4.579   0.826 -0.0495  0.3209 -0.0257
  259MPD2    C4 3923   1.501   4.638   0.811  0.4187  0.4589 -0.1594
  259MPD2    C5 3924   1.432   4.667   0.925  0.0955  0.4431  0.3524
  259MPD2     H 3925   1.764   4.500   0.974  0.1687 -0.3501 -1.7444
  259MPD2    H1 3926   1.459   4.650   0.712  1.3752 -2.1795 -0.8689
  259MPD2    H2 3927   1.406   4.679   1.120 -0.1914  0.4112  0.1623
  259MPD2    H3 3928   1.333   4.709   0.911 -0.2980 -1.1071 -1.5408
  259MPD2     N 3929   1.706   4.544   0.720 -0.1196 -0.2265  0.2519
  259MPD2    H5 3930   1.794   4.506   0.753 -0.1122 -1.3189 -1.0291
  259MPD2    N1 3931   1.635   4.536   1.202 -0.0515 -0.5422 -0.5972
  259MPD2    H7 3932   1.569   4.551   1.278 -0.4238  0.4460 -1.1174
  260TMC3    C1 3933   1.796   4.514   0.498 -0.7680  0.7868 -0.3679
  260TMC3    C2 3934   1.805   4.555   0.366 -0.0618  0.3698 -0.0066
  260TMC3    C3 3935   1.917   4.511   0.293  0.6150 -0.1777  0.7398
  260TMC3    C4 3936   1.906   4.447   0.560  0.3442  0.0402  0.3405
  260TMC3    C5 3937   2.002   4.390   0.476  0.2238  0.5168  0.8362
  260TMC3    C6 3938   2.011   4.422   0.343  0.4802  0.0950  0.2704
  260TMC3     C 3939   1.691   4.572   0.586 -0.4044 -0.5590  0.1704
  260TMC3     O 3940   1.612   4.640   0.525  0.3139 -0.4941 -0.2190
  260TMC3     H 3941   1.738   4.626   0.319  0.0425 -1.6241 -3.1450
  260TMC3    H1 3942   1.900   4.416   0.664  1.5191 -2.7275 -0.4282
  260TMC3    H2 3943   2.089   4.383   0.279 -1.0548 -0.5618 -1.2119
  260TMC3    C7 3944   2.086   4.279   0.531 -0.4620  0.3723  0.3614
  260TMC3    C8 3945   1.934   4.557   0.154  0.5153 -0.2839 -0.7955
  260TMC3    O1 3946   2.111   4.275   0.653 -0.2932 -0.0671 -0.0878
  260TMC3    O2 3947   1.846   4.621   0.096  0.3809 -0.1323 -0.0684
  261MPD2     C 3948   3.942   3.049  11.726  0.2162  0.0556 -0.6549
  261MPD2    C1 3949   3.930   3.092  11.854  0.0599  1.2053 -1.0864
  261MPD2    C2 3950   3.990   3.204  11.891 -0.2571  0.2102 -0.3004
  261MPD2    C3 3951   4.048   3.287  11.799  0.5713 -0.1814  0.4525
  261MPD2    C4 3952   4.054   3.249  11.668 -0.2674 -0.5413  0.1281
  261MPD2    C5 3953   4.004   3.127  11.629  0.0889 -0.8882  0.8295
  261MPD2     H 3954   3.978   3.230  11.995 -0.3285  0.9023 -0.4830
  261MPD2    H1 3955   4.078   3.317  11.587  5.7802 -0.0822  2.2838
  261MPD2    H2 3956   3.900   2.954  11.693 -0.7085  0.0214  0.6354
  261MPD2    H3 3957   4.008   3.088  11.528 -0.0499  0.5164  0.2887
  261MPD2     N 3958   4.096   3.412  11.847 -0.3400  0.0437 -0.5429
  261MPD2    H5 3959   4.082   3.441  11.943  0.0160 -0.2220 -0.4093
  261MPD2    N1 3960   3.858   3.025  11.953  0.2922  0.1994 -0.4795
  261MPD2    H7 3961   3.855   3.071  12.043  0.7955  1.8216 -1.2966
  262TMC3    C1 3962   4.193   3.629  11.831 -0.1047  0.7872  0.0372
  262TMC3    C2 3963   4.098   3.706  11.894 -0.3897 -0.1290 -0.1643
  262TMC3    C3 3964   4.139   3.825  11.940  0.1132 -0.2173  0.3201
  262TMC3    C4 3965   4.322   3.669  11.815 -0.6832  0.0316 -0.8047
  262TMC3    C5 3966   4.359   3.783  11.867  0.1133 -0.8240  0.1825
  262TMC3    C6 3967   4.270   3.858  11.934  0.2445 -0.1375 -0.6179
  262TMC3     C 3968   4.168   3.498  11.766  0.4974  0.8554 -0.4072
  262TMC3     O 3969   4.231   3.476  11.664  0.4180 -0.1293 -0.4201
  262TMC3     H 3970   3.991   3.692  11.881 -0.4975  2.7537 -2.4773
  262TMC3    H1 3971   4.396   3.620  11.752  2.1204  0.2595  2.3029
  262TMC3    H2 3972   4.299   3.937  12.002 -0.2647 -0.6666  0.2053
  262TMC3    C7 3973   4.499   3.827  11.845 -0.0060  0.5724 -0.0977
  262TMC3    C8 3974   4.044   3.927  11.974 -0.3650  0.0260 -0.6743
  262TMC3    O1 3975   4.569   3.770  11.764  0.3644  0.7430 -0.1363
  262TMC3    O2 3976   4.091   4.038  11.985  0.2228 -0.5304 -0.1898
  263MPD2     C 3977   0.223   2.034  11.433 -0.9067 -0.1906 -0.4139
  263MPD2    C1 3978   0.339   2.084  11.388 -0.7288 -0.3681  0.3231
  263MPD2    C2 3979   0.342   2.129  11.259  0.3996  0.2190 -0.3219
  263MPD2    C3 3980   0.229   2.148  11.186  0.6021  0.1743 -0.0896
  263MPD2    C4 3981   0.112   2.099  11.238 -0.1559 -0.2166  0.3007
  263MPD2    C5 3982   0.106   2.033  11.361  0.1837 -0.3695 -0.4268
  263MPD2     H 3983   0.433   2.171  11.219  0.4456  0.0100 -0.4390
  263MPD2    H1 3984   0.013   2.097  11.192  0.7864  1.1522 -1.7603
  263MPD2    H2 3985   0.213   1.983  11.529 -0.0877 -0.3673 -0.4288
  263MPD2    H3 3986   0.013   1.986  11.388 -0.5773  2.4274  1.7947
  263MPD2     N 3987   0.231   2.225  11.060  0.4253 -0.0225  0.0451
  263MPD2    H5 3988   0.321   2.241  11.016  2.1395 -2.7668  2.5618
  263MPD2    N1 3989   0.445   2.086  11.473  0.0714  0.2316 -0.1824
  263MPD2    H7 3990   0.423   2.041  11.562 -0.2711  0.5193 -0.1191
  264TMC3    C1 3991   0.151   2.362  10.895 -0.5819 -0.0196 -0.4311
  264TMC3    C2 3992   0.063   2.468  10.883 -0.4326  0.0217  0.5386
  264TMC3    C3 3993   0.078   2.549  10.781 -0.1237 -0.2095  0.3394
  264TMC3    C4 3994   0.260   2.346  10.811  0.0768  0.5343  0.5069
  264TMC3    C5 3995   0.273   2.433  10.703  0.1036 -0.3480 -0.4014
  264TMC3    C6 3996   0.178   2.534  10.691 -0.2448  0.4078 -0.3790
  264TMC3     C 3997   0.116   2.267  10.995  0.2338  0.2164 -1.2734
  264TMC3     O 3998   0.002   2.268  11.039  0.2980  0.2723 -0.4644
  264TMC3     H 3999   4.706   2.487  10.957 -1.0122  0.9404 -0.3007
  264TMC3    H1 4000   0.331   2.264  10.815  1.1758  1.4617 -0.0772
  264TMC3    H2 4001   0.183   2.603  10.607  1.8811 -0.0811 -0.6534
  264TMC3    C7 4002   0.404   2.463  10.660  0.2726 -0.7434 -0.3049
  264TMC3    C8 4003   0.066   2.690  10.831 -0.5202 -0.0607 -1.2667
  264TMC3    O1 4004   0.427   2.463  10.543 -0.5279 -0.1543 -0.2612
  264TMC3    O2 4005   4.682   2.714  10.890 -0.2600 -0.0340 -0.3132
  265MPD2     C 4006   1.963   2.799  15.067 -0.3666  0.2489 -0.2794
  265MPD2    C1 4007   2.067   2.790  15.162 -0.1616 -0.0002  0.5432
  265MPD2    C2 4008   2.184   2.723  15.132  0.4159  0.1038  0.5162
  265MPD2    C3 4009   2.191   2.658  15.014  0.6764 -0.1706  0.4099
  265MPD2    C4 4010   2.091   2.660  14.918  0.0572 -0.6420  0.3441
  265MPD2    C5 4011   1.976   2.730  14.947  0.3756 -0.1582 -0.0936
  265MPD2     H 4012   2.271   2.728  15.196  0.5758  0.8290  0.2423
  265MPD2    H1 4013   2.100   2.605  14.825 -0.2416 -0.4267  0.1870
  265MPD2    H2 4014   1.867   2.850  15.076 -0.5326 -0.1453  0.2079
  265MPD2    H3 4015   1.896   2.733  14.875  0.2395  0.4725  0.0851
  265MPD2     N 4016   2.315   2.591  14.985 -0.1927  0.2560 -0.3065
  265MPD2    H5 4017   2.368   2.553  15.063  0.7252  0.3912 -0.8632
  265MPD2    N1 4018   2.062   2.857  15.287  0.2105 -0.2667 -0.0915
  265MPD2    H7 4019   2.143   2.844  15.346  0.1904  0.3859  0.0783
  266TMC3    C1 4020   1.965   2.947  15.478  0.2819  0.0363  0.0441
  266TMC3    C2 4021   1.856   2.958  15.554 -1.0036 -1.4439 -0.2268
  266TMC3    C3 4022   1.855   3.054  15.651 -0.3297  0.4590  0.2978
  266TMC3    C4 4023   2.065   3.045  15.486 -0.1549  0.2052 -0.2353
  266TMC3    C5 4024   2.052   3.153  15.564 -0.5487  0.5287 -0.6158
  266TMC3    C6 4025   1.944   3.160  15.653  0.2578 -0.7308 -0.0532
  266TMC3     C 4026   1.946   2.901  15.346  0.4695 -0.3067 -0.4510
  266TMC3     O 4027   1.832   2.907  15.301  0.5668 -0.6766 -0.0268
  266TMC3     H 4028   1.778   2.882  15.554 -1.1285 -1.3188  0.3568
  266TMC3    H1 4029   2.127   3.053  15.397  1.1027  1.0979  0.7322
  266TMC3    H2 4030   1.933   3.253  15.707  0.3788 -0.1469 -1.0345
  266TMC3    C7 4031   2.069   3.274  15.492 -0.0058  0.2504 -0.0391
  266TMC3    C8 4032   1.731   3.066  15.729  0.3654 -0.5003 -0.4554
  266TMC3    O1 4033   2.062   3.270  15.371  0.0009  0.4046  0.2083
  266TMC3    O2 4034   1.624   3.019  15.681 -0.6803 -0.5345  0.0635
  267MPD2     C 4035   3.721   0.125   1.053 -0.2613  0.2326  0.3389
  267MPD2    C1 4036   3.799   0.095   0.941 -0.8596  0.2319 -0.2400
  267MPD2    C2 4037   3.737   0.109   0.817  0.3902 -0.9523  0.0287
  267MPD2    C3 4038   3.612   0.162   0.803  0.5833  0.1133 -0.2206
  267MPD2    C4 4039   3.533   0.184   0.913 -0.0123  0.2680 -0.1421
  267MPD2    C5 4040   3.589   0.160   1.031 -0.2112  0.2572  0.2249
  267MPD2     H 4041   3.790   0.085   0.725 -0.1355  1.4366 -0.9016
  267MPD2    H1 4042   3.435   0.229   0.925 -0.4981 -1.0721  0.9870
  267MPD2    H2 4043   3.746   0.093   1.154 -0.6603  0.1072  0.3985
  267MPD2    H3 4044   3.532   0.177   1.122 -0.1134 -0.3580  0.4037
  267MPD2     N 4045   3.559   0.202   0.677  0.3137 -0.1675 -0.3652
  267MPD2    H5 4046   3.466   0.242   0.678 -0.0018 -0.9765  2.1857
  267MPD2    N1 4047   3.925   0.029   0.958  0.2274  0.3044  0.2834
  267MPD2    H7 4048   3.952   0.014   1.055 -0.0620 -1.5112  0.0840
  268TMC3    C1 4049   4.113   4.613   0.901  0.1647 -0.3869  0.0301
  268TMC3    C2 4050   4.232   4.610   0.831  0.5986 -0.0959  0.1647
  268TMC3    C3 4051   4.306   4.494   0.835  0.5860 -0.1904  0.4403
  268TMC3    C4 4052   4.076   4.513   0.979 -0.0348 -0.2771  0.1754
  268TMC3    C5 4053   4.160   4.399   0.991  0.2176  0.3871 -0.3792
  268TMC3    C6 4054   4.277   4.394   0.915 -0.0044  0.1489 -0.2478
  268TMC3     C 4055   4.017   0.002   0.857 -0.3396 -0.0779  0.0443
  268TMC3     O 4056   4.022   0.047   0.747 -0.4673 -0.4001 -0.2531
  268TMC3     H 4057   4.253   4.697   0.770 -2.7979  1.2894  0.9543
  268TMC3    H1 4058   3.983   4.524   1.035 -1.2832  0.2141 -2.0089
  268TMC3    H2 4059   4.342   4.307   0.913 -1.6646 -1.1336  0.8434
  268TMC3    C7 4060   4.187   4.341   1.119 -0.3050 -0.5203 -0.2715
  268TMC3    C8 4061   4.420   4.480   0.753 -0.5618  0.6627  0.5877
  268TMC3    O1 4062   4.265   4.247   1.117 -0.1666 -0.3746 -0.5264
  268TMC3    O2 4063   4.513   4.408   0.796 -0.4125 -0.4230 -0.1269
  269MPD2     C 4064   4.691   3.294  15.473  0.0858 -1.1434 -0.5743
  269MPD2    C1 4065   4.548   3.308  15.492 -0.2934  0.2721 -0.1123
  269MPD2    C2 4066   4.492   3.419  15.432  0.2092  0.3178 -0.0467
  269MPD2    C3 4067   4.571   3.513  15.368 -0.1513  0.0937 -0.1972
  269MPD2    C4 4068   4.711   3.497  15.360  0.1164  0.3771  0.5286
  269MPD2    C5 4069   0.050   3.382  15.405  0.3102  0.0350  0.3463
  269MPD2     H 4070   4.387   3.438  15.447  0.3085 -0.6412  1.8280
  269MPD2    H1 4071   0.058   3.568  15.313  0.8867 -1.3864 -1.0357
  269MPD2    H2 4072   0.019   3.207  15.519 -1.2187 -1.4211  0.2353
  269MPD2    H3 4073   0.156   3.366  15.391  0.2250 -1.2123  1.1600
  269MPD2     N 4074   4.506   3.629  15.336 -0.4019 -0.1464  0.5988
  269MPD2    H5 4075   4.411   3.650  15.366 -0.3723 -1.4962  1.6334
  269MPD2    N1 4076   4.482   3.203  15.571  0.4568  0.2607  0.1216
  269MPD2    H7 4077   4.536   3.129  15.615 -0.2699  0.6951  1.7686
  270TMC3    C1 4078   4.284   3.060  15.607  0.0980  0.0658  0.1147
  270TMC3    C2 4079   4.155   3.065  15.634 -0.4448 -0.2850 -0.8467
  270TMC3    C3 4080   4.086   2.948  15.624 -0.4765 -0.5937  0.1764
  270TMC3    C4 4081   4.354   2.946  15.569 -0.2521  0.0503  0.3320
  270TMC3    C5 4082   4.285   2.824  15.564 -0.2127  0.0162  0.1205
  270TMC3    C6 4083   4.149   2.827  15.584  0.2546  0.2369 -0.7434
  270TMC3     C 4084   4.342   3.191  15.581  1.1819 -0.0270  0.3893
  270TMC3     O 4085   4.261   3.282  15.552  0.7376 -1.0806 -0.3044
  270TMC3     H 4086   4.109   3.152  15.680 -1.2977 -0.6814 -0.9390
  270TMC3    H1 4087   4.462   2.953  15.556 -0.3125 -0.5323 -0.5017
  270TMC3    H2 4088   4.101   2.730  15.587 -0.3741  0.5830  0.2377
  270TMC3    C7 4089   4.353   2.710  15.510 -0.1584 -0.4297 -0.4862
  270TMC3    C8 4090   3.943   2.951  15.655 -0.7088  0.6371  0.5225
  270TMC3    O1 4091   4.475   2.704  15.509 -0.0134  0.0671 -0.6225
  270TMC3    O2 4092   3.919   3.017  15.755  0.6854  0.0655  0.4555
  271MPD2     C 4093   3.809   2.764  13.804 -0.5054 -0.3253  0.3306
  271MPD2    C1 4094   3.734   2.811  13.910  0.2034 -0.3930 -0.1830
  271MPD2    C2 4095   3.623   2.892  13.885 -0.2831  0.0168 -0.5133
  271MPD2    C3 4096   3.588   2.930  13.756  0.0891 -0.0112 -0.4694
  271MPD2    C4 4097   3.667   2.884  13.650  1.0790  0.3961  0.0749
  271MPD2    C5 4098   3.773   2.798  13.674 -0.6765  0.1429  0.5173
  271MPD2     H 4099   3.580   2.943  13.971  1.5903  0.6854  0.0234
  271MPD2    H1 4100   3.651   2.931  13.554 -3.3447 -0.6515  0.2699
  271MPD2    H2 4101   3.897   2.706  13.829  0.0983  1.2597  1.8673
  271MPD2    H3 4102   3.831   2.771  13.587 -0.5074 -0.5419  0.8441
  271MPD2     N 4103   3.484   3.016  13.724  0.3132  0.3555  0.5659
  271MPD2    H5 4104   3.476   3.048  13.628  4.2571  0.5302  0.2994
  271MPD2    N1 4105   3.758   2.779  14.045 -0.4880  0.6721  0.4827
  271MPD2    H7 4106   3.695   2.824  14.110 -0.9465 -1.3291  1.3988
  272TMC3    C1 4107   3.877   2.721  14.239  0.1718 -0.1491 -0.9300
  272TMC3    C2 4108   3.982   2.652  14.293  0.4129  0.1433 -0.1389
  272TMC3    C3 4109   3.989   2.674  14.428  0.2629  0.6035 -0.1656
  272TMC3    C4 4110   3.789   2.796  14.313 -0.0412 -0.1726 -0.3718
  272TMC3    C5 4111   3.791   2.784  14.447 -0.6390  0.8812  0.1932
  272TMC3    C6 4112   3.895   2.734  14.511 -0.7076 -0.0584  0.2866
  272TMC3     C 4113   3.873   2.723  14.091 -0.8820 -0.4833  0.4270
  272TMC3     O 4114   3.967   2.687  14.026  0.4945 -0.4222  0.9713
  272TMC3     H 4115   4.044   2.586  14.234 -0.9124 -0.4295 -0.8854
  272TMC3    H1 4116   3.706   2.842  14.261 -1.0232 -0.6638  0.7755
  272TMC3    H2 4117   3.911   2.727  14.618 -0.2814 -0.4151  0.1989
  272TMC3    C7 4118   3.695   2.878  14.509 -0.2979  0.6214 -0.2801
  272TMC3    C8 4119   4.109   2.633  14.510  0.2018 -0.2256 -0.0929
  272TMC3    O1 4120   3.601   2.915  14.436  0.2235 -0.4353  0.1496
  272TMC3    O2 4121   4.130   2.712  14.598 -0.4521 -0.4593 -0.2032
  273MPD2     C 4122   1.032   1.003  12.102  0.2118  0.2473 -0.3384
  273MPD2    C1 4123   1.083   1.122  12.060  0.1926  0.1912 -0.2287
  273MPD2    C2 4124   1.052   1.168  11.932  0.0943 -0.0504 -0.1214
  273MPD2    C3 4125   0.952   1.102  11.853  0.2603  0.2821 -0.2765
  273MPD2    C4 4126   0.912   0.979  11.907  0.2356 -0.2892  0.3356
  273MPD2    C5 4127   0.942   0.935  12.034 -0.0188  0.4147  0.0480
  273MPD2     H 4128   1.085   1.264  11.894  0.0887 -0.2804 -0.7129
  273MPD2    H1 4129   0.856   0.909  11.846 -0.1841 -0.8712  1.3986
  273MPD2    H2 4130   1.060   0.962  12.198  2.8035 -2.3225 -2.1725
  273MPD2    H3 4131   0.926   0.830  12.057 -0.4630  0.6497  0.8332
  273MPD2     N 4132   0.905   1.156  11.728 -0.1169 -0.5350  0.2559
  273MPD2    H5 4133   0.956   1.238  11.699  1.9099 -1.1746  2.0019
  273MPD2    N1 4134   1.164   1.194  12.143 -0.9573 -0.5314 -0.8374
  273MPD2    H7 4135   1.161   1.175  12.242 -1.1205  1.2489 -0.4958
  274TMC3    C1 4136   0.788   1.198  11.519 -0.0494  0.2591 -0.5679
  274TMC3    C2 4137   0.670   1.186  11.452  0.4104 -0.4785  0.0088
  274TMC3    C3 4138   0.663   1.214  11.320 -0.4205  0.6821  0.1629
  274TMC3    C4 4139   0.902   1.229  11.456 -0.1345  0.1976  0.8703
  274TMC3    C5 4140   0.885   1.266  11.327 -0.0667  0.3668 -0.3228
  274TMC3    C6 4141   0.774   1.250  11.250  1.0892  0.4455  0.0117
  274TMC3     C 4142   0.796   1.120  11.644  0.1264  0.0562 -0.5565
  274TMC3     O 4143   0.707   1.034  11.669  0.1950 -0.3109  0.4669
  274TMC3     H 4144   0.587   1.139  11.504  0.2110  0.0371  0.1629
  274TMC3    H1 4145   1.002   1.234  11.499  0.1557 -0.5509  0.2789
  274TMC3    H2 4146   0.756   1.302  11.156  1.0060 -0.9102 -0.7291
  274TMC3    C7 4147   0.993   1.353  11.280  0.3784  0.1079 -0.3161
  274TMC3    C8 4148   0.534   1.269  11.266  0.4032  0.2253 -0.2147
  274TMC3    O1 4149   1.018   1.354  11.161  0.6037 -0.0195  0.4890
  274TMC3    O2 4150   0.465   1.319  11.353  0.2712 -0.0168 -0.7666
  275MPD2     C 4151   0.573   3.954  14.920 -0.2546 -0.0847  0.2942
  275MPD2    C1 4152   0.562   3.817  14.912  0.3541  0.1920  0.2824
  275MPD2    C2 4153   0.457   3.763  14.833 -0.3444 -0.5714 -0.2734
  275MPD2    C3 4154   0.363   3.840  14.769  0.0922  0.3091 -1.0276
  275MPD2    C4 4155   0.379   3.980  14.784  0.0778  0.3651  0.1671
  275MPD2    C5 4156   0.481   4.030  14.862 -0.3063 -0.2354  0.0867
  275MPD2     H 4157   0.441   3.656  14.827  1.6658 -0.8056 -1.0585
  275MPD2    H1 4158   0.302   4.048  14.750  1.1189  1.2381 -0.4256
  275MPD2    H2 4159   0.646   4.003  14.984  1.7426 -1.9466 -0.5464
  275MPD2    H3 4160   0.488   4.138  14.875 -0.5258 -0.3886  1.5016
  275MPD2     N 4161   0.252   3.790  14.699 -0.2263  0.0685  0.3993
  275MPD2    H5 4162   0.182   3.846  14.652  0.9148  0.8337 -0.3862
  275MPD2    N1 4163   0.663   3.725  14.964 -0.2260 -0.2314 -0.3039
  275MPD2    H7 4164   0.666   3.629  14.932  2.5254 -0.0785 -0.4873
  276TMC3    C1 4165   0.870   3.657  15.051 -0.4610 -0.0681 -0.5527
  276TMC3    C2 4166   0.890   3.580  14.938  0.1796  0.2703 -1.2102
  276TMC3    C3 4167   1.021   3.545  14.904 -0.4990 -0.2060  0.5561
  276TMC3    C4 4168   0.979   3.690  15.126 -0.1463 -0.0308  0.0720
  276TMC3    C5 4169   1.103   3.649  15.090  0.0361 -0.1985  0.3630
  276TMC3    C6 4170   1.134   3.584  14.978 -0.2482  0.1283  0.2502
  276TMC3     C 4171   0.767   3.760  15.048 -0.3755 -0.0969 -0.2958
  276TMC3     O 4172   0.764   3.859  15.120  0.1960  0.0975 -0.0354
  276TMC3     H 4173   0.809   3.545  14.875  1.4665 -1.3836 -1.9472
  276TMC3    H1 4174   0.971   3.759  15.210  0.3307  0.6312 -0.4250
  276TMC3    H2 4175   1.232   3.550  14.946 -0.5856 -1.8675  1.3789
  276TMC3    C7 4176   1.197   3.743  15.139 -0.2471 -0.0111 -0.1214
  276TMC3    C8 4177   1.037   3.437  14.803  0.1006 -0.3509  0.8777
  276TMC3    O1 4178   1.227   3.731  15.261  0.1590  0.6039  0.0657
  276TMC3    O2 4179   1.145   3.422  14.751  0.3270 -0.4145  0.1054
  277MPD2     C 4180   2.599   2.975  13.387  0.1586 -0.0021  0.1812
  277MPD2    C1 4181   2.468   2.993  13.418  0.4540 -0.4053 -0.9376
  277MPD2    C2 4182   2.424   2.959  13.542  0.0976  0.9954 -0.6171
  277MPD2    C3 4183   2.508   2.921  13.641  0.0184 -0.7482  1.4743
  277MPD2    C4 4184   2.645   2.910  13.616 -0.2839 -0.1928 -0.6127
  277MPD2    C5 4185   2.684   2.935  13.488  0.0982 -0.4742 -0.0250
  277MPD2     H 4186   2.322   2.977  13.574  0.2883  1.4224 -0.2486
  277MPD2    H1 4187   2.717   2.880  13.691 -0.2521  0.5819 -0.3296
  277MPD2    H2 4188   2.632   2.987  13.284  1.3724 -3.7507  0.1421
  277MPD2    H3 4189   2.790   2.924  13.467 -0.0510 -0.3457 -0.8455
  277MPD2     N 4190   2.443   2.874  13.755 -0.5043  0.8828  0.1101
  277MPD2    H5 4191   2.344   2.895  13.758 -0.8672 -0.5039 -2.2213
  277MPD2    N1 4192   2.386   3.049  13.318 -0.7231  0.1788 -0.3501
  277MPD2    H7 4193   2.436   3.062  13.230 -1.0327 -0.2430 -0.5892
  278TMC3    C1 4194   2.398   2.761  13.949 -0.6790 -0.4905  0.3524
  278TMC3    C2 4195   2.372   2.634  13.967 -0.0308 -0.5111  0.1971
  278TMC3    C3 4196   2.237   2.601  13.976 -0.4636  0.0238  0.2788
  278TMC3    C4 4197   2.300   2.854  13.939  0.5801 -0.4122  0.2323
  278TMC3    C5 4198   2.166   2.817  13.934  0.9296  0.1009 -0.3583
  278TMC3    C6 4199   2.136   2.682  13.959 -0.4043 -0.0614  0.0699
  278TMC3     C 4200   2.498   2.785  13.849 -0.7037 -0.0076 -0.8379
  278TMC3     O 4201   2.619   2.773  13.870 -0.0216  0.3091 -0.0554
  278TMC3     H 4202   2.454   2.565  13.985 -0.2830 -1.5607 -2.5756
  278TMC3    H1 4203   2.333   2.957  13.949 -2.0809  0.4277  0.3856
  278TMC3    H2 4204   2.032   2.653  13.966 -0.8461  1.5488  0.0250
  278TMC3    C7 4205   2.072   2.926  13.884  0.3122 -0.3698  0.3716
  278TMC3    C8 4206   2.216   2.460  13.954  0.6531 -0.2666 -0.1077
  278TMC3    O1 4207   2.128   3.038  13.865 -0.0468 -0.6244  0.1902
  278TMC3    O2 4208   2.303   2.380  13.981 -0.9138  0.3238  0.0960
  279MPD2     C 4209   0.976   2.670  17.314  0.4523  0.2129  0.1696
  279MPD2    C1 4210   1.085   2.699  17.397 -0.1540 -0.5227  0.2079
  279MPD2    C2 4211   1.196   2.765  17.339 -0.0932 -0.2998 -0.3837
  279MPD2    C3 4212   1.195   2.806  17.210 -0.2359 -0.2723 -0.7423
  279MPD2    C4 4213   1.079   2.790  17.135 -0.1292  0.2423 -0.5439
  279MPD2    C5 4214   0.977   2.711  17.182 -0.4622  0.9977  0.3577
  279MPD2     H 4215   1.284   2.789  17.399 -1.0644 -1.7789  1.6477
  279MPD2    H1 4216   1.077   2.825  17.032  2.9787  0.6818 -0.4680
  279MPD2    H2 4217   0.896   2.602  17.344  0.6959  0.8431  2.2241
  279MPD2    H3 4218   0.892   2.686  17.120  0.0235  0.1870  0.0103
  279MPD2     N 4219   1.302   2.871  17.151  0.9128  0.0251  0.2607
  279MPD2    H5 4220   1.284   2.898  17.054 -0.5458 -1.5024  0.1124
  279MPD2    N1 4221   1.073   2.670  17.532 -0.0156 -0.2013  0.8364
  279MPD2    H7 4222   0.985   2.629  17.560 -2.2665  1.3140 -4.0009
  280TMC3    C1 4223   1.121   2.704   0.082 -0.2022 -0.8023  0.8886
  280TMC3    C2 4224   0.998   2.644   0.120 -0.0907  0.4790 -0.2040
  280TMC3    C3 4225   0.918   2.711   0.202  0.3905  0.4044  0.0718
  280TMC3    C4 4226   1.146   2.832   0.110  0.2446  1.2079 -0.1773
  280TMC3    C5 4227   1.044   2.896   0.182 -0.6311  0.0862  0.1102
  280TMC3    C6 4228   0.937   2.841   0.233 -1.4130  0.9289  0.3499
  280TMC3     C 4229   1.172   2.689  17.621 -0.3775 -0.4206  0.4202
  280TMC3     O 4230   1.291   2.716  17.606  0.3114  0.8572 -0.1352
  280TMC3     H 4231   0.964   2.552   0.074  2.5743 -0.5403 -0.1204
  280TMC3    H1 4232   1.210   2.891   0.046  1.6422  0.5028  0.5773
  280TMC3    H2 4233   0.870   2.900   0.295 -1.8559 -0.5633  1.3004
  280TMC3    C7 4234   1.065   3.035   0.190 -0.1993  0.1984  0.0135
  280TMC3    C8 4235   0.826   2.638   0.289 -0.1430  0.4057  0.2743
  280TMC3    O1 4236   1.180   3.073   0.207 -0.0873  0.0853 -0.2180
  280TMC3    O2 4237   0.771   2.713   0.376  0.3832 -0.1646  0.2824
  281TMC3    C1 4238   0.470   3.154  13.072  0.5609 -0.5585 -0.6281
  281TMC3    C2 4239   0.450   3.233  12.966  0.7269  0.6984 -0.1618
  281TMC3    C3 4240   0.373   3.186  12.860 -0.1465  0.3741  0.0339
  281TMC3    C4 4241   0.410   3.027  13.084  0.4443 -0.6887 -0.0994
  281TMC3    C5 4242   0.346   2.985  12.969 -0.2917  0.3637 -0.1323
  281TMC3    C6 4243   0.320   3.060  12.860  0.7266 -1.2570 -0.8390
  281TMC3     C 4244   0.456   3.218  13.196 -0.1237 -0.8399  0.4568
  281TMC3     O 4245   0.500   3.165  13.299  0.1201 -0.4246  0.1629
  281TMC3     H 4246   0.496   3.331  12.961  2.4366  0.0789  3.4450
  281TMC3    H1 4247   0.436   2.954  13.161 -0.1752 -1.0673 -0.2468
  281TMC3    H2 4248   0.258   3.015  12.783 -1.4791 -0.2910  0.3828
  281TMC3    C7 4249   0.259   2.866  12.985  0.2237 -0.5489 -1.2370
  281TMC3    C8 4250   0.322   3.275  12.757 -0.4014 -0.2876 -0.5701
  281TMC3    O1 4251   0.253   2.789  12.893 -0.4027  0.1075  0.0272
  281TMC3    O2 4252   0.399   3.366  12.728  0.2823  0.1886 -0.3320
  282MPD2     C 4253   2.114   4.520  15.386  0.3458  0.0278 -0.6986
  282MPD2    C1 4254   1.992   4.578  15.409 -0.6636  0.3432  1.0878
  282MPD2    C2 4255   1.903   4.571  15.303 -0.2244 -0.1335  0.2378
  282MPD2    C3 4256   1.923   4.502  15.182  0.9621 -0.1628 -0.9723
  282MPD2    C4 4257   2.054   4.448  15.159 -0.2008 -0.0356  0.3460
  282MPD2    C5 4258   2.140   4.458  15.263 -0.0459  0.5708  0.2017
  282MPD2     H 4259   1.818   4.635  15.322 -1.0163 -1.0787 -0.1006
  282MPD2    H1 4260   2.079   4.390  15.070 -0.1940  1.0558 -0.3617
  282MPD2    H2 4261   2.199   4.520  15.453 -0.5399  1.5298  0.4270
  282MPD2    H3 4262   2.243   4.426  15.247 -0.0797  1.3477 -1.6353
  282MPD2     N 4263   1.811   4.491  15.092  0.9130  0.4462 -0.2198
  282MPD2    H5 4264   1.724   4.529  15.129  0.9391  2.3360 -2.1205
  282MPD2    N1 4265   1.944   4.631  15.529 -0.3500 -0.2847  0.0256
  282MPD2    H7 4266   1.846   4.652  15.547 -0.3890 -1.5577  1.3165
  283TMC3    C1 4267   1.940   4.681  15.752  0.4737 -0.5061 -0.8811
  283TMC3    C2 4268   1.867   0.074  15.743  0.8545  0.3791  0.3252
  283TMC3    C3 4269   1.816   0.128  15.861  0.8128  0.4632 -0.0022
  283TMC3    C4 4270   1.970   4.620  15.869 -0.3134  0.4000  0.8555
  283TMC3    C5 4271   1.908   4.671  15.983 -0.3187  0.3184  0.0261
  283TMC3    C6 4272   1.826   0.059  15.978 -0.2101 -0.1132 -0.1353
  283TMC3     C 4273   2.024   4.643  15.645  0.3469 -0.1654  0.7710
  283TMC3     O 4274   2.142   4.614  15.668 -0.1566  0.0058  0.0415
  283TMC3     H 4275   1.866   0.137  15.654 -1.8415 -1.9586 -1.3051
  283TMC3    H1 4276   2.030   4.529  15.866  0.9821  1.3193 -0.8912
  283TMC3    H2 4277   1.767   0.095  16.062  2.0989  1.5442  0.7491
  283TMC3    C7 4278   1.882   4.579  16.094 -0.4783 -0.0815  0.6826
  283TMC3    C8 4279   1.735   0.246  15.868 -0.1021  0.3765  0.0916
  283TMC3    O1 4280   1.784   4.606  16.164  0.3165 -0.3831  0.2882
  283TMC3    O2 4281   1.680   0.273  15.973  0.7928 -0.6537 -0.2624
  284MPD2     C 4282   0.471   3.479  11.832 -0.1226  0.3997  0.6407
  284MPD2    C1 4283   0.520   3.490  11.702 -0.2084  0.6117 -0.8144
  284MPD2    C2 4284   0.468   3.400  11.601  0.1541 -0.5402  0.1755
  284MPD2    C3 4285   0.378   3.302  11.635  0.0981 -0.0430  0.0000
  284MPD2    C4 4286   0.338   3.290  11.765 -0.3762  0.2103 -0.1230
  284MPD2    C5 4287   0.382   3.380  11.859 -0.0939  0.1356  0.1823
  284MPD2     H 4288   0.500   3.423  11.500  0.7645  1.4275  0.8248
  284MPD2    H1 4289   0.272   3.216  11.809 -1.5411  1.0374 -0.4687
  284MPD2    H2 4290   0.490   3.550  11.912  1.0409 -0.2478  0.9347
  284MPD2    H3 4291   0.358   3.357  11.962 -0.7986  0.9471  0.2009
  284MPD2     N 4292   0.340   3.209  11.536 -0.2109 -0.7304  0.6510
  284MPD2    H5 4293   0.276   3.137  11.567 -0.3280 -1.1911 -0.6763
  284MPD2    N1 4294   0.626   3.579  11.667 -0.1368 -0.6490 -0.0161
  284MPD2    H7 4295   0.664   3.577  11.573 -4.4491 -2.3999 -1.7268
  285TMC3    C1 4296   0.766   3.768  11.672  0.7739  0.4546 -0.3190
  285TMC3    C2 4297   0.819   3.727  11.558 -0.7530 -0.0751  0.4286
  285TMC3    C3 4298   0.869   3.822  11.470  0.2474 -0.3036 -0.0416
  285TMC3    C4 4299   0.768   3.903  11.703  0.2536 -0.4593 -0.3997
  285TMC3    C5 4300   0.818   3.993  11.611  0.0164  0.1479  0.1052
  285TMC3    C6 4301   0.871   3.952  11.492  0.6333 -0.1125  0.5841
  285TMC3     C 4302   0.673   3.679  11.748  0.7490  0.4756  0.1097
  285TMC3     O 4303   0.630   3.719  11.852  0.0589 -0.3387 -0.0796
  285TMC3     H 4304   0.838   3.623  11.537 -0.4914 -0.3403  1.9267
  285TMC3    H1 4305   0.723   3.932  11.797  0.2400 -0.1920 -0.4893
  285TMC3    H2 4306   0.906   4.023  11.419 -1.4510  0.0027 -0.3162
  285TMC3    C7 4307   0.750   4.121  11.595  0.5433 -0.1304  0.0296
  285TMC3    C8 4308   0.866   3.789  11.333  0.0027  1.0395 -0.1324
  285TMC3    O1 4309   0.806   4.205  11.521  0.1683  0.1873 -0.3922
  285TMC3    O2 4310   0.798   3.689  11.313  0.1561  0.3376 -0.2863
  286MPD2     C 4311   0.007   3.187   2.067  0.0772 -0.1747 -0.2564
  286MPD2    C1 4312   4.672   3.172   1.941  0.2661  0.3162 -0.7062
  286MPD2    C2 4313   0.016   3.091   1.844 -0.2222  0.5626  1.1998
  286MPD2    C3 4314   0.120   3.013   1.895  0.1705 -0.1413  0.3795
  286MPD2    C4 4315   0.165   3.024   2.028 -0.1392  0.3449 -0.1266
  286MPD2    C5 4316   0.113   3.111   2.116  0.2358  0.0252 -0.6771
  286MPD2     H 4317   4.711   3.089   1.738 -2.3021 -1.5390  1.7040
  286MPD2    H1 4318   0.235   2.950   2.065 -0.7316  0.0928  0.4996
  286MPD2    H2 4319   4.691   3.269   2.129  0.3161 -1.5566  1.6732
  286MPD2    H3 4320   0.142   3.113   2.220 -1.0561 -2.9482 -0.2632
  286MPD2     N 4321   0.192   2.926   1.808 -0.2453 -0.3379  0.1057
  286MPD2    H5 4322   0.273   2.874   1.840  0.1298  0.3678  0.2895
  286MPD2    N1 4323   4.552   3.238   1.904  0.1217  0.4257 -0.0395
  286MPD2    H7 4324   4.525   3.232   1.806 -2.9346 -1.0408  0.9316
  287TMC3    C1 4325   0.253   2.793   1.632  0.0795  0.4292  0.4292
  287TMC3    C2 4326   0.209   2.725   1.523 -0.1391 -0.3822  0.4783
  287TMC3    C3 4327   0.303   2.666   1.444 -0.2459  1.0413 -0.4164
  287TMC3    C4 4328   0.387   2.803   1.664  0.0256 -0.6235  0.2013
  287TMC3    C5 4329   0.476   2.737   1.585 -0.7010  0.1150 -0.1196
  287TMC3    C6 4330   0.433   2.663   1.478 -0.4652 -0.1807 -0.4167
  287TMC3     C 4331   0.159   2.891   1.685 -0.7795  0.2542 -0.1465
  287TMC3     O 4332   0.080   2.936   1.610 -0.3967 -0.2186  0.0316
  287TMC3     H 4333   0.103   2.729   1.499 -0.0656  1.9908  0.4907
  287TMC3    H1 4334   0.427   2.866   1.743 -1.1555  0.3311  0.0380
  287TMC3    H2 4335   0.507   2.600   1.431  0.4858  0.2984  0.4479
  287TMC3    C7 4336   0.620   2.747   1.623  0.0660  0.4978 -0.0818
  287TMC3    C8 4337   0.261   2.628   1.313 -0.1993  0.3774 -0.6067
  287TMC3    O1 4338   0.660   2.848   1.678  0.3432  0.1611 -0.2209
  287TMC3    O2 4339   0.146   2.618   1.278 -0.4407  0.4720 -0.7792
  288TMC3    C1 4340   2.388   2.177  14.455 -0.1625 -0.0550  0.5815
  288TMC3    C2 4341   2.353   2.100  14.561  0.0186  0.1226  0.0091
  288TMC3    C3 4342   2.239   2.023  14.548  0.0718  0.1082  0.0644
  288TMC3    C4 4343   2.296   2.204  14.357  0.0724 -0.6358 -0.2615
  288TMC3    C5 4344   2.182   2.123  14.343 -0.2056 -0.1848  0.2610
  288TMC3    C6 4345   2.152   2.024  14.438  0.3053 -0.4884 -0.4280
  288TMC3     C 4346   2.529   2.212  14.431 -0.8789 -0.4559  0.2949
  288TMC3     O 4347   2.612   2.138  14.479 -0.1245 -0.3377 -0.4306
  288TMC3     H 4348   2.409   2.100  14.654 -0.1126  1.1343  0.0917
  288TMC3    H1 4349   2.320   2.270  14.275 -0.3878  0.3667  0.4034
  288TMC3    H2 4350   2.064   1.963  14.419 -0.7820  0.9681 -0.1035
  288TMC3    C7 4351   2.076   2.188  14.263  0.1751  0.6253  0.9819
  288TMC3    C8 4352   2.160   2.012  14.678 -0.0274  0.3091  0.0453
  288TMC3    O1 4353   1.978   2.126  14.225 -0.2842  0.3012 -0.2795
  288TMC3    O2 4354   2.180   2.114  14.747 -0.5441 -0.2441 -0.4371
  289MPD2     C 4355   2.376   1.744  14.263 -0.1793  0.3519  0.9154
  289MPD2    C1 4356   2.363   1.841  14.167 -0.3389 -0.4080 -0.5077
  289MPD2    C2 4357   2.252   1.842  14.084  0.7450  0.4916 -0.3372
  289MPD2    C3 4358   2.154   1.740  14.084 -0.7364  0.6521 -0.0051
  289MPD2    C4 4359   2.169   1.640  14.179  0.1383  0.2368  0.4878
  289MPD2    C5 4360   2.280   1.647  14.262  0.0020  0.2128  0.1383
  289MPD2     H 4361   2.243   1.926  14.017  2.3906 -0.2639 -1.5158
  289MPD2    H1 4362   2.100   1.557  14.193  0.5886 -0.2954 -0.4481
  289MPD2    H2 4363   2.455   1.739  14.337 -0.2642  1.5882  1.0895
  289MPD2    H3 4364   2.279   1.576  14.343 -2.3363 -2.3172 -2.1187
  289MPD2     N 4365   2.062   1.747  13.976 -0.0327 -0.0002  0.0557
  289MPD2    H5 4366   2.079   1.819  13.906 -0.3862 -0.4804 -0.5307
  289MPD2    N1 4367   2.468   1.936  14.159 -0.1139 -0.0481 -0.0307
  289MPD2    H7 4368   2.550   1.925  14.218 -0.0262  1.5344  0.1453
  290TMC3    C1 4369   1.891   1.678  13.830 -0.3844 -0.1153 -0.0188
  290TMC3    C2 4370   1.818   1.793  13.823  0.8226 -0.4365  0.2927
  290TMC3    C3 4371   1.699   1.794  13.758  0.0396 -0.4943  0.0402
  290TMC3    C4 4372   1.836   1.566  13.778 -0.1956  0.7110  0.2834
  290TMC3    C5 4373   1.717   1.567  13.716  0.0749  0.0323  0.0510
  290TMC3    C6 4374   1.645   1.680  13.706 -0.1824 -0.9054 -0.3960
  290TMC3     C 4375   1.972   1.647  13.949  0.3768  0.3825  0.4213
  290TMC3     O 4376   1.947   1.538  13.996  0.3127  0.1058  0.5098
  290TMC3     H 4377   1.855   1.884  13.868 -2.4629 -0.1288  2.3511
  290TMC3    H1 4378   1.895   1.475  13.773  0.0396  0.8480  0.6076
  290TMC3    H2 4379   1.554   1.689  13.647 -0.8279  0.5521  0.8116
  290TMC3    C7 4380   1.657   1.443  13.669  0.3411 -0.0309  0.0719
  290TMC3    C8 4381   1.612   1.910  13.746 -0.1480 -0.0800  0.2015
  290TMC3    O1 4382   1.570   1.455  13.583  0.0181 -0.8418  0.0025
  290TMC3    O2 4383   1.528   1.913  13.656 -0.4227  0.4655  0.2472
  291MPD2     C 4384   1.111   1.220   0.327  0.5047  1.0331 -0.2276
  291MPD2    C1 4385   1.081   1.107   0.250 -0.0002  0.1161  1.1147
  291MPD2    C2 4386   1.173   1.024   0.185  0.2362 -0.1826  0.4285
  291MPD2    C3 4387   1.304   1.044   0.213 -0.2367 -0.3693 -0.0372
  291MPD2    C4 4388   1.339   1.158   0.287 -0.1110 -0.3645  0.5006
  291MPD2    C5 4389   1.248   1.254   0.331 -0.7023  0.0406  0.5204
  291MPD2     H 4390   1.144   0.955   0.107  1.0861  1.0954 -1.0261
  291MPD2    H1 4391   1.445   1.182   0.293 -0.7896  3.4664 -3.0550
  291MPD2    H2 4392   1.039   1.289   0.369  0.3413  0.5091  0.3484
  291MPD2    H3 4393   1.283   1.346   0.377 -1.6175  0.0762  1.1445
  291MPD2     N 4394   1.405   0.969   0.152  0.3835  0.2186  0.8569
  291MPD2    H5 4395   1.501   1.000   0.162 -0.4045  3.0766 -0.2904
  291MPD2    N1 4396   0.946   1.076   0.212 -0.3524  0.1960  0.1101
  291MPD2    H7 4397   0.921   0.986   0.172  0.4074  0.3146 -0.6196
  292TMC3    C1 4398   0.720   1.078   0.203  0.6025 -0.1794 -0.3117
  292TMC3    C2 4399   0.596   1.132   0.244 -1.1934  0.4939 -0.1630
  292TMC3    C3 4400   0.481   1.086   0.186 -0.6514 -0.0715  0.0244
  292TMC3    C4 4401   0.719   0.990   0.101  0.9667 -0.6921 -0.1113
  292TMC3    C5 4402   0.601   0.947   0.041  0.3996  1.0455 -0.3768
  292TMC3    C6 4403   0.487   0.989   0.087  0.1219  0.1910  0.0385
  292TMC3     C 4404   0.836   1.151   0.243  0.6585  0.3279  0.4882
  292TMC3     O 4405   0.818   1.262   0.287  0.1009 -0.2942 -0.0927
  292TMC3     H 4406   0.601   1.186   0.338 -2.1368  2.2594 -1.1227
  292TMC3    H1 4407   0.809   0.968   0.044  0.6390 -1.0166 -0.5044
  292TMC3    H2 4408   0.397   0.934   0.063  0.0604  0.1139  0.4478
  292TMC3    C7 4409   0.599   0.830  17.630  0.1744 -0.1664  0.4382
  292TMC3    C8 4410   0.372   1.096   0.275  0.6197 -0.1923  0.1747
  292TMC3    O1 4411   0.712   0.781  17.617 -0.1111  0.1365 -0.3314
  292TMC3    O2 4412   0.362   1.195   0.343  0.0571  0.3809  0.0280
  293MPD2     C 4413   3.505   2.955  12.365  0.1799 -0.1289  0.1481
  293MPD2    C1 4414   3.422   2.884  12.449  0.6814  0.2159  0.0729
  293MPD2    C2 4415   3.445   2.867  12.586  0.6178 -0.0871 -0.0262
  293MPD2    C3 4416   3.556   2.935  12.646  0.1486 -0.0819  0.0286
  293MPD2    C4 4417   3.631   3.011  12.556 -0.1434 -0.1871  0.2308
  293MPD2    C5 4418   3.609   3.020  12.429 -0.1476  0.0072 -0.8286
  293MPD2     H 4419   3.366   2.828  12.649  0.1684 -1.1088 -1.2319
  293MPD2    H1 4420   3.711   3.074  12.594  0.1773 -0.1385 -0.5119
  293MPD2    H2 4421   3.493   2.961  12.258 -1.6292 -2.2096  0.2410
  293MPD2    H3 4422   3.673   3.076  12.362 -0.9320 -0.1311 -1.6890
  293MPD2     N 4423   3.576   2.935  12.790  0.1216 -0.0669 -0.2607
  293MPD2    H5 4424   3.516   2.881  12.852  0.6713  0.5141  0.7863
  293MPD2    N1 4425   3.305   2.834  12.393 -0.1593 -0.2236  0.3035
  293MPD2    H7 4426   3.274   2.881  12.308 -0.2470 -1.7184 -0.4954
  294TMC3    C1 4427   3.085   2.752  12.373  0.7695  0.5301  0.3824
  294TMC3    C2 4428   2.998   2.657  12.397  0.5131  0.0416  0.8118
  294TMC3    C3 4429   2.872   2.663  12.341 -0.4048 -0.7147  0.8115
  294TMC3    C4 4430   3.058   2.858  12.286 -0.4252 -0.3621 -0.8434
  294TMC3    C5 4431   2.933   2.866  12.243 -0.8163 -0.1449  0.2748
  294TMC3    C6 4432   2.838   2.773  12.270  0.6039  0.3707  0.1564
  294TMC3     C 4433   3.209   2.750  12.454  0.4109 -0.0801  0.0395
  294TMC3     O 4434   3.225   2.673  12.547 -0.1132  0.5406  0.2496
  294TMC3     H 4435   3.027   2.575  12.461  2.5350  0.8475  0.9095
  294TMC3    H1 4436   3.119   2.944  12.264 -1.3190  0.6599  0.6737
  294TMC3    H2 4437   2.740   2.803  12.235  0.4150  1.9449  2.0264
  294TMC3    C7 4438   2.899   2.979  12.159 -0.5498 -0.8969 -0.2354
  294TMC3    C8 4439   2.780   2.563  12.368  0.2511  0.5453  0.2125
  294TMC3    O1 4440   2.787   3.024  12.162 -0.0302 -0.4165  0.2757
  294TMC3    O2 4441   2.810   2.475  12.447 -0.1072  0.5579  0.4098
  295MPD2     C 4442   3.125   0.944   0.899 -0.4430 -0.0009  0.6986
  295MPD2    C1 4443   3.091   1.057   0.835 -0.1827  0.1282 -0.0689
  295MPD2    C2 4444   3.043   1.164   0.910  0.1304  0.0775 -0.0584
  295MPD2    C3 4445   3.026   1.154   1.048 -0.3068 -0.5393 -0.2783
  295MPD2    C4 4446   3.057   1.035   1.110  0.0596 -0.5921  0.1076
  295MPD2    C5 4447   3.115   0.941   1.037 -1.2898  0.6476  0.0483
  295MPD2     H 4448   3.036   1.262   0.865 -0.3727 -0.6955 -1.6756
  295MPD2    H1 4449   3.056   1.022   1.218 -1.8035  0.4275  0.2013
  295MPD2    H2 4450   3.162   0.854   0.852  1.6467  0.4200  1.5687
  295MPD2    H3 4451   3.146   0.849   1.085 -2.4937  0.3222  0.1980
  295MPD2     N 4452   2.991   1.256   1.136 -0.8179  0.0220 -0.7072
  295MPD2    H5 4453   2.972   1.227   1.232 -2.0734  2.6013 -0.1604
  295MPD2    N1 4454   3.105   1.068   0.694 -0.0019  0.2681 -0.4362
  295MPD2    H7 4455   3.113   1.164   0.662 -1.9359 -0.1721 -2.2161
  296TMC3    C1 4456   2.929   1.472   1.214 -0.3551 -0.0171 -0.1614
  296TMC3    C2 4457   2.938   1.599   1.195  0.2155  0.4277 -0.2776
  296TMC3    C3 4458   2.897   1.688   1.295  0.0405 -0.2787 -0.1253
  296TMC3    C4 4459   2.897   1.421   1.341 -0.4599 -0.2347  0.3510
  296TMC3    C5 4460   2.853   1.504   1.439  0.0692 -0.0246 -0.1966
  296TMC3    C6 4461   2.853   1.639   1.415  0.0197 -0.0326  0.2033
  296TMC3     C 4462   2.983   1.384   1.103 -0.1922  0.2495  0.2195
  296TMC3     O 4463   2.999   1.444   0.998 -0.1041 -0.0830 -0.3817
  296TMC3     H 4464   2.986   1.641   1.107 -1.7946  1.1295 -1.0278
  296TMC3    H1 4465   2.902   1.314   1.359 -3.2368 -0.5069 -0.5980
  296TMC3    H2 4466   2.822   1.716   1.485 -2.8815  0.3716 -1.5113
  296TMC3    C7 4467   2.861   1.471   1.579 -0.2721 -0.3233  0.2320
  296TMC3    C8 4468   2.922   1.831   1.291 -0.4891 -0.2221  0.1117
  296TMC3    O1 4469   2.813   1.554   1.655  0.3768  0.4553 -0.3333
  296TMC3    O2 4470   2.833   1.915   1.284 -0.0616  0.4653 -0.1259
  297MPD2     C 4471   1.017   3.389  16.283  0.2891  0.2613  0.3496
  297MPD2    C1 4472   1.001   3.519  16.241 -0.7024 -0.0325 -0.3102
  297MPD2    C2 4473   1.111   3.597  16.235  0.5551 -0.5879  0.3513
  297MPD2    C3 4474   1.235   3.559  16.286 -0.1233 -0.0690  0.5668
  297MPD2    C4 4475   1.247   3.425  16.335  0.2271  0.8438  0.5802
  297MPD2    C5 4476   1.137   3.345  16.323 -0.4750  0.0354  0.0320
  297MPD2     H 4477   1.100   3.695  16.190  0.8451 -0.5557  0.3528
  297MPD2    H1 4478   1.343   3.383  16.364 -1.4373 -1.9205  2.0781
  297MPD2    H2 4479   0.936   3.317  16.286 -1.5300  2.3210  0.6636
  297MPD2    H3 4480   1.162   3.240  16.331 -0.3808  0.2079  1.8647
  297MPD2     N 4481   1.328   3.661  16.296 -0.7208 -1.0446 -0.7495
  297MPD2    H5 4482   1.287   3.752  16.274  2.0970  0.0772 -1.3483
  297MPD2    N1 4483   0.875   3.575  16.199 -0.1568  0.4910 -0.7060
  297MPD2    H7 4484   0.874   3.675  16.180  0.8529  0.7182  0.4415
  298TMC3    C1 4485   0.652   3.587  16.150 -0.1264 -0.0177 -0.7652
  298TMC3    C2 4486   0.691   3.670  16.050  0.4454 -0.3458  0.8666
  298TMC3    C3 4487   0.593   3.763  16.008 -0.0798 -0.1713 -0.3777
  298TMC3    C4 4488   0.525   3.568  16.198 -0.3614  0.1435 -0.2162
  298TMC3    C5 4489   0.428   3.652  16.142  0.1079  0.8222  0.7363
  298TMC3    C6 4490   0.462   3.754  16.046  0.5008 -0.0802 -0.4276
  298TMC3     C 4491   0.755   3.512  16.208 -0.7609  0.5024  0.8741
  298TMC3     O 4492   0.721   3.410  16.268  0.4773 -0.9959  0.1516
  298TMC3     H 4493   0.787   3.662  16.000  0.7046 -0.2557  1.3519
  298TMC3    H1 4494   0.500   3.489  16.268  0.0102  0.0489 -0.1915
  298TMC3    H2 4495   0.387   3.829  16.023  0.0025 -0.6196 -0.5499
  298TMC3    C7 4496   0.317   3.672  16.236  0.2394  0.0115  0.2757
  298TMC3    C8 4497   0.627   3.882  15.936 -0.2035  0.3347 -0.1352
  298TMC3    O1 4498   0.338   3.670  16.355 -0.1404  0.4241  0.2458
  298TMC3    O2 4499   0.747   3.907  15.933  0.0612  0.0356  0.0434
  299MPD2     C 4500   2.005   2.966  10.592 -0.2303  0.8499  0.3345
  299MPD2    C1 4501   2.034   3.079  10.529 -0.3072  0.0778  0.1155
  299MPD2    C2 4502   1.964   3.121  10.420 -0.8982 -0.7737  0.0566
  299MPD2    C3 4503   1.855   3.048  10.370 -0.4256  0.1891 -0.7389
  299MPD2    C4 4504   1.829   2.926  10.434  0.3421 -1.0162 -0.4203
  299MPD2    C5 4505   1.905   2.885  10.542 -0.1983  0.5715  0.6563
  299MPD2     H 4506   1.989   3.214  10.371  0.3399 -0.9404  0.3613
  299MPD2    H1 4507   1.748   2.858  10.410  0.6830 -1.3069 -0.7627
  299MPD2    H2 4508   2.061   2.936  10.680 -2.6309  0.3065  1.6590
  299MPD2    H3 4509   1.879   2.799  10.602  1.5366 -0.4603 -0.0717
  299MPD2     N 4510   1.773   3.080  10.262  0.2083 -0.0081 -0.3572
  299MPD2    H5 4511   1.694   3.017  10.252 -1.0655  1.9945 -2.6779
  299MPD2    N1 4512   2.128   3.165  10.588 -0.5250 -0.1682  0.5848
  299MPD2    H7 4513   2.173   3.122  10.668 -0.4624  1.1491  1.2664
  300TMC3    C1 4514   1.670   3.220  10.086  0.7705  0.1459 -0.9586
  300TMC3    C2 4515   1.686   3.319   9.994 -0.2383 -0.5265  0.0395
  300TMC3    C3 4516   1.588   3.335   9.898 -0.0692  0.7129 -0.2637
  300TMC3    C4 4517   1.561   3.139  10.085 -0.0231 -0.1243  0.4171
  300TMC3    C5 4518   1.456   3.174  10.004 -0.5250  0.7956  0.4861
  300TMC3    C6 4519   1.468   3.263   9.903 -0.1657  0.5653  0.5426
  300TMC3     C 4520   1.791   3.186  10.172 -0.2689  0.2787  0.2961
  300TMC3     O 4521   1.887   3.262  10.160 -0.2698  0.0611 -0.0580
  300TMC3     H 4522   1.771   3.386   9.987 -0.7860  0.3437  1.5988
  300TMC3    H1 4523   1.537   3.055  10.150 -1.1378  0.2139  0.4492
  300TMC3    H2 4524   1.379   3.292   9.849 -0.4471 -0.3173  0.5353
  300TMC3    C7 4525   1.330   3.113  10.032 -0.4769  0.6093  0.6274
  300TMC3    C8 4526   1.572   3.474   9.865  0.2217 -1.0448  0.2027
  300TMC3    O1 4527   1.260   3.086   9.938 -0.0226 -0.4977 -0.1989
  300TMC3    O2 4528   1.499   3.508   9.772 -0.9743 -0.4155  0.1203
  301MPD2     C 4529   3.724   0.272   1.590 -0.1583 -1.0487 -0.9179
  301MPD2    C1 4530   3.656   0.177   1.521  0.4048  0.8657  0.1740
  301MPD2    C2 4531   3.692   0.046   1.540  0.6034 -0.1716 -0.7697
  301MPD2    C3 4532   3.795   0.010   1.633  0.4617 -0.0162  0.0340
  301MPD2    C4 4533   3.852   0.108   1.707 -0.4173  0.1728  0.1470
  301MPD2    C5 4534   3.822   0.237   1.681 -0.4493 -0.1017 -0.1745
  301MPD2     H 4535   3.635   4.686   1.493  1.1302 -1.2017  0.3064
  301MPD2    H1 4536   3.928   0.092   1.782  2.2458  1.1436 -2.3377
  301MPD2    H2 4537   3.692   0.375   1.579 -1.8370 -1.4958 -0.1247
  301MPD2    H3 4538   3.873   0.317   1.734  1.4170 -1.5222  0.1413
  301MPD2     N 4539   3.830   4.591   1.650 -0.6925 -0.3833 -0.2206
  301MPD2    H5 4540   3.876   4.565   1.737  0.3361 -1.1524 -0.9872
  301MPD2    N1 4541   3.542   0.200   1.441 -0.1377 -0.1478 -0.7838
  301MPD2    H7 4542   3.496   0.116   1.409  0.4952 -0.5662 -0.6083
  302TMC3    C1 4543   3.820   4.356   1.574  0.3831  1.2308  0.1344
  302TMC3    C2 4544   3.829   4.313   1.703  0.4073 -0.0239  0.2030
  302TMC3    C3 4545   3.816   4.177   1.714 -0.2699 -0.6387  0.0783
  302TMC3    C4 4546   3.797   4.276   1.467 -0.0269 -0.0106 -0.0462
  302TMC3    C5 4547   3.785   4.142   1.490 -0.3152 -0.3595  0.1532
  302TMC3    C6 4548   3.807   4.083   1.611  0.0340  0.6291 -0.8941
  302TMC3     C 4549   3.805   4.498   1.546  0.1498  0.2156  0.4491
  302TMC3     O 4550   3.792   4.529   1.427  0.2635 -0.2690  0.3154
  302TMC3     H 4551   3.858   4.379   1.784 -0.0453  2.0890 -1.3514
  302TMC3    H1 4552   3.771   4.309   1.367 -2.1314 -0.6522  0.3052
  302TMC3    H2 4553   3.800   3.976   1.624 -0.2620  0.8180  0.4664
  302TMC3    C7 4554   3.742   4.059   1.381  0.6028 -0.0625 -0.0978
  302TMC3    C8 4555   3.794   4.116   1.841 -0.3939  0.0028  0.3337
  302TMC3    O1 4556   3.782   3.942   1.381  0.3419  0.2853  0.1822
  302TMC3    O2 4557   3.858   4.011   1.864 -0.2071 -1.0460 -0.3796
  303MPD2     C 4558   4.591   4.170  10.877  0.9630  0.0702  0.4516
  303MPD2    C1 4559   4.465   4.209  10.832  0.2240  0.5875  0.3925
  303MPD2    C2 4560   4.408   4.167  10.717  0.1781  0.5724  0.0022
  303MPD2    C3 4561   4.484   4.083  10.638  0.0301  0.3679  0.4134
  303MPD2    C4 4562   4.616   4.052  10.672 -0.2668  0.0091  0.2622
  303MPD2    C5 4563   4.668   4.100  10.787  0.8181 -0.3822  0.2927
  303MPD2     H 4564   4.308   4.202  10.696  1.1343  2.3053 -1.6700
  303MPD2    H1 4565   4.672   3.993  10.600  1.4768 -0.9019  2.3909
  303MPD2    H2 4566   4.631   4.206  10.971  1.9830 -2.1065  0.8461
  303MPD2    H3 4567   0.050   4.070  10.813  0.6085 -0.6264  0.8195
  303MPD2     N 4568   4.439   4.021  10.515 -0.6859  0.1860 -0.5946
  303MPD2    H5 4569   4.509   3.974  10.460 -0.4504  0.6985 -0.7359
  303MPD2    N1 4570   4.394   4.295  10.921  0.2588  0.4696  0.1202
  303MPD2    H7 4571   4.434   4.326  11.009 -1.3971  0.1545  0.9781
  304TMC3    C1 4572   4.206   4.359  11.050  0.0437 -0.1990 -0.0281
  304TMC3    C2 4573   4.081   4.405  11.044 -0.0501 -0.6278  0.8315
  304TMC3    C3 4574   4.002   4.403  11.159 -0.1931  0.6500 -0.1239
  304TMC3    C4 4575   4.255   4.298  11.157  0.0463  0.4341 -0.3648
  304TMC3    C5 4576   4.176   4.295  11.271  0.3177 -0.3324 -0.3815
  304TMC3    C6 4577   4.059   4.361  11.280  0.0871  0.1822  0.0438
  304TMC3     C 4578   4.257   4.310  10.922 -0.1839 -0.0628  0.5219
  304TMC3     O 4579   4.174   4.282  10.841  0.5251  0.1229  0.4385
  304TMC3     H 4580   4.036   4.444  10.953 -1.3173  1.1899  2.2312
  304TMC3    H1 4581   4.337   4.229  11.146  0.7452  0.9084  2.0208
  304TMC3    H2 4582   4.011   4.367  11.377  0.3941 -0.2754  0.2211
  304TMC3    C7 4583   4.192   4.172  11.341  0.5454  0.6645 -0.1523
  304TMC3    C8 4584   3.878   4.329  11.147  0.4749 -0.7059 -0.0666
  304TMC3    O1 4585   4.303   4.133  11.371  0.0010 -0.6311 -0.8659
  304TMC3    O2 4586   3.860   4.248  11.234 -0.0997 -0.4723 -0.0191
  305MPD2     C 4587   1.657   4.606  14.083 -0.1781 -0.5806  0.1747
  305MPD2    C1 4588   1.786   4.558  14.074  0.1701  0.1874 -0.2267
  305MPD2    C2 4589   1.827   4.509  13.955  0.1533 -0.2395  0.0200
  305MPD2    C3 4590   1.756   4.537  13.840 -0.2498 -0.6018 -0.7538
  305MPD2    C4 4591   1.637   4.603  13.846 -0.3793 -0.1065  0.5953
  305MPD2    C5 4592   1.587   4.627  13.971 -0.8648 -0.4386 -0.1312
  305MPD2     H 4593   1.921   4.456  13.945 -0.5127 -0.9370 -2.7275
  305MPD2    H1 4594   1.571   4.624  13.762  1.2442  1.1790 -0.3551
  305MPD2    H2 4595   1.612   4.643  14.175 -0.9829 -0.2758 -0.3372
  305MPD2    H3 4596   1.489   4.672  13.985 -0.9355 -1.6960  3.4131
  305MPD2     N 4597   1.801   4.496  13.711 -0.5658  0.0866 -0.1269
  305MPD2    H5 4598   1.743   4.533  13.637  0.1487  1.9646  0.2664
  305MPD2    N1 4599   1.863   4.562  14.187 -0.5987  0.2368  0.5382
  305MPD2    H7 4600   1.822   4.598  14.272 -1.5200  1.5434 -0.4730
  306TMC3    C1 4601   2.046   4.580  14.333 -0.6886  0.7727 -0.2407
  306TMC3    C2 4602   2.180   4.547  14.355  0.0557 -0.3175 -0.8273
  306TMC3    C3 4603   2.225   4.558  14.482  0.3617  0.3447 -0.1915
  306TMC3    C4 4604   1.970   4.643  14.429 -0.1071 -0.2424  0.5117
  306TMC3    C5 4605   2.026   4.656  14.551  0.2293  0.3276  0.0156
  306TMC3    C6 4606   2.149   4.613  14.583  0.1003  0.3058 -0.3271
  306TMC3     C 4607   1.994   4.547  14.198  0.2726  0.5404  0.3304
  306TMC3     O 4608   2.077   4.520  14.113 -0.3413 -0.5585  0.4437
  306TMC3     H 4609   2.240   4.515  14.271  3.1655  2.1094  0.4829
  306TMC3    H1 4610   1.877   4.693  14.405  0.2386  0.5565  0.8314
  306TMC3    H2 4611   2.172   4.603  14.688  2.5304 -0.9880 -0.9777
  306TMC3    C7 4612   1.935   4.703  14.653 -0.3145  0.3939 -0.4289
  306TMC3    C8 4613   2.356   4.507  14.517  0.1848  0.0567 -0.3974
  306TMC3    O1 4614   1.818   4.671  14.626 -0.3768 -0.6603 -0.1131
  306TMC3    O2 4615   2.393   4.413  14.446  0.0893 -0.5592 -0.0523
  307MPD2     C 4616   4.112   1.796   0.346  0.2054 -0.4499 -0.6562
  307MPD2    C1 4617   4.120   1.936   0.369 -0.2004 -1.2184  0.2476
  307MPD2    C2 4618   4.027   1.980   0.461  0.0104 -0.5800  0.1569
  307MPD2    C3 4619   3.938   1.901   0.527 -0.2205  0.0121 -0.2023
  307MPD2    C4 4620   3.931   1.770   0.497 -0.8180 -0.2217 -0.3583
  307MPD2    C5 4621   4.008   1.722   0.398  0.3470  0.4815 -0.2217
  307MPD2     H 4622   4.032   2.081   0.499 -0.5435 -0.0282 -1.2243
  307MPD2    H1 4623   3.863   1.698   0.539 -0.0094  0.4487  2.0820
  307MPD2    H2 4624   4.162   1.733   0.272  0.2863  0.0158 -0.9964
  307MPD2    H3 4625   4.008   1.617   0.371  0.3864  0.2402  0.7002
  307MPD2     N 4626   3.845   1.967   0.617 -0.2089 -0.2359  0.0112
  307MPD2    H5 4627   3.845   2.068   0.618  2.3260 -0.2113 -1.9778
  307MPD2    N1 4628   4.210   2.017   0.301 -0.4427 -0.3492  0.0663
  307MPD2    H7 4629   4.267   1.961   0.239  0.0206  0.4447 -0.2122
  308TMC3    C1 4630   3.468   2.150   0.721 -0.8038  0.0610  0.2915
  308TMC3    C2 4631   3.518   2.262   0.776  0.4600  0.6483  0.3390
  308TMC3    C3 4632   3.652   2.255   0.807 -0.0449  0.2842 -0.1542
  308TMC3    C4 4633   3.533   2.035   0.720 -0.2473 -0.4446 -0.4018
  308TMC3    C5 4634   3.670   2.028   0.758 -0.1276 -0.0585 -0.0107
  308TMC3    C6 4635   3.735   2.146   0.786  0.1676 -0.7645  0.1520
  308TMC3     C 4636   3.334   2.136   0.679 -0.7226  0.4791  0.3729
  308TMC3     O 4637   3.273   2.031   0.688  0.8124  0.2104  0.3686
  308TMC3     H 4638   3.449   2.341   0.801 -0.0792 -0.6321  2.8907
  308TMC3    H1 4639   3.492   1.950   0.666 -3.0399  0.9703 -0.5542
  308TMC3    H2 4640   3.838   2.146   0.818 -0.2532 -0.0603  1.5288
  308TMC3    C7 4641   3.734   1.918   0.686 -0.5453 -0.1544  0.3682
  308TMC3    C8 4642   3.721   2.377   0.848 -0.5550 -0.0802 -0.0590
  308TMC3    O1 4643   3.695   1.802   0.704  0.2667 -0.1760  0.5966
  308TMC3    O2 4644   3.817   2.353   0.920 -0.9634  0.2128 -0.1789
  309MPD2     C 4645   3.442   3.100  17.218 -0.8457 -0.0979  0.3601
  309MPD2    C1 4646   3.417   3.138  17.085 -0.2580  0.1931  0.4376
  309MPD2    C2 4647   3.285   3.163  17.050 -0.6814  0.0415  0.4144
  309MPD2    C3 4648   3.187   3.148  17.145 -0.0683 -0.1989 -0.2420
  309MPD2    C4 4649   3.217   3.096  17.266  0.4289 -0.2173  0.4100
  309MPD2    C5 4650   3.341   3.074  17.306  0.0610  0.2394  0.1073
  309MPD2     H 4651   3.267   3.216  16.957  2.6876  0.6032  0.0642
  309MPD2    H1 4652   3.134   3.077  17.334  0.6524 -0.1013  0.7162
  309MPD2    H2 4653   3.544   3.089  17.251 -0.8597  0.8200  0.7041
  309MPD2    H3 4654   3.358   3.024  17.401  1.2114  3.1014  1.4109
  309MPD2     N 4655   3.051   3.182  17.119  0.1270 -0.1206  0.0826
  309MPD2    H5 4656   2.995   3.167  17.202 -0.5177  3.5678  0.3124
  309MPD2    N1 4657   3.517   3.143  16.989  0.2352 -0.3553  0.5200
  309MPD2    H7 4658   3.491   3.154  16.892  0.0633 -0.0223  0.6030
  310TMC3    C1 4659   3.739   3.142  16.901 -0.9450 -0.5841  0.2294
  310TMC3    C2 4660   3.711   3.237  16.807 -0.1598 -0.0554  0.6952
  310TMC3    C3 4661   3.806   3.267  16.715 -0.2757 -0.3818 -0.8202
  310TMC3    C4 4662   3.865   3.090  16.918 -0.4938 -0.0708  0.1317
  310TMC3    C5 4663   3.959   3.116  16.825  0.0613  1.1401  0.3673
  310TMC3    C6 4664   3.926   3.200  16.720 -0.1444 -0.2837 -0.0092
  310TMC3     C 4665   3.653   3.129  17.015 -0.1019  1.1940 -0.3886
  310TMC3     O 4666   3.715   3.113  17.120 -0.1093 -0.4059 -0.3127
  310TMC3     H 4667   3.607   3.263  16.787  0.3610  2.2529  0.9998
  310TMC3    H1 4668   3.876   3.007  16.987  1.2902  0.0839  0.0392
  310TMC3    H2 4669   3.995   3.201  16.636 -0.6871 -0.8628 -0.4695
  310TMC3    C7 4670   4.057   3.014  16.795 -0.2249  0.2976 -0.3159
  310TMC3    C8 4671   3.761   3.340  16.597  0.0331  0.1928  0.6437
  310TMC3    O1 4672   4.096   3.015  16.680 -0.2569 -0.9513 -0.5202
  310TMC3    O2 4673   3.645   3.378  16.595  0.4220  0.4534  0.1672
  311MPD2     C 4674   1.070   4.516  12.627  0.7874  0.2185 -0.2909
  311MPD2    C1 4675   1.089   4.596  12.738 -0.2015 -0.0429 -0.2539
  311MPD2    C2 4676   0.994   4.598  12.841  0.4395  0.4308 -0.5470
  311MPD2    C3 4677   0.873   4.523  12.829 -0.0870 -0.5271 -0.6576
  311MPD2    C4 4678   0.860   4.448  12.715 -0.2305  0.1870  0.6897
  311MPD2    C5 4679   0.953   4.450  12.620  0.1065 -0.1457  0.3458
  311MPD2     H 4680   1.011   4.650  12.935 -1.1258 -2.5935  1.4141
  311MPD2    H1 4681   0.770   4.389  12.701  0.0311  0.5843 -2.6867
  311MPD2    H2 4682   1.134   4.521  12.540  0.2652  1.2042 -0.6261
  311MPD2    H3 4683   0.930   4.383  12.538 -0.7698  0.8876 -0.2480
  311MPD2     N 4684   0.777   4.545  12.931  0.2962  0.4861  0.4058
  311MPD2    H5 4685   0.802   4.614  13.000  0.3055 -1.1629  2.0690
  311MPD2    N1 4686   1.208   4.658  12.758 -0.1926 -0.2060  0.2101
  311MPD2    H7 4687   1.212   4.712  12.844 -0.9414  2.4336 -1.4083
  312TMC3    C1 4688   0.553   4.541  13.016  0.2692  0.1153  0.1313
  312TMC3    C2 4689   0.419   4.527  12.990 -0.4737  0.1259  0.0275
  312TMC3    C3 4690   0.335   4.494  13.092 -0.1461  0.1958  0.8402
  312TMC3    C4 4691   0.597   4.541  13.147 -0.3038  0.8004  0.5021
  312TMC3    C5 4692   0.509   4.527  13.253  0.2503 -0.3877 -0.4667
  312TMC3    C6 4693   0.378   4.496  13.224  0.0862  0.0706  0.9917
  312TMC3     C 4694   0.645   4.498  12.914 -0.3928 -0.0486  0.1902
  312TMC3     O 4695   0.594   4.442  12.820 -0.2728 -0.8510  0.6634
  312TMC3     H 4696   0.385   4.531  12.887 -1.0982 -0.2130  0.2168
  312TMC3    H1 4697   0.701   4.570  13.162  0.3455 -0.9783 -0.5221
  312TMC3    H2 4698   0.311   4.465  13.303  0.1566 -1.7778  0.3107
  312TMC3    C7 4699   0.544   4.599  13.369  0.2511  0.0704 -0.4010
  312TMC3    C8 4700   0.200   4.445  13.061  0.4207  0.0093 -0.0498
  312TMC3    O1 4701   0.533   4.718  13.365 -0.5258 -0.3325 -0.4610
  312TMC3    O2 4702   0.178   4.412  12.946  0.3053 -0.0672 -0.2550
  313MPD2     C 4703   1.323   4.036  10.591  0.4948 -0.2229  0.6096
  313MPD2    C1 4704   1.195   4.028  10.538  0.8494  0.1328 -0.2396
  313MPD2    C2 4705   1.174   3.962  10.421  0.2179 -0.3294  0.1962
  313MPD2    C3 4706   1.278   3.883  10.370 -0.8511  0.0112 -0.3150
  313MPD2    C4 4707   1.398   3.888  10.432  0.1039  0.1536 -0.2076
  313MPD2    C5 4708   1.422   3.963  10.541 -0.1481 -0.1031 -1.1320
  313MPD2     H 4709   1.075   3.959  10.376  0.1662  2.2465  0.0969
  313MPD2    H1 4710   1.480   3.823  10.403  2.0220  4.4994 -4.4022
  313MPD2    H2 4711   1.341   4.103  10.675  0.1988  0.8677 -0.2060
  313MPD2    H3 4712   1.522   3.964  10.583 -0.6438  2.2783 -0.0274
  313MPD2     N 4713   1.252   3.808  10.249 -0.3401  0.2319  0.5639
  313MPD2    H5 4714   1.173   3.842  10.195  0.4715 -0.2487 -0.9293
  313MPD2    N1 4715   1.086   4.107  10.587 -0.5769 -0.1707 -0.2033
  313MPD2    H7 4716   0.998   4.085  10.542 -1.8090  1.3456  1.4870
  314TMC3    C1 4717   0.944   4.263  10.697 -0.4835 -0.1339  1.2768
  314TMC3    C2 4718   0.919   4.311  10.824  0.3089  0.6385 -0.0451
  314TMC3    C3 4719   0.805   4.387  10.838 -0.8384 -0.4806  0.1308
  314TMC3    C4 4720   0.867   4.300  10.587  0.2487  0.6396 -0.0372
  314TMC3    C5 4721   0.745   4.366  10.610  1.0099  0.2544  0.1053
  314TMC3    C6 4722   0.712   4.407  10.739  0.1451  0.4931 -0.0800
  314TMC3     C 4723   1.075   4.208  10.680  0.8503  0.3601 -0.9245
  314TMC3     O 4724   1.164   4.236  10.754 -0.1783 -0.2311  0.0528
  314TMC3     H 4725   0.980   4.278  10.908 -0.1569  2.0487  0.8467
  314TMC3    H1 4726   0.904   4.275  10.488  1.6138  1.6027  0.2280
  314TMC3    H2 4727   0.627   4.473  10.750  1.1162  1.1312  3.5263
  314TMC3    C7 4728   0.657   4.410  10.500  0.7676  0.4610  0.0234
  314TMC3    C8 4729   0.801   4.473  10.956 -0.5880 -0.6051  0.0416
  314TMC3    O1 4730   0.542   4.436  10.536  0.2917  0.2124 -0.1803
  314TMC3    O2 4731   0.720   4.568  10.942  0.2014  0.2378 -0.1789
  315MPD2     C 4732   4.690   2.949   0.107  0.6154  0.1574 -0.4119
  315MPD2    C1 4733   0.068   2.991   0.192 -0.0407  0.1023  0.1465
  315MPD2    C2 4734   0.128   3.113   0.177 -0.3819 -0.7121 -0.4876
  315MPD2    C3 4735   0.101   3.191   0.071 -0.3006 -0.2278  0.0485
  315MPD2    C4 4736   0.010   3.150  17.661  0.1804  0.4148  0.1162
  315MPD2    C5 4737   4.667   3.034   0.004  1.1577 -0.5811  0.4409
  315MPD2     H 4738   0.191   3.153   0.257 -0.6829 -1.2069 -0.0044
  315MPD2    H1 4739   4.700   3.204  17.572 -0.8927  1.5943  1.1756
  315MPD2    H2 4740   4.631   2.858   0.112  0.0836  0.7553  3.8330
  315MPD2    H3 4741   4.595   3.003  17.607  1.3487 -0.0575  0.0475
  315MPD2     N 4742   0.170   3.311   0.068  0.3978 -0.2683 -0.4926
  315MPD2    H5 4743   0.230   3.332   0.146 -1.7853 -0.2489  1.1707
  315MPD2    N1 4744   0.116   2.917   0.299  0.4306 -0.4213  0.1940
  315MPD2    H7 4745   0.200   2.954   0.343  2.5369 -2.9708 -1.6128
  316TMC3    C1 4746   0.247   3.508  17.627 -0.3221  0.0119 -0.4590
  316TMC3    C2 4747   0.369   3.489   0.006 -0.2378  0.0605  0.2436
  316TMC3    C3 4748   0.455   3.596  17.672 -0.0451 -0.8149 -0.1133
  316TMC3    C4 4749   0.215   3.621  17.556  0.4247 -0.4372  0.2634
  316TMC3    C5 4750   0.302   3.727  17.550 -0.6272 -0.5466  0.2320
  316TMC3    C6 4751   0.418   3.720  17.613 -0.5778 -0.3178 -0.2222
  316TMC3     C 4752   0.140   3.416  17.662 -0.2084  0.0942 -0.0484
  316TMC3     O 4753   0.036   3.438  17.597  0.5488 -0.4203 -0.3839
  316TMC3     H 4754   0.409   3.395   0.041 -1.6144  0.3716  2.6634
  316TMC3    H1 4755   0.116   3.629  17.512 -0.2112 -2.8104  1.2951
  316TMC3    H2 4756   0.491   3.799  17.598 -0.5746 -0.1190  0.8415
  316TMC3    C7 4757   0.259   3.859  17.514  0.7348 -0.0246 -0.0881
  316TMC3    C8 4758   0.585   3.584   0.051  0.3989  0.2182 -0.1017
  316TMC3    O1 4759   0.301   3.952  17.581 -0.0315  0.2330 -1.0937
  316TMC3    O2 4760   0.633   3.691   0.092  0.4881 -0.4315  0.4096
  317MPD2     C 4761   2.457   1.920  13.162  0.2968  0.3301 -0.8227
  317MPD2    C1 4762   2.375   1.807  13.143  1.1486 -0.1329  0.4948
  317MPD2    C2 4763   2.394   1.704  13.227  0.0473  0.0810  0.4865
  317MPD2    C3 4764   2.488   1.704  13.327  0.4857  0.6880 -0.5897
  317MPD2    C4 4765   2.573   1.812  13.341  0.2433  0.5185  0.2733
  317MPD2    C5 4766   2.544   1.926  13.266 -0.3383 -0.0848 -0.1372
  317MPD2     H 4767   2.340   1.611  13.213  0.5337  0.1032 -1.4277
  317MPD2    H1 4768   2.634   1.831  13.429  0.8148  3.1688 -0.7098
  317MPD2    H2 4769   2.444   2.013  13.107  0.2136  0.1802 -1.0535
  317MPD2    H3 4770   2.596   2.018  13.289  2.1785 -1.3150 -0.8500
  317MPD2     N 4771   2.486   1.591  13.414 -0.7454 -0.1939 -0.2015
  317MPD2    H5 4772   2.417   1.518  13.399  0.3590 -1.2237 -0.2356
  317MPD2    N1 4773   2.283   1.797  13.037 -0.8304 -0.1176 -0.1260
  317MPD2    H7 4774   2.229   1.712  13.020  0.6666 -1.2028  0.5422
  318TMC3    C1 4775   2.577   1.450  13.580 -0.1791  0.6223 -0.7522
  318TMC3    C2 4776   2.480   1.352  13.560 -0.1616  0.1155  0.7754
  318TMC3    C3 4777   2.499   1.242  13.642 -0.8811 -0.3233 -0.1071
  318TMC3    C4 4778   2.690   1.422  13.658  0.2937  0.4313  0.7658
  318TMC3    C5 4779   2.699   1.305  13.725 -0.3587 -0.4348 -0.3456
  318TMC3    C6 4780   2.601   1.216  13.718  0.8158  0.1120  0.3300
  318TMC3     C 4781   2.568   1.578  13.522  0.3826  0.2890  0.0389
  318TMC3     O 4782   2.651   1.653  13.572  0.0776  0.0591  0.4397
  318TMC3     H 4783   2.388   1.384  13.512  0.6621  0.9911 -0.2040
  318TMC3    H1 4784   2.779   1.484  13.658  1.1389 -0.8057  2.0864
  318TMC3    H2 4785   2.603   1.124  13.774 -1.4563  1.2235  2.2411
  318TMC3    C7 4786   2.785   1.313  13.835  0.1720  0.4959  0.0136
  318TMC3    C8 4787   2.415   1.127  13.614 -0.1962  0.3020 -0.2298
  318TMC3    O1 4788   2.824   1.425  13.862  0.1499 -0.1294  0.3821
  318TMC3    O2 4789   2.401   1.038  13.695  0.2150  0.2353 -0.4413
  319MPD2     C 4790   3.458   2.764  16.508  0.5637  0.6890  0.1809
  319MPD2    C1 4791   3.380   2.700  16.597  0.2115 -0.4119 -0.0077
  319MPD2    C2 4792   3.251   2.669  16.561  0.0600  0.0293  0.1036
  319MPD2    C3 4793   3.206   2.691  16.430  0.5203  0.2172 -0.3837
  319MPD2    C4 4794   3.286   2.764  16.350 -0.5958  0.0470 -0.1712
  319MPD2    C5 4795   3.412   2.801  16.387 -0.1174 -0.5782  0.0056
  319MPD2     H 4796   3.185   2.617  16.630 -1.5229  1.1669 -0.5553
  319MPD2    H1 4797   3.244   2.789  16.253 -0.1230  0.2192 -0.3327
  319MPD2    H2 4798   3.562   2.792  16.521  0.5735  0.9515 -0.4293
  319MPD2    H3 4799   3.475   2.840  16.307  0.2812  0.2072  0.7004
  319MPD2     N 4800   3.077   2.660  16.377  0.2179 -0.0737 -0.3156
  319MPD2    H5 4801   3.053   2.698  16.286 -0.9209  1.7902  0.7449
  319MPD2    N1 4802   3.429   2.680  16.726  0.2459  0.1736 -0.0133
  319MPD2    H7 4803   3.376   2.612  16.780  1.0661 -0.3265  0.1691
  320TMC3    C1 4804   2.857   2.560  16.358  0.0190  0.2455 -0.3540
  320TMC3    C2 4805   2.811   2.651  16.269 -0.5799 -0.7038 -0.0836
  320TMC3    C3 4806   2.687   2.641  16.213  0.3439 -0.3417  0.0751
  320TMC3    C4 4807   2.792   2.449  16.393  0.0646  0.0822 -0.4142
  320TMC3    C5 4808   2.673   2.433  16.318 -0.0345  0.1563  0.3267
  320TMC3    C6 4809   2.614   2.526  16.238  0.2838  0.5127  0.5957
  320TMC3     C 4810   2.981   2.582  16.438 -0.1498  0.0007 -0.1338
  320TMC3     O 4811   2.989   2.508  16.533 -0.2425 -0.0540  0.2702
  320TMC3     H 4812   2.868   2.742  16.258  0.9232 -1.5257  0.8497
  320TMC3    H1 4813   2.842   2.377  16.457  0.2418  0.6293  0.0624
  320TMC3    H2 4814   2.520   2.507  16.188  0.9634 -0.1414 -0.4432
  320TMC3    C7 4815   2.617   2.304  16.313 -0.7501 -0.4069  0.3446
  320TMC3    C8 4816   2.641   2.759  16.145  0.6470  0.8087  0.1609
  320TMC3    O1 4817   2.575   2.271  16.208 -0.3676  0.2066  0.1478
  320TMC3    O2 4818   2.688   2.871  16.164 -0.0016  0.1472  0.1607
  321TMC3    C1 4819   3.551   2.728  16.924 -0.1952 -0.5210 -0.0738
  321TMC3    C2 4820   3.443   2.709  17.012  0.4785 -0.0329  0.0227
  321TMC3    C3 4821   3.460   2.733  17.146  0.3022 -0.2174  0.2837
  321TMC3    C4 4822   3.665   2.779  16.970  0.1277  0.2290  0.1506
  321TMC3    C5 4823   3.682   2.795  17.104  0.3270  0.7759 -0.6373
  321TMC3    C6 4824   3.582   2.778  17.190  0.5899 -0.9873  0.1768
  321TMC3     C 4825   3.541   2.748  16.782  1.4013 -0.6033  0.5048
  321TMC3     O 4826   3.612   2.835  16.735 -0.1877  0.0091 -0.3533
  321TMC3     H 4827   3.355   2.654  16.983  0.8260 -0.2943 -0.5233
  321TMC3    H1 4828   3.754   2.797  16.910  0.7791 -0.9763  0.7310
  321TMC3    H2 4829   3.597   2.798  17.295 -0.5789 -1.5758  0.4481
  321TMC3    C7 4830   3.813   2.742  17.152 -0.3435 -0.3080  0.8329
  321TMC3    C8 4831   3.427   2.633  17.247  0.6540 -0.1857  0.7520
  321TMC3    O1 4832   3.907   2.760  17.076  0.1120  0.2270 -0.5058
  321TMC3    O2 4833   3.528   2.566  17.277  0.0742  0.6180  0.6125
  322MPD2     C 4834   1.792   4.093  13.608 -0.2203 -0.0494 -0.0674
  322MPD2    C1 4835   1.853   4.033  13.715 -0.4500 -0.4770  0.7326
  322MPD2    C2 4836   1.876   3.897  13.711 -0.8047  0.0222 -0.1308
  322MPD2    C3 4837   1.847   3.821  13.598 -0.4837 -0.7347 -0.0139
  322MPD2    C4 4838   1.774   3.884  13.492  0.5328 -0.6020  0.1302
  322MPD2    C5 4839   1.753   4.021  13.501 -0.1575  0.3073  0.1018
  322MPD2     H 4840   1.933   3.848  13.790  1.0863 -0.6117 -1.8903
  322MPD2    H1 4841   1.741   3.829  13.404 -0.3786 -1.2762  0.9053
  322MPD2    H2 4842   1.766   4.198  13.612  1.2864  0.4032 -2.0371
  322MPD2    H3 4843   1.684   4.062  13.427  0.3432  1.0856  0.0655
  322MPD2     N 4844   1.899   3.685  13.590  0.1239  0.4949  0.3006
  322MPD2    H5 4845   1.951   3.659  13.673  2.1933  0.8665 -0.8903
  322MPD2    N1 4846   1.895   4.113  13.825  0.4490 -0.3875 -0.5005
  322MPD2    H7 4847   1.912   4.211  13.806  0.2883 -0.0356  1.1749
  323TMC3    C1 4848   1.996   4.157  14.037 -0.1452  0.2003  0.0656
  323TMC3    C2 4849   2.107   4.209  13.979 -0.0977 -0.5443 -0.3713
  323TMC3    C3 4850   2.215   4.243  14.059 -0.0472  0.5878 -0.3119
  323TMC3    C4 4851   1.990   4.132  14.171  0.3081 -0.6353  0.3109
  323TMC3    C5 4852   2.099   4.160  14.245 -0.4741  0.0926 -0.5031
  323TMC3    C6 4853   2.206   4.225  14.194 -0.4167  0.0902  0.1000
  323TMC3     C 4854   1.919   4.063  13.954 -0.1614  0.2377  0.3710
  323TMC3     O 4855   1.896   3.954  14.001  0.2865  0.1876 -0.8318
  323TMC3     H 4856   2.114   4.211  13.871 -0.5857  1.7326 -0.3657
  323TMC3    H1 4857   1.908   4.071  14.209 -0.9803  0.1048 -1.2837
  323TMC3    H2 4858   2.296   4.250  14.250  0.5438  0.6407 -1.6799
  323TMC3    C7 4859   2.134   4.075  14.358 -0.4936 -0.0831  0.5982
  323TMC3    C8 4860   2.343   4.280  14.014 -0.9194 -0.4425  0.3751
  323TMC3    O1 4861   2.076   3.968  14.371 -0.1929 -0.2700 -0.1046
  323TMC3    O2 4862   2.437   4.239  14.081 -0.0072 -0.0101 -0.1519
  324MPD2     C 4863   3.795   0.281  14.056  0.6859 -0.3035 -0.8111
  324MPD2    C1 4864   3.773   0.354  14.169  0.4927  0.4457  0.4812
  324MPD2    C2 4865   3.652   0.341  14.240  0.3304  0.5917  0.3120
  324MPD2    C3 4866   3.551   0.255  14.189  0.4221 -0.2868 -0.0411
  324MPD2    C4 4867   3.581   0.175  14.081  0.1739 -0.4727 -0.3371
  324MPD2    C5 4868   3.701   0.191  14.016  0.7389 -0.2672 -0.6252
  324MPD2     H 4869   3.647   0.392  14.336  1.4863 -0.2704  0.8333
  324MPD2    H1 4870   3.509   0.108  14.036 -0.4202  1.2084 -1.9196
  324MPD2    H2 4871   3.882   0.289  13.992  1.9339 -2.5683  0.6246
  324MPD2    H3 4872   3.715   0.135  13.924  2.4884 -3.1015  1.3839
  324MPD2     N 4873   3.419   0.240  14.235 -0.2105  0.1541  0.4808
  324MPD2    H5 4874   3.367   0.157  14.212 -1.1457  0.4453  1.5000
  324MPD2    N1 4875   3.871   0.434  14.226 -0.2635  0.1796  0.1044
  324MPD2    H7 4876   3.837   0.490  14.303  1.3621  0.7636  0.3980
  325TMC3    C1 4877   3.212   0.300  14.334  0.4506 -0.0942 -0.0065
  325TMC3    C2 4878   3.150   0.200  14.270  0.0723  0.1860  0.2789
  325TMC3    C3 4879   3.010   0.195  14.268 -0.2761  0.4416  0.0430
  325TMC3    C4 4880   3.140   0.397  14.402  0.6030  0.6453  0.0658
  325TMC3    C5 4881   3.003   0.393  14.389  0.1511 -0.0031  0.3782
  325TMC3    C6 4882   2.934   0.297  14.315  0.1487 -0.5658 -0.4418
  325TMC3     C 4883   3.355   0.329  14.324  0.3418  0.5509 -0.0974
  325TMC3     O 4884   3.398   0.437  14.366  0.3715 -0.0360 -0.2487
  325TMC3     H 4885   3.211   0.127  14.220  0.9514  1.8428 -1.0641
  325TMC3    H1 4886   3.183   0.472  14.468  2.0507 -2.0004  2.1488
  325TMC3    H2 4887   2.826   0.285  14.313  0.2192 -1.2809  0.1579
  325TMC3    C7 4888   2.932   0.493  14.460  0.0006  0.2503  0.0006
  325TMC3    C8 4889   2.956   0.109  14.160 -0.2122 -0.3843  0.0210
  325TMC3    O1 4890   2.992   0.593  14.492  0.3222 -0.9852 -0.0969
  325TMC3    O2 4891   3.027   0.074  14.072 -0.2104  0.2088  0.5639
  326MPD2     C 4892   0.533   1.755  11.335  0.3727  0.1034  0.2658
  326MPD2    C1 4893   0.518   1.770  11.197 -0.2007 -0.6604  0.2441
  326MPD2    C2 4894   0.611   1.712  11.110  0.0762 -0.3100 -0.3511
  326MPD2    C3 4895   0.734   1.677  11.168 -0.2501 -0.6724  0.1805
  326MPD2    C4 4896   0.734   1.664  11.301 -0.0533 -0.7168  0.1104
  326MPD2    C5 4897   0.645   1.705  11.389 -0.0838 -0.3029 -0.0790
  326MPD2     H 4898   0.601   1.729  11.003 -1.5949 -0.6540 -0.2424
  326MPD2    H1 4899   0.816   1.616  11.351 -0.8729 -1.7615  0.4548
  326MPD2    H2 4900   0.463   1.795  11.407  1.8674  1.4939  0.9406
  326MPD2    H3 4901   0.662   1.695  11.495  0.9633  0.3409 -0.1827
  326MPD2     N 4902   0.842   1.638  11.089  0.6305 -0.3419 -0.3477
  326MPD2    H5 4903   0.933   1.619  11.129  0.2679  0.6381  0.9391
  326MPD2    N1 4904   0.403   1.831  11.163  0.0243  0.1360  0.3189
  326MPD2    H7 4905   0.341   1.864  11.236 -0.3100 -0.3497  0.2567
  327TMC3    C1 4906   0.216   1.879  11.019 -0.3020 -0.2901  0.1855
  327TMC3    C2 4907   0.187   1.934  10.899  0.5113 -0.6610  0.3315
  327TMC3    C3 4908   0.070   1.898  10.831 -0.4284 -0.2661  0.0529
  327TMC3    C4 4909   0.134   1.776  11.068  0.0551 -0.6461 -0.5916
  327TMC3    C5 4910   0.036   1.725  10.985 -0.5721  0.9725  0.1701
  327TMC3    C6 4911   4.712   1.794  10.874  0.2423 -0.3308  0.8513
  327TMC3     C 4912   0.355   1.853  11.032  0.8289 -0.5838  0.1965
  327TMC3     O 4913   0.424   1.868  10.931 -0.1020  0.0111 -0.0836
  327TMC3     H 4914   0.238   2.021  10.860 -0.5303 -0.1989 -0.0188
  327TMC3    H1 4915   0.171   1.732  11.159  0.2172  1.0819  0.1850
  327TMC3    H2 4916   4.625   1.768  10.814 -0.2663  0.0670  1.4083
  327TMC3    C7 4917   0.062   1.588  10.952 -0.2512 -0.0413 -0.7186
  327TMC3    C8 4918   0.002   2.006  10.752 -0.7231 -1.1278 -0.4822
  327TMC3    O1 4919   0.030   1.562  10.835  0.4580 -0.3594  0.5242
  327TMC3    O2 4920   0.074   2.075  10.684  0.4329 -0.1094 -0.1673
  328MPD2     C 4921   2.249   0.787  17.144 -0.5591  0.1607  0.1214
  328MPD2    C1 4922   2.252   0.780  17.006 -0.1650 -0.7063 -0.2777
  328MPD2    C2 4923   2.238   0.901  16.935  0.3521  0.0510  0.5677
  328MPD2    C3 4924   2.250   1.022  17.000 -0.2997 -0.4390 -0.2272
  328MPD2    C4 4925   2.259   1.025  17.139  0.3842  0.0892 -0.0949
  328MPD2    C5 4926   2.251   0.914  17.209  0.1476  0.1838 -0.2560
  328MPD2     H 4927   2.234   0.888  16.827  0.1163  1.6904  0.3711
  328MPD2    H1 4928   2.241   1.119  17.189 -0.3495  0.2797 -0.7155
  328MPD2    H2 4929   2.235   0.695  17.198 -1.4210 -0.4227 -1.1067
  328MPD2    H3 4930   2.244   0.918  17.317 -3.2922 -1.5240 -0.4085
  328MPD2     N 4931   2.243   1.144  16.941  0.7129 -0.2878  0.4644
  328MPD2    H5 4932   2.257   1.224  17.001 -0.1536 -0.2937  0.6764
  328MPD2    N1 4933   2.240   0.645  16.954  0.0863  0.4256  0.1902
  328MPD2    H7 4934   2.220   0.566  17.014 -0.8487 -0.7290 -1.6310
  329TMC3    C1 4935   2.212   0.490  16.785  0.6678  0.1307  0.1447
  329TMC3    C2 4936   2.093   0.448  16.839  0.0452 -0.3210 -0.7367
  329TMC3    C3 4937   2.046   0.325  16.800  0.8501  0.1617  0.0804
  329TMC3    C4 4938   2.271   0.426  16.678 -0.4983 -0.7855 -0.4859
  329TMC3    C5 4939   2.229   0.301  16.651 -0.2044 -0.7585  0.5186
  329TMC3    C6 4940   2.113   0.248  16.708  0.3728 -0.3902 -0.5304
  329TMC3     C 4941   2.256   0.623  16.814 -0.7865 -0.4271 -0.1166
  329TMC3     O 4942   2.318   0.693  16.734  0.2322 -0.4669  0.0916
  329TMC3     H 4943   2.033   0.519  16.895  0.2729 -2.0615  1.6794
  329TMC3    H1 4944   2.359   0.465  16.626  0.7526  0.2887  2.4214
  329TMC3    H2 4945   2.086   0.144  16.698 -2.6345  0.4221 -0.7900
  329TMC3    C7 4946   2.322   0.215  16.583  0.8051 -0.3158  0.6555
  329TMC3    C8 4947   1.920   0.279  16.850  0.0727  0.5050 -0.0902
  329TMC3    O1 4948   2.437   0.253  16.572  0.6855 -0.1260 -0.0953
  329TMC3    O2 4949   1.852   0.195  16.786  0.3184  0.3362  0.4092
  330TMC3    C1 4950   0.703   1.582   9.364  0.2757 -0.4837  0.4164
  330TMC3    C2 4951   0.662   1.509   9.258 -0.0713 -0.1806 -0.5975
  330TMC3    C3 4952   0.706   1.377   9.240  0.2264  0.3915 -0.4403
  330TMC3    C4 4953   0.800   1.531   9.454 -0.1593  0.9181  0.2766
  330TMC3    C5 4954   0.847   1.405   9.431  0.6095  0.8746  0.7873
  330TMC3    C6 4955   0.795   1.322   9.330  0.2009 -0.4717 -0.1152
  330TMC3     C 4956   0.662   1.715   9.383 -0.4185 -0.7312 -0.4682
  330TMC3     O 4957   0.675   1.759   9.497  0.0728 -0.1103  0.8163
  330TMC3     H 4958   0.595   1.556   9.187 -1.4555  2.6080  2.5299
  330TMC3    H1 4959   0.829   1.582   9.546  2.3926 -2.1984  1.2104
  330TMC3    H2 4960   0.850   1.229   9.316  3.2580  0.9757  2.3528
  330TMC3    C7 4961   0.961   1.364   9.513  0.0353  0.0588 -0.0512
  330TMC3    C8 4962   0.614   1.291   9.168  0.0863 -0.1655 -0.4239
  330TMC3    O1 4963   1.024   1.458   9.569 -0.2239 -0.1573  0.3493
  330TMC3    O2 4964   0.545   1.346   9.082 -0.2124 -0.3569  0.8326
  331MPD2     C 4965   2.635   0.207  12.439  0.1050  0.1483  0.2267
  331MPD2    C1 4966   2.752   0.236  12.377 -0.0620 -0.3435 -0.8985
  331MPD2    C2 4967   2.839   0.146  12.336 -0.5381 -0.5267  1.0207
  331MPD2    C3 4968   2.818   0.009  12.357  0.0398 -0.3705 -0.3952
  331MPD2    C4 4969   2.702   4.690  12.415  0.0515  0.1754  0.1518
  331MPD2    C5 4970   2.611   0.071  12.454 -0.3791  0.8808  0.1374
  331MPD2     H 4971   2.933   0.177  12.292 -1.6676  1.7715  0.2369
  331MPD2    H1 4972   2.679   4.588  12.441 -1.5147  0.5370  0.1959
  331MPD2    H2 4973   2.561   0.277  12.476 -0.9513 -1.3550  0.9771
  331MPD2    H3 4974   2.517   0.038  12.497 -0.1376 -0.6025 -0.4463
  331MPD2     N 4975   2.918   4.645  12.314 -0.1451 -0.3626  0.5300
  331MPD2    H5 4976   2.991   4.683  12.254 -0.4409  2.8112  2.1889
  331MPD2    N1 4977   2.789   0.369  12.355  0.2391 -0.3690 -0.0714
  331MPD2    H7 4978   2.881   0.381  12.314  0.8786 -1.5840  0.9877
  332TMC3    C1 4979   3.057   4.452  12.301  0.2454 -1.0949  0.0047
  332TMC3    C2 4980   3.120   4.502  12.187 -0.1849 -0.1516 -0.6759
  332TMC3    C3 4981   3.250   4.470  12.179 -0.0677 -0.2422  0.2926
  332TMC3    C4 4982   3.115   4.353  12.383  0.8142 -0.1664 -0.3287
  332TMC3    C5 4983   3.246   4.328  12.358 -0.0399 -0.6436 -0.2276
  332TMC3    C6 4984   3.319   4.399  12.270 -0.5455  0.0895 -0.1503
  332TMC3     C 4985   2.926   4.508  12.343  0.2720  0.1295 -0.1146
  332TMC3     O 4986   2.851   4.445  12.416 -0.7267  0.0232 -0.2724
  332TMC3     H 4987   3.077   4.583  12.129  1.6382  1.3732  0.1104
  332TMC3    H1 4988   3.049   4.301  12.452  1.0145  1.2956  0.9625
  332TMC3    H2 4989   3.424   4.383  12.251 -0.1100  0.9727  1.5128
  332TMC3    C7 4990   3.301   4.244  12.459 -0.0215  0.7565  0.0394
  332TMC3    C8 4991   3.327   4.548  12.086 -0.1989  0.4034  0.2632
  332TMC3    O1 4992   3.218   4.185  12.522 -0.0482  0.2867 -0.4614
  332TMC3    O2 4993   3.435   4.578  12.133  0.1431 -0.5011  0.2299
  333MPD2     C 4994   3.562   0.197  11.126 -0.1948  0.1568 -0.1762
  333MPD2    C1 4995   3.673   0.112  11.107  0.0709 -0.1514  0.1660
  333MPD2    C2 4996   3.675   4.714  11.183 -0.2251 -0.0943 -0.0652
  333MPD2    C3 4997   3.575   4.675  11.272  0.0863  0.1263 -1.0775
  333MPD2    C4 4998   3.464   0.038  11.277  0.0999  0.3410 -0.3848
  333MPD2    C5 4999   3.456   0.152  11.199  0.0357 -0.6426 -0.4103
  333MPD2     H 5000   3.764   4.653  11.181 -1.0100 -1.1528 -2.4289
  333MPD2    H1 5001   3.381   0.013  11.343  0.3296  1.1837  0.2331
  333MPD2    H2 5002   3.552   0.286  11.064  2.0384 -0.4002 -1.3406
  333MPD2    H3 5003   3.368   0.215  11.202  0.4830 -0.0249 -0.2460
  333MPD2     N 5004   3.596   4.560  11.349 -0.1373  0.0502  0.7179
  333MPD2    H5 5005   3.688   4.518  11.345 -1.0886 -1.8786 -0.9579
  333MPD2    N1 5006   3.788   0.158  11.035 -0.3619 -0.5355  0.1146
  333MPD2    H7 5007   3.786   0.252  10.998 -1.9486 -0.5635  0.1112
  334TMC3    C1 5008   3.985   0.131  10.899  0.3624  0.2089  0.0816
  334TMC3    C2 5009   4.052   0.051  10.812  0.3786  0.0063 -0.1509
  334TMC3    C3 5010   4.167   0.095  10.759  1.1214  0.2511  0.1799
  334TMC3    C4 5011   4.023   0.263  10.912 -0.2249  0.2438 -0.0170
  334TMC3    C5 5012   4.134   0.305  10.840 -0.1088  0.4789  0.0445
  334TMC3    C6 5013   4.209   0.223  10.763 -0.0180  0.3335  0.1341
  334TMC3     C 5014   3.887   0.071  10.987  0.3028  0.2674  0.5204
  334TMC3     O 5015   3.897   4.665  10.995 -0.2899  0.7297  0.8979
  334TMC3     H 5016   4.040   4.662  10.813  0.1793  0.0343  0.8058
  334TMC3    H1 5017   3.986   0.336  10.983 -1.2848  0.0178 -0.3357
  334TMC3    H2 5018   4.309   0.248  10.730 -0.3586 -0.9529 -1.9031
  334TMC3    C7 5019   4.175   0.446  10.835  0.9662  0.7599 -0.0300
  334TMC3    C8 5020   4.259   4.710  10.711 -0.2857  0.4403  0.9020
  334TMC3    O1 5021   4.140   0.523  10.927 -0.1067  0.1546  0.3766
  334TMC3    O2 5022   4.243   4.603  10.764 -0.3268  0.2258 -0.0982
  335TMC3    C1 5023   3.029   1.399  17.230 -0.6835 -0.2953  0.4007
  335TMC3    C2 5024   2.994   1.374  17.097 -0.1330  0.4435 -0.5933
  335TMC3    C3 5025   3.097   1.358  17.011 -0.1985 -0.4897 -0.2491
  335TMC3    C4 5026   3.162   1.395  17.271 -0.1495 -0.5015 -0.3715
  335TMC3    C5 5027   3.260   1.379  17.175 -0.0849 -0.3622 -0.2943
  335TMC3    C6 5028   3.228   1.357  17.047 -0.6339  0.1833  0.3584
  335TMC3     C 5029   2.937   1.450  17.324 -0.1718 -0.1203  0.4568
  335TMC3     O 5030   2.983   1.466  17.435  0.0272  0.3990  0.2075
  335TMC3     H 5031   2.890   1.388  17.070  0.0454  0.4641 -1.2635
  335TMC3    H1 5032   3.188   1.422  17.373 -1.5731  0.9860 -0.4044
  335TMC3    H2 5033   3.302   1.337  16.970 -4.6458  0.2063 -3.5017
  335TMC3    C7 5034   3.395   1.365  17.209  0.2411  0.0971  0.7660
  335TMC3    C8 5035   3.068   1.290  16.890  0.1475  0.0016 -0.8599
  335TMC3    O1 5036   3.476   1.397  17.122 -0.5452 -0.2118 -0.0876
  335TMC3    O2 5037   3.162   1.280  16.809 -0.3722 -0.2149 -0.0826
  336MPD2     C 5038   2.739   4.029  16.458 -0.3178 -0.1715  0.1157
  336MPD2    C1 5039   2.734   3.964  16.337  0.3530  0.5177 -0.3692
  336MPD2    C2 5040   2.736   3.830  16.337  0.2897  0.5431  0.2992
  336MPD2    C3 5041   2.768   3.756  16.449  0.3316  0.2679 -0.0766
  336MPD2    C4 5042   2.771   3.817  16.567  0.3141 -0.2220  0.6609
  336MPD2    C5 5043   2.750   3.953  16.570  0.2407 -0.5965 -0.0789
  336MPD2     H 5044   2.719   3.786  16.239 -0.8198 -2.1962  1.7507
  336MPD2    H1 5045   2.773   3.762  16.660 -0.8626  0.7574  1.2702
  336MPD2    H2 5046   2.714   4.134  16.466 -0.1380 -0.1417  0.2731
  336MPD2    H3 5047   2.755   4.000  16.667 -0.2221 -2.5217  0.8763
  336MPD2     N 5048   2.767   3.610  16.459  0.2033  0.2763  0.0183
  336MPD2    H5 5049   2.776   3.578  16.555 -1.8572 -0.8213 -0.1504
  336MPD2    N1 5050   2.708   4.035  16.216  0.2683 -0.2359  0.2727
  336MPD2    H7 5051   2.687   3.970  16.141  2.1635 -0.0381 -0.4276
  337TMC3    C1 5052   2.667   4.212  16.060  0.2669  0.2114 -1.3183
  337TMC3    C2 5053   2.552   4.141  16.021 -0.5939  0.2799 -0.0770
  337TMC3    C3 5054   2.465   4.213  15.940 -0.1102  0.2341 -0.3080
  337TMC3    C4 5055   2.694   4.341  16.014 -0.8588  0.1465 -0.2011
  337TMC3    C5 5056   2.595   4.399  15.942 -1.1951 -0.0858 -0.5688
  337TMC3    C6 5057   2.480   4.343  15.904 -0.8263  0.2591  0.2800
  337TMC3     C 5058   2.716   4.170  16.191  0.4052  0.1681  0.1752
  337TMC3     O 5059   2.737   4.271  16.261  0.4411 -0.8353  0.2049
  337TMC3     H 5060   2.527   4.044  16.062 -1.4567  1.0111  1.1472
  337TMC3    H1 5061   2.779   4.403  16.038 -1.0257  0.9998 -1.8230
  337TMC3    H2 5062   2.392   4.404  15.887 -1.0765  0.6559  2.9798
  337TMC3    C7 5063   2.577   4.547  15.968 -0.4334 -0.8887 -0.1758
  337TMC3    C8 5064   2.332   4.165  15.927  0.0575  0.3419  0.4789
  337TMC3    O1 5065   2.466   4.591  15.993 -0.4282 -0.0328 -0.4003
  337TMC3    O2 5066   2.279   4.103  16.018 -0.2546 -0.6323 -0.4810
  338MPD2     C 5067   3.378   3.126   0.626 -0.2500  0.1513 -0.3757
  338MPD2    C1 5068   3.259   3.183   0.583 -0.9751  0.4039 -0.1587
  338MPD2    C2 5069   3.217   3.313   0.615 -0.1500  0.3437  0.0383
  338MPD2    C3 5070   3.300   3.384   0.701  0.2313  0.8345  0.0795
  338MPD2    C4 5071   3.409   3.326   0.758  0.4260  0.3523  0.0485
  338MPD2    C5 5072   3.450   3.202   0.711 -0.4370 -0.2817 -0.0066
  338MPD2     H 5073   3.125   3.349   0.570 -0.2269 -1.4382 -1.2148
  338MPD2    H1 5074   3.474   3.380   0.825  0.8198  2.5035 -2.0803
  338MPD2    H2 5075   3.401   3.023   0.604 -3.8038  0.0948 -3.9655
  338MPD2    H3 5076   3.545   3.167   0.749 -0.4173 -0.4344 -0.1936
  338MPD2     N 5077   3.243   3.503   0.752  0.2236 -0.5085 -0.2513
  338MPD2    H5 5078   3.151   3.527   0.717 -0.1942  0.0802  1.2353
  338MPD2    N1 5079   3.170   3.120   0.494 -0.3164  0.2846 -1.2700
  338MPD2    H7 5080   3.082   3.164   0.469  0.2255  0.3565 -3.0369
  339TMC3    C1 5081   3.221   3.711   0.863 -0.0769 -0.0807  0.3224
  339TMC3    C2 5082   3.214   3.745   0.999  0.5441 -0.5670  0.2050
  339TMC3    C3 5083   3.102   3.812   1.033  0.3002  0.7138  0.4173
  339TMC3    C4 5084   3.135   3.748   0.769  0.3773 -0.3249 -0.3845
  339TMC3    C5 5085   3.030   3.827   0.813 -0.1003  0.1817  0.5573
  339TMC3    C6 5086   3.011   3.853   0.948  0.2726 -0.3171  0.0175
  339TMC3     C 5087   3.302   3.585   0.844  0.1189  0.5935  0.0118
  339TMC3     O 5088   3.410   3.593   0.895  0.1416 -0.4365  0.1380
  339TMC3     H 5089   3.287   3.714   1.073  3.1881  0.3534 -1.9727
  339TMC3    H1 5090   3.140   3.717   0.665 -1.8400  1.6987 -1.0909
  339TMC3    H2 5091   2.926   3.912   0.981 -1.8132 -2.0839 -2.2023
  339TMC3    C7 5092   2.958   3.890   0.706  0.2153 -0.7110 -0.3366
  339TMC3    C8 5093   3.081   3.847   1.168  0.2584  0.3827  0.0601
  339TMC3    O1 5094   3.018   3.902   0.596 -0.4528  0.5251 -0.6785
  339TMC3    O2 5095   3.168   3.902   1.234 -0.2834 -0.0947 -0.2666
  340MPD2     C 5096   4.270   1.406  10.579  0.3832 -0.1782 -0.0461
  340MPD2    C1 5097   4.322   1.448  10.461  0.5157  0.1829  0.4794
  340MPD2    C2 5098   4.447   1.498  10.461 -0.3107  0.5784  0.3031
  340MPD2    C3 5099   4.527   1.494  10.571  0.4683  0.0455 -0.1438
  340MPD2    C4 5100   4.478   1.438  10.690  0.3864 -0.2669  0.2817
  340MPD2    C5 5101   4.346   1.392  10.694  0.3865 -0.3870  0.3974
  340MPD2     H 5102   4.497   1.547  10.378 -1.1013  0.5736 -0.1824
  340MPD2    H1 5103   4.538   1.429  10.780  2.9994  1.0266 -1.3529
  340MPD2    H2 5104   4.171   1.363  10.590 -0.4703  1.1184 -2.6809
  340MPD2    H3 5105   4.299   1.351  10.783  0.7739 -0.4545  0.5714
  340MPD2     N 5106   4.659   1.549  10.576 -0.6374  0.8315  0.5551
  340MPD2    H5 5107   4.698   1.547  10.670  2.0159 -0.6257 -0.5893
  340MPD2    N1 5108   4.255   1.446  10.339 -0.7145  0.1700 -0.4451
  340MPD2    H7 5109   4.157   1.433  10.360 -0.6383  0.4536  0.0905
  341TMC3    C1 5110   4.187   1.489  10.112  0.4538 -0.2830  0.3204
  341TMC3    C2 5111   4.070   1.422  10.132 -0.8002  0.1235  0.2466
  341TMC3    C3 5112   3.980   1.420  10.019 -0.2479 -1.2227  0.1015
  341TMC3    C4 5113   4.215   1.540   9.991  0.1206  0.2448 -0.6001
  341TMC3    C5 5114   4.122   1.536   9.891  0.0094 -0.3078  0.2382
  341TMC3    C6 5115   3.993   1.484   9.902 -0.4020 -0.1679 -0.7265
  341TMC3     C 5116   4.295   1.483  10.214  0.8694 -0.4719  0.0947
  341TMC3     O 5117   4.412   1.511  10.177  0.1581 -0.5930 -0.2210
  341TMC3     H 5118   4.046   1.389  10.233  0.6326 -3.7454 -0.6686
  341TMC3    H1 5119   4.303   1.597   9.964  0.5737  0.5587  1.5346
  341TMC3    H2 5120   3.942   1.468   9.807  0.3401 -0.3505 -1.0970
  341TMC3    C7 5121   4.154   1.556   9.750  0.1579 -0.5724 -0.0541
  341TMC3    C8 5122   3.856   1.346  10.026  0.2424  0.5005  0.9078
  341TMC3    O1 5123   4.222   1.464   9.701  0.3670  0.3015  0.4115
  341TMC3    O2 5124   3.773   1.375   9.947 -0.2679  1.0286 -0.1544
  342MPD2     C 5125   0.514   4.143  17.413  0.2161 -0.1453  0.1148
  342MPD2    C1 5126   0.645   4.190  17.403  0.2455  0.4932 -0.1839
  342MPD2    C2 5127   0.670   4.312  17.344  0.7891 -0.6478  0.3420
  342MPD2    C3 5128   0.572   4.391  17.295 -0.0063  0.6556 -0.2473
  342MPD2    C4 5129   0.443   4.341  17.301 -0.0234  0.4927 -0.0999
  342MPD2    C5 5130   0.417   4.222  17.355  0.0578 -0.4879  0.5837
  342MPD2     H 5131   0.775   4.328  17.325  0.8653 -0.8525  0.5797
  342MPD2    H1 5132   0.364   4.408  17.267 -0.7792 -1.6369 -2.5055
  342MPD2    H2 5133   0.488   4.045  17.452  0.7387 -0.4857 -0.3862
  342MPD2    H3 5134   0.314   4.190  17.343  0.8793 -1.6855 -3.0466
  342MPD2     N 5135   0.595   4.521  17.240  0.4092 -0.0993 -0.6654
  342MPD2    H5 5136   0.524   4.584  17.205 -0.9739 -0.2470  1.9193
  342MPD2    N1 5137   0.756   4.119  17.448  0.1584  0.3607 -0.0400
  342MPD2    H7 5138   0.841   4.166  17.419  0.9172 -1.6271 -1.0422
  343TMC3    C1 5139   0.889   3.926  17.478  0.1751  0.7442 -0.3322
  343TMC3    C2 5140   0.995   3.995  17.423 -0.1933 -0.4222 -0.1058
  343TMC3    C3 5141   1.111   3.927  17.412  0.3846 -0.4038  1.1476
  343TMC3    C4 5142   0.897   3.793  17.516 -0.2693 -0.4526 -0.3464
  343TMC3    C5 5143   1.018   3.726  17.493 -0.2122  0.6539 -0.5020
  343TMC3    C6 5144   1.130   3.801  17.463  0.5786 -0.4492  0.5054
  343TMC3     C 5145   0.762   3.990  17.488  0.1067  0.4398 -0.4338
  343TMC3     O 5146   0.665   3.916  17.513  0.3280  0.6432  0.2981
  343TMC3     H 5147   0.987   4.086  17.364  1.7030 -0.5220 -0.4867
  343TMC3    H1 5148   0.817   3.730  17.554 -0.9235  1.5714  1.7242
  343TMC3    H2 5149   1.227   3.752  17.460  0.4943 -0.6128  0.4420
  343TMC3    C7 5150   1.016   3.588  17.443 -0.2316 -0.2456 -0.0886
  343TMC3    C8 5151   1.229   4.003  17.372 -0.0705 -0.5722 -0.4592
  343TMC3    O1 5152   0.920   3.545  17.385 -0.3304  0.0012  0.1257
  343TMC3    O2 5153   1.232   4.126  17.386  0.1373 -0.2611 -0.0465
  344MPD2     C 5154   2.739   3.748  10.841  0.6435  0.0206 -0.3340
  344MPD2    C1 5155   2.643   3.757  10.743  0.0758  0.6263 -0.8858
  344MPD2    C2 5156   2.659   3.842  10.639  0.0037 -0.6450 -0.0619
  344MPD2    C3 5157   2.766   3.926  10.629  0.1632  0.0208  0.3728
  344MPD2    C4 5158   2.866   3.910  10.726 -0.5408  0.6285  0.2827
  344MPD2    C5 5159   2.850   3.825  10.835 -0.4342 -0.5020 -0.2536
  344MPD2     H 5160   2.592   3.831  10.555  1.6916 -0.3812 -1.4376
  344MPD2    H1 5161   2.954   3.971  10.718  0.1447 -0.5337 -1.1073
  344MPD2    H2 5162   2.724   3.693  10.933  0.5584 -0.5239 -0.6722
  344MPD2    H3 5163   2.928   3.812  10.909 -0.9326  0.1443  0.3912
  344MPD2     N 5164   2.791   4.037  10.535 -0.0131  0.6142 -0.0663
  344MPD2    H5 5165   2.870   4.093  10.565 -0.3837  0.7692  0.6241
  344MPD2    N1 5166   2.545   3.658  10.747 -0.1187 -0.2124 -0.3279
  344MPD2    H7 5167   2.552   3.586  10.819  0.2542 -1.2029 -1.3540
  345TMC3    C1 5168   2.750   4.197  10.364 -0.3768 -0.2381  0.6450
  345TMC3    C2 5169   2.874   4.242  10.383  0.5853 -0.0439 -0.8276
  345TMC3    C3 5170   2.909   4.359  10.322 -0.6640 -0.6355  0.8742
  345TMC3    C4 5171   2.648   4.265  10.295 -0.5411 -0.3967 -0.4554
  345TMC3    C5 5172   2.684   4.388  10.255 -0.4601  0.3060 -0.3316
  345TMC3    C6 5173   2.806   4.433  10.267  0.6378 -0.4137 -0.0355
  345TMC3     C 5174   2.706   4.084  10.435  0.8857  0.6386 -0.0352
  345TMC3     O 5175   2.598   4.033  10.400 -0.0095  0.1612 -0.0013
  345TMC3     H 5176   2.948   4.188  10.441  0.1405  1.8481  1.4978
  345TMC3    H1 5177   2.546   4.229  10.299 -1.1051  1.0588 -1.8394
  345TMC3    H2 5178   2.826   4.523  10.211  0.6582 -1.5538 -1.8972
  345TMC3    C7 5179   2.584   4.483  10.217 -0.5605 -0.1733 -0.3659
  345TMC3    C8 5180   3.033   4.435  10.354  0.4132 -0.3327  0.0471
  345TMC3    O1 5181   2.612   4.601  10.234 -0.2300  0.4633 -0.6771
  345TMC3    O2 5182   3.029   4.554  10.338 -0.1700 -0.0550  0.2001
  346MPD2     C 5183   1.663   0.234  14.212 -0.2806 -0.0396 -0.1149
  346MPD2    C1 5184   1.776   0.306  14.206  0.0886 -1.0177  0.5132
  346MPD2    C2 5185   1.846   0.333  14.325 -0.4444 -0.7304 -0.2733
  346MPD2    C3 5186   1.807   0.302  14.447  0.2181  0.1303 -0.3676
  346MPD2    C4 5187   1.688   0.221  14.460 -0.2270  0.0656 -0.2057
  346MPD2    C5 5188   1.627   0.187  14.336  0.3151  0.7268 -0.1708
  346MPD2     H 5189   1.940   0.387  14.324 -1.2375  0.6459 -1.5356
  346MPD2    H1 5190   1.634   0.192  14.549 -0.2708  0.9409  0.0465
  346MPD2    H2 5191   1.619   0.200  14.119  1.0785 -0.1208 -0.7147
  346MPD2    H3 5192   1.532   0.137  14.345  0.7454  0.1255  1.0946
  346MPD2     N 5193   1.885   0.364  14.549 -0.0822 -0.3231  0.1054
  346MPD2    H5 5194   1.977   0.398  14.524  0.2000 -1.3356 -0.2649
  346MPD2    N1 5195   1.822   0.361  14.091 -0.0800 -0.1996  0.3334
  346MPD2    H7 5196   1.916   0.400  14.092 -0.3260  0.3205  3.2167
  347TMC3    C1 5197   1.975   0.387  14.759  0.3856 -0.6292 -0.6347
  347TMC3    C2 5198   2.098   0.380  14.701 -0.2504 -0.1605  0.1091
  347TMC3    C3 5199   2.202   0.430  14.770  0.2457 -0.5543 -0.9230
  347TMC3    C4 5200   1.946   0.448  14.881  0.3482 -0.8448  0.3673
  347TMC3    C5 5201   2.058   0.495  14.947 -0.5637  0.4498  0.1603
  347TMC3    C6 5202   2.188   0.483  14.895  0.0777 -0.5053  0.8130
  347TMC3     C 5203   1.859   0.360  14.683 -0.8754 -0.3658 -0.1523
  347TMC3     O 5204   1.749   0.366  14.738  1.1537  0.1131  0.5251
  347TMC3     H 5205   2.118   0.318  14.614  2.0423 -0.8306  1.1288
  347TMC3    H1 5206   1.848   0.448  14.926 -0.3661 -1.8830 -1.2058
  347TMC3    H2 5207   2.280   0.508  14.947  0.1508 -2.4283  1.5919
  347TMC3    C7 5208   2.040   0.543  15.080  0.1691  0.7265  0.2605
  347TMC3    C8 5209   2.334   0.425  14.707  0.2288 -0.4999 -0.0751
  347TMC3    O1 5210   1.928   0.518  15.122 -0.2863  0.1043 -0.2281
  347TMC3    O2 5211   2.356   0.338  14.625 -0.3784 -0.6539  0.2702
  348MPD2     C 5212   0.880   0.540  11.995  0.7095 -0.2573 -0.2724
  348MPD2    C1 5213   1.007   0.585  11.952 -0.7732 -0.6148  0.2627
  348MPD2    C2 5214   1.008   0.650  11.831 -0.3645  0.0350  0.1301
  348MPD2    C3 5215   0.895   0.665  11.752 -0.6537 -0.7470  0.0277
  348MPD2    C4 5216   0.770   0.615  11.793 -0.1300 -0.7480 -0.3021
  348MPD2    C5 5217   0.768   0.555  11.916 -0.0300  0.6096 -0.1417
  348MPD2     H 5218   1.097   0.698  11.792 -1.1055 -0.5514 -2.3340
  348MPD2    H1 5219   0.678   0.628  11.737 -0.8809 -1.2386  0.8350
  348MPD2    H2 5220   0.878   0.484  12.088  2.7596  1.9621  1.0981
  348MPD2    H3 5221   0.672   0.522  11.953 -0.0757  0.5301 -0.3322
  348MPD2     N 5222   0.912   0.730  11.626 -0.5809  0.3792 -0.1421
  348MPD2    H5 5223   1.002   0.770  11.601  0.1483 -1.2208 -0.0644
  348MPD2    N1 5224   1.129   0.579  12.024  0.0878 -0.5648  0.4507
  348MPD2    H7 5225   1.212   0.627  11.989 -0.2913 -0.5937 -0.4945
  349TMC3    C1 5226   1.275   0.536  12.208 -0.2260  0.2833  0.0343
  349TMC3    C2 5227   1.304   0.429  12.296 -0.2847  0.3406 -0.4106
  349TMC3    C3 5228   1.409   0.344  12.269 -0.6415  0.3077  0.6858
  349TMC3    C4 5229   1.367   0.581  12.113  0.1123  0.0465 -0.1036
  349TMC3    C5 5230   1.455   0.480  12.079 -0.2797  0.4043  0.1508
  349TMC3    C6 5231   1.486   0.369  12.159  0.1288 -0.5007  0.1573
  349TMC3     C 5232   1.138   0.526  12.152 -0.3811 -0.4033 -0.3926
  349TMC3     O 5233   1.055   0.473  12.227  0.0845 -0.4877  0.0794
  349TMC3     H 5234   1.233   0.397  12.372  0.3645  0.2310  0.1402
  349TMC3    H1 5235   1.346   0.668  12.052  2.9417  0.4559 -0.5112
  349TMC3    H2 5236   1.567   0.300  12.138  1.5129  1.4188 -0.8788
  349TMC3    C7 5237   1.424   0.427  11.949 -0.1025  0.3812 -0.0272
  349TMC3    C8 5238   1.364   0.205  12.279 -0.0189  0.1119 -0.5703
  349TMC3    O1 5239   1.386   0.312  11.941  0.2260  0.6220  0.0799
  349TMC3    O2 5240   1.304   0.169  12.380  0.1432 -0.4658 -0.2185
  350MPD2     C 5241   0.471   3.787  10.033 -0.4909  0.5269  0.1343
  350MPD2    C1 5242   0.505   3.671  10.100 -0.2055 -0.3837 -0.1375
  350MPD2    C2 5243   0.631   3.615  10.085 -0.2058  0.1713 -0.5766
  350MPD2    C3 5244   0.729   3.683  10.009  0.3292  0.3101  0.6690
  350MPD2    C4 5245   0.691   3.804   9.947 -0.3779 -0.3822 -0.2377
  350MPD2    C5 5246   0.562   3.852   9.957  0.5725  0.2559 -0.4382
  350MPD2     H 5247   0.662   3.527  10.139 -0.4444  0.3689 -0.1147
  350MPD2    H1 5248   0.753   3.867   9.885 -0.3575  1.1254  1.3055
  350MPD2    H2 5249   0.371   3.826  10.040  0.1263  1.7281  2.2204
  350MPD2    H3 5250   0.532   3.946   9.911  0.3684 -1.0354 -2.9614
  350MPD2     N 5251   0.867   3.639   9.998  0.2812  0.2175 -0.0313
  350MPD2    H5 5252   0.896   3.559  10.054  0.4830  1.0773  1.0948
  350MPD2    N1 5253   0.411   3.602  10.186  0.3331  0.6636 -0.3040
  350MPD2    H7 5254   0.437   3.505  10.206  2.6836  1.6890  1.6222
  351TMC3    C1 5255   0.200   3.562  10.304  0.6344  0.1731 -0.3375
  351TMC3    C2 5256   0.244   3.439  10.345  0.4257 -0.4754  0.0129
  351TMC3    C3 5257   0.176   3.371  10.438 -0.0642  0.2861 -0.3781
  351TMC3    C4 5258   0.087   3.619  10.351 -0.5452 -0.5407  0.0004
  351TMC3    C5 5259   0.035   3.547  10.456 -0.7595  0.3809 -0.3442
  351TMC3    C6 5260   0.071   3.421  10.499  0.0694  0.6984  0.4265
  351TMC3     C 5261   0.285   3.647  10.214  0.8218  0.2404  0.2480
  351TMC3     O 5262   0.232   3.754  10.189  0.0246 -0.3233  0.3364
  351TMC3     H 5263   0.340   3.407  10.307  0.3486 -0.6630 -0.0212
  351TMC3    H1 5264   0.062   3.721  10.325 -0.9088  0.0828  2.8614
  351TMC3    H2 5265   0.014   3.381  10.582  0.9359 -0.2907  0.5463
  351TMC3    C7 5266   4.667   3.628  10.550  0.4163 -0.0316 -0.0518
  351TMC3    C8 5267   0.222   3.235  10.465  0.2888 -0.0270 -0.1929
  351TMC3    O1 5268   4.698   3.748  10.541  0.3900 -0.6388 -0.3633
  351TMC3    O2 5269   0.176   3.183  10.566 -0.1599  0.3548  0.2642
  352MPD2     C 5270   2.670   0.797   1.321  0.0502  0.2595  0.5283
  352MPD2    C1 5271   2.745   0.801   1.200 -0.0965  0.2486 -0.1023
  352MPD2    C2 5272   2.846   0.713   1.183 -0.7712  0.3680  0.1450
  352MPD2    C3 5273   2.864   0.618   1.275  0.2047 -0.4973 -0.3767
  352MPD2    C4 5274   2.801   0.617   1.394 -0.1214  0.6475 -0.2007
  352MPD2    C5 5275   2.701   0.708   1.420 -0.0244 -0.3040 -0.3592
  352MPD2     H 5276   2.898   0.712   1.088 -2.7257  2.0153 -0.9447
  352MPD2    H1 5277   2.819   0.533   1.461  0.1252  0.3138 -0.6879
  352MPD2    H2 5278   2.590   0.868   1.332  0.6957  0.8578  1.3215
  352MPD2    H3 5279   2.653   0.711   1.517 -0.8142 -0.5580 -0.7465
  352MPD2     N 5280   2.966   0.525   1.274 -0.3242  0.2689 -0.5835
  352MPD2    H5 5281   2.950   0.433   1.313 -0.2562  0.6844  0.4264
  352MPD2    N1 5282   2.713   0.902   1.106  0.1804 -0.0858  0.1558
  352MPD2    H7 5283   2.638   0.966   1.132 -0.1346  0.2534 -1.6077
  353TMC3    C1 5284   3.167   0.413   1.261 -0.2577 -0.0154  0.0891
  353TMC3    C2 5285   3.295   0.420   1.307 -0.1674  0.1790  1.0363
  353TMC3    C3 5286   3.351   0.316   1.376 -0.6522  0.4643  0.2185
  353TMC3    C4 5287   3.098   0.295   1.280 -0.1330 -0.6826 -0.2142
  353TMC3    C5 5288   3.158   0.191   1.341  0.2560 -0.5327 -0.1355
  353TMC3    C6 5289   3.280   0.205   1.399 -0.0669  0.2389  0.8367
  353TMC3     C 5290   3.095   0.537   1.229  0.2855 -0.7748  0.3792
  353TMC3     O 5291   3.140   0.637   1.175  0.1151  0.6392 -0.2527
  353TMC3     H 5292   3.353   0.509   1.288  0.6597 -0.1535  2.0027
  353TMC3    H1 5293   3.007   0.274   1.225 -1.5588  1.3361  1.3911
  353TMC3    H2 5294   3.312   0.135   1.476 -0.4180 -0.9390 -0.1037
  353TMC3    C7 5295   3.113   0.060   1.329 -0.4149 -0.3152 -0.4838
  353TMC3    C8 5296   3.491   0.326   1.409 -0.4543  0.9304  0.0567
  353TMC3    O1 5297   3.197   4.692   1.335  0.4440 -0.3349  0.4931
  353TMC3    O2 5298   3.532   0.439   1.431  0.7675 -0.7529 -0.1756
  354TMC3    C1 5299   0.093   1.746  13.474 -0.2243  0.5157  0.7074
  354TMC3    C2 5300   0.063   1.873  13.512 -0.8343 -0.5669  0.1952
  354TMC3    C3 5301   0.036   1.962  13.413  0.2288 -0.0138  0.0370
  354TMC3    C4 5302   0.076   1.698  13.346 -0.8229  0.3955  0.5019
  354TMC3    C5 5303   0.015   1.786  13.256 -0.0572 -0.1395 -0.0418
  354TMC3    C6 5304   0.010   1.919  13.279  0.2333  0.2938 -0.0920
  354TMC3     C 5305   0.063   1.648  13.583 -0.2102 -0.0719  0.1544
  354TMC3     O 5306   4.707   1.683  13.676  1.0718 -0.0348 -0.0428
  354TMC3     H 5307   0.070   1.911  13.614  0.1127 -0.1575 -0.0238
  354TMC3    H1 5308   0.069   1.590  13.335  1.8021  0.3152 -0.2454
  354TMC3    H2 5309   4.703   1.981  13.194  2.0786  1.5555  0.2673
  354TMC3    C7 5310   0.009   1.769  13.111  0.2365 -0.6871  0.2122
  354TMC3    C8 5311   0.084   2.097  13.427 -0.8744  0.1602  0.3679
  354TMC3    O1 5312   4.630   1.805  13.045 -0.3213  0.3484 -0.0165
  354TMC3    O2 5313   0.107   2.133  13.540  0.0827 -0.3043 -0.1988
  355MPD2     C 5314   0.642   2.448  11.855 -0.0660  0.6134 -0.0009
  355MPD2    C1 5315   0.708   2.436  11.738 -0.2980 -0.5523 -0.3274
  355MPD2    C2 5316   0.844   2.398  11.738  0.2519 -0.5752 -0.1287
  355MPD2    C3 5317   0.922   2.403  11.852 -0.4164  0.1628  0.5399
  355MPD2    C4 5318   0.854   2.419  11.970 -0.1751 -0.3395 -0.2992
  355MPD2    C5 5319   0.718   2.448  11.972  0.4976 -0.2692 -0.3366
  355MPD2     H 5320   0.881   2.363  11.643  0.3533 -0.7903 -0.0104
  355MPD2    H1 5321   0.909   2.427  12.063  0.0482  1.4523 -0.5733
  355MPD2    H2 5322   0.534   2.457  11.855 -0.3380 -2.5616  1.6424
  355MPD2    H3 5323   0.663   2.468  12.063 -2.4618  0.3796 -2.2730
  355MPD2     N 5324   1.062   2.406  11.850 -0.1739  0.6024  0.5169
  355MPD2    H5 5325   1.106   2.406  11.941 -0.3294 -0.1689  0.5866
  355MPD2    N1 5326   0.633   2.460  11.623  0.4266  0.2199  0.1983
  355MPD2    H7 5327   0.531   2.455  11.626  0.4419  0.0412  0.4214
  356TMC3    C1 5328   1.264   2.477  11.768 -0.3405 -0.3966  0.2147
  356TMC3    C2 5329   1.305   2.528  11.648 -0.2000 -0.1194 -0.3560
  356TMC3    C3 5330   1.316   2.662  11.633  0.0462 -1.1404 -0.2654
  356TMC3    C4 5331   1.254   2.567  11.878 -0.5842 -0.6610  0.7087
  356TMC3    C5 5332   1.286   2.695  11.860  0.2359  0.0764 -0.1170
  356TMC3    C6 5333   1.311   2.749  11.736 -0.3910  0.6003 -0.6629
  356TMC3     C 5334   1.147   2.399  11.745  0.0660 -0.1199 -0.0316
  356TMC3     O 5335   1.120   2.379  11.626 -0.1905 -0.5047  0.3615
  356TMC3     H 5336   1.308   2.465  11.560 -0.5435  1.3234 -1.3986
  356TMC3    H1 5337   1.225   2.518  11.970 -1.7090  0.5537  1.0004
  356TMC3    H2 5338   1.343   2.852  11.738 -0.7217  0.6281  2.7116
  356TMC3    C7 5339   1.311   2.757  11.986 -0.4388 -0.3782  0.8514
  356TMC3    C8 5340   1.315   2.714  11.501  0.3429 -0.0842  0.9038
  356TMC3    O1 5341   1.298   2.691  12.089  1.0034  0.7409 -0.4199
  356TMC3    O2 5342   1.297   2.634  11.411 -0.4140  0.0303  0.1187
  357MPD2     C 5343   3.389   2.878   0.883 -0.8292  0.0753 -0.2241
  357MPD2    C1 5344   3.424   2.777   0.965 -0.6631  0.5558 -0.0901
  357MPD2    C2 5345   3.358   2.655   0.955 -0.0390  0.0760 -0.3095
  357MPD2    C3 5346   3.229   2.645   0.891 -0.9037  0.0703  1.3438
  357MPD2    C4 5347   3.193   2.760   0.825  0.3503  0.3109  0.6768
  357MPD2    C5 5348   3.281   2.872   0.809  1.0620  0.0228  0.2062
  357MPD2     H 5349   3.394   2.568   1.009  2.8996  2.7046  1.9424
  357MPD2    H1 5350   3.099   2.771   0.773  0.0183  0.4858  1.3103
  357MPD2    H2 5351   3.454   2.965   0.874 -0.9215 -0.0616 -2.3076
  357MPD2    H3 5352   3.257   2.957   0.747 -2.0948 -1.5177 -0.7090
  357MPD2     N 5353   3.152   2.534   0.905 -0.5965 -0.0269 -0.4090
  357MPD2    H5 5354   3.177   2.467   0.977  0.0272 -1.6182 -2.1130
  357MPD2    N1 5355   3.540   2.802   1.039 -0.3375 -0.1559 -0.0050
  357MPD2    H7 5356   3.589   2.888   1.015  0.5411 -0.3456  1.1322
  358TMC3    C1 5357   3.722   2.782   1.176  0.8009  0.0551 -0.5421
  358TMC3    C2 5358   3.837   2.711   1.195  0.2556 -0.6702  0.4057
  358TMC3    C3 5359   3.937   2.774   1.260  0.4213 -0.4101  0.3567
  358TMC3    C4 5360   3.704   2.910   1.222 -0.5353 -0.2635  0.0418
  358TMC3    C5 5361   3.807   2.966   1.295 -0.0507  0.3239  0.2850
  358TMC3    C6 5362   3.922   2.900   1.309 -0.2748  0.0336 -0.5941
  358TMC3     C 5363   3.605   2.717   1.119  0.2207  1.0857 -0.2283
  358TMC3     O 5364   3.578   2.603   1.155  1.2494  0.0107  0.3918
  358TMC3     H 5365   3.835   2.612   1.153 -1.2696 -0.8420  0.9064
  358TMC3    H1 5366   3.606   2.955   1.226  0.3426  1.5947  0.7406
  358TMC3    H2 5367   4.019   2.948   1.320 -0.6098  0.7680 -0.8556
  358TMC3    C7 5368   3.779   3.073   1.380 -0.1491  0.0049 -0.8922
  358TMC3    C8 5369   4.068   2.723   1.245  0.4565 -0.0373 -0.3301
  358TMC3    O1 5370   3.702   3.159   1.337 -0.7789 -0.5883  0.0374
  358TMC3    O2 5371   4.092   2.677   1.131 -0.3081 -0.3472 -0.2381
  359MPD2     C 5372   0.989   1.513  12.759  0.4976 -0.7509 -0.0611
  359MPD2    C1 5373   0.954   1.483  12.629 -0.0655  0.4813  0.2850
  359MPD2    C2 5374   0.825   1.469  12.597  0.0711 -0.4439  0.1226
  359MPD2    C3 5375   0.724   1.482  12.694  0.3422 -0.0941  0.7810
  359MPD2    C4 5376   0.760   1.496  12.827 -0.4100  0.5913  0.4128
  359MPD2    C5 5377   0.890   1.523  12.855  0.7420 -0.5908  0.5432
  359MPD2     H 5378   0.807   1.443  12.493 -0.6045  1.8573 -0.3372
  359MPD2    H1 5379   0.694   1.498  12.913  1.2322  2.4414  1.6172
  359MPD2    H2 5380   1.087   1.539  12.797  0.4118 -0.8896  0.2527
  359MPD2    H3 5381   0.913   1.545  12.959 -1.7719 -0.6042  1.0956
  359MPD2     N 5382   0.587   1.474  12.671  0.8738 -0.6328 -0.7557
  359MPD2    H5 5383   0.532   1.462  12.755  1.8230  1.5583  0.1930
  359MPD2    N1 5384   1.057   1.476  12.534  0.0658  0.1797 -0.3140
  359MPD2    H7 5385   1.028   1.453  12.440  0.5933 -0.1233 -0.4034
  360TMC3    C1 5386   1.255   1.486  12.423 -0.7832 -0.0485 -0.1394
  360TMC3    C2 5387   1.363   1.563  12.402 -0.2250  0.1038 -0.1632
  360TMC3    C3 5388   1.424   1.550  12.281  0.6440 -0.0489 -0.4566
  360TMC3    C4 5389   1.206   1.396  12.330 -0.3656 -0.0380  0.4326
  360TMC3    C5 5390   1.278   1.380  12.218 -0.1173 -0.4341 -1.0337
  360TMC3    C6 5391   1.387   1.459  12.188  0.1099  0.9236 -0.3111
  360TMC3     C 5392   1.188   1.513  12.543  0.2994  0.4231 -0.6864
  360TMC3     O 5393   1.248   1.574  12.632 -0.0269 -0.4345 -0.1883
  360TMC3     H 5394   1.391   1.642  12.470 -0.2716  0.3869 -0.4704
  360TMC3    H1 5395   1.125   1.328  12.352  1.1216 -1.8296  0.4100
  360TMC3    H2 5396   1.439   1.448  12.093 -0.0674  2.3123 -0.5657
  360TMC3    C7 5397   1.223   1.309  12.107 -0.4030 -0.7011  0.5691
  360TMC3    C8 5398   1.552   1.623  12.258  0.1872  0.0396  0.1379
  360TMC3    O1 5399   1.251   1.346  11.995  0.5351 -0.1098 -0.5502
  360TMC3    O2 5400   1.560   1.732  12.309 -0.5558 -0.5601 -0.5098
  361MPD2     C 5401   1.760   4.444  16.706  0.4180  0.2341 -0.7630
  361MPD2    C1 5402   1.800   4.570  16.743  0.4245 -0.0874  0.2215
  361MPD2    C2 5403   1.935   4.591  16.766  0.2648 -0.5787 -0.5270
  361MPD2    C3 5404   2.030   4.494  16.745  0.5367  0.2823  0.1750
  361MPD2    C4 5405   1.985   4.371  16.705  0.5808 -0.0925  0.7440
  361MPD2    C5 5406   1.851   4.347  16.692 -0.1061  0.0744 -0.2435
  361MPD2     H 5407   1.962   4.687  16.809 -0.2785 -1.7112  2.2982
  361MPD2    H1 5408   2.058   4.291  16.704 -0.5856 -1.1689  1.9647
  361MPD2    H2 5409   1.658   4.409  16.694  0.9297 -1.5911  0.1719
  361MPD2    H3 5410   1.805   4.258  16.653 -3.0073  1.7341 -0.6061
  361MPD2     N 5411   2.169   4.505  16.766 -0.1036 -0.1577 -0.2113
  361MPD2    H5 5412   2.226   4.422  16.750 -0.0464 -0.3107  0.7550
  361MPD2    N1 5413   1.710   4.673  16.763 -0.0336 -0.3108  0.3701
  361MPD2    H7 5414   1.742   0.048  16.787 -2.2424  0.1994  1.3523
  362TMC3    C1 5415   1.490   0.055  16.770  0.2243 -0.4270 -0.3031
  362TMC3    C2 5416   1.367   0.046  16.828  0.3442  0.3412  0.5614
  362TMC3    C3 5417   1.270   0.143  16.822 -0.0438 -0.2524 -0.6035
  362TMC3    C4 5418   1.526   0.161  16.699 -0.5769  0.5632 -0.7426
  362TMC3    C5 5419   1.426   0.259  16.686  0.0479 -0.7618  0.3860
  362TMC3    C6 5420   1.310   0.257  16.753  0.4144 -1.3211  0.3751
  362TMC3     C 5421   1.569   4.653  16.763  0.5474 -0.3254 -0.4519
  362TMC3     O 5422   1.515   4.547  16.786  0.3867 -0.2594  0.2149
  362TMC3     H 5423   1.332   4.671  16.869 -0.8570  0.4881 -0.1301
  362TMC3    H1 5424   1.622   0.165  16.649  0.0679 -0.2446  0.4373
  362TMC3    H2 5425   1.253   0.349  16.745 -0.7035 -2.2861 -2.9000
  362TMC3    C7 5426   1.441   0.339  16.566  0.0470 -0.1921  0.3964
  362TMC3    C8 5427   1.134   0.129  16.864  0.5559  0.9793 -0.8300
  362TMC3    O1 5428   1.546   0.406  16.552 -0.4943 -0.2366 -0.5069
  362TMC3    O2 5429   1.092   0.017  16.882 -0.7369  0.0307  0.0814
  363TMC3    C1 5430   0.920   3.167   9.364  0.3901  0.6615  0.1198
  363TMC3    C2 5431   0.951   3.095   9.476  0.1503 -0.1224  0.1557
  363TMC3    C3 5432   0.855   3.088   9.576  0.4156  0.1635 -0.0908
  363TMC3    C4 5433   0.800   3.239   9.367  0.0484 -0.5529 -0.6588
  363TMC3    C5 5434   0.707   3.239   9.470  0.4569  0.0092  0.8364
  363TMC3    C6 5435   0.741   3.161   9.572 -0.0620 -0.6252  0.5832
  363TMC3     C 5436   1.016   3.184   9.260 -0.3223  0.1912  0.5302
  363TMC3     O 5437   1.117   3.114   9.278 -0.0467 -0.5766  0.2196
  363TMC3     H 5438   1.046   3.045   9.485  0.1700 -0.0655  0.2650
  363TMC3    H1 5439   0.774   3.308   9.288 -1.2496 -0.8492 -0.4913
  363TMC3    H2 5440   0.676   3.142   9.657 -1.1093 -0.2737 -0.1343
  363TMC3    C7 5441   0.579   3.303   9.452 -0.9516  0.2549 -0.4818
  363TMC3    C8 5442   0.880   2.998   9.688  0.0130 -0.0209  0.5878
  363TMC3    O1 5443   0.582   3.407   9.386 -0.2670 -0.0721  0.2118
  363TMC3    O2 5444   0.795   2.997   9.774  0.1691  0.8381  0.1957
  364MPD2     C 5445   4.327   2.336  10.741 -0.4367  0.6758  0.4870
  364MPD2    C1 5446   4.450   2.344  10.678 -0.0427  0.0058 -0.3359
  364MPD2    C2 5447   4.533   2.238  10.688 -0.3372 -0.3563  0.4553
  364MPD2    C3 5448   4.500   2.126  10.764  0.2671 -0.4075 -0.9884
  364MPD2    C4 5449   4.376   2.124  10.829 -0.4429  0.6468  0.3543
  364MPD2    C5 5450   4.288   2.225  10.812  0.3294 -0.2154 -0.3063
  364MPD2     H 5451   4.634   2.250  10.653 -0.7303 -0.3444 -0.6837
  364MPD2    H1 5452   4.346   2.036  10.885 -0.1238 -0.3809 -1.0925
  364MPD2    H2 5453   4.259   2.421  10.736  0.2963  1.1673 -1.4373
  364MPD2    H3 5454   4.196   2.223  10.870 -0.7826 -2.1627 -2.1373
  364MPD2     N 5455   4.593   2.020  10.796 -0.1649  0.3924 -0.4957
  364MPD2    H5 5456   4.554   1.950  10.858  1.8058 -0.3010 -0.0433
  364MPD2    N1 5457   4.479   2.468  10.620  0.5045  0.3130 -0.8829
  364MPD2    H7 5458   4.415   2.545  10.637  1.2178  0.5588  0.5895
  365TMC3    C1 5459   4.585   2.621  10.485  0.0317 -0.3049 -0.4335
  365TMC3    C2 5460   4.658   2.645  10.372  0.9025 -0.0652  0.2484
  365TMC3    C3 5461   4.634   2.770  10.313 -0.2620 -0.4904 -1.2195
  365TMC3    C4 5462   4.521   2.718  10.562 -0.0750 -0.2888 -0.0386
  365TMC3    C5 5463   4.524   2.848  10.504 -0.5647 -0.8192 -0.6103
  365TMC3    C6 5464   4.578   2.874  10.386 -0.1108  0.1471 -0.6489
  365TMC3     C 5465   4.580   2.485  10.527 -0.1025 -0.0303  0.5694
  365TMC3     O 5466   4.656   2.397  10.488  0.2050 -0.5910 -0.1495
  365TMC3     H 5467   4.711   2.562  10.327 -1.6703 -2.0935  1.0421
  365TMC3    H1 5468   4.501   2.708  10.668 -1.2704  0.3919 -0.2032
  365TMC3    H2 5469   4.572   2.974  10.347  0.7621  0.3664 -0.2262
  365TMC3    C7 5470   4.474   2.966  10.571 -0.1822 -0.1503  0.2926
  365TMC3    C8 5471   4.681   2.798  10.180  0.2503  0.0203  0.2557
  365TMC3    O1 5472   4.552   3.061  10.564 -0.2851  0.7495 -0.6735
  365TMC3    O2 5473   4.652   2.908  10.132  0.1231 -0.0496 -0.0390
  366MPD2     C 5474   2.653   2.770  15.117  0.8718  0.4595  1.3299
  366MPD2    C1 5475   2.646   2.818  15.251 -0.0399 -0.3656 -0.7365
  366MPD2    C2 5476   2.742   2.776  15.340 -0.5954  0.5540  0.8168
  366MPD2    C3 5477   2.854   2.709  15.287  0.1120  0.5258  0.1972
  366MPD2    C4 5478   2.861   2.664  15.157  0.3486  0.4162 -0.1182
  366MPD2    C5 5479   2.756   2.690  15.072 -0.2289  0.4323  0.4616
  366MPD2     H 5480   2.735   2.806  15.443  0.0936 -0.1581  1.0663
  366MPD2    H1 5481   2.942   2.599  15.124 -0.3876 -0.6285  0.1171
  366MPD2    H2 5482   2.576   2.790  15.044  3.4624 -0.9280 -1.7390
  366MPD2    H3 5483   2.760   2.648  14.972 -0.7414 -2.0348  1.4806
  366MPD2     N 5484   2.965   2.709  15.374  0.0767 -0.4020 -0.3760
  366MPD2    H5 5485   2.949   2.760  15.461 -0.4296 -1.9256  0.4250
  366MPD2    N1 5486   2.547   2.902  15.301 -0.6784  0.3881  0.0303
  366MPD2    H7 5487   2.540   2.917  15.401  1.2149 -0.1687  0.2598
  367TMC3    C1 5488   2.418   3.095  15.297 -0.4314  0.2780 -0.1763
  367TMC3    C2 5489   2.453   3.123  15.428  0.8872 -0.3756  0.1135
  367TMC3    C3 5490   2.450   3.251  15.470  0.7214  0.2877 -0.0444
  367TMC3    C4 5491   2.365   3.195  15.220  0.3243  0.3575 -0.1206
  367TMC3    C5 5492   2.352   3.324  15.263 -0.6954  0.2202 -0.5894
  367TMC3    C6 5493   2.397   3.352  15.388 -0.0861  0.1527 -0.5075
  367TMC3     C 5494   2.483   2.987  15.219 -0.6368  0.4665  0.0897
  367TMC3     O 5495   2.484   2.999  15.095 -0.7647 -0.7429 -0.3697
  367TMC3     H 5496   2.491   3.051  15.500  1.6226 -0.5751 -0.4780
  367TMC3    H1 5497   2.319   3.174  15.123  1.9868 -0.5752 -0.7045
  367TMC3    H2 5498   2.385   3.455  15.419 -0.9398  0.8170 -3.0254
  367TMC3    C7 5499   2.301   3.425  15.182  0.0869 -0.2300 -0.4568
  367TMC3    C8 5500   2.556   3.290  15.560  0.3740 -0.5596 -1.1829
  367TMC3    O1 5501   2.338   3.535  15.217 -0.7758  0.0427 -0.3832
  367TMC3    O2 5502   2.614   3.203  15.619  0.1097  0.4187  0.3709
  368MPD2     C 5503   3.683   0.593  13.185  0.4925 -0.1210  0.0766
  368MPD2    C1 5504   3.685   0.728  13.147 -0.4002 -0.5487 -0.4462
  368MPD2    C2 5505   3.803   0.777  13.085 -0.1294  0.2258 -0.6283
  368MPD2    C3 5506   3.912   0.699  13.067 -0.4431  0.0434 -0.3017
  368MPD2    C4 5507   3.914   0.574  13.130  0.0655 -0.3448 -0.2863
  368MPD2    C5 5508   3.799   0.525  13.188 -0.4817  0.3224 -0.6197
  368MPD2     H 5509   3.801   0.876  13.040  0.1966  0.8692  0.7733
  368MPD2    H1 5510   4.000   0.509  13.130  0.7591  0.5804 -0.2673
  368MPD2    H2 5511   3.594   0.545  13.224  0.4909 -1.7031 -1.8287
  368MPD2    H3 5512   3.796   0.421  13.216 -0.1141  0.1055 -1.3783
  368MPD2     N 5513   4.018   0.736  12.978  0.2747 -0.3548  0.5243
  368MPD2    H5 5514   4.098   0.674  12.980  0.3879 -0.2944 -1.7137
  368MPD2    N1 5515   3.567   0.811  13.150 -0.4088  1.1531 -0.0990
  368MPD2    H7 5516   3.475   0.776  13.175 -0.9945  2.8659  0.1556
  369TMC3    C1 5517   3.424   1.003  13.140 -0.4822  0.7935 -0.2133
  369TMC3    C2 5518   3.401   1.117  13.071 -0.0718 -0.6831  0.0239
  369TMC3    C3 5519   3.270   1.155  13.041  0.5558  0.3320  0.9870
  369TMC3    C4 5520   3.319   0.935  13.187  0.6960  0.4480  0.0422
  369TMC3    C5 5521   3.190   0.968  13.144  0.1088  0.0173  1.0170
  369TMC3    C6 5522   3.163   1.078  13.066  0.6210 -0.7199 -0.5564
  369TMC3     C 5523   3.558   0.950  13.127 -0.3965  0.4759  0.0991
  369TMC3     O 5524   3.647   1.030  13.099 -0.3162  0.1942 -0.3075
  369TMC3     H 5525   3.491   1.169  13.041 -0.7557  0.0416 -0.7865
  369TMC3    H1 5526   3.325   0.851  13.256 -0.3245  0.1753 -0.2097
  369TMC3    H2 5527   3.063   1.113  13.041 -0.3939 -1.4750  2.4391
  369TMC3    C7 5528   3.087   0.864  13.167 -0.6078  0.8375 -0.2400
  369TMC3    C8 5529   3.253   1.267  12.957 -0.4532 -0.1640 -0.1120
  369TMC3    O1 5530   3.101   0.789  13.264  0.3929 -0.2607  0.0568
  369TMC3    O2 5531   3.162   1.264  12.874 -0.3987  0.1454  0.1747
  370TMC3    C1 5532   3.116   0.700  16.328  0.3764 -0.0179  0.4246
  370TMC3    C2 5533   3.031   0.617  16.400  0.4611  0.4293  0.1347
  370TMC3    C3 5534   3.001   0.500  16.335  0.4140  0.1925  0.4421
  370TMC3    C4 5535   3.168   0.683  16.205  0.2427 -0.3077 -0.0943
  370TMC3    C5 5536   3.138   0.561  16.151  0.2947 -0.5598 -0.3171
  370TMC3    C6 5537   3.051   0.467  16.209 -0.3082  0.2505  0.4461
  370TMC3     C 5538   3.199   0.786  16.407  0.4935 -0.2817  0.1438
  370TMC3     O 5539   3.226   0.738  16.518 -0.2380  0.3439 -0.3212
  370TMC3     H 5540   3.002   0.647  16.500  0.7010 -0.9546  0.6225
  370TMC3    H1 5541   3.244   0.747  16.161  1.1843 -1.8828 -0.7812
  370TMC3    H2 5542   3.011   0.383  16.153  1.1136  0.6733 -1.2073
  370TMC3    C7 5543   3.198   0.540  16.021  0.6205 -0.1150 -0.1100
  370TMC3    C8 5544   3.001   0.374  16.415 -0.0109 -0.4012  0.5471
  370TMC3    O1 5545   3.234   0.640  15.963 -0.1694 -0.0041 -0.3616
  370TMC3    O2 5546   3.021   0.264  16.361 -0.0183  0.0927 -0.1181
  371TMC3    C1 5547   4.472   3.847  15.251  0.0944  0.2131  0.3267
  371TMC3    C2 5548   4.338   3.834  15.278 -0.0456 -0.1480  0.4407
  371TMC3    C3 5549   4.275   3.953  15.281  0.2887  0.2339 -0.0016
  371TMC3    C4 5550   4.531   3.968  15.211  0.5112  0.2288 -0.3243
  371TMC3    C5 5551   4.453   4.077  15.212 -0.6702  0.0744  0.7330
  371TMC3    C6 5552   4.322   4.076  15.251 -0.0197  0.0370 -0.7401
  371TMC3     C 5553   4.557   3.729  15.261  0.0171 -0.4471 -0.7149
  371TMC3     O 5554   4.667   3.740  15.212 -0.1168 -0.1317  0.4050
  371TMC3     H 5555   4.287   3.739  15.291  2.1315 -1.3689  0.1907
  371TMC3    H1 5556   4.639   3.969  15.211  0.5208 -1.8424  0.0225
  371TMC3    H2 5557   4.257   4.161  15.232 -0.8476 -0.5068 -0.3201
  371TMC3    C7 5558   4.506   4.212  15.237  0.0959 -0.1859  0.3089
  371TMC3    C8 5559   4.132   3.946  15.300  0.0281  0.5042  0.1435
  371TMC3    O1 5560   4.428   4.306  15.216 -0.7548 -0.1762 -0.2372
  371TMC3    O2 5561   4.082   3.840  15.274 -0.1620  0.4124  0.2955
  372MPD2     C 5562   3.975   0.322  12.873  0.0445  0.6581 -0.5080
  372MPD2    C1 5563   4.086   0.274  12.948  0.0211 -0.9206 -0.0091
  372MPD2    C2 5564   4.063   0.180  13.045  0.6214 -0.4247  0.2070
  372MPD2    C3 5565   3.937   0.123  13.062  0.1595  0.1003  0.3329
  372MPD2    C4 5566   3.833   0.170  12.987  0.0081 -0.0488 -0.1009
  372MPD2    C5 5567   3.852   0.274  12.896  0.3092  0.8431 -0.4409
  372MPD2     H 5568   4.147   0.140  13.100  1.2061 -0.4783 -0.7152
  372MPD2    H1 5569   3.738   0.119  12.978 -1.1686  1.8436  1.4257
  372MPD2    H2 5570   4.002   0.384  12.788 -1.7795 -1.1314 -2.3969
  372MPD2    H3 5571   3.771   0.310  12.834  0.8136  0.5441 -1.2736
  372MPD2     N 5572   3.922   0.016  13.164 -0.1846 -0.3793  0.0056
  372MPD2    H5 5573   4.005   4.696  13.206  2.3901  2.4851 -2.4048
  372MPD2    N1 5574   4.222   0.318  12.924 -0.4478 -0.4044  0.3257
  372MPD2    H7 5575   4.296   0.263  12.966  0.0939 -0.5825 -0.8754
  373TMC3    C1 5576   3.820   4.586  13.320 -0.1145  0.1312  0.1698
  373TMC3    C2 5577   3.760   4.608  13.443  0.6375  0.1906  0.7703
  373TMC3    C3 5578   3.785   4.526  13.548 -0.0276 -0.7429  0.6979
  373TMC3    C4 5579   3.921   4.504  13.301  0.1869  0.2209 -0.6335
  373TMC3    C5 5580   3.954   4.433  13.413  0.7083 -0.1717  0.3054
  373TMC3    C6 5581   3.882   4.429  13.531  0.4583  0.4892  0.1840
  373TMC3     C 5582   3.804   4.683  13.208  0.1350  0.7911  0.3778
  373TMC3     O 5583   3.692   0.015  13.207  0.1177 -0.1467 -0.2624
  373TMC3     H 5584   3.693   4.692  13.450  0.7606  0.3389  0.1715
  373TMC3    H1 5585   3.973   4.501  13.205 -0.1660 -1.3066 -0.7883
  373TMC3    H2 5586   3.908   4.359  13.610  0.6102  0.7349  0.3495
  373TMC3    C7 5587   4.051   4.325  13.395 -1.0529  0.5779 -0.0937
  373TMC3    C8 5588   3.745   4.575  13.680 -0.0750 -0.5904  0.6439
  373TMC3    O1 5589   4.028   4.248  13.306  0.5902 -0.5495  0.1694
  373TMC3    O2 5590   3.708   4.689  13.691 -0.2079 -0.1100 -0.2507
  374TMC3    C1 5591   0.135   0.068   9.677  0.3958 -0.0049  0.6057
  374TMC3    C2 5592   0.228   0.165   9.660 -0.1107  0.1334 -1.5502
  374TMC3    C3 5593   0.231   0.222   9.536 -0.1019  0.6389 -0.3909
  374TMC3    C4 5594   0.045   0.033   9.584 -0.5473  0.0561  0.2962
  374TMC3    C5 5595   0.040   0.106   9.468  0.0141 -0.1520  0.0519
  374TMC3    C6 5596   0.131   0.205   9.445  0.5131 -0.2738  0.2484
  374TMC3     C 5597   0.128   0.014   9.808  0.3881 -0.1169 -1.2415
  374TMC3     O 5598   0.220   0.036   9.887 -0.5368  0.4442  0.7721
  374TMC3     H 5599   0.305   0.172   9.735 -0.4517  0.1861 -1.2052
  374TMC3    H1 5600   4.703   4.665   9.604 -1.9532  0.9652  0.0066
  374TMC3    H2 5601   0.141   0.252   9.348  1.0599 -0.3388  0.2744
  374TMC3    C7 5602   4.629   0.108   9.393  0.6053 -0.6778 -0.5276
  374TMC3    C8 5603   0.309   0.345   9.523  0.6613  0.5824  0.5880
  374TMC3    O1 5604   4.637   0.126   9.273  0.6013  0.1804 -0.0347
  374TMC3    O2 5605   0.269   0.422   9.439 -0.0929  0.2622  0.0619
  375MPD2     C 5606   4.585   0.946  17.198 -0.0257  0.1579  0.9607
  375MPD2    C1 5607   4.506   1.012  17.110 -0.0453 -0.0314  1.1245
  375MPD2    C2 5608   4.508   0.966  16.977 -0.1679 -0.7390  0.0423
  375MPD2    C3 5609   4.589   0.865  16.930  0.4308  0.1720 -0.0254
  375MPD2    C4 5610   4.674   0.815  17.023  0.3362 -0.0522  0.1894
  375MPD2    C5 5611   4.667   0.846  17.157 -0.4411 -0.2683 -0.6898
  375MPD2     H 5612   4.449   1.020  16.904 -2.6395  0.6411  3.0493
  375MPD2    H1 5613   0.011   0.727  16.993 -1.5853 -2.0681  2.5143
  375MPD2    H2 5614   4.588   0.973  17.303 -0.5730  1.7872  0.5608
  375MPD2    H3 5615   0.016   0.803  17.229 -0.5809  3.8724  1.8948
  375MPD2     N 5616   4.592   0.825  16.799 -0.5437 -0.4608  0.3987
  375MPD2    H5 5617   4.668   0.760  16.780  0.5230  0.9159 -0.0209
  375MPD2    N1 5618   4.411   1.110  17.142  0.4067  0.4327 -0.1572
  375MPD2    H7 5619   4.352   1.145  17.067  1.7329 -0.3661 -1.5826
  376TMC3    C1 5620   4.547   0.831  16.563  0.0328  0.5108  0.5772
  376TMC3    C2 5621   4.686   0.827  16.544 -0.9958  0.0107 -0.1750
  376TMC3    C3 5622   0.009   0.810  16.411 -0.2560 -0.0673  0.2730
  376TMC3    C4 5623   4.460   0.834  16.458  0.0184 -0.6945  0.4433
  376TMC3    C5 5624   4.511   0.832  16.329  0.1121 -0.3807 -0.0900
  376TMC3    C6 5625   4.645   0.826  16.305 -0.2449 -0.3620  0.5120
  376TMC3     C 5626   4.503   0.864  16.703 -0.0878 -0.3612 -0.1979
  376TMC3     O 5627   4.391   0.916  16.713 -0.0689  0.5791  0.9418
  376TMC3     H 5628   0.040   0.832  16.624 -0.9625  2.6403 -0.3503
  376TMC3    H1 5629   4.354   0.849  16.475 -0.0683  0.9132 -1.5572
  376TMC3    H2 5630   4.686   0.837  16.205 -0.2339 -1.0757  0.4359
  376TMC3    C7 5631   4.424   0.852  16.219  0.1433  0.1231  0.4704
  376TMC3    C8 5632   0.147   0.841  16.392 -0.4086 -0.6874 -0.5166
  376TMC3    O1 5633   4.478   0.853  16.108 -0.4763  0.4600 -0.5590
  376TMC3    O2 5634   0.174   0.910  16.297 -0.4165 -0.1286 -0.1418
  377MPD2     C 5635   2.497   1.067  12.540 -0.0455  0.9192 -0.5596
  377MPD2    C1 5636   2.584   0.971  12.581  0.0126 -0.4961  0.0910
  377MPD2    C2 5637   2.540   0.844  12.599  0.5559 -0.2425 -0.0138
  377MPD2    C3 5638   2.410   0.805  12.572 -0.4901 -0.2818 -0.0898
  377MPD2    C4 5639   2.323   0.912  12.540 -0.0527 -0.5662 -0.1428
  377MPD2    C5 5640   2.370   1.036  12.515  0.6003  0.1322  0.6717
  377MPD2     H 5641   2.604   0.765  12.635 -0.2786 -0.3071  1.3098
  377MPD2    H1 5642   2.221   0.887  12.511 -0.0093 -2.2557  1.1427
  377MPD2    H2 5643   2.531   1.169  12.526  1.8844  0.5037  1.0495
  377MPD2    H3 5644   2.309   1.120  12.483  1.4699  1.2588  1.9997
  377MPD2     N 5645   2.357   0.675  12.572 -0.5253  0.0688 -0.4802
  377MPD2    H5 5646   2.264   0.673  12.531 -1.1484 -1.3148  0.9725
  377MPD2    N1 5647   2.715   1.010  12.613 -0.1082 -0.6417 -0.0483
  377MPD2    H7 5648   2.742   1.106  12.593  0.6401 -0.7445  0.5033
  378TMC3    C1 5649   3.089   1.132  12.509 -0.8015  0.9275  0.2673
  378TMC3    C2 5650   2.960   1.087  12.532 -0.5665 -0.0209  0.0766
  378TMC3    C3 5651   2.939   1.007  12.635 -0.3956 -0.3152 -0.2943
  378TMC3    C4 5652   3.193   1.089  12.583  0.3190  0.3748 -0.3904
  378TMC3    C5 5653   3.169   1.004  12.690  0.0011 -0.4002  0.0123
  378TMC3    C6 5654   3.039   0.960  12.715 -0.3995  0.2109 -0.2706
  378TMC3     C 5655   3.122   1.148  12.367 -0.5060 -0.5021  0.0489
  378TMC3     O 5656   3.024   1.172  12.298  0.2936 -0.3729 -0.0880
  378TMC3     H 5657   2.883   1.106  12.458  1.3619  0.6633 -1.7780
  378TMC3    H1 5658   3.287   1.143  12.578  0.9051 -0.5278  0.8053
  378TMC3    H2 5659   3.014   0.876  12.780  0.4135  0.6218  0.5643
  378TMC3    C7 5660   3.276   0.922  12.741  0.6361  0.4188 -0.2359
  378TMC3    C8 5661   2.818   0.930  12.634  0.1867 -0.2527  0.1101
  378TMC3    O1 5662   3.240   0.834  12.822  0.0276  0.5714 -0.1529
  378TMC3    O2 5663   2.829   0.807  12.648  0.2074 -0.3906  0.5137
  379MPD2     C 5664   3.826   3.600  16.156  0.2374 -0.0190 -0.0787
  379MPD2    C1 5665   3.721   3.525  16.197  0.2706 -0.2279  0.0023
  379MPD2    C2 5666   3.720   3.470  16.323 -0.7976  0.7841 -0.6247
  379MPD2    C3 5667   3.839   3.472  16.405 -0.5633 -0.2439  0.0380
  379MPD2    C4 5668   3.941   3.549  16.361 -0.6115 -0.4202  0.2813
  379MPD2    C5 5669   3.932   3.610  16.242  0.8568 -0.3101 -0.1610
  379MPD2     H 5670   3.641   3.401  16.351  0.7764 -0.3447  1.0171
  379MPD2    H1 5671   4.036   3.550  16.413 -0.3416 -2.0091 -0.1854
  379MPD2    H2 5672   3.836   3.630  16.052  3.2432 -0.5203  0.0486
  379MPD2    H3 5673   4.015   3.665  16.201  0.2048 -1.3643 -2.9856
  379MPD2     N 5674   3.861   3.390  16.517  0.5268 -0.0886 -0.1892
  379MPD2    H5 5675   3.958   3.378  16.544  1.1443  0.9603 -1.9522
  379MPD2    N1 5676   3.624   3.498  16.099  0.3567  0.1483  0.0425
  379MPD2    H7 5677   3.634   3.546  16.010  0.1877  1.2641  0.6303
  380TMC3    C1 5678   3.424   3.433  15.993 -0.5839 -0.1295 -0.1964
  380TMC3    C2 5679   3.486   3.408  15.879  0.6045  0.4666 -0.8289
  380TMC3    C3 5680   3.408   3.384  15.763  0.3701  0.2242  0.1404
  380TMC3    C4 5681   3.289   3.428  16.000 -0.0860  0.6333 -0.2258
  380TMC3    C5 5682   3.219   3.411  15.891 -0.0321 -0.3561  0.4029
  380TMC3    C6 5683   3.276   3.393  15.767  0.5379 -0.1857  0.9033
  380TMC3     C 5684   3.510   3.420  16.110 -0.4359  0.0031 -0.3287
  380TMC3     O 5685   3.466   3.352  16.202  0.5655  0.3762 -0.3827
  380TMC3     H 5686   3.594   3.399  15.880  0.5151  0.2933  5.0029
  380TMC3    H1 5687   3.236   3.428  16.095 -0.4708 -0.7494 -0.4502
  380TMC3    H2 5688   3.227   3.378  15.671  1.8810  1.8775 -0.1119
  380TMC3    C7 5689   3.084   3.461  15.896 -0.1601  0.9063 -0.6587
  380TMC3    C8 5690   3.461   3.424  15.636  0.4685 -0.2256 -0.1330
  380TMC3    O1 5691   3.053   3.548  15.978  0.1362  0.2755 -0.6683
  380TMC3    O2 5692   3.395   3.492  15.560 -0.3300  0.3320 -0.2909
  381TMC3    C1 5693   3.095   4.388  16.111  0.4063 -0.4607  0.3889
  381TMC3    C2 5694   3.159   4.506  16.096  0.2260  0.0627 -0.3841
  381TMC3    C3 5695   3.170   4.591  16.200 -0.4669 -0.6538  1.0120
  381TMC3    C4 5696   3.024   4.369  16.222 -0.4513 -0.3298  0.4461
  381TMC3    C5 5697   3.015   4.464  16.316 -0.6365 -0.1141  0.5174
  381TMC3    C6 5698   3.094   4.577  16.312 -0.6543 -0.4076 -0.0630
  381TMC3     C 5699   3.082   4.287  16.008  0.3857 -0.3005  0.3614
  381TMC3     O 5700   3.018   4.188  16.030 -0.3401 -0.3222 -0.1591
  381TMC3     H 5701   3.201   4.544  16.003 -1.5441 -1.3137 -1.7505
  381TMC3    H1 5702   2.967   4.282  16.252 -0.6598 -0.2888  0.1680
  381TMC3    H2 5703   3.081   4.660  16.380  3.9257  0.8561 -0.7255
  381TMC3    C7 5704   2.930   4.437  16.434 -0.2490  0.0624 -0.5512
  381TMC3    C8 5705   3.266   4.695  16.186 -0.4526 -0.6010  0.1735
  381TMC3    O1 5706   2.937   4.324  16.479  0.0215 -0.0065  0.4774
  381TMC3    O2 5707   3.332   4.696  16.082 -0.1621  1.2581 -0.4349
  382MPD2     C 5708   1.864   2.145   0.048 -0.3641 -0.2964  0.2123
  382MPD2    C1 5709   1.971   2.160  17.637 -0.8075  0.3147  0.1374
  382MPD2    C2 5710   2.007   2.056  17.548 -0.2327  0.6097 -0.2457
  382MPD2    C3 5711   1.931   1.933  17.554 -0.0988 -0.0185 -0.1733
  382MPD2    C4 5712   1.818   1.925  17.634  0.1340  0.1512  0.0770
  382MPD2    C5 5713   1.791   2.020   0.050 -0.8281  0.6010 -0.0756
  382MPD2     H 5714   2.094   2.064  17.484  0.0060 -1.2046 -0.1437
  382MPD2    H1 5715   1.752   1.839  17.628  0.1047  0.2575 -1.2632
  382MPD2    H2 5716   1.838   2.214   0.127 -0.5940 -3.9706  3.3842
  382MPD2    H3 5717   1.717   2.021   0.128 -1.2347 -1.5320 -0.4358
  382MPD2     N 5718   1.968   1.807  17.493 -0.3416 -0.0377 -0.0133
  382MPD2    H5 5719   1.898   1.733  17.495  1.2426 -1.4891  1.1519
  382MPD2    N1 5720   2.036   2.280  17.638 -0.9930 -0.3461 -0.6046
  382MPD2    H7 5721   2.098   2.294  17.559  1.5104 -0.0761  1.4096
  383TMC3    C1 5722   2.073   1.651  17.362  0.1410 -1.0640 -0.1961
  383TMC3    C2 5723   1.958   1.609  17.302 -0.4562 -0.2638 -0.2526
  383TMC3    C3 5724   1.962   1.486  17.236  0.2136 -0.5323  0.3201
  383TMC3    C4 5725   2.191   1.579  17.353  0.6649 -0.0394  0.7418
  383TMC3    C5 5726   2.186   1.458  17.281 -0.2269  0.0580 -0.1606
  383TMC3    C6 5727   2.074   1.411  17.226 -0.0950  0.7882 -0.6519
  383TMC3     C 5728   2.079   1.783  17.422 -0.0096  0.4030 -0.1838
  383TMC3     O 5729   2.184   1.845  17.428  0.7562  0.0139  0.0823
  383TMC3     H 5730   1.868   1.670  17.307 -0.2672 -0.1874  2.2896
  383TMC3    H1 5731   2.269   1.611  17.423 -0.3719 -0.5258  2.1148
  383TMC3    H2 5732   2.079   1.318  17.170 -1.4911  1.4622 -1.9083
  383TMC3    C7 5733   2.301   1.385  17.254  0.6018 -0.3750  0.4902
  383TMC3    C8 5734   1.844   1.457  17.157 -0.1815 -0.4857  0.4507
  383TMC3    O1 5735   2.307   1.347  17.138 -0.0531  0.0731  0.0936
  383TMC3    O2 5736   1.762   1.550  17.143  0.1059  0.3094 -0.4056
  384MPD2     C 5737   4.516   3.774  12.228  0.2650  0.0260 -0.9153
  384MPD2    C1 5738   4.386   3.731  12.219 -0.3035 -0.2228  0.3205
  384MPD2    C2 5739   4.357   3.606  12.156 -0.2974 -0.8334  0.1394
  384MPD2    C3 5740   4.459   3.532  12.089 -0.5776  0.1567  0.6465
  384MPD2    C4 5741   4.581   3.583  12.084 -0.0727 -0.3239 -0.3862
  384MPD2    C5 5742   4.595   3.704  12.143 -0.1630  0.1072 -0.2693
  384MPD2     H 5743   4.255   3.568  12.158 -0.9099  0.7041 -1.9522
  384MPD2    H1 5744   4.672   3.539  12.045  0.4674  1.6599 -1.3716
  384MPD2    H2 5745   4.534   3.870  12.276 -0.3778 -0.4435  0.2680
  384MPD2    H3 5746   4.691   3.749  12.122  0.6130 -2.5041 -2.3594
  384MPD2     N 5747   4.453   3.395  12.047  0.6633  0.4493  0.8018
  384MPD2    H5 5748   4.547   3.361  12.027  1.3013  1.6851  1.7047
  384MPD2    N1 5749   4.293   3.808  12.288 -0.9038 -0.3293  0.2532
  384MPD2    H7 5750   4.332   3.891  12.332  2.1071 -0.6388 -1.8339
  385TMC3    C1 5751   4.391   3.190  12.114 -0.0245  0.0176 -0.3599
  385TMC3    C2 5752   4.312   3.089  12.070  0.9522 -0.1736  0.5588
  385TMC3    C3 5753   4.253   3.008  12.158  0.4216 -0.2616  0.2816
  385TMC3    C4 5754   4.414   3.211  12.253  0.3117  0.6150  0.5272
  385TMC3    C5 5755   4.344   3.136  12.336 -1.0273  0.8257 -0.0003
  385TMC3    C6 5756   4.268   3.027  12.293 -0.8112  0.5227 -0.0812
  385TMC3     C 5757   4.346   3.316  12.068  0.5234  0.3553 -0.0922
  385TMC3     O 5758   4.233   3.345  12.084  0.4956 -1.0994  0.5862
  385TMC3     H 5759   4.287   3.084  11.964  2.2024  1.5840  0.1868
  385TMC3    H1 5760   4.449   3.309  12.284  2.1397 -0.3096  1.4367
  385TMC3    H2 5761   4.211   2.968  12.365 -0.7118  0.0337 -0.4066
  385TMC3    C7 5762   4.283   3.217  12.437  0.7179  0.0053  0.2587
  385TMC3    C8 5763   4.213   2.878  12.111 -0.0993 -0.6277 -1.4521
  385TMC3    O1 5764   4.354   3.309  12.472  0.4544 -0.4824 -0.1359
  385TMC3    O2 5765   4.209   2.784  12.191 -0.6062  1.0066 -0.4388
  386TMC3    C1 5766   4.428   1.078  12.112  0.2325  0.6144 -0.6483
  386TMC3    C2 5767   4.493   1.145  12.016  0.5782  0.3640 -0.0642
  386TMC3    C3 5768   4.416   1.207  11.923  0.0755  0.1480 -0.1784
  386TMC3    C4 5769   4.289   1.066  12.116 -0.4337 -0.2233 -0.2105
  386TMC3    C5 5770   4.216   1.125  12.018  0.1012  0.0047  0.9603
  386TMC3    C6 5771   4.281   1.207  11.930  0.7874  0.2310 -0.1466
  386TMC3     C 5772   4.504   1.022  12.223 -0.0728 -0.6909 -0.5415
  386TMC3     O 5773   4.461   0.929  12.290 -0.8661 -0.1649 -0.0762
  386TMC3     H 5774   4.600   1.136  12.006  0.4271  0.6786 -1.9461
  386TMC3    H1 5775   4.236   1.008  12.191 -0.0369 -0.0703  0.1860
  386TMC3    H2 5776   4.228   1.266  11.855  1.7568 -0.0362 -1.0371
  386TMC3    C7 5777   4.076   1.139  12.028  0.7291 -0.3772  1.4684
  386TMC3    C8 5778   4.469   1.220  11.790  0.4042  0.1475 -0.5582
  386TMC3    O1 5779   4.020   1.133  12.137 -0.5340  0.0183  0.0132
  386TMC3    O2 5780   4.381   1.206  11.713  0.1847 -0.3307 -0.2147
  387MPD2     C 5781   1.986   1.169   9.833 -0.1740  0.0050  0.0387
  387MPD2    C1 5782   2.066   1.166   9.948  0.2604 -0.7760  0.6176
  387MPD2    C2 5783   2.076   1.050  10.018  0.3960 -0.2386 -0.1733
  387MPD2    C3 5784   2.029   0.929   9.963 -0.6808 -0.1894  0.0813
  387MPD2    C4 5785   1.946   0.933   9.854  0.0023  0.4983  0.5660
  387MPD2    C5 5786   1.925   1.052   9.791  0.1405 -0.1501 -0.6847
  387MPD2     H 5787   2.134   1.049  10.109 -1.2137 -1.1158  0.8462
  387MPD2    H1 5788   1.912   0.844   9.803  1.8755  0.3894 -0.4670
  387MPD2    H2 5789   1.963   1.252   9.768 -0.8865 -0.6119 -0.4975
  387MPD2    H3 5790   1.869   1.049   9.698 -1.3409 -1.4053  0.2280
  387MPD2     N 5791   2.056   0.817  10.035 -0.7464  0.1295 -0.1931
  387MPD2    H5 5792   2.124   0.821  10.111 -0.8309  1.5786 -0.1963
  387MPD2    N1 5793   2.149   1.274   9.994 -0.3601 -0.3796 -0.1399
  387MPD2    H7 5794   2.214   1.255  10.070  2.4087  1.7476 -1.9514
  388TMC3    C1 5795   2.303   1.438   9.978  0.1240 -0.5029  0.9469
  388TMC3    C2 5796   2.332   1.569   9.963  0.0047  0.4609 -0.0762
  388TMC3    C3 5797   2.453   1.607  10.018 -0.0874  0.2508 -0.1074
  388TMC3    C4 5798   2.392   1.343  10.028  0.5401  0.1238 -0.0676
  388TMC3    C5 5799   2.512   1.391  10.073 -0.2944 -0.6150 -0.2139
  388TMC3    C6 5800   2.547   1.522  10.069  0.0863 -0.2337 -0.1398
  388TMC3     C 5801   2.176   1.387   9.925  0.2749 -0.5886  0.3260
  388TMC3     O 5802   2.112   1.447   9.838 -0.1226 -0.1264 -0.1552
  388TMC3     H 5803   2.267   1.648   9.928 -0.4862  0.3352  0.5554
  388TMC3    H1 5804   2.378   1.237  10.009  0.3612  0.1618 -0.1381
  388TMC3    H2 5805   2.644   1.559  10.099  0.0889 -0.8557  0.6454
  388TMC3    C7 5806   2.615   1.296  10.095  0.0420 -0.4962 -0.3819
  388TMC3    C8 5807   2.495   1.743  10.005  0.0863  0.7770 -0.7842
  388TMC3    O1 5808   2.728   1.318  10.049 -0.7450 -0.4452 -0.0017
  388TMC3    O2 5809   2.446   1.801   9.909 -0.5471  0.0018  0.1761
  389MPD2     C 5810   1.827   4.091  11.052  0.0095  0.6716  0.5270
  389MPD2    C1 5811   1.789   4.015  10.942  0.2057  0.4578 -0.9473
  389MPD2    C2 5812   1.706   3.906  10.968  0.2375 -0.7693  1.0470
  389MPD2    C3 5813   1.652   3.876  11.091 -0.3063 -0.0017 -0.2732
  389MPD2    C4 5814   1.697   3.950  11.200 -0.7310 -0.2756 -0.7448
  389MPD2    C5 5815   1.774   4.062  11.175 -0.6132  0.0030 -0.9353
  389MPD2     H 5816   1.672   3.847  10.883  3.2062 -1.7083  0.4814
  389MPD2    H1 5817   1.668   3.932  11.303 -2.9420 -1.9250 -1.6692
  389MPD2    H2 5818   1.899   4.169  11.032 -1.0762  1.3770 -0.6300
  389MPD2    H3 5819   1.791   4.132  11.256  2.6209  0.5187 -2.0258
  389MPD2     N 5820   1.563   3.766  11.115 -0.2758  0.0881  0.0102
  389MPD2    H5 5821   1.514   3.762  11.204  2.4624 -0.9433  1.4747
  389MPD2    N1 5822   1.839   4.053  10.813 -0.0221 -0.3051 -0.2732
  389MPD2    H7 5823   1.886   4.143  10.806  1.2425 -0.9850 -0.3391
  390TMC3    C1 5824   1.384   3.607  11.075  1.0210  0.0873 -0.7421
  390TMC3    C2 5825   1.334   3.628  11.205 -0.0812  0.2991 -0.0424
  390TMC3    C3 5826   1.203   3.595  11.229  0.3024  0.1397  0.1885
  390TMC3    C4 5827   1.312   3.532  10.982 -0.1725  0.0122 -0.5505
  390TMC3    C5 5828   1.183   3.494  11.015 -0.2552 -0.3240  0.3868
  390TMC3    C6 5829   1.129   3.526  11.136  0.5252  0.5445 -0.1237
  390TMC3     C 5830   1.508   3.676  11.025 -0.5830 -0.1131  0.0125
  390TMC3     O 5831   1.549   3.656  10.910  0.1172  0.4917  0.5564
  390TMC3     H 5832   1.394   3.669  11.285  1.5734 -1.5310 -0.3655
  390TMC3    H1 5833   1.370   3.490  10.900  0.9744 -1.3619  0.9717
  390TMC3    H2 5834   1.022   3.526  11.156  1.0034  0.0523  2.3946
  390TMC3    C7 5835   1.140   3.367  10.956 -0.3304 -0.3935 -0.5030
  390TMC3    C8 5836   1.165   3.543  11.360  0.6611  0.7063 -0.5221
  390TMC3    O1 5837   1.202   3.308  10.867 -0.3729  0.3144  0.3972
  390TMC3    O2 5838   1.183   3.622  11.452  0.2089  0.2523  0.6847
  391MPD2     C 5839   0.602   0.488  10.912 -0.0375  0.1227 -0.0294
  391MPD2    C1 5840   0.733   0.537  10.910 -0.2549  0.2460  0.6361
  391MPD2    C2 5841   0.809   0.530  10.789  0.4453 -0.5620 -0.1655
  391MPD2    C3 5842   0.749   0.490  10.671  0.5284  0.5554  0.1784
  391MPD2    C4 5843   0.621   0.444  10.682  0.4788 -0.6293 -0.3531
  391MPD2    C5 5844   0.545   0.439  10.794 -0.5462  0.5719  0.5000
  391MPD2     H 5845   0.911   0.564  10.772  0.7447 -1.1725  0.3875
  391MPD2    H1 5846   0.564   0.405  10.598  0.2930 -2.6682  0.7239
  391MPD2    H2 5847   0.540   0.495  11.001 -0.7295  0.9630 -0.5718
  391MPD2    H3 5848   0.439   0.418  10.785 -0.8390  2.2689  0.0903
  391MPD2     N 5849   0.814   0.522  10.546 -0.1770 -0.2621  0.1668
  391MPD2    H5 5850   0.907   0.564  10.547 -0.7653  1.0650 -0.8648
  391MPD2    N1 5851   0.785   0.587  11.036  0.5055  0.0136 -0.3620
  391MPD2    H7 5852   0.722   0.602  11.113  2.2582 -2.6310  1.5626
  392TMC3    C1 5853   0.847   0.521  10.309 -0.1290 -0.5449 -0.2688
  392TMC3    C2 5854   0.808   0.469  10.194 -0.2385  0.4326 -0.7036
  392TMC3    C3 5855   0.846   0.522  10.072 -0.3167 -0.1389  0.2326
  392TMC3    C4 5856   0.926   0.630  10.309  0.7337  0.1748  0.0605
  392TMC3    C5 5857   0.958   0.687  10.190  0.6794  0.3869  0.0546
  392TMC3    C6 5858   0.924   0.632  10.069 -0.4481 -0.0223  0.3587
  392TMC3     C 5859   0.765   0.491  10.424  0.1597 -0.4148  0.4246
  392TMC3     O 5860   0.654   0.444  10.398 -0.0419 -0.1150  0.0745
  392TMC3     H 5861   0.754   0.375  10.196  2.2808 -0.9700  0.6253
  392TMC3    H1 5862   0.948   0.680  10.402  1.9256 -1.3523  0.6007
  392TMC3    H2 5863   0.954   0.674   9.974 -1.5205  2.6775  1.2215
  392TMC3    C7 5864   1.025   0.815  10.195  0.4416  0.1573 -0.2544
  392TMC3    C8 5865   0.775   0.479   9.951 -0.7104 -0.3946 -0.3457
  392TMC3    O1 5866   1.082   0.832  10.301  0.1587  0.2516  0.0441
  392TMC3    O2 5867   0.749   0.357   9.948 -0.0325  0.3251  0.5854
  393TMC3    C1 5868   0.659   3.870  10.588  0.1147 -0.5905  0.0623
  393TMC3    C2 5869   0.670   3.896  10.723  0.4358  1.0542  0.1663
  393TMC3    C3 5870   0.600   3.817  10.804 -0.1538  0.1724 -0.1861
  393TMC3    C4 5871   0.593   3.761  10.537 -0.1686  0.0467 -0.4562
  393TMC3    C5 5872   0.533   3.679  10.630 -0.1748 -0.2268 -0.2982
  393TMC3    C6 5873   0.532   3.701  10.763  0.6243 -0.0216 -0.0935
  393TMC3     C 5874   0.716   3.970  10.499  0.0827 -0.0311  0.0285
  393TMC3     O 5875   0.836   3.993  10.502  0.6420 -0.2831  0.4250
  393TMC3     H 5876   0.721   3.983  10.763 -0.7778  1.7341  0.2441
  393TMC3    H1 5877   0.575   3.748  10.431  1.4577 -0.3565 -0.6863
  393TMC3    H2 5878   0.495   3.626  10.831 -0.3776  0.2342 -0.3558
  393TMC3    C7 5879   0.548   3.543  10.589  0.9723 -0.0118  0.0331
  393TMC3    C8 5880   0.567   3.861  10.936 -0.2609 -0.1713  0.1938
  393TMC3    O1 5881   0.477   3.457  10.641 -0.1015 -0.4076 -0.2115
  393TMC3    O2 5882   0.556   3.979  10.956  0.2206 -0.2893  0.1255
  394TMC3    C1 5883   1.883   4.054  10.582  0.5627 -0.1659 -0.2576
  394TMC3    C2 5884   1.832   4.017  10.455  0.8466  0.2547  0.6991
  394TMC3    C3 5885   1.895   4.065  10.344 -0.5458 -0.2692 -0.2297
  394TMC3    C4 5886   1.995   4.132  10.594 -0.0249 -0.3382  0.3594
  394TMC3    C5 5887   2.054   4.165  10.473 -0.3066 -0.9046 -0.5651
  394TMC3    C6 5888   2.003   4.141  10.351 -0.3153  0.3128  0.2115
  394TMC3     C 5889   1.821   3.989  10.692 -0.2515 -0.1653  0.2803
  394TMC3     O 5890   1.740   3.904  10.665 -0.2018  0.4826  0.3307
  394TMC3     H 5891   1.742   3.958  10.446  1.0663  0.2062 -1.1342
  394TMC3    H1 5892   2.037   4.159  10.690 -1.8076 -0.0179  1.0510
  394TMC3    H2 5893   2.046   4.185  10.262  0.4936  0.5025  0.6977
  394TMC3    C7 5894   2.178   4.241  10.476  0.2602  0.1689  0.7905
  394TMC3    C8 5895   1.822   4.068  10.217 -0.8705 -0.3209  0.3598
  394TMC3    O1 5896   2.203   4.317  10.387 -0.4126 -0.0307  0.8195
  394TMC3    O2 5897   1.857   4.153  10.141 -0.8162 -0.1071  0.9429
  395TMC3    C1 5898   0.715   0.754  14.276 -0.6722 -0.1265 -0.2506
  395TMC3    C2 5899   0.601   0.704  14.338  0.3679  0.4825  0.0669
  395TMC3    C3 5900   0.590   0.737  14.472  0.0560 -0.8484  0.2030
  395TMC3    C4 5901   0.805   0.835  14.346  0.8105 -0.5498 -0.4177
  395TMC3    C5 5902   0.781   0.860  14.482 -0.2436 -0.1961  0.8381
  395TMC3    C6 5903   0.670   0.818  14.547 -0.4188 -0.2450  0.2298
  395TMC3     C 5904   0.720   0.742  14.127 -0.4967 -0.3640  0.9640
  395TMC3     O 5905   0.757   0.848  14.078  0.1897 -0.6130  0.1186
  395TMC3     H 5906   0.527   0.645  14.284  1.1240  0.6484 -1.1530
  395TMC3    H1 5907   0.889   0.875  14.290  0.6748  1.8062  1.0806
  395TMC3    H2 5908   0.661   0.827  14.655  3.7254 -0.0025  0.5432
  395TMC3    C7 5909   0.885   0.914  14.562  0.2943  0.2534  0.3213
  395TMC3    C8 5910   0.497   0.649  14.534  0.0483  0.2524  0.5487
  395TMC3    O1 5911   0.856   0.982  14.656 -0.7778 -0.3409 -0.3672
  395TMC3    O2 5912   0.493   0.538  14.488 -0.5363 -0.3746  0.3868
  396MPD2     C 5913   0.442   2.442  17.428 -0.2415  0.0019  0.1031
  396MPD2    C1 5914   0.570   2.423  17.386  0.1584 -0.0937  0.5485
  396MPD2    C2 5915   0.612   2.480  17.271 -0.3179  0.1769  0.0190
  396MPD2    C3 5916   0.515   2.530  17.182  0.0939  0.5901  0.1412
  396MPD2    C4 5917   0.385   2.541  17.219 -0.0482 -0.4780 -0.1364
  396MPD2    C5 5918   0.345   2.504  17.342  0.9593 -0.0443 -0.1123
  396MPD2     H 5919   0.717   2.479  17.243  0.4636  0.8923  2.8971
  396MPD2    H1 5920   0.306   2.588  17.160  0.2732  0.6767  0.3501
  396MPD2    H2 5921   0.406   2.414  17.527 -1.3335  0.3926 -0.1854
  396MPD2    H3 5922   0.247   2.530  17.380  0.8274 -0.6786 -0.0177
  396MPD2     N 5923   0.561   2.565  17.056 -0.0727  0.9541 -0.1479
  396MPD2    H5 5924   0.662   2.571  17.043  0.0326 -1.8714 -0.7709
  396MPD2    N1 5925   0.656   2.353  17.479 -0.3951  1.1385 -0.0819
  396MPD2    H7 5926   0.624   2.336  17.574  2.1167 -0.8644  0.3961
  397TMC3    C1 5927   0.837   2.246  17.565  0.9810  1.1280 -0.7968
  397TMC3    C2 5928   0.972   2.237  17.563 -0.5403 -0.1808  0.1170
  397TMC3    C3 5929   1.032   2.112  17.579  0.7661 -0.4874 -0.1239
  397TMC3    C4 5930   0.762   2.148  17.624  0.0439 -0.2504 -0.7122
  397TMC3    C5 5931   0.821   2.037  17.668  0.4333  0.2094 -0.4427
  397TMC3    C6 5932   0.952   2.016  17.639 -0.1684 -0.0938 -0.7037
  397TMC3     C 5933   0.776   2.298  17.448  0.5374 -0.0432  0.6377
  397TMC3     O 5934   0.837   2.315  17.346  0.0709  0.1043 -0.2162
  397TMC3     H 5935   1.018   2.308  17.494 -1.0917 -0.8882 -0.9845
  397TMC3    H1 5936   0.654   2.153  17.611  0.0189  1.3342  0.1203
  397TMC3    H2 5937   0.989   1.916  17.659  3.3883  0.6103 -3.7563
  397TMC3    C7 5938   0.735   1.940   0.046 -0.0421  0.3411  0.4987
  397TMC3    C8 5939   1.110   2.060  17.467  0.9131 -0.4446  0.5669
  397TMC3    O1 5940   0.779   1.825   0.035 -0.6500  0.9426  0.2236
  397TMC3    O2 5941   1.068   1.950  17.431 -0.0566  0.5560  0.0998
  398MPD2     C 5942   3.111   2.950  17.625 -0.1208  0.0491 -0.1702
  398MPD2    C1 5943   3.186   2.859   0.015 -0.2094 -0.0994  0.0904
  398MPD2    C2 5944   3.287   2.909   0.089 -0.2854  0.5857 -0.3471
  398MPD2    C3 5945   3.317   3.045   0.104 -0.8047  0.0623  0.1351
  398MPD2    C4 5946   3.232   3.135   0.043 -0.2920 -0.1931  0.5708
  398MPD2    C5 5947   3.124   3.087  17.651  0.2545  0.7832  0.1818
  398MPD2     H 5948   3.352   2.837   0.139 -1.4703  0.1984  0.6627
  398MPD2    H1 5949   3.234   3.244   0.043  0.1965 -0.2092  1.9889
  398MPD2    H2 5950   3.032   2.908  17.563  0.9246 -0.6179 -1.0359
  398MPD2    H3 5951   3.058   3.160  17.607  2.7769  3.3975  0.7258
  398MPD2     N 5952   3.430   3.080   0.178  0.5478  0.3558  0.2238
  398MPD2    H5 5953   3.473   3.010   0.238 -0.2210 -1.7369 -1.6644
  398MPD2    N1 5954   3.172   2.718   0.018 -0.1614  0.2803 -0.5532
  398MPD2    H7 5955   3.236   2.673   0.082  0.4998  2.3159  0.1948
  399TMC3    C1 5956   3.068   2.498  17.667  0.0288 -0.2009 -0.7266
  399TMC3    C2 5957   3.169   2.435   0.049  0.3050  0.3150 -0.0777
  399TMC3    C3 5958   3.153   2.303   0.093 -0.8447  0.1921  0.1013
  399TMC3    C4 5959   2.943   2.443  17.648  0.3201  0.5261 -0.7493
  399TMC3    C5 5960   2.936   2.315   0.013 -0.3246 -0.0245 -0.1591
  399TMC3    C6 5961   3.032   2.239   0.078 -0.5774 -0.5018 -0.2971
  399TMC3     C 5962   3.081   2.639  17.625 -0.0207  0.2837 -0.4322
  399TMC3     O 5963   2.982   2.683  17.570 -0.5793 -0.6692 -0.3527
  399TMC3     H 5964   3.270   2.468   0.031 -0.2829  1.9763 -0.3819
  399TMC3    H1 5965   2.860   2.491  17.598 -0.0923 -0.0951 -0.6543
  399TMC3    H2 5966   3.015   2.134   0.100  0.1333 -0.3478  0.9596
  399TMC3    C7 5967   2.800   2.257   0.035 -0.6551  0.1322  0.4251
  399TMC3    C8 5968   3.263   2.256   0.162  0.1996  0.0620  0.4010
  399TMC3    O1 5969   2.786   2.135   0.036  0.0939 -0.1182 -0.7678
  399TMC3    O2 5970   3.336   2.341   0.212  0.3139 -0.3195 -0.1415
  400TMC3    C1 5971   2.190   1.301  16.783 -0.6663 -0.4179 -0.1610
  400TMC3    C2 5972   2.064   1.338  16.729 -0.4984 -0.2135  0.6359
  400TMC3    C3 5973   2.014   1.464  16.754 -0.3111 -0.4901  0.0206
  400TMC3    C4 5974   2.266   1.391  16.848  0.0921 -0.3599  0.1170
  400TMC3    C5 5975   2.220   1.515  16.872  0.1132  0.4302 -0.4074
  400TMC3    C6 5976   2.101   1.556  16.817  0.5042 -0.1296  0.0644
  400TMC3     C 5977   2.208   1.158  16.809 -0.2379  0.4359 -0.0670
  400TMC3     O 5978   2.169   1.089  16.717 -0.5551 -0.4313 -0.2620
  400TMC3     H 5979   2.008   1.257  16.685  0.4066 -2.0229  2.8316
  400TMC3    H1 5980   2.365   1.359  16.880 -0.4204 -0.0253  2.0303
  400TMC3    H2 5981   2.073   1.660  16.820  0.1379 -0.2280  0.0753
  400TMC3    C7 5982   2.310   1.618  16.923  0.0226  0.4818  0.3231
  400TMC3    C8 5983   1.895   1.522  16.691 -0.2179 -0.4545  0.2710
  400TMC3    O1 5984   2.432   1.607  16.893 -0.3886 -0.4716 -0.0724
  400TMC3    O2 5985   1.864   1.637  16.709  0.0408 -0.4258  0.4323
  401MPD2     C 5986   4.312   0.254   0.927  0.1137 -0.0379  0.2715
  401MPD2    C1 5987   4.416   0.171   0.881 -1.0538 -0.1960  0.1725
  401MPD2    C2 5988   4.483   0.086   0.969  0.4199 -0.0706 -0.1704
  401MPD2    C3 5989   4.432   0.063   1.091  0.7471  0.1101  0.0723
  401MPD2    C4 5990   4.337   0.137   1.143 -0.0397  0.0638  0.0893
  401MPD2    C5 5991   4.278   0.226   1.057  0.1460 -0.5005  0.4039
  401MPD2     H 5992   4.572   0.033   0.937 -0.1319  0.6291 -2.8774
  401MPD2    H1 5993   4.296   0.128   1.243 -1.7292  1.2307 -0.5007
  401MPD2    H2 5994   4.270   0.340   0.875 -3.0296 -2.4308 -1.1354
  401MPD2    H3 5995   4.203   0.294   1.097 -0.6289  0.2633 -2.2979
  401MPD2     N 5996   4.491   4.672   1.164 -0.1391  0.0824 -0.7253
  401MPD2    H5 5997   4.567   4.618   1.123  0.7852 -0.6394  1.9385
  401MPD2    N1 5998   4.469   0.195   0.748  0.3526  0.1005 -0.2965
  401MPD2    H7 5999   4.555   0.151   0.717  0.9755  1.6869 -0.8492
  402TMC3    C1 6000   4.482   4.482   1.299  0.3496 -0.0227 -0.3939
  402TMC3    C2 6001   4.512   4.444   1.432 -0.0843 -0.0071  0.2212
  402TMC3    C3 6002   4.568   4.323   1.451 -0.0620 -0.1385  0.2482
  402TMC3    C4 6003   4.515   4.400   1.196  0.1249 -0.5245 -0.2992
  402TMC3    C5 6004   4.585   4.292   1.221  0.1242  0.1535 -0.5847
  402TMC3    C6 6005   4.619   4.245   1.344  0.3868 -0.3726  0.3270
  402TMC3     C 6006   4.440   4.619   1.280 -0.3083  0.0703  0.0061
  402TMC3     O 6007   4.373   4.667   1.370 -0.2146 -0.2228  0.6553
  402TMC3     H 6008   4.499   4.511   1.516 -0.3183  0.8659 -0.5055
  402TMC3    H1 6009   4.500   4.433   1.094  1.1142  1.1277  0.0799
  402TMC3    H2 6010   4.687   4.163   1.363  1.4180  0.0675 -1.4940
  402TMC3    C7 6011   4.632   4.219   1.103 -0.7111  0.5357 -0.5744
  402TMC3    C8 6012   4.607   4.298   1.588 -0.4680 -0.5776 -0.1975
  402TMC3    O1 6013   4.550   4.226   1.014 -0.1067  0.3062  0.1343
  402TMC3    O2 6014   4.537   4.344   1.675  0.1643 -0.0401 -0.2925
  403MPD2     C 6015   3.748   3.469  13.274  0.2818  0.2879  0.0141
  403MPD2    C1 6016   3.800   3.348  13.317 -0.2450 -0.1260  0.4857
  403MPD2    C2 6017   3.864   3.349  13.441  0.0576 -0.0373 -0.2454
  403MPD2    C3 6018   3.891   3.467  13.511 -0.2462 -0.2629  0.0705
  403MPD2    C4 6019   3.843   3.584  13.460  0.2617 -0.3288  0.7836
  403MPD2    C5 6020   3.773   3.587  13.341 -0.0810 -0.1501 -0.6307
  403MPD2     H 6021   3.920   3.266  13.483 -2.7521 -1.5597  0.4749
  403MPD2    H1 6022   3.860   3.679  13.510 -0.5344  0.2084  0.0292
  403MPD2    H2 6023   3.693   3.469  13.180  0.1982 -1.0480  0.0595
  403MPD2    H3 6024   3.735   3.683  13.310  0.2299  0.4878  0.9694
  403MPD2     N 6025   3.960   3.457  13.640  0.0397 -0.7187 -0.1756
  403MPD2    H5 6026   4.012   3.371  13.653  0.5018 -0.3659  0.2816
  403MPD2    N1 6027   3.796   3.235  13.240 -0.4479  0.5306 -0.0895
  403MPD2    H7 6028   3.762   3.239  13.145  1.4524 -1.1751 -0.8420
  404TMC3    C1 6029   3.755   3.008  13.202  0.6851 -0.0971 -0.4343
  404TMC3    C2 6030   3.683   2.911  13.259 -0.9606  0.5251  0.1292
  404TMC3    C3 6031   3.625   2.822  13.174  0.4122  0.0897  0.4762
  404TMC3    C4 6032   3.773   3.032  13.070 -0.2177  0.4178 -0.4069
  404TMC3    C5 6033   3.710   2.943  12.988  0.0741  0.4983  0.8451
  404TMC3    C6 6034   3.635   2.839  13.038 -0.9906 -0.2042 -0.2298
  404TMC3     C 6035   3.810   3.108  13.294  0.2701 -0.1488 -0.5226
  404TMC3     O 6036   3.830   3.071  13.410  0.5651  0.6439  0.0853
  404TMC3     H 6037   3.675   2.893  13.365 -1.4757  0.6976  0.1160
  404TMC3    H1 6038   3.827   3.120  13.037  0.5552 -0.6355 -2.0008
  404TMC3    H2 6039   3.585   2.761  12.982  1.9878 -2.3999  0.1667
  404TMC3    C7 6040   3.684   2.998  12.856  0.1968  0.5269  0.4291
  404TMC3    C8 6041   3.630   2.687  13.216 -0.4276  0.1173  0.5806
  404TMC3    O1 6042   3.756   3.090  12.816 -0.2766 -0.7482  0.4672
  404TMC3    O2 6043   3.707   2.617  13.156  0.0514 -0.1848 -0.0213
  405MPD2     C 6044   4.102   3.685  14.534  0.4626  0.8449  0.6001
  405MPD2    C1 6045   4.078   3.585  14.445 -0.0686 -0.0662  0.0118
  405MPD2    C2 6046   3.971   3.597  14.357 -0.2803  0.3361 -0.2443
  405MPD2    C3 6047   3.897   3.705  14.352  0.4869 -0.7293 -0.8281
  405MPD2    C4 6048   3.914   3.803  14.446  0.5753 -0.0968 -0.0389
  405MPD2    C5 6049   4.021   3.795  14.530  0.5827  0.5449  0.0479
  405MPD2     H 6050   3.947   3.508  14.301 -1.2781 -0.1541  0.9489
  405MPD2    H1 6051   3.838   3.880  14.454  0.4156 -0.4323  1.7458
  405MPD2    H2 6052   4.176   3.679  14.614  1.5895 -1.8307 -0.6635
  405MPD2    H3 6053   4.026   3.880  14.598  1.6023  0.3430  0.2147
  405MPD2     N 6054   3.802   3.698  14.256  0.0389 -0.4074 -1.0997
  405MPD2    H5 6055   3.805   3.610  14.206 -1.7304 -0.1622 -1.6265
  405MPD2    N1 6056   4.166   3.472  14.450 -0.2559 -0.5717 -0.0803
  405MPD2    H7 6057   4.244   3.467  14.515 -0.8662  0.1602  0.7171
  406TMC3    C1 6058   3.409   3.762  14.027  0.1691 -0.6771  0.8735
  406TMC3    C2 6059   3.433   3.654  13.944  0.1249 -0.4727 -0.2759
  406TMC3    C3 6060   3.561   3.608  13.944 -0.3204  0.0856  0.3813
  406TMC3    C4 6061   3.500   3.813  14.116 -0.8869 -0.7071 -0.0505
  406TMC3    C5 6062   3.620   3.751  14.126 -0.5378  0.0291 -0.7292
  406TMC3    C6 6063   3.653   3.644  14.045 -0.7896 -0.5518  0.0117
  406TMC3     C 6064   3.276   3.816  14.032 -0.3679 -0.6065 -0.6742
  406TMC3     O 6065   3.200   3.792  13.943 -0.1358 -0.4478 -0.0182
  406TMC3     H 6066   3.357   3.618  13.875 -0.6004  1.0602 -0.2838
  406TMC3    H1 6067   3.489   3.909  14.166 -0.2048 -0.7579  0.1975
  406TMC3    H2 6068   3.753   3.604  14.051 -0.4770  0.1498 -0.5198
  406TMC3    C7 6069   3.709   3.795  14.229  0.7440  0.3566  0.0642
  406TMC3    C8 6070   3.583   3.470  13.887 -0.5122 -0.5164  0.4278
  406TMC3    O1 6071   3.697   3.907  14.285  0.4549 -0.0379 -0.3022
  406TMC3    O2 6072   3.550   3.457  13.769 -0.3463  0.5906 -0.1197
  407MPD2     C 6073   1.508   0.993  10.043  0.1906  0.1885 -0.4331
  407MPD2    C1 6074   1.590   1.073   9.963 -0.1178 -0.7138 -0.0290
  407MPD2    C2 6075   1.662   1.175  10.014 -0.3592  0.3061 -0.2558
  407MPD2    C3 6076   1.658   1.207  10.146 -0.6657 -0.3754 -0.4954
  407MPD2    C4 6077   1.571   1.134  10.219  0.5457  0.0548  0.3820
  407MPD2    C5 6078   1.505   1.025  10.176 -0.2079  0.0828  0.0493
  407MPD2     H 6079   1.727   1.227   9.945 -2.5128 -0.7338 -3.0359
  407MPD2    H1 6080   1.570   1.160  10.324 -0.4148  1.3528  0.0540
  407MPD2    H2 6081   1.455   0.906  10.007 -0.4260 -0.7936  2.7983
  407MPD2    H3 6082   1.442   0.973  10.247  2.6807 -3.6955 -0.1402
  407MPD2     N 6083   1.728   1.309  10.211  0.3405  0.1118  0.0659
  407MPD2    H5 6084   1.723   1.325  10.312 -0.2067 -1.8210  0.3536
  407MPD2    N1 6085   1.604   1.055   9.822  0.2511  0.2862  0.1669
  407MPD2    H7 6086   1.638   1.133   9.766  2.3093  0.3406  1.4978
  408TMC3    C1 6087   1.588   0.933   9.617 -0.0428  0.5413 -0.4245
  408TMC3    C2 6088   1.624   0.820   9.554  0.5185  0.7525  0.0422
  408TMC3    C3 6089   1.615   0.814   9.420  0.2653 -0.1630  0.0980
  408TMC3    C4 6090   1.549   1.042   9.554  0.2207  0.3390 -0.3496
  408TMC3    C5 6091   1.563   1.037   9.419  0.7641  0.8011 -0.4450
  408TMC3    C6 6092   1.583   0.924   9.351  0.0943 -0.1375 -0.1206
  408TMC3     C 6093   1.584   0.930   9.763  0.3063 -0.5234  0.7879
  408TMC3     O 6094   1.578   0.821   9.821 -0.2914 -0.4053 -0.7792
  408TMC3     H 6095   1.665   0.731   9.601 -1.2164 -0.0659  0.0222
  408TMC3    H1 6096   1.520   1.135   9.602  3.0199  0.2073  1.6104
  408TMC3    H2 6097   1.598   0.918   9.243  1.7764  1.7676  0.0159
  408TMC3    C7 6098   1.531   1.160   9.354 -0.1922  0.9496 -1.1938
  408TMC3    C8 6099   1.715   0.722   9.361 -0.3600 -0.1883  0.0258
  408TMC3    O1 6100   1.446   1.236   9.402  0.5411 -0.3353 -0.0268
  408TMC3    O2 6101   1.684   0.652   9.263  0.2924  0.1686 -0.1393
  409MPD2     C 6102   0.513   1.156  16.675  0.0869  0.6746 -0.4426
  409MPD2    C1 6103   0.602   1.131  16.782  0.4907  0.3658  0.5977
  409MPD2    C2 6104   0.717   1.207  16.776  0.4936  0.1257 -1.0728
  409MPD2    C3 6105   0.739   1.302  16.677 -0.0166 -0.1428 -0.1627
  409MPD2    C4 6106   0.636   1.330  16.583 -0.5797 -0.0032  0.6025
  409MPD2    C5 6107   0.526   1.257  16.583 -0.4373  0.2356  0.5406
  409MPD2     H 6108   0.791   1.176  16.849 -2.1462 -0.0052  1.5284
  409MPD2    H1 6109   0.642   1.396  16.498  0.9912  0.8760  1.3832
  409MPD2    H2 6110   0.426   1.093  16.663  0.4687 -0.4803  2.9387
  409MPD2    H3 6111   0.452   1.262  16.503 -0.2776 -1.0917  0.2986
  409MPD2     N 6112   0.863   1.364  16.652  0.0083 -0.2567 -0.0035
  409MPD2    H5 6113   0.874   1.415  16.565  1.5102 -0.0735  0.2893
  409MPD2    N1 6114   0.600   1.033  16.879  1.1220 -0.1169  0.3390
  409MPD2    H7 6115   0.684   1.016  16.933  2.0995  1.2849 -0.7332
  410TMC3    C1 6116   1.083   1.442  16.697  0.8892 -1.0034 -0.3390
  410TMC3    C2 6117   1.205   1.407  16.750 -0.7394 -0.1660  0.5357
  410TMC3    C3 6118   1.306   1.497  16.738 -0.9420 -0.2190 -0.6114
  410TMC3    C4 6119   1.072   1.551  16.615  0.7650 -0.9238 -0.4386
  410TMC3    C5 6120   1.176   1.642  16.610  0.0914 -0.4809  0.1346
  410TMC3    C6 6121   1.293   1.615  16.675 -0.0483 -0.1137  0.2869
  410TMC3     C 6122   0.969   1.362  16.738 -0.0941 -0.2910  0.4526
  410TMC3     O 6123   0.975   1.309  16.851 -0.1930 -0.2006  0.8432
  410TMC3     H 6124   1.211   1.326  16.822  1.9255 -1.5278 -1.2270
  410TMC3    H1 6125   0.980   1.583  16.567  0.5436 -0.5882  0.2160
  410TMC3    H2 6126   1.379   1.674  16.644  1.2592 -1.8107  0.7029
  410TMC3    C7 6127   1.183   1.723  16.483  0.2251  0.2241  0.6233
  410TMC3    C8 6128   1.431   1.479  16.810 -0.5332 -0.4114 -0.4939
  410TMC3    O1 6129   1.086   1.702  16.412 -0.2035 -0.1177  0.1285
  410TMC3    O2 6130   1.496   1.575  16.839 -0.0270 -0.0812  0.2859
  411MPD2     C 6131   1.801   1.866  14.425  0.4698  0.1245 -0.5940
  411MPD2    C1 6132   1.664   1.862  14.419  0.5005 -0.0262 -1.1952
  411MPD2    C2 6133   1.605   1.740  14.406  0.4159 -0.0990  0.0380
  411MPD2    C3 6134   1.685   1.629  14.399  0.2958  0.4488 -0.0814
  411MPD2    C4 6135   1.820   1.637  14.377 -0.0065  0.1451  0.0307
  411MPD2    C5 6136   1.880   1.757  14.393  0.6366 -0.9980 -0.4100
  411MPD2     H 6137   1.497   1.737  14.389  0.6834 -0.5875 -1.6131
  411MPD2    H1 6138   1.882   1.549  14.384  0.7551  0.6322 -0.5048
  411MPD2    H2 6139   1.845   1.963  14.444 -1.0201  1.0229 -1.7271
  411MPD2    H3 6140   1.989   1.760  14.398  0.6636  0.1159 -1.6243
  411MPD2     N 6141   1.627   1.503  14.397  0.4130 -1.0825  0.5561
  411MPD2    H5 6142   1.685   1.425  14.368  2.6650  0.6894  0.2810
  411MPD2    N1 6143   1.592   1.980  14.438  0.2162 -0.2403  0.1435
  411MPD2    H7 6144   1.649   2.054  14.478  0.2415  0.0726 -0.4758
  412TMC3    C1 6145   1.443   1.348  14.402 -0.5027  0.1851  0.3165
  412TMC3    C2 6146   1.315   1.327  14.440  0.0563 -0.0142  0.2939
  412TMC3    C3 6147   1.230   1.261  14.358  0.3691  0.0814 -0.1312
  412TMC3    C4 6148   1.494   1.285  14.295 -0.0011  0.2308  0.3463
  412TMC3    C5 6149   1.407   1.218  14.210  0.1284 -0.8449 -0.2556
  412TMC3    C6 6150   1.275   1.206  14.240 -0.6254  0.9692 -0.4906
  412TMC3     C 6151   1.508   1.471  14.448 -0.7281  0.1348  0.4585
  412TMC3     O 6152   1.422   1.548  14.496 -0.1040  0.4583  0.1784
  412TMC3     H 6153   1.276   1.381  14.525 -1.6117  1.7657 -1.6193
  412TMC3    H1 6154   1.599   1.291  14.266 -0.1484  0.8791 -0.0369
  412TMC3    H2 6155   1.213   1.162  14.162 -0.3566  1.4067 -0.9519
  412TMC3    C7 6156   1.415   1.266  14.072 -0.0317 -0.3913  0.7400
  412TMC3    C8 6157   1.087   1.284  14.382 -0.7260 -0.5159 -0.6871
  412TMC3    O1 6158   1.326   1.246  13.993  0.2171 -0.0051  0.4029
  412TMC3    O2 6159   1.070   1.389  14.436  0.0011 -0.0034  0.5500
  413MPD2     C 6160   2.781   0.462  15.677 -0.0041 -0.0977  0.0649
  413MPD2    C1 6161   2.747   0.346  15.614 -0.0234  0.4812 -0.4071
  413MPD2    C2 6162   2.849   0.270  15.570 -0.9036 -0.1042 -0.2463
  413MPD2    C3 6163   2.982   0.319  15.556  0.0929  0.2259  0.0613
  413MPD2    C4 6164   3.007   0.446  15.596 -0.2573 -0.1500 -0.0995
  413MPD2    C5 6165   2.907   0.510  15.662  0.0871 -0.4943  0.0459
  413MPD2     H 6166   2.836   0.165  15.545  0.4231 -0.2770 -0.2360
  413MPD2    H1 6167   3.107   0.486  15.583 -0.1233 -0.0234  1.3010
  413MPD2    H2 6168   2.707   0.524  15.726 -0.8302  1.7589 -3.5489
  413MPD2    H3 6169   2.927   0.612  15.692 -1.8219  0.2491 -1.2154
  413MPD2     N 6170   3.099   0.256  15.504 -0.2710  0.7124 -0.1851
  413MPD2    H5 6171   3.185   0.309  15.494  0.5427 -0.4039  0.9265
  413MPD2    N1 6172   2.613   0.316  15.600 -0.3154 -0.5486 -0.2665
  413MPD2    H7 6173   2.551   0.381  15.648  1.2816 -0.7938  2.1216
  414TMC3    C1 6174   3.226   0.098  15.392  0.1259  0.7603  0.6159
  414TMC3    C2 6175   3.292   4.692  15.389  0.5840  0.1329  0.7642
  414TMC3    C3 6176   3.420   4.683  15.349 -1.0080 -0.0724 -0.0961
  414TMC3    C4 6177   3.297   0.203  15.334 -0.2674 -0.5179  0.0032
  414TMC3    C5 6178   3.427   0.194  15.291 -0.1197 -0.6021 -0.2511
  414TMC3    C6 6179   3.492   0.081  15.316  0.2326 -0.2798  0.0623
  414TMC3     C 6180   3.109   0.127  15.474 -0.6752 -1.1464  0.7906
  414TMC3     O 6181   3.045   0.033  15.522  0.0107  0.2589 -0.6105
  414TMC3     H 6182   3.235   4.604  15.418  1.7796 -1.2190 -1.0049
  414TMC3    H1 6183   3.250   0.299  15.314 -0.2813 -0.6154 -0.4334
  414TMC3    H2 6184   3.590   0.078  15.270  1.1220 -1.3724  1.9927
  414TMC3    C7 6185   3.446   0.234  15.154 -0.3258 -0.0870 -0.4136
  414TMC3    C8 6186   3.484   4.557  15.336  0.7689  0.5639  0.4958
  414TMC3    O1 6187   3.548   0.303  15.137 -0.1614 -0.6385 -0.4338
  414TMC3    O2 6188   3.411   4.457  15.333 -0.3031 -0.1072 -0.1593
  415TMC3    C1 6189   4.292   3.919  10.373  0.0281 -0.2847  0.1192
  415TMC3    C2 6190   4.397   3.867  10.305 -0.0328  0.0189  0.6375
  415TMC3    C3 6191   4.394   3.735  10.263 -0.7502 -0.1998 -0.0564
  415TMC3    C4 6192   4.183   3.836  10.405  0.3072 -0.1081 -0.0271
  415TMC3    C5 6193   4.193   3.697  10.368  0.1872  0.4090  0.1432
  415TMC3    C6 6194   4.288   3.656  10.284  0.2684  0.2760 -0.8119
  415TMC3     C 6195   4.311   4.026  10.470  0.5122  0.7650  0.1413
  415TMC3     O 6196   4.212   4.085  10.513 -0.2198 -0.2893 -0.4689
  415TMC3     H 6197   4.489   3.923  10.294 -0.2046 -0.0067 -1.0136
  415TMC3    H1 6198   4.099   3.876  10.461 -2.0652 -4.1971 -0.6021
  415TMC3    H2 6199   4.287   3.560  10.233 -0.8488  0.2296 -0.7103
  415TMC3    C7 6200   4.093   3.592  10.397  0.2836 -0.1227 -0.2616
  415TMC3    C8 6201   4.506   3.680  10.186 -0.3501  0.7795  0.1445
  415TMC3    O1 6202   4.114   3.479  10.347  1.1612 -0.1517 -0.1772
  415TMC3    O2 6203   4.586   3.766  10.138  0.1147 -0.1867  0.4595
  416MPD2     C 6204   1.185   1.828  11.322  0.3842  1.0233  0.1872
  416MPD2    C1 6205   1.096   1.806  11.421  0.2010 -0.5853  1.0720
  416MPD2    C2 6206   1.059   1.679  11.441 -0.1890 -0.3924  0.2359
  416MPD2    C3 6207   1.084   1.575  11.356  0.5435 -0.1215 -0.1749
  416MPD2    C4 6208   1.172   1.600  11.254 -0.5249  0.6057 -0.0337
  416MPD2    C5 6209   1.230   1.721  11.247 -0.1512  1.0723 -0.2484
  416MPD2     H 6210   0.996   1.650  11.524 -1.9000 -1.3236 -1.4065
  416MPD2    H1 6211   1.218   1.526  11.189 -0.4223  2.0153 -1.5657
  416MPD2    H2 6212   1.227   1.927  11.310  1.3926  0.6417  0.5919
  416MPD2    H3 6213   1.307   1.727  11.172 -0.8443 -2.6437 -1.2733
  416MPD2     N 6214   1.016   1.460  11.370 -0.0764 -0.3622  0.0445
  416MPD2    H5 6215   0.961   1.458  11.456 -1.0805  0.2506 -0.5831
  416MPD2    N1 6216   1.030   1.912  11.476  0.1748  0.7706  0.3924
  416MPD2    H7 6217   1.048   2.007  11.443  0.9850  1.2235  2.1246
  417TMC3    C1 6218   0.872   2.008  11.622  0.4784 -0.0181  0.7132
  417TMC3    C2 6219   0.828   2.016  11.752  0.4338  0.5403 -0.1931
  417TMC3    C3 6220   0.713   2.081  11.783  0.0237  0.1003  0.4717
  417TMC3    C4 6221   0.786   2.047  11.522 -0.1774 -0.8221  0.2011
  417TMC3    C5 6222   0.663   2.096  11.558  0.2569 -0.2508  1.0721
  417TMC3    C6 6223   0.623   2.114  11.685  0.3697 -0.6825  0.2568
  417TMC3     C 6224   0.965   1.897  11.597  0.3642 -0.2424  0.8018
  417TMC3     O 6225   0.982   1.812  11.683 -0.0149 -0.7675 -0.6939
  417TMC3     H 6226   0.896   1.975  11.826 -2.3731  0.8632  2.5674
  417TMC3    H1 6227   0.811   2.037  11.417 -0.2517 -1.2986  0.2296
  417TMC3    H2 6228   0.529   2.161  11.708  0.1463 -1.4041  0.8002
  417TMC3    C7 6229   0.578   2.116  11.444 -0.2704 -0.0764  0.4660
  417TMC3    C8 6230   0.666   2.105  11.919  0.6571  0.4924 -0.1892
  417TMC3    O1 6231   0.631   2.135  11.335  0.0032  0.2074  0.4631
  417TMC3    O2 6232   0.549   2.141  11.938  0.1371 -0.8794 -0.1449
  418TMC3    C1 6233   3.849   3.161   0.234  0.1867  0.6163 -0.0689
  418TMC3    C2 6234   3.734   3.220   0.176  0.9098 -0.1023 -0.1411
  418TMC3    C3 6235   3.615   3.193   0.243 -0.2606 -0.5651 -0.1376
  418TMC3    C4 6236   3.849   3.094   0.355 -0.4764  0.0740 -0.5011
  418TMC3    C5 6237   3.724   3.063   0.406  0.4783 -0.8666  0.4426
  418TMC3    C6 6238   3.604   3.115   0.355 -0.3689 -0.2642  0.2951
  418TMC3     C 6239   3.973   3.158   0.158  0.3451  0.1476  0.1739
  418TMC3     O 6240   3.986   3.227   0.057  0.1278 -0.4370  0.1921
  418TMC3     H 6241   3.735   3.279   0.085 -0.7533  3.4467  2.1327
  418TMC3    H1 6242   3.939   3.061   0.404  0.4064  1.0488 -1.4660
  418TMC3    H2 6243   3.509   3.091   0.400  0.0926 -0.0521  1.3840
  418TMC3    C7 6244   3.708   2.955   0.499 -0.3168 -0.1085  0.2871
  418TMC3    C8 6245   3.495   3.201   0.172 -0.6705 -0.7232  0.6643
  418TMC3    O1 6246   3.598   2.901   0.496  0.4096  0.2429 -0.0704
  418TMC3    O2 6247   3.489   3.282   0.080  0.2741 -0.1128  0.3002
  419MPD2     C 6248   2.652   1.579  12.981 -0.3272 -0.3841  0.1611
  419MPD2    C1 6249   2.667   1.707  12.938  0.5375 -0.0439  0.0443
  419MPD2    C2 6250   2.756   1.788  13.006  0.6226 -0.2314  0.5163
  419MPD2    C3 6251   2.826   1.754  13.118  0.4501  0.3456  0.4474
  419MPD2    C4 6252   2.811   1.626  13.161 -0.2881 -1.0740  0.1784
  419MPD2    C5 6253   2.732   1.539  13.086 -0.2180 -0.1917  0.2358
  419MPD2     H 6254   2.763   1.892  12.974  0.1611 -0.4915 -0.4327
  419MPD2    H1 6255   2.859   1.585  13.249 -0.9557  0.5709  1.2930
  419MPD2    H2 6256   2.585   1.507  12.937  0.9616 -2.5713  1.7774
  419MPD2    H3 6257   2.741   1.436  13.118 -1.5000 -0.5505 -0.5909
  419MPD2     N 6258   2.918   1.850  13.172  0.3734  0.5123  0.0417
  419MPD2    H5 6259   2.926   1.937  13.121 -2.6043  0.6315 -0.2251
  419MPD2    N1 6260   2.585   1.767  12.841  0.0738 -0.3521 -0.7209
  419MPD2    H7 6261   2.613   1.863  12.823  1.3835 -0.8862 -1.5264
  420TMC3    C1 6262   3.057   1.942  13.328 -0.2702 -0.1234 -0.7086
  420TMC3    C2 6263   3.055   2.040  13.233 -0.3777  0.6199 -0.5077
  420TMC3    C3 6264   2.996   2.161  13.271 -0.0213 -0.5658 -0.2672
  420TMC3    C4 6265   3.034   1.976  13.454  0.1228  0.1458  0.2259
  420TMC3    C5 6266   2.975   2.096  13.488 -0.2613 -0.0894 -0.3466
  420TMC3    C6 6267   2.950   2.195  13.396  0.9103  0.4811  0.3390
  420TMC3     C 6268   2.976   1.825  13.290  0.2295  0.3205  0.4694
  420TMC3     O 6269   2.961   1.743  13.379  0.4530  0.5547  0.0754
  420TMC3     H 6270   3.077   2.011  13.131 -1.2109  0.3221 -0.5983
  420TMC3    H1 6271   3.044   1.904  13.534  2.1366  1.2673  0.9629
  420TMC3    H2 6272   2.890   2.284  13.413 -1.7258 -1.0045 -1.1741
  420TMC3    C7 6273   2.871   2.076  13.597 -0.0695 -0.3048  1.2557
  420TMC3    C8 6274   2.926   2.233  13.170 -0.1186  0.0476 -0.4039
  420TMC3    O1 6275   2.892   1.991  13.684  0.0508 -0.1394  0.3995
  420TMC3    O2 6276   2.808   2.257  13.173 -0.0048  0.0247 -0.2216
  421TMC3    C1 6277   4.045   3.519  13.843  0.6342  0.5349 -0.2459
  421TMC3    C2 6278   4.053   3.621  13.933 -0.6631  0.4109  0.4212
  421TMC3    C3 6279   4.151   3.613  14.023  0.4040 -0.9954  0.7154
  421TMC3    C4 6280   4.132   3.415  13.844  1.1278 -1.0597  0.1881
  421TMC3    C5 6281   4.225   3.416  13.942  0.7187 -0.8559  0.3538
  421TMC3    C6 6282   4.248   3.517  14.032  0.6683 -0.2983 -0.0170
  421TMC3     C 6283   3.959   3.556  13.733 -0.1626 -0.2166 -0.7080
  421TMC3     O 6284   3.905   3.668  13.731 -0.0699  0.0996  0.7569
  421TMC3     H 6285   3.980   3.701  13.938 -1.3072 -0.2880  2.0512
  421TMC3    H1 6286   4.132   3.337  13.768 -2.1940 -2.0543  1.2412
  421TMC3    H2 6287   4.314   3.507  14.117 -0.1550  2.0275  0.8794
  421TMC3    C7 6288   4.335   3.313  13.943 -0.2968 -0.1322 -0.0299
  421TMC3    C8 6289   4.182   3.739  14.089  0.2952 -0.0343  0.3518
  421TMC3    O1 6290   4.427   3.316  14.022  0.2295 -0.0125 -0.5790
  421TMC3    O2 6291   4.106   3.831  14.095  0.0510  0.2133  0.1124
  422TMC3    C1 6292   1.652   4.702  12.660  0.5278  0.1273 -0.0888
  422TMC3    C2 6293   1.657   0.121  12.661 -0.2445 -1.0030 -0.3233
  422TMC3    C3 6294   1.541   0.192  12.683 -0.4904  0.2077 -0.2254
  422TMC3    C4 6295   1.548   4.634  12.705 -0.2134 -0.3544  0.0993
  422TMC3    C5 6296   1.435   4.704  12.731 -0.9106 -0.0396  0.3706
  422TMC3    C6 6297   1.422   0.121  12.711 -0.0975  0.6825  0.1425
  422TMC3     C 6298   1.708   4.649  12.540  0.4441  0.0362  0.3294
  422TMC3     O 6299   1.757   0.013  12.461 -0.0716 -0.7623  0.5513
  422TMC3     H 6300   1.742   0.183  12.633  1.5555 -1.8511  3.1948
  422TMC3    H1 6301   1.546   4.525  12.712 -2.1493 -0.4061 -1.1139
  422TMC3    H2 6302   1.328   0.171  12.735 -1.2301 -2.1308  1.5006
  422TMC3    C7 6303   1.321   4.629  12.690 -0.2210  0.1500 -0.0227
  422TMC3    C8 6304   1.552   0.336  12.694  0.8727 -0.1024 -0.3549
  422TMC3    O1 6305   1.341   4.561  12.589  0.8733 -0.2753  0.1543
  422TMC3    O2 6306   1.661   0.385  12.722 -0.4214 -0.8106  0.4889
  423MPD2     C 6307   2.767   1.241   0.311 -0.1171 -0.5190 -0.0959
  423MPD2    C1 6308   2.777   1.115   0.370 -0.0226 -0.0864 -0.4571
  423MPD2    C2 6309   2.802   1.008   0.283  0.0873 -0.2029  0.0694
  423MPD2    C3 6310   2.833   1.025   0.144  0.2721  0.0728  0.3346
  423MPD2    C4 6311   2.839   1.155   0.098 -0.0691 -0.2688  0.2329
  423MPD2    C5 6312   2.805   1.257   0.182  0.9486 -0.0994 -0.3473
  423MPD2     H 6313   2.797   0.910   0.329 -2.1983  0.7297  1.8382
  423MPD2    H1 6314   2.864   1.186  17.676 -1.5259 -1.2908 -0.4454
  423MPD2    H2 6315   2.757   1.332   0.368  1.4929 -1.3490  1.5300
  423MPD2    H3 6316   2.804   1.353   0.132 -0.0570  0.5944  1.0190
  423MPD2     N 6317   2.860   0.924   0.047 -1.3446  0.2989  0.6664
  423MPD2    H5 6318   2.905   0.951  17.639 -1.0759 -1.9341  0.1250
  423MPD2    N1 6319   2.764   1.096   0.509  0.3275 -0.8337 -0.6575
  423MPD2    H7 6320   2.777   1.000   0.540 -0.8460 -1.0077 -0.6907
  424TMC3    C1 6321   2.686   1.161   0.730 -0.3222  0.1698  0.4077
  424TMC3    C2 6322   2.732   1.045   0.786  0.3468  0.1330  0.1217
  424TMC3    C3 6323   2.712   1.029   0.918 -0.7010 -0.4993 -0.3532
  424TMC3    C4 6324   2.628   1.262   0.803 -0.9123  0.0903  0.6277
  424TMC3    C5 6325   2.632   1.244   0.942  0.0192 -0.2256 -0.4148
  424TMC3    C6 6326   2.673   1.128   1.001  0.0284 -0.2310 -0.3235
  424TMC3     C 6327   2.706   1.197   0.589 -0.3471  0.4414  0.2751
  424TMC3     O 6328   2.656   1.302   0.554  0.1352 -0.5626 -0.0521
  424TMC3     H 6329   2.764   0.959   0.728  1.0033 -0.7150  1.7531
  424TMC3    H1 6330   2.574   1.345   0.760 -0.8075  0.4888  1.2583
  424TMC3    H2 6331   2.692   1.129   1.108 -1.7278 -0.8938 -0.0016
  424TMC3    C7 6332   2.616   1.364   1.019  0.0013  0.1236 -0.3897
  424TMC3    C8 6333   2.759   0.913   0.979  0.2151  0.7635  0.7558
  424TMC3    O1 6334   2.647   1.467   0.963 -0.3083 -0.1251 -0.5976
  424TMC3    O2 6335   2.808   0.821   0.912 -0.0564  0.0083 -0.8624
  425MPD2     C 6336   1.513   0.097  17.294 -0.1355  1.0448  0.5543
  425MPD2    C1 6337   1.460   4.719  17.212  0.0327 -0.6385  0.1656
  425MPD2    C2 6338   1.328   0.010  17.175  0.0230  0.2738 -0.3822
  425MPD2    C3 6339   1.253   0.110  17.231 -0.2565 -0.7286 -0.1904
  425MPD2    C4 6340   1.313   0.200  17.316 -0.1955  0.2410 -0.1662
  425MPD2    C5 6341   1.439   0.186  17.353 -0.2619  0.0678  0.0766
  425MPD2     H 6342   1.288   4.654  17.108  1.1043  0.2159 -0.9511
  425MPD2    H1 6343   1.253   0.276  17.367 -2.7276 -0.2766 -2.4089
  425MPD2    H2 6344   1.618   0.100  17.318  0.0777 -2.6856  0.0410
  425MPD2    H3 6345   1.465   0.261  17.427 -1.4345 -0.2700  0.8222
  425MPD2     N 6346   1.117   0.116  17.205  0.1898 -0.0241  0.2797
  425MPD2    H5 6347   1.087   0.044  17.139 -3.2697  0.4796  1.3267
  425MPD2    N1 6348   1.549   4.619  17.169 -0.4830  0.5789  0.6609
  425MPD2    H7 6349   1.645   4.634  17.195 -0.6314  2.4757  0.0890
  426TMC3    C1 6350   1.639   4.430  17.062 -0.1246 -0.2451  0.5934
  426TMC3    C2 6351   1.632   4.319  16.982  0.3779 -0.2118  0.6608
  426TMC3    C3 6352   1.737   4.239  16.992  0.1691  0.4719  0.1470
  426TMC3    C4 6353   1.763   4.461  17.122 -0.2213  0.4326  0.2884
  426TMC3    C5 6354   1.861   4.369  17.136 -0.6514  0.1026 -0.1118
  426TMC3    C6 6355   1.842   4.256  17.074  0.2013 -0.3121 -0.8347
  426TMC3     C 6356   1.520   4.514  17.087  0.0388  0.0079 -0.3224
  426TMC3     O 6357   1.409   4.486  17.033 -0.0807 -0.4514  0.0056
  426TMC3     H 6358   1.537   4.292  16.937  0.5846  0.9761 -0.4986
  426TMC3    H1 6359   1.770   4.552  17.180  0.9039 -0.2449  1.2154
  426TMC3    H2 6360   1.915   4.176  17.065  1.0651  0.3503  0.4574
  426TMC3    C7 6361   1.865   4.346  17.280 -0.4049 -0.0870 -0.0199
  426TMC3    C8 6362   1.728   4.107  16.937  0.3109  0.5880 -0.1652
  426TMC3    O1 6363   1.787   4.414  17.346  0.3939 -0.3786  0.0547
  426TMC3    O2 6364   1.828   4.072  16.876  0.0010  0.0737 -0.6298
  427MPD2     C 6365   0.435   1.851  14.644  0.0795  0.5341  0.0298
  427MPD2    C1 6366   0.382   1.734  14.587  0.1314 -0.3565  0.8461
  427MPD2    C2 6367   0.248   1.730  14.563  0.0447  0.0304 -0.4916
  427MPD2    C3 6368   0.160   1.837  14.594  0.0490  1.3583  0.2803
  427MPD2    C4 6369   0.215   1.950  14.640  0.1956  0.5911 -0.6697
  427MPD2    C5 6370   0.352   1.955  14.664 -0.1021 -0.1739  0.3156
  427MPD2     H 6371   0.198   1.640  14.529 -1.1296  1.2422 -1.9686
  427MPD2    H1 6372   0.164   2.044  14.658 -1.8153 -0.3503 -1.4552
  427MPD2    H2 6373   0.533   1.869  14.687 -0.8325  0.1761  2.3132
  427MPD2    H3 6374   0.386   2.052  14.699 -0.5845  0.6453 -1.4689
  427MPD2     N 6375   0.020   1.833  14.591 -0.5205  0.1684  0.4110
  427MPD2    H5 6376   4.689   1.920  14.602  0.9892  0.9585  0.9895
  427MPD2    N1 6377   0.461   1.621  14.575 -0.3976  0.5255  0.4717
  427MPD2    H7 6378   0.420   1.538  14.534  0.0914 -0.1825  1.4207
  428TMC3    C1 6379   0.674   1.501  14.620 -0.7925  0.6310  0.1227
  428TMC3    C2 6380   0.604   1.395  14.675 -0.5540  0.1197  0.9871
  428TMC3    C3 6381   0.673   1.294  14.733 -0.2299  0.4331 -0.1838
  428TMC3    C4 6382   0.814   1.516  14.631 -0.1649 -0.3037  0.0598
  428TMC3    C5 6383   0.878   1.409  14.701 -0.3164 -0.3137 -0.2726
  428TMC3    C6 6384   0.813   1.296  14.749 -0.0079 -0.2860  0.2794
  428TMC3     C 6385   0.599   1.622  14.600 -0.2632  0.6394  0.2247
  428TMC3     O 6386   0.674   1.714  14.609 -0.2849 -0.3320 -0.2329
  428TMC3     H 6387   0.496   1.399  14.674 -0.3660  4.2738 -0.9667
  428TMC3    H1 6388   0.866   1.606  14.599 -0.9112  1.1059  2.8472
  428TMC3    H2 6389   0.868   1.227  14.812 -0.2123  0.0731  0.8464
  428TMC3    C7 6390   1.011   1.431  14.762  1.1402  0.1195  1.0659
  428TMC3    C8 6391   0.600   1.204  14.823 -0.1249 -0.2501 -0.2348
  428TMC3    O1 6392   1.040   1.369  14.859  0.2283  0.0258  0.3183
  428TMC3    O2 6393   0.497   1.256  14.865  0.1051 -0.3083  0.0673
  429MPD2     C 6394   1.369   1.915   0.100 -0.5109 -0.5151  0.1042
  429MPD2    C1 6395   1.412   1.846  17.670  0.2085  0.0767 -0.7754
  429MPD2    C2 6396   1.489   1.910  17.574  0.1182  0.9923 -0.3150
  429MPD2    C3 6397   1.510   2.044  17.575  0.8480 -0.4728  0.4832
  429MPD2    C4 6398   1.455   2.115   0.007 -0.1226 -0.0847 -0.0934
  429MPD2    C5 6399   1.386   2.054   0.101 -0.8389  0.3693 -0.8100
  429MPD2     H 6400   1.539   1.854  17.496  0.1809  0.1828  0.3051
  429MPD2    H1 6401   1.459   2.222   0.020 -0.5018 -0.2307  1.2129
  429MPD2    H2 6402   1.318   1.872   0.185  0.4045  0.6590  1.2556
  429MPD2    H3 6403   1.356   2.115   0.185 -0.1038 -3.0058  1.8661
  429MPD2     N 6404   1.599   2.105  17.481 -0.8486  0.1797  0.4700
  429MPD2    H5 6405   1.634   2.044  17.408 -1.7299  1.1496 -0.7665
  429MPD2    N1 6406   1.391   1.708  17.660 -0.4866 -0.0265 -0.3376
  429MPD2    H7 6407   1.434   1.655  17.585 -1.3417 -0.6078 -0.4079
  430TMC3    C1 6408   1.737   2.278  17.391 -0.6529  0.6361  1.0969
  430TMC3    C2 6409   1.763   2.419  17.375  0.2341  0.7948 -0.2198
  430TMC3    C3 6410   1.857   2.463  17.280 -0.0927 -0.1465 -0.3210
  430TMC3    C4 6411   1.809   2.184  17.321  0.0376  0.6013  0.1596
  430TMC3    C5 6412   1.916   2.229  17.253 -0.0955  0.3996  0.4027
  430TMC3    C6 6413   1.935   2.363  17.227  0.2621  0.2537 -0.0255
  430TMC3     C 6414   1.632   2.238  17.481  0.8225  0.4693 -0.1584
  430TMC3     O 6415   1.594   2.331  17.555  0.3805 -0.5265 -0.1316
  430TMC3     H 6416   1.710   2.495  17.432 -0.6535  1.3295 -1.7411
  430TMC3    H1 6417   1.785   2.080  17.335 -1.1191  0.4734 -2.7427
  430TMC3    H2 6418   2.000   2.391  17.145  0.1973 -2.7717 -1.0872
  430TMC3    C7 6419   1.982   2.121  17.181  0.0318  0.2436  0.4392
  430TMC3    C8 6420   1.787   2.532  17.179 -0.1351 -0.4111 -0.3486
  430TMC3    O1 6421   1.924   2.011  17.177 -0.2545  0.3898 -0.0358
  430TMC3    O2 6422   1.853   2.573  17.086  0.4410  0.2856 -0.5547
  431MPD2     C 6423   2.410   2.566  12.296 -0.0030 -0.3925  0.0797
  431MPD2    C1 6424   2.532   2.514  12.339 -0.1604  0.0942  0.1815
  431MPD2    C2 6425   2.538   2.378  12.381  0.2416 -0.0474  0.1867
  431MPD2    C3 6426   2.423   2.298  12.380  0.2401  0.1859  0.5030
  431MPD2    C4 6427   2.297   2.349  12.341 -0.2127  0.3587 -0.1579
  431MPD2    C5 6428   2.298   2.482  12.299  0.0295  0.1175  0.0342
  431MPD2     H 6429   2.636   2.339  12.404 -1.0873 -3.9444 -0.8913
  431MPD2    H1 6430   2.201   2.301  12.345  0.1477 -0.5549 -2.3167
  431MPD2    H2 6431   2.403   2.667  12.257 -1.6920 -1.5209 -2.5520
  431MPD2    H3 6432   2.204   2.529  12.272 -0.4980  0.5797  2.6752
  431MPD2     N 6433   2.427   2.158  12.409  0.4450 -0.0294  0.4629
  431MPD2    H5 6434   2.340   2.106  12.410 -1.3001  2.8574 -1.0714
  431MPD2    N1 6435   2.650   2.597  12.328 -0.0047  0.0902 -0.4714
  431MPD2    H7 6436   2.637   2.686  12.282 -0.4581  1.1270  1.6468
  432TMC3    C1 6437   2.501   1.954  12.484  0.2066  0.4302 -0.4395
  432TMC3    C2 6438   2.419   1.897  12.389  0.0959 -0.3484 -0.4457
  432TMC3    C3 6439   2.365   1.772  12.424  0.1604  0.0629 -0.0744
  432TMC3    C4 6440   2.517   1.903  12.612  0.1670 -0.2416 -0.9479
  432TMC3    C5 6441   2.453   1.781  12.639  0.7187 -0.0726  0.3623
  432TMC3    C6 6442   2.379   1.712  12.543  0.3138  0.1512 -0.1412
  432TMC3     C 6443   2.539   2.089  12.447 -0.0675  0.5359 -0.2215
  432TMC3     O 6444   2.657   2.124  12.462  0.4084  0.3643 -0.0651
  432TMC3     H 6445   2.401   1.947  12.295 -0.1681 -2.2250 -1.4046
  432TMC3    H1 6446   2.574   1.957  12.687  0.4047 -1.6047 -0.1429
  432TMC3    H2 6447   2.331   1.616  12.558 -0.5069  0.4406 -0.9267
  432TMC3    C7 6448   2.501   1.701  12.753  0.1324  0.0264  0.1294
  432TMC3    C8 6449   2.335   1.686  12.308  0.3165 -0.2964 -0.0772
  432TMC3    O1 6450   2.453   1.591  12.775 -0.3652  0.0193  0.0875
  432TMC3    O2 6451   2.228   1.630  12.309  0.2155  0.1490  0.4540
  433MPD2     C 6452   1.720   1.216  10.852 -0.0071  0.3714  0.4308
  433MPD2    C1 6453   1.763   1.104  10.919  0.0760 -0.4865 -0.3126
  433MPD2    C2 6454   1.825   1.114  11.043  0.5335  0.1651  1.2644
  433MPD2    C3 6455   1.840   1.245  11.100 -0.2597 -0.1825  0.2331
  433MPD2    C4 6456   1.801   1.355  11.031 -0.6761  0.2839  0.1737
  433MPD2    C5 6457   1.736   1.340  10.906 -1.0785 -0.1721  0.8943
  433MPD2     H 6458   1.872   1.040  11.105 -1.2920 -1.1840  1.0492
  433MPD2    H1 6459   1.818   1.454  11.072  0.3466 -0.0442  0.5525
  433MPD2    H2 6460   1.670   1.212  10.756  3.4488  1.3999 -1.4062
  433MPD2    H3 6461   1.708   1.423  10.843 -1.0677 -0.8491 -0.0147
  433MPD2     N 6462   1.907   1.248  11.232  0.2990  0.1660 -0.5331
  433MPD2    H5 6463   1.940   1.161  11.273  5.5982  2.6533  0.4891
  433MPD2    N1 6464   1.773   0.979  10.851 -0.3049  0.7417 -0.3293
  433MPD2    H7 6465   1.747   0.972  10.753 -0.5814  0.6479 -0.2488
  434TMC3    C1 6466   1.791   0.757  10.825 -0.6756 -0.5823 -0.1961
  434TMC3    C2 6467   1.889   0.669  10.831 -0.2763  0.5202 -0.0714
  434TMC3    C3 6468   1.870   0.539  10.794 -0.2107  0.1582  0.2550
  434TMC3    C4 6469   1.672   0.728  10.771 -0.0680 -0.2141  0.7962
  434TMC3    C5 6470   1.649   0.599  10.727  0.2289 -1.0947 -0.0973
  434TMC3    C6 6471   1.744   0.499  10.750  0.4529 -0.3235 -0.4543
  434TMC3     C 6472   1.797   0.864  10.914 -0.6341 -0.1729 -0.1748
  434TMC3     O 6473   1.810   0.836  11.032 -0.5500  0.3001 -0.4023
  434TMC3     H 6474   1.981   0.704  10.875  0.1136  0.6758 -1.0056
  434TMC3    H1 6475   1.590   0.799  10.758 -0.4971 -1.1204 -1.4964
  434TMC3    H2 6476   1.717   0.397  10.726  0.5685 -0.5160  0.2282
  434TMC3    C7 6477   1.550   0.585  10.623 -0.1723  0.2605  0.7567
  434TMC3    C8 6478   1.961   0.447  10.853  0.1940 -0.6249 -1.0686
  434TMC3    O1 6479   1.488   0.685  10.593 -0.2652  0.7083  0.3613
  434TMC3    O2 6480   2.043   0.489  10.935 -0.5854 -0.1443 -0.3664
  435MPD2     C 6481   3.407   0.782  15.328  0.5641  0.2561 -0.2380
  435MPD2    C1 6482   3.404   0.828  15.459  0.4407  0.3703  0.8644
  435MPD2    C2 6483   3.481   0.767  15.555  0.0513  1.0642 -0.3689
  435MPD2    C3 6484   3.549   0.654  15.528  0.4824  0.8302 -0.4556
  435MPD2    C4 6485   3.548   0.607  15.405 -0.3875  0.3861 -0.7024
  435MPD2    C5 6486   3.472   0.664  15.302 -0.8783  0.2931 -0.1242
  435MPD2     H 6487   3.486   0.809  15.655  1.3055 -3.2713  1.3719
  435MPD2    H1 6488   3.608   0.521  15.376 -0.7919  0.9555 -3.2720
  435MPD2    H2 6489   3.344   0.826  15.251 -1.9815  0.3148  1.8478
  435MPD2    H3 6490   3.476   0.621  15.203 -3.1273 -1.0403  0.3791
  435MPD2     N 6491   3.621   0.593  15.634  0.5118 -0.3669 -0.2363
  435MPD2    H5 6492   3.610   0.629  15.728  1.1517 -2.5178  0.6672
  435MPD2    N1 6493   3.331   0.950  15.501 -0.4802 -0.1434  0.4913
  435MPD2    H7 6494   3.351   0.985  15.594  1.3683 -0.0026  0.0503
  436TMC3    C1 6495   3.116   1.201  15.716  0.7572 -0.2493  0.1202
  436TMC3    C2 6496   3.186   1.117  15.646 -0.0809 -0.3723  0.1789
  436TMC3    C3 6497   3.173   1.124  15.509 -0.7836  0.3377 -0.0256
  436TMC3    C4 6498   3.013   1.277  15.663 -0.8083  0.2700  0.4211
  436TMC3    C5 6499   2.996   1.277  15.527 -0.0543  0.0048 -0.2905
  436TMC3    C6 6500   3.087   1.209  15.444  0.1543 -0.9188  0.4824
  436TMC3     C 6501   3.153   1.218  15.860  0.0539 -0.1812  0.0818
  436TMC3     O 6502   3.269   1.201  15.892  0.1947  0.3658  0.3268
  436TMC3     H 6503   3.238   1.034  15.692  0.7137 -0.1672 -0.3650
  436TMC3    H1 6504   2.947   1.332  15.729 -1.9707 -0.7332  0.1115
  436TMC3    H2 6505   3.079   1.210  15.336  0.0521  0.8732  0.5170
  436TMC3    C7 6506   2.890   1.364  15.474  0.3750 -0.2131 -0.0748
  436TMC3    C8 6507   3.236   1.020  15.427  0.5640  0.2408 -0.4636
  436TMC3    O1 6508   2.799   1.374  15.550  0.3837 -0.2301  0.6940
  436TMC3    O2 6509   3.180   0.994  15.317 -0.1658 -0.3658  0.0698
  437TMC3    C1 6510   2.156   3.134  12.678 -0.4005  0.7300 -0.1374
  437TMC3    C2 6511   2.041   3.206  12.709  0.3648  0.6862 -0.1354
  437TMC3    C3 6512   2.025   3.329  12.650 -0.4999 -0.9452  0.1847
  437TMC3    C4 6513   2.253   3.182  12.592 -0.1327  0.1130 -0.1249
  437TMC3    C5 6514   2.230   3.301  12.531 -0.3439  0.1388  0.6935
  437TMC3    C6 6515   2.115   3.372  12.558  0.0176 -0.7967 -0.5443
  437TMC3     C 6516   2.188   3.022  12.760 -0.1266  0.7065 -0.6421
  437TMC3     O 6517   2.306   3.001  12.782 -0.2408 -0.6145  0.2919
  437TMC3     H 6518   1.995   3.195  12.806 -1.0646  2.7527 -0.5783
  437TMC3    H1 6519   2.347   3.130  12.581 -0.0007 -0.1577  2.4657
  437TMC3    H2 6520   2.088   3.466  12.510  0.1262 -0.0024  0.9775
  437TMC3    C7 6521   2.305   3.343  12.417 -0.1629 -0.0325  0.7076
  437TMC3    C8 6522   1.945   3.419  12.723  0.0517  0.1278 -0.3680
  437TMC3    O1 6523   2.249   3.415  12.335  0.4011 -0.1704 -0.2073
  437TMC3    O2 6524   1.838   3.381  12.769 -0.4030 -0.3562  0.1846
  438MPD2     C 6525   4.174   3.540  16.837  0.0562 -0.7623  0.3347
  438MPD2    C1 6526   4.293   3.478  16.856  0.6020 -0.7571  1.1645
  438MPD2    C2 6527   4.304   3.380  16.953  0.4259 -0.6053 -0.2426
  438MPD2    C3 6528   4.205   3.340  17.028 -0.0171  0.1187  0.7564
  438MPD2    C4 6529   4.089   3.420  17.028  0.1034  1.4036 -0.4117
  438MPD2    C5 6530   4.071   3.511  16.919 -0.9018 -0.3233 -0.0386
  438MPD2     H 6531   4.401   3.334  16.963  0.7538 -0.1681 -1.3985
  438MPD2    H1 6532   4.005   3.397  17.092  0.7909 -0.7901 -0.3145
  438MPD2    H2 6533   4.160   3.609  16.754 -1.3616 -0.7470  0.5828
  438MPD2    H3 6534   3.976   3.561  16.907 -0.1012  1.2450  0.2026
  438MPD2     N 6535   4.217   3.239  17.122 -0.3033  0.2259  0.0440
  438MPD2    H5 6536   4.138   3.225  17.184 -1.4738  1.2157 -1.2438
  438MPD2    N1 6537   4.405   3.487  16.768 -1.0096  0.7704 -0.8166
  438MPD2    H7 6538   4.493   3.442  16.793 -1.9132 -0.3128  0.4442
  439TMC3    C1 6539   4.532   3.538  16.582  0.0158 -0.3433  0.3164
  439TMC3    C2 6540   4.539   3.521  16.451 -0.2533 -1.0168  0.3857
  439TMC3    C3 6541   4.663   3.486  16.397 -0.0606  0.0692 -0.4520
  439TMC3    C4 6542   4.643   3.556  16.657 -0.1916  0.4937 -0.7518
  439TMC3    C5 6543   0.050   3.527  16.607 -0.2526  0.5908 -0.1703
  439TMC3    C6 6544   0.059   3.487  16.475 -0.5841 -0.0987 -0.6914
  439TMC3     C 6545   4.398   3.534  16.643  0.4032 -0.1770 -0.2563
  439TMC3     O 6546   4.297   3.563  16.581  0.3750 -0.4490 -0.2087
  439TMC3     H 6547   4.440   3.511  16.407 -0.5829 -1.1143  1.1422
  439TMC3    H1 6548   4.635   3.562  16.765  1.1472  0.0623 -0.6276
  439TMC3    H2 6549   0.156   3.465  16.432 -0.8615 -1.4160 -0.6537
  439TMC3    C7 6550   0.159   3.513  16.689  0.3086 -0.1544  0.1302
  439TMC3    C8 6551   4.690   3.441  16.261  0.3979  0.1644  0.6072
  439TMC3    O1 6552   0.134   3.488  16.806  0.1123 -0.0149 -0.0978
  439TMC3    O2 6553   0.084   3.422  16.226  0.5520 -0.0494  0.2601
  440MPD2     C 6554   3.110   4.314  14.688  0.3461 -0.3165  0.0920
  440MPD2    C1 6555   3.124   4.271  14.817 -0.1064 -0.6780  0.8050
  440MPD2    C2 6556   3.199   4.160  14.843  0.5602 -0.5673 -0.5353
  440MPD2    C3 6557   3.275   4.101  14.747 -0.2416  0.4007  0.9910
  440MPD2    C4 6558   3.260   4.136  14.617 -0.3777  0.1056  0.0706
  440MPD2    C5 6559   3.178   4.243  14.593  0.0015 -0.0180  0.1615
  440MPD2     H 6560   3.204   4.123  14.945  0.9305  0.4113 -0.2027
  440MPD2    H1 6561   3.316   4.080  14.543  0.1305  0.0129  0.5280
  440MPD2    H2 6562   3.060   4.406  14.662  0.7776 -0.8543 -2.6869
  440MPD2    H3 6563   3.171   4.270  14.488 -1.0676 -2.1999 -0.3349
  440MPD2     N 6564   3.367   3.993  14.773 -0.0021  0.0103  0.1397
  440MPD2    H5 6565   3.441   3.972  14.707 -0.4019 -0.3177 -0.2027
  440MPD2    N1 6566   3.080   4.346  14.933 -0.3175  0.1870  0.8765
  440MPD2    H7 6567   3.083   4.308  15.027 -0.7809 -0.3632  0.6708
  441TMC3    C1 6568   3.514   3.873  14.905 -0.2892  0.0893  1.0154
  441TMC3    C2 6569   3.607   3.973  14.896  0.2672  0.3161  0.4443
  441TMC3    C3 6570   3.724   3.967  14.966  0.4524 -0.2602 -0.0317
  441TMC3    C4 6571   3.527   3.771  14.996 -0.2182 -1.1254  0.3491
  441TMC3    C5 6572   3.648   3.762  15.065 -0.5116 -0.1764  0.8245
  441TMC3    C6 6573   3.739   3.868  15.059  0.8783  0.4964 -0.5802
  441TMC3     C 6574   3.382   3.923  14.893  0.1344 -0.3889  0.0559
  441TMC3     O 6575   3.305   3.911  14.987 -0.1388 -0.3922  0.5718
  441TMC3     H 6576   3.584   4.059  14.833  1.1051 -0.7502 -1.3366
  441TMC3    H1 6577   3.457   3.689  14.989 -0.3922 -0.8192 -1.4027
  441TMC3    H2 6578   3.820   3.870  15.130  0.5050  2.2242 -0.1969
  441TMC3    C7 6579   3.638   3.687  15.181  0.0537  0.3899 -0.5625
  441TMC3    C8 6580   3.781   4.089  15.001 -0.0154  0.0621  0.3530
  441TMC3    O1 6581   3.531   3.641  15.208  0.0693 -0.0356 -0.4104
  441TMC3    O2 6582   3.867   4.136  14.928  0.0217  0.3292 -0.3430
  442MPD2     C 6583   1.416   4.609  16.434 -0.6498  0.6337  0.3903
  442MPD2    C1 6584   1.327   4.521  16.485 -0.4699  0.4951  0.6643
  442MPD2    C2 6585   1.372   4.390  16.505 -0.2308 -0.2273 -0.4414
  442MPD2    C3 6586   1.496   4.348  16.466 -0.5573 -0.4958 -0.2243
  442MPD2    C4 6587   1.587   4.446  16.427 -0.9078 -0.6933  0.2253
  442MPD2    C5 6588   1.546   4.574  16.416  0.4470 -0.4383 -0.2694
  442MPD2     H 6589   1.304   4.323  16.557 -0.2197 -0.6478 -0.9587
  442MPD2    H1 6590   1.687   4.421  16.396 -0.2865  0.0802  1.6152
  442MPD2    H2 6591   1.392   4.713  16.418 -1.6997  0.5283  1.2382
  442MPD2    H3 6592   1.625   4.638  16.378 -1.1518  0.4974 -2.0222
  442MPD2     N 6593   1.536   4.215  16.467  0.5014 -0.2367  0.0095
  442MPD2    H5 6594   1.633   4.205  16.437  1.1542  1.1327  1.6160
  442MPD2    N1 6595   1.195   4.558  16.515 -0.0993 -0.0743 -0.1214
  442MPD2    H7 6596   1.130   4.486  16.542  0.5679 -0.2388  1.0533
  443TMC3    C1 6597   1.011   4.705  16.555  0.2690 -0.4679 -0.1671
  443TMC3    C2 6598   0.938   0.084  16.500 -0.0249 -0.5438  0.4475
  443TMC3    C3 6599   0.796   0.083  16.508  0.1928  0.6669  0.5161
  443TMC3    C4 6600   0.957   4.609  16.620 -0.2862  0.0574 -0.1964
  443TMC3    C5 6601   0.817   4.611  16.635  0.2524  0.3575 -0.2688
  443TMC3    C6 6602   0.737   4.703  16.578 -0.1452 -1.0150  0.1287
  443TMC3     C 6603   1.148   4.687  16.507 -0.2448  0.1929  0.2850
  443TMC3     O 6604   1.202   0.077  16.493  0.3893  0.4054 -0.3867
  443TMC3     H 6605   0.980   0.170  16.450 -1.2205  0.5279  1.2900
  443TMC3    H1 6606   1.017   4.536  16.671  0.6120 -0.5446 -2.1144
  443TMC3    H2 6607   0.629   4.699  16.573 -0.2314  0.5790  0.4322
  443TMC3    C7 6608   0.761   4.534  16.738 -0.1900  0.0599 -0.3348
  443TMC3    C8 6609   0.713   0.173  16.427 -0.0913  0.6110  0.0485
  443TMC3    O1 6610   0.843   4.464  16.789  0.3950 -0.0196 -0.2573
  443TMC3    O2 6611   0.636   0.230  16.503 -0.1579  0.1680  0.4122
  444MPD2     C 6612   1.519   4.066  17.331 -0.2276  0.0786  0.3159
  444MPD2    C1 6613   1.457   3.948  17.275  0.6340 -0.1927 -0.5459
  444MPD2    C2 6614   1.534   3.848  17.217 -0.6138 -0.3676  0.5007
  444MPD2    C3 6615   1.664   3.860  17.195 -0.8358 -0.7123 -0.4225
  444MPD2    C4 6616   1.726   3.974  17.229  0.0403 -0.0339 -0.2418
  444MPD2    C5 6617   1.658   4.077  17.296 -0.2136  0.0590 -0.6347
  444MPD2     H 6618   1.488   3.751  17.199  0.9430 -0.7068 -1.6755
  444MPD2    H1 6619   1.833   3.984  17.217 -0.1338  0.3752 -1.4416
  444MPD2    H2 6620   1.476   4.135  17.402 -0.1966 -0.1097  0.5154
  444MPD2    H3 6621   1.727   4.148  17.339  1.0444 -1.0332 -0.8664
  444MPD2     N 6622   1.731   3.751  17.138  0.2829  0.3599  0.4414
  444MPD2    H5 6623   1.673   3.670  17.116  1.2992 -0.2670  0.1024
  444MPD2    N1 6624   1.319   3.922  17.306  0.8899  0.0408 -0.5035
  444MPD2    H7 6625   1.278   3.831  17.285 -0.7134  0.4063  0.9793
  445TMC3    C1 6626   1.906   3.606  17.049 -0.4338 -0.2189 -0.9868
  445TMC3    C2 6627   1.799   3.533  16.999 -0.2763 -0.2641 -0.3103
  445TMC3    C3 6628   1.836   3.414  16.942  0.1218  0.1375  0.5202
  445TMC3    C4 6629   2.036   3.568  17.054 -1.1008 -0.6125 -0.3852
  445TMC3    C5 6630   2.063   3.443  17.010  0.3500 -0.3370 -0.2976
  445TMC3    C6 6631   1.962   3.363  16.956  0.3264 -0.7583  0.1575
  445TMC3     C 6632   1.869   3.735  17.121  0.4896 -0.4315 -0.1839
  445TMC3     O 6633   1.961   3.812  17.145  0.2232  0.0901 -0.4536
  445TMC3     H 6634   1.709   3.582  16.963 -1.4597 -2.3315 -0.2170
  445TMC3    H1 6635   2.111   3.632  17.099 -2.1484  0.8604 -0.7341
  445TMC3    H2 6636   1.991   3.287  16.884 -1.5354 -2.5165  1.2854
  445TMC3    C7 6637   2.194   3.411  16.961 -0.8134  0.4010 -0.2737
  445TMC3    C8 6638   1.740   3.360  16.846 -0.2844  0.3515 -0.6884
  445TMC3    O1 6639   2.272   3.511  16.947  0.2505 -0.6067  0.3457
  445TMC3    O2 6640   1.632   3.418  16.832 -0.6544 -0.2073 -0.1446
  446MPD2     C 6641   1.680   0.304  11.284 -0.0594 -0.5791  0.1052
  446MPD2    C1 6642   1.647   0.405  11.198  0.4290  0.5268  0.7037
  446MPD2    C2 6643   1.734   0.516  11.188  0.5768  0.5457  0.2776
  446MPD2    C3 6644   1.863   0.511  11.247  0.2943  0.3706 -0.4212
  446MPD2    C4 6645   1.892   0.405  11.335 -0.1109 -0.5744  0.4087
  446MPD2    C5 6646   1.801   0.307  11.349 -0.2107  0.0087 -0.0118
  446MPD2     H 6647   1.711   0.596  11.119 -1.2928  1.3368  1.8327
  446MPD2    H1 6648   1.987   0.386  11.383  1.5772 -1.1519 -3.0839
  446MPD2    H2 6649   1.619   0.215  11.294 -3.1415  1.5777  0.2809
  446MPD2    H3 6650   1.822   0.220  11.410 -0.1646  0.7340  1.0133
  446MPD2     N 6651   1.948   0.619  11.223 -0.2474 -0.0547  0.4596
  446MPD2    H5 6652   1.905   0.695  11.171  0.3566 -0.3309 -0.4546
  446MPD2    N1 6653   1.526   0.398  11.126 -0.5988 -0.0279 -0.1782
  446MPD2    H7 6654   1.514   0.475  11.062  0.2061 -1.0503 -1.5475
  447TMC3    C1 6655   2.170   0.729  11.218  0.4393 -0.3428 -0.0737
  447TMC3    C2 6656   2.132   0.806  11.116 -0.0079 -0.2380  0.0769
  447TMC3    C3 6657   2.231   0.879  11.047  0.2775  0.2610 -0.4830
  447TMC3    C4 6658   2.300   0.714  11.258 -0.6634  0.0757  0.3646
  447TMC3    C5 6659   2.392   0.794  11.195  0.2255 -0.1434  0.2901
  447TMC3    C6 6660   2.361   0.867  11.081 -0.2946 -0.0088 -0.4611
  447TMC3     C 6661   2.077   0.633  11.277 -0.0220  0.0812  0.6570
  447TMC3     O 6662   2.126   0.554  11.358 -0.0730 -0.1308  0.1603
  447TMC3     H 6663   2.032   0.824  11.078 -0.6203 -0.9244  1.3774
  447TMC3    H1 6664   2.332   0.639  11.329 -1.1330 -0.0237  0.4709
  447TMC3    H2 6665   2.437   0.929  11.035 -1.4673  2.1626  0.4930
  447TMC3    C7 6666   2.531   0.752  11.211 -0.6445  0.2648  0.0097
  447TMC3    C8 6667   2.191   0.939  10.919 -0.5398  0.4624 -0.2365
  447TMC3    O1 6668   2.597   0.750  11.109 -0.4177 -0.1935  0.1768
  447TMC3    O2 6669   2.080   0.987  10.905 -0.4777 -0.1195 -0.3148
  448TMC3    C1 6670   4.355   0.167  17.529  0.3320  0.7545 -0.5269
  448TMC3    C2 6671   4.382   0.130  17.400 -0.1625  0.5931  0.3800
  448TMC3    C3 6672   4.423   4.714  17.376  0.1885 -0.0123 -1.1988
  448TMC3    C4 6673   4.375   0.082  17.634 -0.5771  0.6097  0.2427
  448TMC3    C5 6674   4.417   4.673  17.607  0.5924  0.4771 -0.2073
  448TMC3    C6 6675   4.445   4.628  17.480 -0.2482 -0.4783 -0.0723
  448TMC3     C 6676   4.313   0.306  17.562  0.0914 -0.7583 -0.1389
  448TMC3     O 6677   4.317   0.340   0.000  0.4079  0.5468 -0.2091
  448TMC3     H 6678   4.381   0.199  17.316 -1.1918  0.3009  0.1527
  448TMC3    H1 6679   4.339   0.121   0.050 -2.0406  1.1259 -0.5403
  448TMC3    H2 6680   4.467   4.523  17.469 -2.2662 -0.8585 -0.5198
  448TMC3    C7 6681   4.512   4.618   0.014 -1.5219  0.7729 -0.1600
  448TMC3    C8 6682   4.422   4.654  17.244  0.4322 -0.4619  0.1382
  448TMC3    O1 6683   4.608   4.555  17.650  0.4598 -0.1384 -0.0166
  448TMC3    O2 6684   4.459   4.534  17.250  0.4845 -0.3026  1.0959
  449MPD2     C 6685   1.523   3.375  13.992 -0.1396  0.4930  0.2453
  449MPD2    C1 6686   1.405   3.439  13.955  0.8598 -0.0581  0.0109
  449MPD2    C2 6687   1.281   3.385  13.990  0.3108 -0.0846  0.1291
  449MPD2    C3 6688   1.275   3.268  14.074 -0.3963 -0.4178  0.3410
  449MPD2    C4 6689   1.392   3.202  14.115 -0.1314  0.0804  0.1781
  449MPD2    C5 6690   1.510   3.265  14.079  0.3789  0.1692  0.1507
  449MPD2     H 6691   1.187   3.430  13.960 -0.5288 -1.7904  0.2457
  449MPD2    H1 6692   1.400   3.112  14.175  3.5743  0.6730  0.5777
  449MPD2    H2 6693   1.625   3.398  13.963  0.7021 -0.9885  1.9924
  449MPD2    H3 6694   1.606   3.216  14.092 -0.6948 -2.2039 -0.8597
  449MPD2     N 6695   1.147   3.230  14.124  0.1017 -0.0356  0.9323
  449MPD2    H5 6696   1.072   3.289  14.091 -0.3153 -0.5795  0.9015
  449MPD2    N1 6697   1.410   3.540  13.859 -1.1668 -0.2415 -0.3815
  449MPD2    H7 6698   1.315   3.572  13.842 -0.2456  2.3882 -0.5965
  450TMC3    C1 6699   1.470   3.694  13.703 -0.8598 -0.0910  0.3312
  450TMC3    C2 6700   1.480   3.679  13.565 -0.2078 -0.2532  0.3096
  450TMC3    C3 6701   1.374   3.708  13.489  0.2374  0.2870  0.1260
  450TMC3    C4 6702   1.351   3.757  13.752  0.4129 -0.7690  0.0516
  450TMC3    C5 6703   1.242   3.772  13.665 -0.2670 -0.1052 -0.5902
  450TMC3    C6 6704   1.259   3.754  13.531 -0.7025 -0.5993 -0.1358
  450TMC3     C 6705   1.518   3.593  13.786 -1.2803 -0.4081  0.2549
  450TMC3     O 6706   1.638   3.566  13.765 -0.6841  0.2741 -0.5073
  450TMC3     H 6707   1.578   3.646  13.531  0.6311  0.1943  2.2533
  450TMC3    H1 6708   1.330   3.771  13.857  0.9317 -0.7879  0.1577
  450TMC3    H2 6709   1.188   3.775  13.452  0.5823  0.5140 -1.0131
  450TMC3    C7 6710   1.126   3.704  13.720  0.4492 -0.6103  0.1282
  450TMC3    C8 6711   1.374   3.658  13.350 -0.4270  0.3074  0.5620
  450TMC3    O1 6712   1.147   3.631  13.813  0.4558  0.3176  0.8324
  450TMC3    O2 6713   1.303   3.707  13.268  0.1666 -0.3383  0.2399
  451MPD2     C 6714   1.385   2.777   0.958  0.7861  0.2452  0.3278
  451MPD2    C1 6715   1.522   2.789   0.982  0.4898  0.4337  0.0115
  451MPD2    C2 6716   1.608   2.683   0.968  0.2870 -0.4300  0.4601
  451MPD2    C3 6717   1.561   2.574   0.904 -0.2508  0.8989 -0.9328
  451MPD2    C4 6718   1.433   2.574   0.858  0.1097 -0.2321  0.1755
  451MPD2    C5 6719   1.338   2.668   0.895  0.0578  0.0291 -0.1042
  451MPD2     H 6720   1.711   2.682   1.002  1.3991  0.3060 -2.9774
  451MPD2    H1 6721   1.404   2.494   0.791  0.7948 -0.7771  0.5257
  451MPD2    H2 6722   1.310   2.851   0.981 -2.5075 -2.2578 -2.2672
  451MPD2    H3 6723   1.236   2.657   0.862 -0.3631  1.6249  0.6554
  451MPD2     N 6724   1.650   2.471   0.865  0.1825 -0.4932  0.3475
  451MPD2    H5 6725   1.619   2.381   0.828  0.3171 -0.6254  0.5576
  451MPD2    N1 6726   1.564   2.913   1.025  0.5607  0.1740 -0.3473
  451MPD2    H7 6727   1.493   2.982   1.045 -0.4630 -2.3700  4.7100
  452TMC3    C1 6728   1.854   2.339   0.842 -0.2509  0.5637  0.1133
  452TMC3    C2 6729   1.979   2.328   0.882 -0.5691  0.2858  0.1024
  452TMC3    C3 6730   2.047   2.206   0.880 -0.2638 -0.2128 -0.0267
  452TMC3    C4 6731   1.785   2.234   0.803 -0.6251 -0.1101 -0.5837
  452TMC3    C5 6732   1.844   2.110   0.797  0.2108 -0.4760  0.3448
  452TMC3    C6 6733   1.975   2.095   0.837 -0.5288  0.3198  0.4087
  452TMC3     C 6734   1.788   2.470   0.872  0.2086  0.5788 -0.7155
  452TMC3     O 6735   1.867   2.561   0.894  0.0125 -0.1309 -0.2337
  452TMC3     H 6736   2.030   2.405   0.939 -3.3235  1.0946  1.4612
  452TMC3    H1 6737   1.685   2.245   0.763 -0.5926  0.5049 -0.4911
  452TMC3    H2 6738   2.023   2.001   0.813 -0.2503  1.2473 -2.7429
  452TMC3    C7 6739   1.781   2.008   0.713  0.2672 -0.7936 -0.1057
  452TMC3    C8 6740   2.183   2.202   0.935 -0.9737 -0.4867  0.4287
  452TMC3    O1 6741   1.714   2.049   0.619 -0.7647  0.1354 -0.0475
  452TMC3    O2 6742   2.233   2.296   0.996 -0.1643  0.0464  0.0854
  453TMC3    C1 6743   3.805   4.711  11.953  0.6759  0.4465  0.3292
  453TMC3    C2 6744   3.723   4.602  11.984 -0.0438  0.0732 -0.6227
  453TMC3    C3 6745   3.661   4.536  11.881  0.1519  0.0535 -0.2070
  453TMC3    C4 6746   3.828   0.018  11.819 -0.7072 -0.2787  0.1368
  453TMC3    C5 6747   3.765   4.674  11.712  0.6847 -0.0641  0.4083
  453TMC3    C6 6748   3.676   4.572  11.746  0.1011 -0.8390  0.2563
  453TMC3     C 6749   3.883   0.064  12.055 -0.2404  0.4740  0.0371
  453TMC3     O 6750   3.980   0.117  12.005  0.2457  0.0011  0.4902
  453TMC3     H 6751   3.712   4.573  12.088 -3.5778  3.5629  0.0095
  453TMC3    H1 6752   3.908   0.087  11.798 -4.1275  3.9756  1.0870
  453TMC3    H2 6753   3.635   4.503  11.674  2.8147 -0.9604 -1.1635
  453TMC3    C7 6754   3.821   4.681  11.578  0.9296  0.6436  0.3362
  453TMC3    C8 6755   3.607   4.401  11.902  0.5356  0.2066  0.1559
  453TMC3    O1 6756   3.853   4.584  11.512 -0.4032  0.2571 -0.0135
  453TMC3    O2 6757   3.519   4.368  11.827 -0.0338 -0.4220  0.3282
  454MPD2     C 6758   2.548   3.111  16.298  0.4390  0.6979 -0.3654
  454MPD2    C1 6759   2.497   3.240  16.299 -0.4302 -0.0310 -0.3480
  454MPD2    C2 6760   2.399   3.266  16.392  0.1032  0.1157 -0.3662
  454MPD2    C3 6761   2.343   3.173  16.480 -0.6659  0.3334 -0.5333
  454MPD2    C4 6762   2.407   3.046  16.480  0.2395 -0.6299  0.6144
  454MPD2    C5 6763   2.502   3.019  16.389  0.2808 -0.1625  0.4795
  454MPD2     H 6764   2.352   3.364  16.400 -0.0953 -0.0160  0.0649
  454MPD2    H1 6765   2.373   2.961  16.539 -1.3594 -0.8293 -0.5965
  454MPD2    H2 6766   2.629   3.085  16.231 -0.1239  1.4148 -1.3191
  454MPD2    H3 6767   2.552   2.922  16.393 -1.8595 -1.2421  0.8260
  454MPD2     N 6768   2.238   3.193  16.571  0.2012  0.4372  0.0101
  454MPD2    H5 6769   2.188   3.116  16.615 -0.5167 -0.3702 -2.1996
  454MPD2    N1 6770   2.534   3.348  16.217  0.0633 -0.6057 -0.4798
  454MPD2    H7 6771   2.480   3.433  16.234  3.2282  0.6899  3.1709
  455TMC3    C1 6772   2.040   3.338  16.617  0.5166 -0.3703  0.6237
  455TMC3    C2 6773   2.010   3.467  16.647 -0.1899 -0.2838  0.1490
  455TMC3    C3 6774   1.893   3.513  16.589  0.2247 -0.5337 -0.4814
  455TMC3    C4 6775   1.966   3.261  16.535  0.5380  0.6113  0.2233
  455TMC3    C5 6776   1.852   3.306  16.486 -0.2456  0.4513  0.5968
  455TMC3    C6 6777   1.812   3.442  16.505 -0.3389  0.8943 -0.2196
  455TMC3     C 6778   2.189   3.323  16.595 -0.7703 -0.3939  0.4892
  455TMC3     O 6779   2.243   3.431  16.582  0.1238 -0.0573  0.4494
  455TMC3     H 6780   2.085   3.534  16.687 -0.0242 -0.2878 -0.1559
  455TMC3    H1 6781   1.999   3.163  16.503  1.4052  1.3975 -1.2921
  455TMC3    H2 6782   1.724   3.484  16.457 -0.5939  1.4026  0.6980
  455TMC3    C7 6783   1.826   3.248  16.357  0.2426  0.1111 -0.2765
  455TMC3    C8 6784   1.846   3.638  16.653  0.4981 -0.0902 -0.3562
  455TMC3    O1 6785   1.924   3.207  16.300  0.6154 -0.5799 -0.6520
  455TMC3    O2 6786   1.925   3.676  16.740  0.1080 -0.5764  0.2226
  456MPD2     C 6787   0.005   3.781  16.100 -0.7162 -0.0135  0.6391
  456MPD2    C1 6788   0.093   3.763  16.205 -0.1998 -0.0759 -0.5592
  456MPD2    C2 6789   0.057   3.795  16.342  1.4894 -0.2865 -0.1901
  456MPD2    C3 6790   4.651   3.848  16.370 -0.0180 -0.1889 -0.4558
  456MPD2    C4 6791   4.566   3.856  16.262  0.3124 -0.3050  0.8589
  456MPD2    C5 6792   4.596   3.823  16.135 -0.4043 -0.3134  0.4989
  456MPD2     H 6793   0.130   3.786  16.421  0.5580 -1.2477  0.5557
  456MPD2    H1 6794   4.464   3.890  16.279  0.8470  1.6961  0.0929
  456MPD2    H2 6795   0.038   3.771  15.998 -0.2192  1.0435  0.6937
  456MPD2    H3 6796   4.514   3.836  16.065  0.3651 -1.2164 -0.5742
  456MPD2     N 6797   4.617   3.888  16.505  0.1835 -0.1999 -0.7990
  456MPD2    H5 6798   4.685   3.879  16.579  0.6538 -0.4321 -1.2612
  456MPD2    N1 6799   0.214   3.724  16.156  0.0841 -0.1097 -0.0575
  456MPD2    H7 6800   0.224   3.703  16.057  1.3943  0.2288  0.0060
  457TMC3    C1 6801   4.498   3.987  16.682 -0.2055  0.0240 -0.0618
  457TMC3    C2 6802   4.427   4.105  16.697 -0.3149 -0.0534  1.3484
  457TMC3    C3 6803   4.366   4.132  16.816 -0.0749 -0.3314  0.5184
  457TMC3    C4 6804   4.507   3.892  16.776 -0.3107  0.7134  0.1541
  457TMC3    C5 6805   4.453   3.915  16.901 -0.6331  0.5030 -0.1867
  457TMC3    C6 6806   4.377   4.033  16.917  0.1402 -0.1053  0.2769
  457TMC3     C 6807   4.497   3.942  16.541  0.0161  0.2260  0.0718
  457TMC3     O 6808   4.402   3.975  16.473  0.2900  0.6273  0.6519
  457TMC3     H 6809   4.421   4.176  16.616  0.8169 -0.3360  1.0199
  457TMC3    H1 6810   4.577   3.809  16.768  0.3758  1.0879  2.3515
  457TMC3    H2 6811   4.332   4.036  17.016  1.2028 -1.5869  0.8107
  457TMC3    C7 6812   4.551   3.895  17.010 -0.0259 -0.0575 -0.2015
  457TMC3    C8 6813   4.366   4.258  16.877  0.8812 -0.0418  0.6719
  457TMC3    O1 6814   4.618   3.790  17.013  0.5483 -0.3502  0.5087
  457TMC3    O2 6815   4.400   4.253  16.992 -0.2824 -0.4429  0.0177
  458MPD2     C 6816   2.779   3.445  12.217  0.5830  0.5299  0.1255
  458MPD2    C1 6817   2.785   3.359  12.321 -0.5104  0.0052  0.0524
  458MPD2    C2 6818   2.674   3.311  12.385 -0.8034 -0.3225  0.0353
  458MPD2    C3 6819   2.548   3.366  12.353 -0.3128  0.1727 -0.1064
  458MPD2    C4 6820   2.542   3.450  12.247 -0.5958  0.1972 -0.2433
  458MPD2    C5 6821   2.650   3.493  12.180 -0.3785  0.1767 -0.1061
  458MPD2     H 6822   2.686   3.246  12.471 -1.8446  0.7908  1.0322
  458MPD2    H1 6823   2.454   3.511  12.231 -0.9774 -0.0729  0.8398
  458MPD2    H2 6824   2.864   3.489  12.166 -0.5818  1.4912 -1.0082
  458MPD2    H3 6825   2.647   3.561  12.096  2.5968 -0.7682 -0.9770
  458MPD2     N 6826   2.440   3.321  12.437 -0.1600  0.4205  0.3143
  458MPD2    H5 6827   2.478   3.271  12.517 -0.3301 -2.8061 -1.5862
  458MPD2    N1 6828   2.924   3.321  12.344 -0.0451 -0.3400 -0.4141
  458MPD2    H7 6829   2.990   3.390  12.308 -0.9760  0.6204 -0.2580
  459TMC3    C1 6830   3.090   3.235  12.489 -0.4361 -0.4726  0.0442
  459TMC3    C2 6831   3.175   3.341  12.455  0.4303  0.3499  0.3021
  459TMC3    C3 6832   3.299   3.359  12.517 -0.2012  0.3605 -0.9835
  459TMC3    C4 6833   3.121   3.154  12.591 -0.2504 -0.4872 -0.3242
  459TMC3    C5 6834   3.246   3.168  12.647  0.3484 -0.6658 -0.1019
  459TMC3    C6 6835   3.340   3.264  12.607 -0.2963  0.0381  0.2739
  459TMC3     C 6836   2.960   3.223  12.431 -0.3903  0.0129 -0.2795
  459TMC3     O 6837   2.886   3.135  12.472 -0.3334  0.1852  0.2693
  459TMC3     H 6838   3.152   3.421  12.385  1.7324 -0.2632 -0.8277
  459TMC3    H1 6839   3.041   3.091  12.629  0.7503 -1.7554 -0.3279
  459TMC3    H2 6840   3.436   3.262  12.656 -0.6711  0.3034  1.0130
  459TMC3    C7 6841   3.269   3.093  12.768  0.6135 -0.0599 -0.5225
  459TMC3    C8 6842   3.394   3.465  12.478  0.5503 -0.4216  0.5577
  459TMC3    O1 6843   3.204   2.993  12.789  0.7039 -0.0071  0.0864
  459TMC3    O2 6844   3.508   3.449  12.515 -0.0317 -0.3201  0.4427
  460MPD2     C 6845   2.439   0.936  10.637 -0.0377  0.7114  0.3182
  460MPD2    C1 6846   2.327   0.973  10.707  0.5416 -0.2634 -0.2232
  460MPD2    C2 6847   2.239   1.055  10.644 -0.5133 -0.5395 -0.2372
  460MPD2    C3 6848   2.274   1.122  10.527 -0.0934 -0.9766 -0.3427
  460MPD2    C4 6849   2.393   1.095  10.465  0.5247 -0.0861 -0.5108
  460MPD2    C5 6850   2.472   0.999  10.526  0.0112  0.2633  0.2906
  460MPD2     H 6851   2.151   1.087  10.699 -0.6454  1.3082 -1.5148
  460MPD2    H1 6852   2.422   1.137  10.369 -1.7704  2.8314  0.0632
  460MPD2    H2 6853   2.519   0.868  10.666  0.7471  1.6400  0.3151
  460MPD2    H3 6854   2.567   0.966  10.486  0.3241 -1.1306  2.2036
  460MPD2     N 6855   2.179   1.201  10.467  0.3051 -0.4621 -0.0611
  460MPD2    H5 6856   2.096   1.220  10.522  0.7819 -2.9831  1.5539
  460MPD2    N1 6857   2.303   0.914  10.834  0.2286  0.3465  0.1307
  460MPD2    H7 6858   2.368   0.843  10.867 -0.3430 -0.4134 -0.3748
  461TMC3    C1 6859   2.096   1.393  10.350  0.0399 -0.2529 -0.1833
  461TMC3    C2 6860   1.961   1.368  10.331 -0.6819 -0.1252 -0.7700
  461TMC3    C3 6861   1.891   1.453  10.244  0.0957 -0.5726 -0.8197
  461TMC3    C4 6862   2.154   1.512  10.314 -0.9180  0.0609 -0.7059
  461TMC3    C5 6863   2.076   1.605  10.242 -0.5382 -0.2979 -0.3636
  461TMC3    C6 6864   1.950   1.574  10.211  0.6631  0.2418  0.1317
  461TMC3     C 6865   2.195   1.290  10.364  0.7311  0.3097 -0.3719
  461TMC3     O 6866   2.287   1.290  10.288 -0.4479  0.3145 -0.0659
  461TMC3     H 6867   1.921   1.280  10.379  1.6996 -1.2386 -0.8038
  461TMC3    H1 6868   2.257   1.539  10.339 -0.8343 -1.5441  0.6824
  461TMC3    H2 6869   1.893   1.637  10.143  0.6633 -0.2943 -0.3591
  461TMC3    C7 6870   2.125   1.738  10.203 -0.5384 -0.7188  0.1473
  461TMC3    C8 6871   1.804   1.401  10.148 -0.6050  0.5355  0.3667
  461TMC3    O1 6872   2.244   1.742  10.225  0.1515  0.1782 -0.3639
  461TMC3    O2 6873   1.819   1.429  10.029 -0.0713  0.0283 -0.0155
  462TMC3    C1 6874   1.738   0.740   0.033 -0.4822 -0.2190  0.0655
  462TMC3    C2 6875   1.730   0.658  17.596 -0.3907  0.1682 -0.6950
  462TMC3    C3 6876   1.606   0.662  17.530 -0.0671 -0.2724  0.2083
  462TMC3    C4 6877   1.635   0.812   0.087  0.0449 -0.0468  0.0675
  462TMC3    C5 6878   1.523   0.815   0.008  0.1121 -0.6151 -0.0175
  462TMC3    C6 6879   1.502   0.737  17.578 -0.0088 -0.0836  0.2380
  462TMC3     C 6880   1.845   0.702   0.130  0.6579 -0.2861 -0.2879
  462TMC3     O 6881   1.896   0.592   0.125 -0.2559 -0.5173  0.2136
  462TMC3     H 6882   1.808   0.589  17.568 -2.3528 -1.9105 -1.0827
  462TMC3    H1 6883   1.635   0.855   0.187 -0.4185  2.5766 -1.0484
  462TMC3    H2 6884   1.417   0.755  17.513  0.4949 -0.0977 -0.4242
  462TMC3    C7 6885   1.393   0.857   0.074  0.5643  0.3312  1.1947
  462TMC3    C8 6886   1.579   0.571  17.418  0.1439  0.1537  0.0563
  462TMC3    O1 6887   1.292   0.805   0.026  0.1873 -0.4023 -0.2616
  462TMC3    O2 6888   1.462   0.545  17.403 -0.2139 -0.2421  0.4928
  463MPD2     C 6889   3.332   0.069   1.782 -0.1023 -0.0744  0.4234
  463MPD2    C1 6890   3.220   0.147   1.760  0.3723 -0.2763  0.0466
  463MPD2    C2 6891   3.234   0.285   1.774 -0.5951  0.2772 -0.1799
  463MPD2    C3 6892   3.356   0.340   1.813 -0.0323  0.1583  0.7167
  463MPD2    C4 6893   3.463   0.261   1.836  0.3784  0.1230  0.3504
  463MPD2    C5 6894   3.450   0.130   1.807  0.4724  0.0955 -0.3676
  463MPD2     H 6895   3.148   0.347   1.754 -2.0364 -1.6373 -0.0106
  463MPD2    H1 6896   3.560   0.309   1.839 -0.4571  1.8115  0.6240
  463MPD2    H2 6897   3.340   4.681   1.766 -0.3632 -0.1440  0.7556
  463MPD2    H3 6898   3.538   0.067   1.815  0.3625  0.0493  0.4511
  463MPD2     N 6899   3.374   0.474   1.848  0.5459  0.4541 -0.6336
  463MPD2    H5 6900   3.469   0.509   1.858  0.2221  1.4091 -0.8826
  463MPD2    N1 6901   3.098   0.100   1.706 -0.0907  0.3411 -0.1065
  463MPD2    H7 6902   3.031   0.167   1.671  0.3186  1.1409  0.6470
  464TMC3    C1 6903   2.920   4.678   1.656  0.0511  0.5113  0.1287
  464TMC3    C2 6904   2.832   0.047   1.702  0.9909  0.4222  0.3368
  464TMC3    C3 6905   2.698   0.028   1.689  0.0709  0.0111 -0.0530
  464TMC3    C4 6906   2.875   4.553   1.614  1.3442 -0.3381  0.1402
  464TMC3    C5 6907   2.739   4.533   1.611 -0.8345  0.3964 -0.1976
  464TMC3    C6 6908   2.646   4.631   1.640 -0.2707 -0.1337  0.6374
  464TMC3     C 6909   3.058   4.687   1.697  0.3332  0.5549 -0.0735
  464TMC3     O 6910   3.126   4.585   1.713 -0.2262  0.7371 -0.7291
  464TMC3     H 6911   2.865   0.136   1.753  0.5566  0.6056  0.2945
  464TMC3    H1 6912   2.945   4.477   1.583  0.0546 -1.4516  0.0079
  464TMC3    H2 6913   2.540   4.628   1.616 -0.2829 -0.8267  0.8052
  464TMC3    C7 6914   2.690   4.410   1.552  0.2294 -0.3134  0.2706
  464TMC3    C8 6915   2.618   0.147   1.657  0.2485 -0.0650  0.2858
  464TMC3    O1 6916   2.769   4.335   1.493 -0.7031  0.3350  0.6975
  464TMC3    O2 6917   2.550   0.149   1.554  0.4905  0.0647  0.4483
  465MPD2     C 6918   3.918   4.555  16.733 -0.4112  0.3435 -0.0046
  465MPD2    C1 6919   3.944   4.442  16.814 -0.9418  0.0197  0.0977
  465MPD2    C2 6920   3.927   4.314  16.767  0.0413  0.1746 -1.1244
  465MPD2    C3 6921   3.900   4.292  16.631  0.2053  0.0061  1.4586
  465MPD2    C4 6922   3.870   4.408  16.550  0.1600  0.7312  0.8009
  465MPD2    C5 6923   3.877   4.529  16.602 -0.1004 -0.3873  0.4195
  465MPD2     H 6924   3.945   4.227  16.828 -0.1509 -0.5331 -2.0704
  465MPD2    H1 6925   3.842   4.395  16.446  1.4658  1.1032  0.4044
  465MPD2    H2 6926   3.924   4.656  16.770  1.0390  0.3521 -0.2727
  465MPD2    H3 6927   3.845   4.607  16.534  1.3851 -1.0531 -1.0375
  465MPD2     N 6928   3.894   4.164  16.579  0.1653 -0.8800  0.2520
  465MPD2    H5 6929   3.913   4.086  16.641  0.2955  2.5324  4.5138
  465MPD2    N1 6930   3.991   4.456  16.951 -0.2431  0.3438 -0.1849
  465MPD2    H7 6931   4.002   4.371  17.005  0.7225 -0.5494 -1.7803
  466TMC3    C1 6932   3.855   3.814  16.579 -0.3288  0.2201  0.5255
  466TMC3    C2 6933   3.740   3.792  16.513  0.9149  0.2187 -0.3735
  466TMC3    C3 6934   3.712   3.855  16.398  0.3296  0.4475 -0.3535
  466TMC3    C4 6935   3.934   3.917  16.539  0.4075 -0.4169 -0.0061
  466TMC3    C5 6936   3.900   3.987  16.426  0.1163 -0.8419  0.0760
  466TMC3    C6 6937   3.793   3.950  16.349 -0.1266  0.7419  0.1253
  466TMC3     C 6938   3.858   3.781  16.721  0.0648 -0.2598 -0.1082
  466TMC3     O 6939   3.932   3.850  16.790  0.3391  0.0583 -0.5272
  466TMC3     H 6940   3.666   3.720  16.545  1.3374  1.3960  3.3025
  466TMC3    H1 6941   4.025   3.942  16.593  0.9959 -2.2691 -0.1176
  466TMC3    H2 6942   3.765   4.008  16.263  0.3355  0.5847 -0.1314
  466TMC3    C7 6943   3.896   4.132  16.444 -0.3182  0.3493  1.3806
  466TMC3    C8 6944   3.574   3.863  16.354  0.3724  0.1095  0.5256
  466TMC3    O1 6945   3.880   4.202  16.344 -0.4947  0.6176  0.2778
  466TMC3    O2 6946   3.555   3.886  16.235  0.6478  0.7449  0.5138
  467TMC3    C1 6947   0.243   2.550  13.840 -0.2020  0.5852 -0.1118
  467TMC3    C2 6948   0.187   2.559  13.715 -0.4355 -0.2426 -0.5870
  467TMC3    C3 6949   0.055   2.518  13.701 -0.3362 -0.5414  0.0599
  467TMC3    C4 6950   0.169   2.518  13.946  0.0840  0.1413  0.4003
  467TMC3    C5 6951   0.048   2.461  13.927  0.1563  0.1223 -0.3319
  467TMC3    C6 6952   4.702   2.467  13.807  0.2676 -0.3243 -0.1707
  467TMC3     C 6953   0.384   2.555  13.861  0.0252 -0.5799  0.4514
  467TMC3     O 6954   0.438   2.579  13.965  0.1535 -0.0829  0.1608
  467TMC3     H 6955   0.248   2.590  13.631 -1.8032 -0.6546 -1.7376
  467TMC3    H1 6956   0.229   2.490  14.032 -0.8867  2.9670  2.0078
  467TMC3    H2 6957   4.598   2.439  13.797  0.0008  0.7312 -0.3613
  467TMC3    C7 6958   4.705   2.388  14.043 -0.0106 -0.1725 -0.2303
  467TMC3    C8 6959   4.708   2.531  13.578 -0.0286  0.0335 -0.0289
  467TMC3    O1 6960   0.032   2.405  14.155  0.6886 -0.1184 -0.6936
  467TMC3    O2 6961   4.620   2.450  13.556 -0.2319 -0.0597 -0.0232
  468MPD2     C 6962   4.404   0.842  10.591  0.5994 -0.3301 -0.0920
  468MPD2    C1 6963   4.348   0.823  10.712 -0.5339  0.2177 -0.0386
  468MPD2    C2 6964   4.282   0.708  10.747  0.2156 -0.8933  0.4395
  468MPD2    C3 6965   4.281   0.600  10.663  0.1848 -0.3400 -0.3463
  468MPD2    C4 6966   4.343   0.614  10.540 -0.1331  0.2282  0.7358
  468MPD2    C5 6967   4.395   0.739  10.502 -0.0363 -0.5323 -0.0447
  468MPD2     H 6968   4.251   0.707  10.851  1.9270  0.8249  0.9683
  468MPD2    H1 6969   4.353   0.538  10.463  1.3226  0.4091  0.7408
  468MPD2    H2 6970   4.466   0.926  10.562  0.0761  0.0405 -0.1586
  468MPD2    H3 6971   4.439   0.742  10.403  1.1309 -1.3106  0.4486
  468MPD2     N 6972   4.226   0.472  10.708  0.0002 -0.0535  0.0753
  468MPD2    H5 6973   4.225   0.404  10.633 -1.5559  1.2106 -1.0617
  468MPD2    N1 6974   4.359   0.931  10.809 -0.0677 -0.4803 -0.2754
  468MPD2    H7 6975   4.298   0.912  10.888  0.2578  1.0343  0.3372
  469TMC3    C1 6976   4.417   1.128  10.911 -0.1928  0.3318 -0.4101
  469TMC3    C2 6977   4.522   1.169  10.978 -0.2998  0.1654  0.3686
  469TMC3    C3 6978   4.511   1.239  11.092  0.1825  0.5697 -0.4863
  469TMC3    C4 6979   4.288   1.160  10.951 -0.0148 -0.7773 -0.1140
  469TMC3    C5 6980   4.280   1.249  11.055  0.4708 -0.2280 -0.7770
  469TMC3    C6 6981   4.385   1.278  11.141  0.1754  0.3465 -0.0618
  469TMC3     C 6982   4.435   1.044  10.797  0.5280  0.1034  0.0983
  469TMC3     O 6983   4.530   1.071  10.729 -0.1866  0.4692 -0.4619
  469TMC3     H 6984   4.618   1.132  10.945 -0.1629 -0.9922  2.0874
  469TMC3    H1 6985   4.208   1.144  10.880 -1.3715 -2.4751  1.8175
  469TMC3    H2 6986   4.379   1.345  11.226 -0.3919  1.0061 -0.6254
  469TMC3    C7 6987   4.151   1.309  11.080 -0.4319 -0.3467 -0.7920
  469TMC3    C8 6988   4.621   1.226  11.177  0.5602  0.4784 -0.0003
  469TMC3    O1 6989   4.078   1.331  10.983 -0.0793 -0.3073 -0.2692
  469TMC3    O2 6990   0.009   1.201  11.129 -0.0074 -0.6151  0.3831
  470TMC3    C1 6991   0.532   2.043   1.094  0.7305 -0.0364  0.0981
  470TMC3    C2 6992   0.628   2.147   1.113  0.5805 -1.3577 -0.2662
  470TMC3    C3 6993   0.590   2.237   1.221  0.3188 -0.1230 -0.2053
  470TMC3    C4 6994   0.418   2.033   1.167 -0.0214  0.4026  0.2081
  470TMC3    C5 6995   0.380   2.130   1.255  0.5575 -0.0627  1.1153
  470TMC3    C6 6996   0.466   2.229   1.284 -0.5584 -0.1951  0.0279
  470TMC3     C 6997   0.531   1.971   0.964 -0.1555 -0.0240  0.0240
  470TMC3     O 6998   0.447   1.884   0.950 -0.4384  0.2453  0.1033
  470TMC3     H 6999   0.706   2.169   1.042  1.1410  0.2569  0.8438
  470TMC3    H1 7000   0.361   1.941   1.161  3.1225 -1.6989  1.9647
  470TMC3    H2 7001   0.432   2.317   1.337  1.9624  2.1444 -2.2218
  470TMC3    C7 7002   0.237   2.147   1.265  0.3990  0.1258 -0.6364
  470TMC3    C8 7003   0.667   2.350   1.248  0.0267  0.4004 -0.4312
  470TMC3    O1 7004   0.176   2.073   1.185 -0.2743  0.1902 -0.1312
  470TMC3    O2 7005   0.623   2.422   1.336 -0.6704  0.0477  0.4586
  471MPD2     C 7006   1.368   2.577  16.890  0.3840 -0.2143  0.0509
  471MPD2    C1 7007   1.497   2.566  16.853 -0.1906 -0.1110  1.0498
  471MPD2    C2 7008   1.593   2.548  16.949 -0.6016  0.5868  0.3011
  471MPD2    C3 7009   1.557   2.546  17.085  0.3910 -0.4661 -0.0704
  471MPD2    C4 7010   1.425   2.562  17.118  0.7291  0.4651 -0.1126
  471MPD2    C5 7011   1.335   2.573  17.021  0.2509  0.1368  0.2944
  471MPD2     H 7012   1.698   2.549  16.923 -0.4597  0.2069  0.8692
  471MPD2    H1 7013   1.393   2.558  17.221  1.0366 -1.8681 -0.0984
  471MPD2    H2 7014   1.292   2.594  16.815 -0.3893  0.3230  0.9695
  471MPD2    H3 7015   1.230   2.583  17.049  1.1020  3.5778  2.2794
  471MPD2     N 7016   1.648   2.529  17.192  0.3495 -0.2313  0.4639
  471MPD2    H5 7017   1.608   2.516  17.285  0.7543 -0.9531  0.5397
  471MPD2    N1 7018   1.534   2.571  16.718 -0.2398  0.3841 -0.3098
  471MPD2    H7 7019   1.630   2.547  16.691 -0.5088  0.2250 -1.1285
  472TMC3    C1 7020   1.511   2.584  16.491  0.0245 -0.2917 -0.8566
  472TMC3    C2 7021   1.453   2.640  16.382 -0.4906 -0.3868 -0.2071
  472TMC3    C3 7022   1.450   2.569  16.272 -0.5066  0.4697 -0.4746
  472TMC3    C4 7023   1.566   2.453  16.485  0.0313 -0.3382 -0.3421
  472TMC3    C5 7024   1.579   2.393  16.367 -0.4635  0.4068 -0.0163
  472TMC3    C6 7025   1.521   2.455  16.261  0.1158 -1.1913 -0.2773
  472TMC3     C 7026   1.461   2.626  16.617  0.4211  0.0478 -0.4295
  472TMC3     O 7027   1.360   2.696  16.620 -0.4775 -0.8415  0.0362
  472TMC3     H 7028   1.393   2.728  16.397 -2.6389 -1.8421 -0.3200
  472TMC3    H1 7029   1.600   2.397  16.572  0.2112 -1.0049 -0.8445
  472TMC3    H2 7030   1.513   2.412  16.161  1.2413 -1.6967 -0.1507
  472TMC3    C7 7031   1.577   2.244  16.372  0.1577 -0.3169 -0.4101
  472TMC3    C8 7032   1.320   2.552  16.225 -0.0363  0.9490 -0.3937
  472TMC3    O1 7033   1.608   2.193  16.479 -0.6077 -0.0134 -0.0040
  472TMC3    O2 7034   1.259   2.637  16.160  0.2895 -0.3856  0.7241
  473MPD2     C 7035   1.208   0.043  13.980 -0.4078 -0.1877  0.5734
  473MPD2    C1 7036   1.260   0.135  13.891 -0.2538  0.5378 -1.0263
  473MPD2    C2 7037   1.323   0.249  13.945 -0.5126 -1.0425 -0.4553
  473MPD2    C3 7038   1.327   0.277  14.082  0.6531 -0.4824  0.0230
  473MPD2    C4 7039   1.279   0.178  14.163 -0.4416 -0.0073  0.2528
  473MPD2    C5 7040   1.220   0.065  14.113 -1.9184  0.4954  0.2747
  473MPD2     H 7041   1.366   0.327  13.884 -1.7453 -0.8819 -1.1167
  473MPD2    H1 7042   1.282   0.192  14.270  0.1104 -0.5752  0.3082
  473MPD2    H2 7043   1.165   4.672  13.937  0.5000 -1.5501  2.5407
  473MPD2    H3 7044   1.178   4.710  14.180 -0.4194  0.0340  0.7021
  473MPD2     N 7045   1.394   0.391  14.130  0.1505 -0.1922  0.7113
  473MPD2    H5 7046   1.448   0.446  14.064 -0.4571  0.1420  0.4974
  473MPD2    N1 7047   1.225   0.130  13.754  0.0877  0.2075  0.0816
  473MPD2    H7 7048   1.171   0.048  13.729  0.8583 -0.2851  0.0606
  474TMC3    C1 7049   1.457   0.581  14.254 -0.5532 -0.6823  0.3821
  474TMC3    C2 7050   1.437   0.635  14.132  0.2152  0.2754  0.1172
  474TMC3    C3 7051   1.528   0.724  14.086  0.3508  0.8389  0.0405
  474TMC3    C4 7052   1.574   0.598  14.322 -0.0675  0.6539  0.2008
  474TMC3    C5 7053   1.671   0.677  14.266  0.4944  0.3455  0.1187
  474TMC3    C6 7054   1.647   0.739  14.146  0.3810  0.3063 -0.9384
  474TMC3     C 7055   1.404   0.445  14.259  0.0671 -0.3041  0.1645
  474TMC3     O 7056   1.354   0.413  14.364 -0.2539 -0.5791 -0.1340
  474TMC3     H 7057   1.335   0.631  14.096  0.6856  0.7330 -1.2545
  474TMC3    H1 7058   1.595   0.525  14.399  0.4566 -0.3991 -0.9304
  474TMC3    H2 7059   1.711   0.817  14.106  0.9190 -0.2406 -1.1437
  474TMC3    C7 7060   1.796   0.697  14.328 -0.1917  0.2452  0.3802
  474TMC3    C8 7061   1.500   0.799  13.969  0.2542  0.0936  0.3992
  474TMC3    O1 7062   1.881   0.756  14.264 -0.9558 -0.4169 -0.1462
  474TMC3    O2 7063   1.416   0.745  13.902 -0.2924  0.4266 -0.1835
  475MPD2     C 7064   0.768   3.205  10.276  0.1488 -0.6908 -0.4966
  475MPD2    C1 7065   0.832   3.328  10.263  0.0241  0.3442  0.2493
  475MPD2    C2 7066   0.796   3.433  10.342 -0.0922  0.1172  0.8453
  475MPD2    C3 7067   0.693   3.421  10.435 -0.5363 -0.3068  0.4582
  475MPD2    C4 7068   0.637   3.294  10.455 -0.3105 -0.8502 -0.4521
  475MPD2    C5 7069   0.672   3.190  10.376 -0.4636 -0.2928  0.3570
  475MPD2     H 7070   0.842   3.529  10.320 -0.1290 -0.2357 -0.7515
  475MPD2    H1 7071   0.542   3.286  10.507 -0.7059  1.9454 -0.7126
  475MPD2    H2 7072   0.783   3.125  10.205 -0.5450 -0.4779 -0.8815
  475MPD2    H3 7073   0.608   3.103  10.370 -0.0031 -0.6034 -0.1085
  475MPD2     N 7074   0.654   3.536  10.501  0.3274 -0.0726  0.0058
  475MPD2    H5 7075   0.711   3.615  10.472 -2.1013  0.9936 -1.8221
  475MPD2    N1 7076   0.942   3.339  10.181  0.4892  0.3288  0.4550
  475MPD2    H7 7077   0.956   3.278  10.101 -0.8469  0.4996  0.0990
  476TMC3    C1 7078   1.134   3.437  10.105  0.3159 -0.3556  0.1052
  476TMC3    C2 7079   1.057   3.487  10.004 -0.6645 -0.2589  0.0005
  476TMC3    C3 7080   1.086   3.611   9.953 -0.0094 -0.2237 -0.2166
  476TMC3    C4 7081   1.252   3.490  10.132  0.0180  0.4840 -0.1279
  476TMC3    C5 7082   1.270   3.623  10.096  0.1256 -0.2882  0.5673
  476TMC3    C6 7083   1.185   3.684  10.009 -0.5440 -0.2966 -0.9181
  476TMC3     C 7084   1.053   3.417  10.219 -0.1474  0.4757  0.5179
  476TMC3     O 7085   1.067   3.485  10.323 -0.3948 -1.0194  0.0944
  476TMC3     H 7086   0.973   3.434   9.960 -1.0890 -0.0837  0.5950
  476TMC3    H1 7087   1.323   3.458  10.207 -1.4153 -2.1977  0.1054
  476TMC3    H2 7088   1.199   3.787   9.978 -1.3183  1.0145  3.2003
  476TMC3    C7 7089   1.328   3.703  10.206  0.6734  0.2743 -0.2179
  476TMC3    C8 7090   0.965   3.686   9.914 -0.0432  0.7750 -0.1384
  476TMC3    O1 7091   1.428   3.655  10.258  0.1784  0.1252 -0.2296
  476TMC3    O2 7092   0.964   3.783   9.843  0.1658  0.0568 -0.9238
  477MPD2     C 7093   1.992   4.334  11.854  0.3428 -0.6034  0.1910
  477MPD2    C1 7094   2.045   4.460  11.867 -0.4819  0.3782  0.1629
  477MPD2    C2 7095   2.152   4.482  11.956  0.5276  0.2569 -0.3995
  477MPD2    C3 7096   2.210   4.379  12.029 -0.4961 -0.8547  0.1280
  477MPD2    C4 7097   2.160   4.258  12.006  0.2684 -0.1088 -0.1499
  477MPD2    C5 7098   2.053   4.232  11.921  0.1548  0.1575  0.1536
  477MPD2     H 7099   2.204   4.578  11.963  1.8778 -0.6719  2.4141
  477MPD2    H1 7100   2.213   4.169  12.034 -2.4824 -2.1993 -1.5412
  477MPD2    H2 7101   1.913   4.311  11.784 -0.0362  0.1117  0.3826
  477MPD2    H3 7102   2.027   4.127  11.918  1.3602 -0.1614  1.0776
  477MPD2     N 7103   2.300   4.413  12.128  0.0608  0.6302 -0.2265
  477MPD2    H5 7104   2.324   4.511  12.139  3.0063  0.2018 -2.8359
  477MPD2    N1 7105   2.009   4.570  11.784  0.5393  0.3911 -0.0469
  477MPD2    H7 7106   1.968   4.548  11.694 -0.1116 -0.7808  0.5307
  478TMC3    C1 7107   2.028   0.073  11.682  0.6914  0.0150  0.7396
  478TMC3    C2 7108   2.055   0.201  11.706 -0.7318 -0.0430  0.3100
  478TMC3    C3 7109   2.125   0.281  11.619 -0.2692 -0.2474 -0.8603
  478TMC3    C4 7110   2.084   0.014  11.571  0.1372 -0.7389  0.3726
  478TMC3    C5 7111   2.130   0.093  11.473  0.3647  0.4932  0.6072
  478TMC3    C6 7112   2.160   0.230  11.497 -0.0531  0.7923  0.7026
  478TMC3     C 7113   2.033   4.703  11.809 -0.4906 -0.4464 -0.0284
  478TMC3     O 7114   2.057   0.038  11.917  0.1417 -1.2773 -0.5080
  478TMC3     H 7115   2.019   0.249  11.796 -1.7659  0.6403 -0.4763
  478TMC3    H1 7116   2.079   4.625  11.565  0.0311 -0.6622 -0.8197
  478TMC3    H2 7117   2.209   0.289  11.420 -0.0386 -1.1065 -0.7337
  478TMC3    C7 7118   2.120   0.042  11.336  0.4926 -0.5971  0.6146
  478TMC3    C8 7119   2.205   0.387  11.677  0.1816 -0.1193  1.2649
  478TMC3    O1 7120   2.098   4.640  11.328  0.1548 -0.3826  0.3508
  478TMC3    O2 7121   2.229   0.360  11.796 -0.1745 -0.9152 -0.4037
  479MPD2     C 7122   1.245   1.717  14.714  0.4126 -0.2373  0.0375
  479MPD2    C1 7123   1.167   1.623  14.779  0.0090  0.1342  0.2794
  479MPD2    C2 7124   1.141   1.637  14.917  0.1733 -0.2168  0.3764
  479MPD2    C3 7125   1.203   1.743  14.984  0.4417 -0.3497 -0.1066
  479MPD2    C4 7126   1.297   1.825  14.921  0.3404  0.4412  0.3805
  479MPD2    C5 7127   1.310   1.818  14.784  0.1230  0.0684  0.6441
  479MPD2     H 7128   1.054   1.593  14.964 -1.2120  1.4421 -0.6346
  479MPD2    H1 7129   1.351   1.901  14.976 -0.0200  1.3280 -0.4953
  479MPD2    H2 7130   1.266   1.713  14.608  0.7859  1.7828  0.0215
  479MPD2    H3 7131   1.378   1.879  14.725 -0.5382 -0.1369 -0.3373
  479MPD2     N 7132   1.174   1.774  15.119 -0.3584  0.1385 -0.4524
  479MPD2    H5 7133   1.243   1.820  15.179 -2.5888  2.5575  0.2865
  479MPD2    N1 7134   1.087   1.529  14.704 -0.3412 -0.3493  0.2521
  479MPD2    H7 7135   1.058   1.550  14.609 -0.8473  0.4394  0.5853
  480TMC3    C1 7136   1.059   1.839  15.535  0.2409 -0.7954  1.0755
  480TMC3    C2 7137   1.112   1.962  15.529  0.0373 -0.1372  0.7625
  480TMC3    C3 7138   1.116   2.022  15.404 -0.2778 -0.6227 -0.5810
  480TMC3    C4 7139   1.026   1.758  15.429  0.4165 -0.0269  0.5489
  480TMC3    C5 7140   1.051   1.816  15.308 -0.0395 -0.2593  0.5306
  480TMC3    C6 7141   1.089   1.952  15.295  0.0120  0.2800 -0.6385
  480TMC3     C 7142   1.029   1.783  15.658  0.0218  0.1791 -0.7238
  480TMC3     O 7143   1.000   1.663  15.662 -0.2074  0.4768  0.1201
  480TMC3     H 7144   1.132   2.027  15.613 -1.0071  1.2942 -0.1124
  480TMC3    H1 7145   0.985   1.660  15.448 -0.7731  0.9615  3.0438
  480TMC3    H2 7146   1.075   1.991  15.195  0.8904  1.7057 -0.2068
  480TMC3    C7 7147   1.053   1.749  15.180  0.7549  0.8627  0.0842
  480TMC3    C8 7148   1.234   2.106  15.388  0.4564  0.4675 -0.6800
  480TMC3    O1 7149   0.950   1.696  15.144  0.1704  0.1967 -0.6265
  480TMC3    O2 7150   1.322   2.102  15.473 -0.4657  0.0502  0.5901
  481MPD2     C 7151   2.883   1.690  14.234 -0.5273  0.4716 -0.3773
  481MPD2    C1 7152   2.769   1.613  14.240  0.0392 -0.7780  0.2636
  481MPD2    C2 7153   2.733   1.572  14.371 -0.0758  0.9019  0.7487
  481MPD2    C3 7154   2.825   1.590  14.473 -0.0809  0.1444  1.0406
  481MPD2    C4 7155   2.931   1.675  14.466  0.2619 -0.1210 -0.2980
  481MPD2    C5 7156   2.958   1.726  14.343  1.3958  0.0310  0.4439
  481MPD2     H 7157   2.642   1.513  14.371  0.9106 -0.6196 -1.1022
  481MPD2    H1 7158   2.992   1.705  14.551  1.2617 -1.5664 -0.5094
  481MPD2    H2 7159   2.922   1.721  14.138 -3.2592  1.0278 -1.2957
  481MPD2    H3 7160   3.054   1.776  14.337  0.4765  1.7498  0.0760
  481MPD2     N 7161   2.806   1.531  14.598 -0.0764  0.3456 -0.1667
  481MPD2    H5 7162   2.876   1.557  14.667 -1.8264 -0.7019  2.0138
  481MPD2    N1 7163   2.695   1.573  14.123 -0.2382  0.6509  0.9016
  481MPD2    H7 7164   2.725   1.607  14.031  0.8655 -1.4764  0.4780
  482TMC3    C1 7165   2.513   1.483  14.005 -0.1779  0.2160  0.4914
  482TMC3    C2 7166   2.430   1.374  13.987  0.0784 -0.4930  0.0237
  482TMC3    C3 7167   2.312   1.397  13.917  0.3114 -0.0296  0.0973
  482TMC3    C4 7168   2.490   1.602  13.942 -0.0360 -0.2891 -0.2457
  482TMC3    C5 7169   2.369   1.614  13.876  0.1142 -0.8578 -0.0427
  482TMC3    C6 7170   2.285   1.515  13.856  0.3359  0.4471  0.2455
  482TMC3     C 7171   2.595   1.477  14.124 -0.0662  0.5237 -0.5365
  482TMC3     O 7172   2.560   1.395  14.210  0.4778  0.4128 -0.7347
  482TMC3     H 7173   2.447   1.288  14.052 -0.7445  0.3057  1.2947
  482TMC3    H1 7174   2.567   1.676  13.960  0.1014 -0.5386  0.1821
  482TMC3    H2 7175   2.184   1.532  13.820 -0.1941  0.5075  1.7305
  482TMC3    C7 7176   2.352   1.725  13.788 -0.1220 -0.2877 -0.3754
  482TMC3    C8 7177   2.239   1.276  13.881 -0.1767  0.3479 -0.3769
  482TMC3    O1 7178   2.243   1.734  13.733 -0.0623 -0.4959 -0.0723
  482TMC3    O2 7179   2.240   1.189  13.971  0.1018  0.0695 -0.3284
  483TMC3    C1 7180   4.525   0.284   0.546  0.1132  0.2264 -0.3870
  483TMC3    C2 7181   4.582   0.405   0.502 -0.0009 -0.7350 -0.2972
  483TMC3    C3 7182   4.702   0.399   0.442  0.0824 -0.4450 -0.2618
  483TMC3    C4 7183   4.584   0.159   0.515  0.1320  0.4995 -0.4323
  483TMC3    C5 7184   4.706   0.160   0.457  0.2544 -0.1697  0.0380
  483TMC3    C6 7185   0.047   0.283   0.420 -0.1098  0.2622 -0.3494
  483TMC3     C 7186   4.424   0.282   0.652 -0.2809 -0.2091  0.1464
  483TMC3     O 7187   4.342   0.373   0.664 -0.1635  0.0306 -0.4687
  483TMC3     H 7188   4.519   0.491   0.521 -1.7853 -1.6922 -1.8308
  483TMC3    H1 7189   4.552   0.061   0.548  1.3155  0.0671 -0.5834
  483TMC3    H2 7190   0.149   0.277   0.382  0.7376  2.6390  1.4985
  483TMC3    C7 7191   0.086   0.062   0.496  0.8060 -1.6012 -0.0179
  483TMC3    C8 7192   0.059   0.520   0.425  0.2978 -0.4324 -0.4274
  483TMC3    O1 7193   0.071   0.014   0.612 -0.1318  0.3006  0.2686
  483TMC3    O2 7194   0.168   0.504   0.373  0.5801  0.5901 -0.5925
  484MPD2     C 7195   3.337   3.790  12.319 -0.2242  0.7103 -0.5861
  484MPD2    C1 7196   3.406   3.693  12.390  0.6315 -0.1364  0.3175
  484MPD2    C2 7197   3.532   3.729  12.447  0.4112  0.0031  0.6865
  484MPD2    C3 7198   3.583   3.852  12.419 -0.3026  0.2964  0.3944
  484MPD2    C4 7199   3.509   3.940  12.344  0.6077 -0.9414 -0.7807
  484MPD2    C5 7200   3.379   3.916  12.302  0.0111 -0.1296  0.2232
  484MPD2     H 7201   3.579   3.658  12.513 -1.2961 -4.7075 -3.1988
  484MPD2    H1 7202   3.552   4.037  12.322  2.1335 -0.5832  3.9442
  484MPD2    H2 7203   3.243   3.756  12.277  1.0774 -2.1613 -1.2448
  484MPD2    H3 7204   3.325   4.000  12.260  1.2268 -0.7910 -2.6150
  484MPD2     N 7205   3.714   3.899  12.443  1.2140  0.7306 -0.0009
  484MPD2    H5 7206   3.746   3.985  12.400  2.1829  1.0481  1.3863
  484MPD2    N1 7207   3.339   3.568  12.411 -0.6603 -0.3253  0.4040
  484MPD2    H7 7208   3.242   3.571  12.381 -0.3100  1.0494 -0.6329
  485TMC3    C1 7209   3.928   3.897  12.545  0.7768  0.4454 -0.7138
  485TMC3    C2 7210   3.994   3.845  12.654  0.2938  0.2551  0.0369
  485TMC3    C3 7211   4.130   3.818  12.652  0.1686  0.6432  0.3202
  485TMC3    C4 7212   3.991   3.908  12.425 -1.2959 -0.7174  0.1927
  485TMC3    C5 7213   4.120   3.869  12.424  0.5063  0.0397  0.2123
  485TMC3    C6 7214   4.192   3.836  12.534 -0.4418 -0.0509  0.0464
  485TMC3     C 7215   3.793   3.850  12.540  0.0382  0.6611  0.1146
  485TMC3     O 7216   3.765   3.756  12.612 -0.7390 -0.1356 -0.1002
  485TMC3     H 7217   3.948   3.845  12.753 -0.8517  2.2474 -0.4996
  485TMC3    H1 7218   3.937   3.930  12.333  0.9470  0.4657 -0.8632
  485TMC3    H2 7219   4.300   3.823  12.535 -0.4290  0.2476  3.4541
  485TMC3    C7 7220   4.159   3.782  12.308 -0.3782  0.8135 -0.4223
  485TMC3    C8 7221   4.142   3.679  12.682  0.3347 -0.5803  0.4277
  485TMC3    O1 7222   4.079   3.716  12.247 -0.3879  0.0159  0.0842
  485TMC3    O2 7223   4.254   3.637  12.657 -0.0286  0.3417  0.2714
  486MPD2     C 7224   0.658   2.597  12.998 -0.1517 -0.4477  0.1377
  486MPD2    C1 7225   0.663   2.512  12.890  0.0365  0.1234  0.5536
  486MPD2    C2 7226   0.637   2.568  12.762  0.3342  0.3572  0.2124
  486MPD2    C3 7227   0.607   2.700  12.743  0.0588 -0.0064 -0.4323
  486MPD2    C4 7228   0.587   2.778  12.856 -0.2230  0.2771  0.2883
  486MPD2    C5 7229   0.608   2.724  12.975 -0.6991 -0.8470  0.0653
  486MPD2     H 7230   0.643   2.502  12.676 -0.2478 -1.1133  1.3108
  486MPD2    H1 7231   0.567   2.885  12.845 -3.1409 -0.2206  0.7894
  486MPD2    H2 7232   0.685   2.565  13.098  0.2275 -1.1652 -0.1926
  486MPD2    H3 7233   0.591   2.801  13.050 -1.2025 -0.3958 -0.5134
  486MPD2     N 7234   0.591   2.748  12.607  0.0365  0.1465 -0.8376
  486MPD2    H5 7235   0.623   2.692  12.528 -1.1108 -2.4028  0.4756
  486MPD2    N1 7236   0.690   2.373  12.910  0.4629 -0.2396  0.4300
  486MPD2    H7 7237   0.717   2.351  13.006 -0.4696 -1.6406  0.3645
  487TMC3    C1 7238   0.739   2.146  12.876  0.1205 -0.2671 -0.7992
  487TMC3    C2 7239   0.702   2.036  12.798 -0.2174  0.1683 -0.2719
  487TMC3    C3 7240   0.734   1.912  12.837  0.2841 -0.1248  0.6144
  487TMC3    C4 7241   0.811   2.132  12.992 -0.0844 -0.4262 -0.2236
  487TMC3    C5 7242   0.844   2.001  13.025  0.0167  0.8411 -0.2305
  487TMC3    C6 7243   0.822   1.893  12.943 -0.2508 -0.1836  0.2104
  487TMC3     C 7244   0.701   2.271  12.817 -0.1678 -0.5975  0.1147
  487TMC3     O 7245   0.674   2.274  12.696 -0.1869 -0.8568 -0.4098
  487TMC3     H 7246   0.646   2.053  12.707 -0.5874 -0.0662 -0.0885
  487TMC3    H1 7247   0.824   2.215  13.060 -0.2241  0.3661 -1.1565
  487TMC3    H2 7248   0.821   1.796  12.991  0.2327  0.2970  1.1855
  487TMC3    C7 7249   0.824   1.966  13.161  0.9182 -0.0914 -0.1020
  487TMC3    C8 7250   0.615   1.826  12.855 -0.2155  0.1976 -0.1589
  487TMC3    O1 7251   0.877   1.870  13.213  0.1376  0.5135 -0.1689
  487TMC3    O2 7252   0.614   1.761  12.956 -0.5080  0.1692  0.1039
  488MPD2     C 7253   1.090   3.776  16.534 -0.4184 -0.2020  0.1969
  488MPD2    C1 7254   1.041   3.904  16.548  0.3866  0.1910 -0.0179
  488MPD2    C2 7255   0.970   3.922  16.664  0.4947  0.1053 -0.1272
  488MPD2    C3 7256   0.960   3.831  16.769  0.1572  0.5250 -0.0640
  488MPD2    C4 7257   1.008   3.702  16.746  0.0958  0.1187  0.5361
  488MPD2    C5 7258   1.070   3.678  16.625  0.1425  0.5183 -0.1401
  488MPD2     H 7259   0.913   4.014  16.675 -0.2693 -0.2869 -0.8274
  488MPD2    H1 7260   1.001   3.630  16.826 -0.8180 -1.1818 -0.7220
  488MPD2    H2 7261   1.138   3.753  16.440 -0.5470  2.2527 -0.4828
  488MPD2    H3 7262   1.093   3.578  16.591  0.1923  0.7884 -0.9071
  488MPD2     N 7263   0.877   3.856  16.874  0.4274 -0.5883 -0.0697
  488MPD2    H5 7264   0.819   3.935  16.849  0.0271 -0.3897  1.4880
  488MPD2    N1 7265   1.050   4.011  16.456  0.6120 -0.0523  0.2173
  488MPD2    H7 7266   1.013   4.101  16.484  2.8182  1.4149 -1.5796
  489TMC3    C1 7267   0.794   3.841  17.101 -0.6349  0.3142 -0.2910
  489TMC3    C2 7268   0.721   3.955  17.061 -0.5777  1.0685 -0.5346
  489TMC3    C3 7269   0.602   3.962  17.128  0.1674  0.7837  0.1543
  489TMC3    C4 7270   0.749   3.740  17.181  0.8463 -0.7074  0.0547
  489TMC3    C5 7271   0.626   3.753  17.228  0.7778  0.5081  0.5130
  489TMC3    C6 7272   0.554   3.864  17.212  0.3467  0.4353 -0.2226
  489TMC3     C 7273   0.893   3.799  17.000  0.3301 -0.5636 -0.5202
  489TMC3     O 7274   0.979   3.717  17.034 -0.0565  0.7859 -0.2939
  489TMC3     H 7275   0.755   4.028  16.989 -0.7953  0.2862 -1.4336
  489TMC3    H1 7276   0.812   3.654  17.201  1.1351 -0.5286 -0.0988
  489TMC3    H2 7277   0.454   3.866  17.254 -0.0046  1.6302 -1.1251
  489TMC3    C7 7278   0.556   3.640  17.287 -0.3183  0.3563 -0.0396
  489TMC3    C8 7279   0.498   4.054  17.077 -0.2031 -0.3937  0.5691
  489TMC3    O1 7280   0.435   3.644  17.300 -0.2587  0.0332 -0.2602
  489TMC3    O2 7281   0.384   4.031  17.094  0.7214  0.4286  0.2536
  490MPD2     C 7282   1.572   3.524  17.381 -0.5499  0.2679  0.1993
  490MPD2    C1 7283   1.674   3.438  17.340  0.2013 -0.1381 -0.8091
  490MPD2    C2 7284   1.803   3.470  17.368 -0.5070 -0.3137 -0.0866
  490MPD2    C3 7285   1.840   3.585  17.448  0.0501 -0.3671 -0.4016
  490MPD2    C4 7286   1.734   3.667  17.497 -0.1290  0.2097  0.0069
  490MPD2    C5 7287   1.603   3.628  17.465  0.5059  0.2918 -0.2131
  490MPD2     H 7288   1.879   3.402  17.331  0.0430  1.0501 -1.4656
  490MPD2    H1 7289   1.752   3.757  17.555 -0.3015 -0.1490  0.6164
  490MPD2    H2 7290   1.465   3.511  17.364 -0.6656  0.2461  0.9423
  490MPD2    H3 7291   1.525   3.696  17.496  0.6869  0.5677 -0.3589
  490MPD2     N 7292   1.972   3.620  17.478  0.7210 -0.3964  0.0915
  490MPD2    H5 7293   1.988   3.710  17.520  1.3723 -0.5068  0.0784
  490MPD2    N1 7294   1.645   3.325  17.263  0.0982 -0.3904 -0.2110
  490MPD2    H7 7295   1.722   3.260  17.253 -1.1063 -1.8944  0.2914
  491TMC3    C1 7296   1.536   3.197  17.103  0.4845 -0.4432 -0.7416
  491TMC3    C2 7297   1.568   3.082  17.177 -0.3104 -0.1432  0.0913
  491TMC3    C3 7298   1.512   2.967  17.122 -0.2748 -0.2183 -0.4006
  491TMC3    C4 7299   1.461   3.200  16.987 -1.0186 -0.3386 -0.1369
  491TMC3    C5 7300   1.425   3.077  16.937 -0.6323  0.0725  0.3089
  491TMC3    C6 7301   1.446   2.966  17.004  0.3361  0.0414  0.7382
  491TMC3     C 7302   1.538   3.317  17.176  0.0930 -0.7873 -1.0279
  491TMC3     O 7303   1.444   3.392  17.160 -0.2766  0.1532 -0.2507
  491TMC3     H 7304   1.624   3.073  17.270 -2.5123 -1.0312  1.3482
  491TMC3    H1 7305   1.467   3.294  16.933 -0.7721  1.2597  2.6993
  491TMC3    H2 7306   1.455   2.872  16.950 -1.9741 -0.1411  0.6699
  491TMC3    C7 7307   1.302   3.070  16.869  0.8063  0.9223 -0.1761
  491TMC3    C8 7308   1.423   2.892  17.207 -1.0930  0.5546  0.4194
  491TMC3    O1 7309   1.255   2.957  16.864  0.2594  0.2579 -0.0605
  491TMC3    O2 7310   1.466   2.870  17.318  0.2972 -1.0008  0.1420
  492MPD2     C 7311   2.408   3.464  11.324  0.6679  0.4945  0.7628
  492MPD2    C1 7312   2.311   3.401  11.251  0.3881 -0.2769  0.0927
  492MPD2    C2 7313   2.214   3.328  11.312  0.5134 -0.3838 -0.2819
  492MPD2    C3 7314   2.215   3.308  11.443  0.0712 -0.4950  0.2595
  492MPD2    C4 7315   2.308   3.374  11.521 -0.3690  0.2259  0.4605
  492MPD2    C5 7316   2.400   3.458  11.464 -0.6818 -0.2043  0.4717
  492MPD2     H 7317   2.143   3.272  11.252 -1.2422  0.2272  1.2302
  492MPD2    H1 7318   2.320   3.366  11.629  1.4601  0.4538  0.2710
  492MPD2    H2 7319   2.483   3.518  11.267  0.1441 -0.7073 -1.0555
  492MPD2    H3 7320   2.476   3.515  11.516 -1.1190  0.3217  0.5278
  492MPD2     N 7321   2.120   3.233  11.521 -0.9824  0.0607  0.4180
  492MPD2    H5 7322   2.125   3.219  11.621  1.2714  0.7537  0.4070
  492MPD2    N1 7323   2.320   3.424  11.113  0.1999  0.3413  0.7909
  492MPD2    H7 7324   2.390   3.487  11.075 -0.9367  0.4268 -1.1847
  493TMC3    C1 7325   2.278   3.396  10.878  0.0946 -0.6354  0.9798
  493TMC3    C2 7326   2.355   3.506  10.857  0.1189  0.9369  0.0330
  493TMC3    C3 7327   2.353   3.544  10.724  0.1710  0.4151 -1.5893
  493TMC3    C4 7328   2.227   3.312  10.787 -0.4546  0.4260  0.3222
  493TMC3    C5 7329   2.242   3.358  10.653 -0.4959  0.8686  0.0472
  493TMC3    C6 7330   2.291   3.479  10.621 -0.2726  0.4938  0.5526
  493TMC3     C 7331   2.240   3.363  11.018  0.0343 -0.1944 -0.3446
  493TMC3     O 7332   2.159   3.268  11.035 -0.0563 -0.3485 -0.3658
  493TMC3     H 7333   2.394   3.579  10.927 -1.9011  0.8637  1.2153
  493TMC3    H1 7334   2.169   3.225  10.813  0.4088 -0.4159 -0.5590
  493TMC3    H2 7335   2.291   3.519  10.520 -1.4393  3.5978  1.7548
  493TMC3    C7 7336   2.158   3.296  10.553 -0.3834 -0.1865  0.1436
  493TMC3    C8 7337   2.421   3.666  10.687 -0.0135 -0.6409 -0.4465
  493TMC3    O1 7338   2.128   3.366  10.460 -0.2123 -0.3661  0.5728
  493TMC3    O2 7339   2.383   3.731  10.590  0.1807 -0.3240  0.2747
  494TMC3    C1 7340   2.507   0.489   0.424 -0.0548 -0.0324  0.7163
  494TMC3    C2 7341   2.597   0.392   0.452  0.1220  0.4748 -0.4316
  494TMC3    C3 7342   2.649   0.321   0.341  0.5273 -0.6759 -0.3341
  494TMC3    C4 7343   2.478   0.531   0.293 -0.6368  0.1246 -0.1997
  494TMC3    C5 7344   2.540   0.459   0.193  0.8053  0.2317 -0.2710
  494TMC3    C6 7345   2.623   0.352   0.210 -0.8142 -1.1137 -0.0967
  494TMC3     C 7346   2.481   0.582   0.531 -1.3224 -0.0204 -0.0674
  494TMC3     O 7347   2.499   0.528   0.639 -0.6878  0.0425 -0.1164
  494TMC3     H 7348   2.614   0.363   0.555 -0.6888 -1.3341 -0.8020
  494TMC3    H1 7349   2.413   0.615   0.273 -0.8465  0.4650  2.0114
  494TMC3    H2 7350   2.653   0.288   0.128 -1.0829 -0.8753 -0.3800
  494TMC3    C7 7351   2.528   0.501   0.053  0.1707 -0.5750  0.4590
  494TMC3    C8 7352   2.714   0.198   0.384  0.4363  0.0621 -0.2661
  494TMC3    O1 7353   2.524   0.410  17.645 -0.6087 -0.1843 -0.2931
  494TMC3    O2 7354   2.712   0.163   0.501 -0.0063 -0.3047  0.5565
  495TMC3    C1 7355   1.412   2.133  14.434 -0.0708  1.2092  0.4161
  495TMC3    C2 7356   1.312   2.181  14.353  0.1206 -0.4682  0.6395
  495TMC3    C3 7357   1.218   2.265  14.408 -0.3569 -0.4274  0.0550
  495TMC3    C4 7358   1.444   2.171  14.558  0.2252 -0.6493  0.1636
  495TMC3    C5 7359   1.332   2.241  14.613  0.7162  0.1987  0.1932
  495TMC3    C6 7360   1.218   2.284  14.544 -0.8615 -0.3077  0.1044
  495TMC3     C 7361   1.466   2.003  14.389  0.8726 -0.2840 -0.1630
  495TMC3     O 7362   1.403   1.929  14.317 -0.3722 -0.2732  0.0516
  495TMC3     H 7363   1.304   2.135  14.255 -0.6694 -1.8831  1.3754
  495TMC3    H1 7364   1.516   2.118  14.619  0.4866 -1.2797 -0.7038
  495TMC3    H2 7365   1.131   2.322  14.597 -1.1498  1.1831 -1.4487
  495TMC3    C7 7366   1.311   2.218  14.750 -0.4689 -0.1861  0.6804
  495TMC3    C8 7367   1.105   2.296  14.335 -0.4336 -0.5465 -0.5699
  495TMC3    O1 7368   1.209   2.159  14.785  0.1308 -0.7197  0.7563
  495TMC3    O2 7369   1.014   2.339  14.403 -0.0325  0.8466  0.4883
  496MPD2     C 7370   3.500   1.448  15.499 -0.1133  0.2776  0.5026
  496MPD2    C1 7371   3.477   1.556  15.416 -0.2800  0.4215  0.0691
  496MPD2    C2 7372   3.360   1.631  15.437  0.0309 -0.7941 -0.1398
  496MPD2    C3 7373   3.273   1.601  15.543 -0.0204 -0.1937 -0.2532
  496MPD2    C4 7374   3.306   1.490  15.626  0.5286  0.5335  0.2872
  496MPD2    C5 7375   3.416   1.404  15.596 -0.4853 -0.4550 -0.7083
  496MPD2     H 7376   3.334   1.721  15.383  2.8017 -0.0441 -0.2246
  496MPD2    H1 7377   3.239   1.462  15.706 -1.3887  0.9285 -1.1746
  496MPD2    H2 7378   3.586   1.389  15.471  0.0438  0.9556 -0.4710
  496MPD2    H3 7379   3.442   1.319  15.658 -0.3933  0.7996  0.9636
  496MPD2     N 7380   3.156   1.671  15.586 -0.2059  0.3972 -0.7068
  496MPD2    H5 7381   3.096   1.631  15.658 -0.6729 -0.1691 -1.4139
  496MPD2    N1 7382   3.578   1.575  15.319 -0.6033  0.6635 -0.0444
  496MPD2    H7 7383   3.660   1.516  15.326 -0.8678  0.0671 -2.1653
  497TMC3    C1 7384   2.981   1.819  15.575 -0.9059  0.4233 -0.2173
  497TMC3    C2 7385   2.891   1.881  15.497 -0.2376  0.3262  0.0925
  497TMC3    C3 7386   2.798   1.960  15.555 -0.0043 -0.4288 -0.4453
  497TMC3    C4 7387   2.989   1.849  15.713 -0.9484  0.5571  0.2318
  497TMC3    C5 7388   2.891   1.926  15.770  0.3543 -0.2963  0.5975
  497TMC3    C6 7389   2.787   1.973  15.693 -0.0168 -0.1977  0.0539
  497TMC3     C 7390   3.098   1.772  15.510  0.2640 -0.6495 -0.0281
  497TMC3     O 7391   3.135   1.843  15.416 -0.1606  0.0660 -0.0313
  497TMC3     H 7392   2.877   1.854  15.394  0.3094  2.0440 -0.4413
  497TMC3    H1 7393   3.066   1.804  15.774 -2.0835 -1.2732  0.3324
  497TMC3    H2 7394   2.711   2.032  15.743  0.0259 -2.2809  2.5644
  497TMC3    C7 7395   2.893   1.948  15.916 -0.3702 -0.1625  0.6427
  497TMC3    C8 7396   2.700   2.029  15.467  0.5694  0.4446 -0.4078
  497TMC3    O1 7397   2.784   1.949  15.974  0.2851 -0.8198 -0.3747
  497TMC3    O2 7398   2.734   2.071  15.358 -0.6628  0.2515  0.7248
  498MPD2     C 7399   0.100   3.321  10.021  1.1035  0.2229 -0.8041
  498MPD2    C1 7400   0.099   3.453   9.985  0.2063  0.0104 -0.4858
  498MPD2    C2 7401   4.710   3.529  10.036 -0.2921 -0.4301 -0.2647
  498MPD2    C3 7402   4.611   3.470  10.111 -0.0348  0.2380 -0.0002
  498MPD2    C4 7403   4.604   3.334  10.130 -0.0098  0.1959  0.8739
  498MPD2    C5 7404   4.713   3.262  10.093  0.2652  0.2907 -0.3109
  498MPD2     H 7405   4.705   3.634  10.011 -0.5612 -0.6099 -0.9594
  498MPD2    H1 7406   4.534   3.275  10.188 -0.6956 -1.3823 -1.5670
  498MPD2    H2 7407   0.174   3.246  10.000  1.0449  0.0323 -0.3364
  498MPD2    H3 7408   0.003   3.157  10.121 -0.8806  0.5144  0.9165
  498MPD2     N 7409   4.504   3.546  10.172  0.0953  0.2871  0.0536
  498MPD2    H5 7410   4.426   3.492  10.207 -0.3072 -0.2143 -1.6420
  498MPD2    N1 7411   0.208   3.507   9.908 -0.1756 -0.2283 -0.4262
  498MPD2    H7 7412   0.206   3.607   9.890 -0.2112 -0.3586 -1.1673
  499TMC3    C1 7413   0.410   3.510   9.791  0.5762 -0.0533 -0.5774
  499TMC3    C2 7414   0.536   3.473   9.797 -0.4244  0.3292 -0.1217
  499TMC3    C3 7415   0.627   3.542   9.724  0.1707  0.3163 -0.1038
  499TMC3    C4 7416   0.366   3.606   9.707  0.0382  0.1964  0.6345
  499TMC3    C5 7417   0.455   3.668   9.626 -0.1989  0.2016  0.2981
  499TMC3    C6 7418   0.590   3.646   9.643  0.0998  0.2382  0.0428
  499TMC3     C 7419   0.318   3.432   9.868  0.0009 -0.0510  0.2333
  499TMC3     O 7420   0.348   3.321   9.901  0.2024  0.2783  0.4753
  499TMC3     H 7421   0.562   3.401   9.873  1.4805 -2.3018 -3.2118
  499TMC3    H1 7422   0.260   3.628   9.700 -0.6736 -2.5939  2.7959
  499TMC3    H2 7423   0.658   3.701   9.578 -1.2248  2.1188  0.2563
  499TMC3    C7 7424   0.422   3.789   9.554  0.2458  0.7837  0.3328
  499TMC3    C8 7425   0.757   3.485   9.728  0.6132 -0.8587  0.4413
  499TMC3    O1 7426   0.497   3.822   9.465  0.5572 -0.1087 -0.3383
  499TMC3    O2 7427   0.774   3.399   9.815  0.2077  0.1771 -0.1265
  500MPD2     C 7428   1.477   4.195  10.146  0.3550  0.3688 -0.2768
  500MPD2    C1 7429   1.511   4.322  10.105 -0.4750  0.6676 -0.0110
  500MPD2    C2 7430   1.445   4.382  10.001  0.3217 -0.4233 -0.7314
  500MPD2    C3 7431   1.347   4.315   9.931  0.3660  0.5008 -0.4445
  500MPD2    C4 7432   1.312   4.189   9.976 -0.5707 -0.0509  0.3353
  500MPD2    C5 7433   1.382   4.122  10.079  0.2582  0.0741  0.5937
  500MPD2     H 7434   1.478   4.484   9.985  1.3473 -0.2923  2.2045
  500MPD2    H1 7435   1.228   4.137   9.933 -1.2025  0.6397  0.7171
  500MPD2    H2 7436   1.529   4.137  10.222 -0.0098 -1.1443 -1.1981
  500MPD2    H3 7437   1.361   4.017  10.097 -2.4356  0.7031  1.0200
  500MPD2     N 7438   1.260   4.372   9.844 -0.5607 -0.4155 -0.7231
  500MPD2    H5 7439   1.189   4.311   9.806  0.6731 -2.1357 -0.2625
  500MPD2    N1 7440   1.606   4.404  10.159  0.1762  0.0124 -0.1305
  500MPD2    H7 7441   1.645   4.475  10.099 -1.2262  1.3748  0.5637
  501TMC3    C1 7442   1.766   4.495  10.297 -0.4817  0.1373  0.1463
  501TMC3    C2 7443   1.739   4.614  10.240  0.3565  0.2355 -0.1105
  501TMC3    C3 7444   1.832   4.715  10.258  0.5485 -0.1143 -0.0177
  501TMC3    C4 7445   1.878   4.476  10.377  0.2084 -0.5624 -0.3777
  501TMC3    C5 7446   1.974   4.571  10.386  0.0929  0.1642 -0.6979
  501TMC3    C6 7447   1.955   4.698  10.327 -0.0876 -0.2037 -0.2468
  501TMC3     C 7448   1.667   4.386  10.283 -0.0881  0.3144 -0.1906
  501TMC3     O 7449   1.652   4.302  10.373  0.5687 -0.4404 -0.3165
  501TMC3     H 7450   1.638   4.643  10.213  0.3241 -0.5508 -0.8387
  501TMC3    H1 7451   1.893   4.374  10.412  0.9317 -0.0491  0.7980
  501TMC3    H2 7452   2.027   0.058  10.341 -1.9315  1.2357  1.1477
  501TMC3    C7 7453   2.041   4.553  10.515 -0.2411  0.1301 -0.0653
  501TMC3    C8 7454   1.792   0.133  10.247  0.1978  0.1761  0.1913
  501TMC3    O1 7455   2.003   4.465  10.581  0.4400  0.3040 -0.4925
  501TMC3    O2 7456   1.873   0.216  10.282  0.2333 -0.9182  0.3889
  502TMC3    C1 7457   0.387   2.695  14.782 -0.7854 -0.7941 -0.5237
  502TMC3    C2 7458   0.465   2.792  14.720 -0.0602  0.2210 -0.4567
  502TMC3    C3 7459   0.425   2.916  14.739 -0.6468  0.0475 -0.7971
  502TMC3    C4 7460   0.258   2.710  14.820 -0.6190 -0.1578  0.0140
  502TMC3    C5 7461   0.223   2.840  14.841  0.2939  0.6845  0.1495
  502TMC3    C6 7462   0.307   2.939  14.806 -1.0767  0.4826  0.0126
  502TMC3     C 7463   0.462   2.611  14.880  0.1257  0.6123  0.0488
  502TMC3     O 7464   0.563   2.549  14.850 -0.0355 -0.4417  0.5070
  502TMC3     H 7465   0.563   2.761  14.686 -0.3963  0.2329 -1.4483
  502TMC3    H1 7466   0.199   2.631  14.866  0.6904 -1.1824 -0.0834
  502TMC3    H2 7467   0.295   3.035  14.855 -1.2631  0.9374 -0.9221
  502TMC3    C7 7468   0.149   2.858  14.961  0.6805 -0.5353 -0.6077
  502TMC3    C8 7469   0.527   3.026  14.732  0.1130  0.7047  0.3692
  502TMC3    O1 7470   0.172   2.774  15.046  0.2391 -0.0294  0.2498
  502TMC3    O2 7471   0.500   3.128  14.799  0.6129  0.1937 -0.1662
  503MPD2     C 7472   2.408   3.959  16.725  0.1972 -0.4819  0.3469
  503MPD2    C1 7473   2.496   4.003  16.825 -0.3655 -0.3119  0.1116
  503MPD2    C2 7474   2.584   3.907  16.875 -0.1182 -0.8293  0.5234
  503MPD2    C3 7475   2.566   3.770  16.848  0.0293 -0.2600 -0.5799
  503MPD2    C4 7476   2.467   3.734  16.763 -0.2922 -0.6567 -0.0609
  503MPD2    C5 7477   2.396   3.824  16.694 -0.3068 -0.6969 -0.0342
  503MPD2     H 7478   2.666   3.936  16.940  1.6393  0.0421 -2.1072
  503MPD2    H1 7479   2.449   3.631  16.735  0.9525 -1.0577  0.6477
  503MPD2    H2 7480   2.345   4.023  16.665  0.4126  0.8309  1.4973
  503MPD2    H3 7481   2.338   3.785  16.611 -1.8497  0.7798  0.3547
  503MPD2     N 7482   2.645   3.675  16.912  0.0354 -0.0059  0.4684
  503MPD2    H5 7483   2.693   3.700  16.998  1.9201  1.0970 -0.8934
  503MPD2    N1 7484   2.522   4.140  16.851 -0.2363 -0.0478  0.0387
  503MPD2    H7 7485   2.606   4.166  16.902  0.4669  0.1415 -1.2190
  504TMC3    C1 7486   2.719   3.467  16.967 -0.0017  0.1782  0.4933
  504TMC3    C2 7487   2.670   3.485  17.090  0.0764  0.3839 -0.0383
  504TMC3    C3 7488   2.730   3.412  17.186  0.2150  0.7921  0.4331
  504TMC3    C4 7489   2.818   3.380  16.937 -0.4699 -0.3228  0.1835
  504TMC3    C5 7490   2.873   3.310  17.035  0.0065 -0.1499 -0.6572
  504TMC3    C6 7491   2.837   3.334  17.164 -0.2114  0.7447 -0.5373
  504TMC3     C 7492   2.669   3.552  16.863  0.1827  0.2972  1.6230
  504TMC3     O 7493   2.665   3.504  16.747 -0.2019 -0.2011 -0.1328
  504TMC3     H 7494   2.579   3.539  17.111 -0.1916  0.8983 -2.5901
  504TMC3    H1 7495   2.858   3.366  16.837  1.7286  0.9369  0.8796
  504TMC3    H2 7496   2.902   3.299  17.244  0.9287  0.0698 -1.7512
  504TMC3    C7 7497   3.005   3.249  17.006 -0.5805 -0.7533 -0.3564
  504TMC3    C8 7498   2.702   3.456  17.319  0.2146  0.3990  0.3221
  504TMC3    O1 7499   3.060   3.270  16.900 -0.1888 -0.5912 -0.0236
  504TMC3    O2 7500   2.654   3.573  17.329  0.2982  0.4752 -0.1048
  505MPD2     C 7501   3.483   4.147  10.884  0.1739 -0.4529 -0.0334
  505MPD2    C1 7502   3.544   4.114  11.004 -0.3631  0.4754 -0.1530
  505MPD2    C2 7503   3.642   4.187  11.061  0.6752  0.0152 -0.2206
  505MPD2    C3 7504   3.689   4.296  10.994  0.9650 -0.2909 -0.4465
  505MPD2    C4 7505   3.627   4.337  10.879  0.8823  0.6711 -0.2569
  505MPD2    C5 7506   3.525   4.262  10.823 -1.0249  0.2228 -0.0598
  505MPD2     H 7507   3.692   4.151  11.150  1.7346 -0.1824 -0.8913
  505MPD2    H1 7508   3.661   4.419  10.817  2.7911  0.3920  0.4060
  505MPD2    H2 7509   3.418   4.083  10.826  0.5312  0.8152 -1.8337
  505MPD2    H3 7510   3.489   4.295  10.727 -2.3507  0.5014  0.5316
  505MPD2     N 7511   3.803   4.371  11.036 -0.7539 -0.6967  0.1757
  505MPD2    H5 7512   3.827   4.454  10.983 -0.9566 -0.2948  0.7102
  505MPD2    N1 7513   3.517   3.982  11.051 -0.3965  0.3944 -0.2268
  505MPD2    H7 7514   3.452   3.933  10.991 -2.0683  0.3141  1.6600
  506TMC3    C1 7515   3.519   3.787  11.184  0.4377  0.2779 -0.1746
  506TMC3    C2 7516   3.578   3.720  11.078 -0.1674 -0.6421  0.0336
  506TMC3    C3 7517   3.638   3.601  11.100  0.1627 -0.0995 -0.0223
  506TMC3    C4 7518   3.533   3.737  11.311 -0.6518  0.0838  0.1991
  506TMC3    C5 7519   3.608   3.627  11.328  0.2147  0.6025 -0.0024
  506TMC3    C6 7520   3.645   3.545  11.223  0.0784 -0.4677 -0.3993
  506TMC3     C 7521   3.550   3.925  11.168  0.4242  0.3758  0.1801
  506TMC3     O 7522   3.622   3.962  11.260  0.0782  0.3702  0.4551
  506TMC3     H 7523   3.580   3.749  10.974  0.5001 -1.7385 -0.2664
  506TMC3    H1 7524   3.479   3.788  11.390 -0.6437 -1.9389  1.5059
  506TMC3    H2 7525   3.704   3.457  11.244  0.1224 -0.3794 -0.1522
  506TMC3    C7 7526   3.715   3.644  11.422  0.0068  0.5583  0.7072
  506TMC3    C8 7527   3.677   3.512  10.994  0.2738  0.2284  0.6893
  506TMC3    O1 7528   3.766   3.543  11.467 -0.4423  0.0339 -0.4937
  506TMC3    O2 7529   3.705   3.394  11.022 -0.0230 -0.4685 -0.5822
  507TMC3    C1 7530   4.111   3.162  14.576 -0.7401  0.1313  0.9299
  507TMC3    C2 7531   4.038   3.081  14.500  0.0759  0.3002 -0.4631
  507TMC3    C3 7532   4.063   3.079  14.363 -0.1667  0.3409  0.1755
  507TMC3    C4 7533   4.212   3.239  14.523 -0.5393 -0.9248  0.3064
  507TMC3    C5 7534   4.228   3.247  14.395 -1.1390  0.5266  0.2634
  507TMC3    C6 7535   4.159   3.164  14.315  0.0249 -1.2726 -0.5321
  507TMC3     C 7536   4.040   3.249  14.663 -0.8219 -0.7685 -0.3565
  507TMC3     O 7537   4.104   3.313  14.748  0.0112  0.5766 -0.3306
  507TMC3     H 7538   3.958   3.022  14.544  0.0266  0.7117 -0.0067
  507TMC3    H1 7539   4.281   3.297  14.583  0.7519 -0.8014 -1.3041
  507TMC3    H2 7540   4.178   3.166  14.208  1.8302  1.0882 -0.1695
  507TMC3    C7 7541   4.173   3.377  14.353 -0.8037 -0.0383 -0.2601
  507TMC3    C8 7542   3.938   3.097  14.293  0.2458 -0.3251 -0.3598
  507TMC3    O1 7543   4.113   3.378  14.248  0.5050 -0.0273 -0.0637
  507TMC3    O2 7544   3.851   3.149  14.357  0.3068  0.3528 -0.1562
  508MPD2     C 7545   4.136   1.088  16.214 -0.6068 -0.3913 -0.2120
  508MPD2    C1 7546   4.227   0.994  16.170 -0.1117 -0.8474 -0.4011
  508MPD2    C2 7547   4.232   0.972  16.030  0.3403 -0.5997  0.7991
  508MPD2    C3 7548   4.153   1.043  15.940 -0.0682  0.7609 -0.2186
  508MPD2    C4 7549   4.058   1.132  15.995 -0.1672  1.2882 -0.6390
  508MPD2    C5 7550   4.060   1.160  16.129 -0.8156  0.6362 -0.4496
  508MPD2     H 7551   4.293   0.893  15.987  0.0863 -0.2871 -0.1356
  508MPD2    H1 7552   3.979   1.184  15.941 -2.2779  0.0437  1.2463
  508MPD2    H2 7553   4.126   1.120  16.317  2.6287  0.0578 -0.0545
  508MPD2    H3 7554   3.990   1.236  16.160 -2.0823 -0.6290 -0.1805
  508MPD2     N 7555   4.167   1.003  15.802  0.2117 -0.2945  0.1419
  508MPD2    H5 7556   4.246   0.946  15.775 -0.3282 -0.0334 -1.9887
  508MPD2    N1 7557   4.312   0.925  16.257  0.4706 -0.2530 -0.2670
  508MPD2    H7 7558   4.299   0.967  16.348 -0.4387 -0.3577 -0.3481
  509TMC3    C1 7559   4.137   1.119  15.347  0.6758  0.2068  0.5610
  509TMC3    C2 7560   4.272   1.162  15.348 -0.3452  0.6266  0.5373
  509TMC3    C3 7561   4.347   1.154  15.461 -0.2657 -0.1387  1.0333
  509TMC3    C4 7562   4.087   1.070  15.461  0.0996 -0.1694  0.1882
  509TMC3    C5 7563   4.161   1.047  15.567 -0.2207 -0.0716  0.1187
  509TMC3    C6 7564   4.294   1.087  15.571 -0.5495  0.3313  0.6773
  509TMC3     C 7565   4.041   1.162  15.245 -0.7611 -0.6876  0.5126
  509TMC3     O 7566   3.920   1.144  15.267 -0.2592 -0.2240  0.1882
  509TMC3     H 7567   4.316   1.189  15.253  0.4725 -0.2307  0.6761
  509TMC3    H1 7568   3.986   1.033  15.478  0.5647 -1.8196 -0.7162
  509TMC3    H2 7569   4.355   1.075  15.660  0.1895  2.1050  0.3989
  509TMC3    C7 7570   4.090   1.051  15.700  0.2745 -0.1753  0.1435
  509TMC3    C8 7571   4.491   1.184  15.469  0.1501  0.7655  0.3959
  509TMC3    O1 7572   3.977   1.101  15.709 -0.7008 -0.7661  0.4944
  509TMC3    O2 7573   4.544   1.124  15.562  0.3031 -0.2877 -0.2512
  510MPD2     C 7574   2.817   2.816  14.400  0.0112  0.1409  0.5196
  510MPD2    C1 7575   2.853   2.698  14.458  0.0442  0.3156  0.2171
  510MPD2    C2 7576   2.977   2.648  14.416 -0.0411  1.0039  0.0049
  510MPD2    C3 7577   3.057   2.707  14.316  0.0618  0.2289 -0.2749
  510MPD2    C4 7578   3.006   2.809  14.251 -0.0505  0.2290  0.1733
  510MPD2    C5 7579   2.889   2.865  14.294  0.7757  0.0292  0.3530
  510MPD2     H 7580   3.006   2.559  14.470  0.3458  0.0939 -1.7053
  510MPD2    H1 7581   3.062   2.851  14.169  1.2914  0.9255  1.4412
  510MPD2    H2 7582   2.715   2.852  14.403  0.9621  2.9304 -0.2017
  510MPD2    H3 7583   2.852   2.955  14.247  2.4629  1.5257  1.8596
  510MPD2     N 7584   3.178   2.640  14.282  0.5083  0.0241  0.7694
  510MPD2    H5 7585   3.199   2.577  14.359  2.4337  2.2058  2.0170
  510MPD2    N1 7586   2.771   2.633  14.560  0.6851 -0.4098  0.4618
  510MPD2    H7 7587   2.683   2.683  14.564  1.3135  0.9338 -2.3934
  511TMC3    C1 7588   2.683   2.471  14.720 -0.3735 -0.5087  0.3157
  511TMC3    C2 7589   2.592   2.566  14.768 -0.3039  0.0092  0.3642
  511TMC3    C3 7590   2.495   2.516  14.847 -0.2152  0.1102  0.6148
  511TMC3    C4 7591   2.674   2.339  14.759  0.0453  0.5512  0.1313
  511TMC3    C5 7592   2.572   2.298  14.832 -0.1371 -0.5176 -0.2191
  511TMC3    C6 7593   2.483   2.384  14.879  0.4051 -0.2436  0.0762
  511TMC3     C 7594   2.790   2.511  14.628 -0.0821 -0.2015  0.9687
  511TMC3     O 7595   2.875   2.427  14.623  0.0419  0.1135 -0.0659
  511TMC3     H 7596   2.603   2.673  14.753  2.3041 -0.3479 -0.2455
  511TMC3    H1 7597   2.743   2.264  14.722 -1.0818  0.1196 -1.1199
  511TMC3    H2 7598   2.401   2.348  14.939 -0.0530 -0.6043 -0.7658
  511TMC3    C7 7599   2.579   2.161  14.877 -0.0116  0.5289  0.2208
  511TMC3    C8 7600   2.377   2.604  14.864 -0.5924  0.0454 -0.1677
  511TMC3    O1 7601   2.689   2.099  14.869 -0.6946 -0.5226 -0.3891
  511TMC3    O2 7602   2.344   2.677  14.770  0.1629 -0.5230 -0.0456
  512TMC3    C1 7603   1.574   2.315  13.275  0.2237  0.0326  0.6388
  512TMC3    C2 7604   1.629   2.262  13.387 -0.6712  0.8770  0.0585
  512TMC3    C3 7605   1.680   2.138  13.387 -0.2462  0.0587 -0.4824
  512TMC3    C4 7606   1.561   2.240  13.172 -0.0182  0.1516  0.1373
  512TMC3    C5 7607   1.608   2.112  13.169  0.4623 -0.2358  0.0028
  512TMC3    C6 7608   1.669   2.051  13.280  0.4138  0.5098  0.5205
  512TMC3     C 7609   1.544   2.455  13.276 -0.1587  0.5240 -0.1675
  512TMC3     O 7610   1.543   2.515  13.381 -0.0844 -0.2865  0.1065
  512TMC3     H 7611   1.634   2.329  13.472  1.0443  1.0204 -0.1450
  512TMC3    H1 7612   1.527   2.279  13.077  1.1656 -1.6146 -1.0434
  512TMC3    H2 7613   1.715   1.953  13.272  0.0542  0.3805  0.0695
  512TMC3    C7 7614   1.607   2.043  13.044  0.1922 -0.1715  1.0206
  512TMC3    C8 7615   1.763   2.089  13.499 -0.2778 -0.6827  0.3413
  512TMC3    O1 7616   1.584   2.121  12.949  0.2560  0.6044  0.0841
  512TMC3    O2 7617   1.809   1.975  13.491 -0.3271 -0.1390 -0.4498
  513MPD2     C 7618   3.447   2.594  12.786 -0.0450  0.7563  0.5811
  513MPD2    C1 7619   3.535   2.537  12.706 -0.7046  0.5600 -0.1951
  513MPD2    C2 7620   3.619   2.434  12.756  0.1735  0.2108  0.3266
  513MPD2    C3 7621   3.609   2.387  12.885  0.5279 -0.0110 -0.4435
  513MPD2    C4 7622   3.524   2.451  12.972  0.2835  0.2551  0.4164
  513MPD2    C5 7623   3.442   2.552  12.921 -0.8913 -0.0364 -1.0785
  513MPD2     H 7624   3.686   2.382  12.688  1.2986  1.4664  0.4740
  513MPD2    H1 7625   3.512   2.415  13.074 -3.5328 -0.9417 -0.4845
  513MPD2    H2 7626   3.376   2.665  12.745  0.4747  1.4445  0.8757
  513MPD2    H3 7627   3.377   2.612  12.984  0.8601  0.1802  0.5352
  513MPD2     N 7628   3.685   2.275  12.924  0.0237  0.4812 -0.3653
  513MPD2    H5 7629   3.758   2.251  12.857  0.8493 -0.8118  0.9922
  513MPD2    N1 7630   3.532   2.565  12.565 -0.2695 -0.6256  0.1500
  513MPD2    H7 7631   3.450   2.613  12.529  0.9570 -0.8089 -2.8991
  514TMC3    C1 7632   3.586   2.461  12.359 -0.4443  0.3147  0.1672
  514TMC3    C2 7633   3.456   2.464  12.332  0.7860 -0.5046 -0.5562
  514TMC3    C3 7634   3.400   2.358  12.263 -0.0951  0.1640  0.1012
  514TMC3    C4 7635   3.670   2.361  12.319  0.3278 -0.0603  0.2120
  514TMC3    C5 7636   3.620   2.258  12.239 -0.3663 -0.5931  1.0170
  514TMC3    C6 7637   3.482   2.258  12.211  0.0421 -0.0143 -0.4496
  514TMC3     C 7638   3.632   2.525  12.483  0.3420  0.3241 -0.3098
  514TMC3     O 7639   3.752   2.517  12.510 -0.0765  0.3035 -0.0511
  514TMC3     H 7640   3.394   2.546  12.365  0.4437 -0.7462 -0.5994
  514TMC3    H1 7641   3.776   2.376  12.332  0.5389 -0.7796 -0.6752
  514TMC3    H2 7642   3.438   2.169  12.167  0.7451  0.0909 -1.3688
  514TMC3    C7 7643   3.670   2.132  12.303 -0.1939 -0.1159  0.0948
  514TMC3    C8 7644   3.259   2.335  12.273 -0.4161  0.3562 -0.1052
  514TMC3    O1 7645   3.585   2.060  12.348 -0.8837  0.2981  0.3310
  514TMC3    O2 7646   3.194   2.399  12.356 -0.5775  0.3647 -0.1383
  515MPD2     C 7647   1.556   3.556  15.056 -0.5150 -0.3810 -0.1367
  515MPD2    C1 7648   1.552   3.620  14.939 -0.2117  0.5509  0.8206
  515MPD2    C2 7649   1.589   3.749  14.936 -0.4003  0.3194  0.2019
  515MPD2    C3 7650   1.646   3.805  15.048 -0.4213 -0.0124 -0.4033
  515MPD2    C4 7651   1.641   3.740  15.166 -0.4637  0.0352  0.0341
  515MPD2    C5 7652   1.586   3.619  15.170  0.0742 -0.3138 -0.5405
  515MPD2     H 7653   1.582   3.798  14.840 -0.1450 -3.4127 -1.6926
  515MPD2    H1 7654   1.682   3.789  15.253  2.1238  0.2648 -1.3251
  515MPD2    H2 7655   1.524   3.453  15.063  0.6449 -0.8324 -1.6637
  515MPD2    H3 7656   1.573   3.569  15.265  0.6046 -0.2151 -0.4157
  515MPD2     N 7657   1.704   3.935  15.046 -0.3039  0.6443 -0.2315
  515MPD2    H5 7658   1.744   3.979  15.128 -0.5630  1.4356 -0.5242
  515MPD2    N1 7659   1.518   3.548  14.823  0.1612  0.6918  0.6404
  515MPD2    H7 7660   1.507   3.603  14.738 -1.9149 -0.3107  0.2707
  516TMC3    C1 7661   1.485   3.373  14.674  0.9204 -0.1135  0.3785
  516TMC3    C2 7662   1.404   3.453  14.602  0.1182 -0.5358  0.0741
  516TMC3    C3 7663   1.344   3.396  14.494  0.2656 -0.4707 -0.2321
  516TMC3    C4 7664   1.518   3.241  14.643 -0.6815 -0.2375  0.3752
  516TMC3    C5 7665   1.450   3.190  14.537 -0.2295 -0.3869  0.2933
  516TMC3    C6 7666   1.364   3.264  14.456 -0.2006  0.7873  1.0214
  516TMC3     C 7667   1.514   3.411  14.811 -0.6622  0.0293  0.0272
  516TMC3     O 7668   1.539   3.317  14.887  0.0414 -0.1780  0.9138
  516TMC3     H 7669   1.387   3.559  14.616  0.8951 -0.2407 -1.1683
  516TMC3    H1 7670   1.583   3.188  14.712  0.1442  2.1831  1.4694
  516TMC3    H2 7671   1.311   3.233  14.367 -0.3130  0.7520  1.0992
  516TMC3    C7 7672   1.419   3.053  14.562  0.0167 -0.3208 -0.8079
  516TMC3    C8 7673   1.261   3.473  14.396 -0.0216 -0.0062  0.2046
  516TMC3    O1 7674   1.476   3.014  14.663  0.3051  0.4536  0.2664
  516TMC3    O2 7675   1.166   3.418  14.350 -0.1653  0.5004 -0.5550
  517MPD2     C 7676   0.364   0.530  17.280  0.3207  1.0085  0.1106
  517MPD2    C1 7677   0.480   0.516  17.351 -0.1278  1.1965 -0.2900
  517MPD2    C2 7678   0.518   0.608  17.443 -0.3186 -0.2326  0.1001
  517MPD2    C3 7679   0.445   0.721  17.460 -0.3926  0.7791  0.7726
  517MPD2    C4 7680   0.319   0.739  17.395 -0.2216 -0.2770  0.0014
  517MPD2    C5 7681   0.285   0.647  17.300 -0.3389 -0.3761 -0.1329
  517MPD2     H 7682   0.603   0.578  17.505  0.6135  1.1360 -0.5275
  517MPD2    H1 7683   0.261   0.826  17.424 -1.6669 -1.2723  0.1035
  517MPD2    H2 7684   0.310   0.462  17.215 -0.7297  1.4939  0.4666
  517MPD2    H3 7685   0.189   0.649  17.250 -1.2415 -2.5109  1.4863
  517MPD2     N 7686   0.483   0.821  17.555  0.1888  0.5538 -0.0037
  517MPD2    H5 7687   0.407   0.884  17.577 -0.3124 -1.0321  2.8424
  517MPD2    N1 7688   0.572   0.409  17.323 -0.3185  0.3282  0.0579
  517MPD2    H7 7689   0.657   0.419  17.378  0.4516 -0.6685 -0.9468
  518TMC3    C1 7690   0.659   0.199  17.272  0.3424 -0.3382 -0.7262
  518TMC3    C2 7691   0.629   0.071  17.235  0.0663  0.1735  0.4699
  518TMC3    C3 7692   0.732   4.718  17.178  0.2418  0.2805  0.4246
  518TMC3    C4 7693   0.790   0.244  17.276  0.4784  0.0492  0.1500
  518TMC3    C5 7694   0.888   0.161  17.224  0.6419 -0.7387 -0.1185
  518TMC3    C6 7695   0.855   0.047  17.164  0.3430  0.0557  0.2279
  518TMC3     C 7696   0.550   0.292  17.259  0.0591  0.0812 -0.1900
  518TMC3     O 7697   0.449   0.252  17.201 -0.2287  0.0142  0.4375
  518TMC3     H 7698   0.526   0.037  17.235 -0.0470  0.5177  0.6155
  518TMC3    H1 7699   0.819   0.347  17.296 -0.7895  0.3557  0.4096
  518TMC3    H2 7700   0.926   4.711  17.103  0.8779  1.3864 -0.3573
  518TMC3    C7 7701   1.027   0.202  17.260 -0.2413 -0.3880 -0.1354
  518TMC3    C8 7702   0.724   4.573  17.210 -0.1705 -0.0369 -0.3095
  518TMC3    O1 7703   1.037   0.305  17.331  0.0126 -0.2941 -0.0771
  518TMC3    O2 7704   0.830   4.515  17.198  0.2081 -0.6056 -0.0280
  519MPD2     C 7705   3.012   3.602  14.369 -0.3478 -0.3408 -0.5765
  519MPD2    C1 7706   2.946   3.619  14.250  0.5723  0.9843  0.0796
  519MPD2    C2 7707   3.008   3.583  14.134 -0.2169  0.6215 -0.5368
  519MPD2    C3 7708   3.125   3.511  14.135  0.2209  0.0925  0.4392
  519MPD2    C4 7709   3.187   3.492  14.255  0.1536 -0.0642 -0.0155
  519MPD2    C5 7710   3.134   3.541  14.373  0.0667 -0.0441 -0.5197
  519MPD2     H 7711   2.959   3.603  14.039 -2.3180 -0.1087  0.4035
  519MPD2    H1 7712   3.282   3.440  14.257 -0.2728 -0.8347  0.0914
  519MPD2    H2 7713   2.965   3.631  14.462  1.9713 -0.6491  0.7046
  519MPD2    H3 7714   3.198   3.545  14.460 -0.5816 -0.2412 -0.0320
  519MPD2     N 7715   3.188   3.451  14.028 -0.0844  0.0740 -1.2100
  519MPD2    H5 7716   3.262   3.386  14.051  0.9535  1.4423 -0.6725
  519MPD2    N1 7717   2.830   3.697  14.256 -0.8826  0.2639 -0.6419
  519MPD2    H7 7718   2.796   3.738  14.343 -1.1464 -1.0752 -0.1172
  520TMC3    C1 7719   3.184   3.361  13.810 -0.4179 -0.0330  0.5018
  520TMC3    C2 7720   3.097   3.333  13.708  0.3372  0.3016  0.1986
  520TMC3    C3 7721   3.125   3.226  13.625 -0.3258  0.6382 -0.2142
  520TMC3    C4 7722   3.285   3.272  13.845 -0.0290 -0.0133  0.5024
  520TMC3    C5 7723   3.305   3.176  13.760 -0.4165  0.8750  0.6572
  520TMC3    C6 7724   3.226   3.143  13.647 -0.0075  0.7712 -0.3064
  520TMC3     C 7725   3.147   3.466  13.897  0.0144  0.5095  0.4573
  520TMC3     O 7726   3.062   3.545  13.856 -0.3024 -0.1489 -0.2210
  520TMC3     H 7727   3.009   3.394  13.689  1.4181  1.8688  0.1950
  520TMC3    H1 7728   3.370   3.309  13.902  0.6107  0.7674 -0.9472
  520TMC3    H2 7729   3.239   3.050  13.592  0.5395  0.8506 -0.3137
  520TMC3    C7 7730   3.393   3.070  13.813 -0.0185  0.1136  0.0988
  520TMC3    C8 7731   3.038   3.227  13.516  0.0330 -0.6876  0.2690
  520TMC3    O1 7732   3.372   3.044  13.933  0.5039 -0.0931  0.1139
  520TMC3    O2 7733   3.079   3.183  13.411  0.1670 -0.0639  0.0161
  521MPD2     C 7734   3.508   1.334  17.550  0.1125  0.0078 -0.0689
  521MPD2    C1 7735   3.518   1.351  17.419  0.4094 -0.3555 -1.2467
  521MPD2    C2 7736   3.643   1.385  17.362  0.2006 -0.4827 -0.4658
  521MPD2    C3 7737   3.757   1.393  17.444 -0.1461 -0.0314  0.0400
  521MPD2    C4 7738   3.742   1.376  17.582 -0.0834 -0.4500  0.1837
  521MPD2    C5 7739   3.621   1.342  17.631  0.4119  0.5336 -0.2582
  521MPD2     H 7740   3.653   1.395  17.255  1.0106 -0.8425 -0.4247
  521MPD2    H1 7741   3.825   1.387  17.651  1.8861  0.3829 -2.3288
  521MPD2    H2 7742   3.414   1.319  17.602  1.6094  0.7874  2.8534
  521MPD2    H3 7743   3.600   1.333   0.058  0.2346 -1.0394 -0.4335
  521MPD2     N 7744   3.879   1.421  17.380 -0.1255  0.3046  0.0993
  521MPD2    H5 7745   3.887   1.443  17.282 -0.9544  2.2857  0.4734
  521MPD2    N1 7746   3.404   1.339  17.343  0.1576 -0.1253  0.0628
  521MPD2    H7 7747   3.318   1.317  17.393  0.2603  2.6428  1.4544
  522TMC3    C1 7748   4.102   1.371  17.341  0.3005  0.1002  0.0757
  522TMC3    C2 7749   4.191   1.267  17.358  0.1428 -0.5119 -0.5173
  522TMC3    C3 7750   4.282   1.256  17.259  0.2685 -0.4271 -0.7041
  522TMC3    C4 7751   4.114   1.465  17.247 -0.3784  0.1748  0.2007
  522TMC3    C5 7752   4.222   1.457  17.165 -0.0315  0.3108  0.6425
  522TMC3    C6 7753   4.308   1.349  17.169  0.6681 -0.2892 -0.2234
  522TMC3     C 7754   3.996   1.386  17.441 -0.4074 -0.0203 -0.2356
  522TMC3     O 7755   4.011   1.323  17.546 -0.2192 -0.2442 -0.0262
  522TMC3     H 7756   4.183   1.189  17.433  2.2718 -0.9474 -0.7658
  522TMC3    H1 7757   4.065   1.560  17.265 -1.2600 -0.1354 -0.5579
  522TMC3    H2 7758   4.401   1.355  17.114  1.3013  1.5831  1.0644
  522TMC3    C7 7759   4.228   1.561  17.062 -0.1479 -0.3829  0.4074
  522TMC3    C8 7760   4.376   1.143  17.269 -0.3458 -0.0128 -0.3458
  522TMC3    O1 7761   4.338   1.595  17.028  0.3673 -0.3741 -0.2029
  522TMC3    O2 7762   4.418   1.113  17.381  0.1774 -0.9782 -0.0595
  523MPD2     C 7763   2.209   2.022  10.166  1.1130  0.0132 -0.6148
  523MPD2    C1 7764   2.085   1.969  10.135 -0.2430  0.3052 -0.5431
  523MPD2    C2 7765   1.987   2.053  10.084  0.8293  0.5250 -0.0449
  523MPD2    C3 7766   2.019   2.184  10.058  0.7492 -0.7472 -0.5758
  523MPD2    C4 7767   2.145   2.232  10.086 -1.1435  0.0895  0.3447
  523MPD2    C5 7768   2.237   2.152  10.144 -0.0696 -0.2247  0.2989
  523MPD2     H 7769   1.889   2.010  10.066  0.2924  1.5230  0.4653
  523MPD2    H1 7770   2.166   2.330  10.045  2.8430 -0.9967 -0.2579
  523MPD2    H2 7771   2.290   1.963  10.208 -0.7050 -0.4076  2.3238
  523MPD2    H3 7772   2.329   2.197  10.178  0.1792 -0.8314  0.4191
  523MPD2     N 7773   1.939   2.272   9.981 -0.8006  0.0898  0.1368
  523MPD2    H5 7774   1.982   2.361   9.960 -1.2642  0.0489 -0.9706
  523MPD2    N1 7775   2.041   1.837  10.161 -0.1914 -0.3357 -0.4823
  523MPD2    H7 7776   1.939   1.828  10.159 -0.3900  1.1511  2.1342
  524TMC3    C1 7777   1.742   2.376   9.900 -0.2775 -0.1261 -0.3308
  524TMC3    C2 7778   1.817   2.471   9.830  0.3028 -0.4831  0.5105
  524TMC3    C3 7779   1.756   2.570   9.768  0.6858 -0.2727  0.8768
  524TMC3    C4 7780   1.608   2.391   9.915  0.1546 -0.8670  0.0827
  524TMC3    C5 7781   1.556   2.508   9.871  0.1222  0.1544 -0.8747
  524TMC3    C6 7782   1.626   2.599   9.793  0.3159  0.4814  0.4448
  524TMC3     C 7783   1.805   2.252   9.954 -0.9065  0.3461 -0.1418
  524TMC3     O 7784   1.727   2.161   9.992  0.1101 -0.1970 -0.4944
  524TMC3     H 7785   1.923   2.453   9.816 -0.0739 -2.2925 -0.0696
  524TMC3    H1 7786   1.545   2.312   9.953 -1.5533  0.8163  0.8004
  524TMC3    H2 7787   1.580   2.689   9.755 -0.8305  0.1252  0.9765
  524TMC3    C7 7788   1.412   2.516   9.881  0.0703 -0.4341  0.1661
  524TMC3    C8 7789   1.819   2.644   9.662 -0.1787  0.3908  0.0630
  524TMC3    O1 7790   1.360   2.416   9.933  0.1328 -0.5306 -0.7447
  524TMC3    O2 7791   1.943   2.645   9.670 -0.0932  0.3659  0.4012
  525MPD2     C 7792   4.473   2.913  14.367  0.4138 -0.6546 -0.0296
  525MPD2    C1 7793   4.481   2.980  14.487  0.7055 -0.6268 -0.4808
  525MPD2    C2 7794   4.523   3.116  14.481 -0.1935 -0.1765  0.5944
  525MPD2    C3 7795   4.550   3.174  14.360  0.3523 -1.1794 -0.6639
  525MPD2    C4 7796   4.528   3.109  14.246 -0.7548  0.2559  0.0549
  525MPD2    C5 7797   4.490   2.981  14.250  0.8276 -0.2634 -0.4322
  525MPD2     H 7798   4.533   3.175  14.571 -0.6215 -0.1064  0.5935
  525MPD2    H1 7799   4.548   3.155  14.150  1.5327 -2.8674 -0.9746
  525MPD2    H2 7800   4.447   2.808  14.375  0.0045 -0.4789  0.9498
  525MPD2    H3 7801   4.487   2.921  14.160 -0.6090  3.3816 -2.8117
  525MPD2     N 7802   4.608   3.306  14.347  0.0614 -0.8559 -0.2482
  525MPD2    H5 7803   4.620   3.346  14.255  0.9281 -1.5056 -0.4175
  525MPD2    N1 7804   4.457   2.905  14.602 -0.6491 -0.2698  0.0978
  525MPD2    H7 7805   4.439   2.806  14.589 -1.2119 -0.0971 -0.4842
  526TMC3    C1 7806   4.410   2.863  14.827  0.8811  0.4052  0.1618
  526TMC3    C2 7807   4.299   2.869  14.904 -0.1850  0.3191  0.9168
  526TMC3    C3 7808   4.298   2.795  15.014 -0.6469 -0.2877  0.5802
  526TMC3    C4 7809   4.508   2.767  14.839  0.0466 -0.0755 -0.6283
  526TMC3    C5 7810   4.492   2.687  14.947 -0.0353 -0.4196  0.0370
  526TMC3    C6 7811   4.382   2.694  15.028  0.3734 -0.5524 -0.6385
  526TMC3     C 7812   4.421   2.961  14.723  0.2586 -0.0488  0.0771
  526TMC3     O 7813   4.393   3.080  14.749 -0.0373 -0.0855  0.2641
  526TMC3     H 7814   4.231   2.953  14.896  0.9585  1.1237 -0.3207
  526TMC3    H1 7815   4.596   2.767  14.776  0.6113 -1.9608  0.1662
  526TMC3    H2 7816   4.358   2.626  15.109  0.3375 -0.7743 -0.8344
  526TMC3    C7 7817   4.588   2.591  14.977  0.4168 -0.5720 -0.3671
  526TMC3    C8 7818   4.171   2.747  15.062  0.3710  0.6232 -0.5385
  526TMC3    O1 7819   4.614   2.579  15.095  0.0029 -0.2203 -0.5376
  526TMC3    O2 7820   4.096   2.682  14.988 -0.2585  0.3273 -0.1467
  527MPD2     C 7821   2.534   1.613   1.463 -0.2599  0.7700  0.5947
  527MPD2    C1 7822   2.524   1.478   1.494 -0.8397 -0.6520  0.2203
  527MPD2    C2 7823   2.531   1.389   1.380 -0.0159 -0.1668  0.5229
  527MPD2    C3 7824   2.559   1.429   1.252 -0.4947 -0.4656  0.4255
  527MPD2    C4 7825   2.568   1.561   1.230 -0.1712  0.5532 -0.2169
  527MPD2    C5 7826   2.555   1.652   1.335 -0.2787  0.6311 -0.2461
  527MPD2     H 7827   2.523   1.283   1.404  0.3465 -0.6014 -1.2795
  527MPD2    H1 7828   2.595   1.604   1.135 -0.6394  0.9635 -0.1656
  527MPD2    H2 7829   2.506   1.693   1.530 -0.9785  1.6733 -0.7954
  527MPD2    H3 7830   2.558   1.758   1.313  2.5022  0.8558  1.3185
  527MPD2     N 7831   2.588   1.335   1.153 -0.3967  0.2190  0.1364
  527MPD2    H5 7832   2.581   1.235   1.172 -4.0676  0.4322 -0.0758
  527MPD2    N1 7833   2.496   1.409   1.618 -0.6336 -0.5607 -0.4097
  527MPD2    H7 7834   2.499   1.308   1.621  1.1793 -0.5964 -4.5228
  528TMC3    C1 7835   2.441   1.408   1.852  0.2012 -0.1423 -0.2841
  528TMC3    C2 7836   2.450   1.495   1.960  0.0742 -0.1762 -0.8023
  528TMC3    C3 7837   2.499   1.450   2.077 -0.0056 -0.1123 -0.3785
  528TMC3    C4 7838   2.488   1.278   1.861 -0.4095  0.3629  0.2298
  528TMC3    C5 7839   2.517   1.227   1.987 -0.0940 -0.2467  0.2258
  528TMC3    C6 7840   2.525   1.316   2.093  0.5654  0.4121  0.0066
  528TMC3     C 7841   2.452   1.478   1.730 -0.4311 -0.0602 -0.2394
  528TMC3     O 7842   2.443   1.600   1.743  0.1813  0.3314 -0.0912
  528TMC3     H 7843   2.402   1.592   1.956  1.3034  0.3725 -2.2101
  528TMC3    H1 7844   2.490   1.220   1.770  0.8999 -1.6910  1.5869
  528TMC3    H2 7845   2.558   1.271   2.186  2.5447 -0.8810 -1.3273
  528TMC3    C7 7846   2.588   1.100   1.998  0.7247 -0.1004  0.2561
  528TMC3    C8 7847   2.613   1.532   2.124  1.1893  0.0389  0.0278
  528TMC3    O1 7848   2.598   1.051   2.111  0.2555  0.2374 -0.1421
  528TMC3    O2 7849   2.699   1.487   2.200  0.3836 -0.4072 -0.1473
  529MPD2     C 7850   4.183   4.321   1.631  0.9280 -0.1820 -0.5500
  529MPD2    C1 7851   4.235   4.238   1.542 -0.1217 -0.1747  0.3844
  529MPD2    C2 7852   4.222   4.258   1.407 -0.3712 -0.1671  0.5781
  529MPD2    C3 7853   4.151   4.368   1.364  0.2747 -0.2204  0.0356
  529MPD2    C4 7854   4.110   4.461   1.453 -0.1124  0.1823 -0.1930
  529MPD2    C5 7855   4.130   4.441   1.590 -0.0253 -0.1349  0.0571
  529MPD2     H 7856   4.271   4.195   1.333 -0.2433 -0.6983  1.1162
  529MPD2    H1 7857   4.051   4.547   1.425 -2.1192 -0.7683  1.1320
  529MPD2    H2 7858   4.192   4.306   1.738 -1.3939  0.5830 -0.2507
  529MPD2    H3 7859   4.107   4.513   1.667  2.3731 -0.3841  1.0072
  529MPD2     N 7860   4.128   4.403   1.226  0.4651 -0.3713 -0.4701
  529MPD2    H5 7861   4.086   4.493   1.205 -0.1608 -0.7205 -0.7173
  529MPD2    N1 7862   4.308   4.120   1.574 -0.7117  0.6770 -0.5971
  529MPD2    H7 7863   4.342   4.063   1.498  0.4712 -1.0706  1.2576
  530TMC3    C1 7864   4.434   3.968   1.718 -0.1692  0.3007  0.5046
  530TMC3    C2 7865   4.529   3.945   1.626  0.2227 -0.2233 -0.3623
  530TMC3    C3 7866   4.642   3.876   1.660  0.4496  0.4476 -0.6152
  530TMC3    C4 7867   4.435   3.908   1.836  0.0611 -0.4886 -0.0694
  530TMC3    C5 7868   4.550   3.836   1.870  0.5045  0.7708 -0.2138
  530TMC3    C6 7869   4.658   3.827   1.786 -0.0893 -0.7001 -0.1304
  530TMC3     C 7870   4.344   4.079   1.702 -0.0079 -0.2196  0.0067
  530TMC3     O 7871   4.305   4.123   1.811 -0.1673 -0.1167  0.0301
  530TMC3     H 7872   4.519   3.975   1.522 -0.8052 -0.6214 -0.3800
  530TMC3    H1 7873   4.346   3.920   1.898 -0.0911  1.0293 -0.5811
  530TMC3    H2 7874   0.026   3.770   1.818  1.0120  1.5833  0.9232
  530TMC3    C7 7875   4.558   3.750   1.985  0.0798 -0.1743 -0.5367
  530TMC3    C8 7876   0.002   3.822   1.554 -0.6631  0.2466  0.2136
  530TMC3    O1 7877   4.648   3.673   1.986  0.6453  0.0928 -0.7654
  530TMC3    O2 7878   4.669   3.843   1.448 -0.5390 -0.1270 -0.0007
  531MPD2     C 7879   4.046   1.927  12.584 -0.2939 -0.2664 -0.7503
  531MPD2    C1 7880   3.916   1.949  12.613  0.1974  0.4197  0.7474
  531MPD2    C2 7881   3.835   2.002  12.508 -0.0443  1.3037 -0.8771
  531MPD2    C3 7882   3.886   2.065  12.396  0.2540 -0.5221 -0.0289
  531MPD2    C4 7883   4.023   2.052  12.371 -0.6420 -0.2845 -0.8267
  531MPD2    C5 7884   4.095   1.970  12.463 -0.5656 -0.6449 -0.1791
  531MPD2     H 7885   3.731   2.020  12.530 -0.0224 -0.1454  0.4238
  531MPD2    H1 7886   4.073   2.066  12.276  1.4694  0.3400  0.3799
  531MPD2    H2 7887   4.116   1.881  12.652 -0.6530  0.7393  0.3004
  531MPD2    H3 7888   4.198   1.944  12.441 -0.0573  0.4041  0.9383
  531MPD2     N 7889   3.806   2.129  12.299 -0.1086  0.3355  0.3917
  531MPD2    H5 7890   3.856   2.187  12.233  1.2953 -1.7791 -0.3974
  531MPD2    N1 7891   3.861   1.934  12.743  0.4142  0.1700  0.2982
  531MPD2    H7 7892   3.768   1.972  12.757  0.1750 -0.0852 -0.6041
  532TMC3    C1 7893   3.880   1.909  12.964 -0.0286  0.3850 -0.0387
  532TMC3    C2 7894   3.822   2.038  12.957 -0.5258  0.0492 -0.5010
  532TMC3    C3 7895   3.753   2.084  13.063 -0.3261  0.1386 -1.0202
  532TMC3    C4 7896   3.848   1.815  13.060 -0.3256  0.2078  0.1407
  532TMC3    C5 7897   3.770   1.864  13.162 -0.1919 -0.4376 -0.6173
  532TMC3    C6 7898   3.716   1.992  13.157  0.3364  0.3843  0.3662
  532TMC3     C 7899   3.922   1.857  12.835  0.5905 -0.2129  0.2518
  532TMC3     O 7900   3.967   1.745  12.809 -0.8017 -0.0335  0.2697
  532TMC3     H 7901   3.852   2.108  12.881  0.3621 -0.3108 -0.4882
  532TMC3    H1 7902   3.877   1.710  13.051 -3.2006 -0.8232  3.2891
  532TMC3    H2 7903   3.650   2.028  13.235 -0.3151 -0.1369  0.0466
  532TMC3    C7 7904   3.683   1.768  13.234  0.1606  0.2819  0.6123
  532TMC3    C8 7905   3.668   2.203  13.045 -0.0068  0.3443 -0.5411
  532TMC3    O1 7906   3.564   1.794  13.248 -0.0630  0.3276 -0.4846
  532TMC3    O2 7907   3.571   2.202  13.119  0.2087  0.7400  0.1023
  533TMC3    C1 7908   0.005   3.496  14.428  0.2741 -0.4470 -0.1184
  533TMC3    C2 7909   0.118   3.523  14.509 -0.1664  0.1710 -0.5603
  533TMC3    C3 7910   0.111   3.630  14.590 -0.4722  0.6656 -0.4704
  533TMC3    C4 7911   4.620   3.580  14.420  0.3756  0.9529 -0.4199
  533TMC3    C5 7912   4.622   3.687  14.505 -0.3085  0.5892  0.6165
  533TMC3    C6 7913   0.010   3.721  14.584  0.2244 -0.0086  0.0965
  533TMC3     C 7914   4.676   3.365  14.456  0.2510  0.7797 -0.6798
  533TMC3     O 7915   4.717   3.323  14.564  0.2399 -0.0082 -0.4152
  533TMC3     H 7916   0.195   3.449  14.527 -0.5346 -0.1599 -0.3541
  533TMC3    H1 7917   4.539   3.560  14.350  1.1335 -0.0398 -1.0074
  533TMC3    H2 7918   0.011   3.802  14.655  0.8199 -1.4422  1.7260
  533TMC3    C7 7919   4.498   3.682  14.573  0.0667  0.2367  0.2433
  533TMC3    C8 7920   0.226   3.658  14.676  0.4225  0.2142  0.1987
  533TMC3    O1 7921   4.419   3.597  14.539 -0.2236 -0.3175  0.2957
  533TMC3    O2 7922   0.283   3.558  14.722 -0.5397  0.4871  0.2603
  534MPD2     C 7923   2.519   4.209   1.403 -0.5532 -0.2131  0.3638
  534MPD2    C1 7924   2.477   4.303   1.498 -0.3804  0.3948 -0.0671
  534MPD2    C2 7925   2.337   4.302   1.522  0.0981 -0.5117 -0.1609
  534MPD2    C3 7926   2.248   4.229   1.447 -0.2857 -0.4066  0.4850
  534MPD2    C4 7927   2.291   4.149   1.348  0.3610  0.7707  0.0159
  534MPD2    C5 7928   2.425   4.140   1.332 -0.6148  0.5569 -0.3017
  534MPD2     H 7929   2.298   4.369   1.598  2.1461  0.0369  0.4067
  534MPD2    H1 7930   2.222   4.093   1.287  1.1584  1.1032 -1.1872
  534MPD2    H2 7931   2.625   4.190   1.396 -0.0879  2.0106  1.1094
  534MPD2    H3 7932   2.454   4.076   1.250  0.8771 -0.9964  1.4295
  534MPD2     N 7933   2.111   4.243   1.460  0.0898 -0.4280  0.1269
  534MPD2    H5 7934   2.045   4.216   1.388 -0.1316 -3.8097  1.5739
  534MPD2    N1 7935   2.558   4.391   1.573  0.1567 -0.2888  0.4266
  534MPD2    H7 7936   2.510   4.452   1.639 -0.0947  0.1973 -0.1968
  535TMC3    C1 7937   1.902   4.331   1.528  1.0793  0.0762 -0.2487
  535TMC3    C2 7938   1.812   4.345   1.627  0.1871 -0.1194 -0.1455
  535TMC3    C3 7939   1.689   4.389   1.596  0.2653 -0.1750  0.3329
  535TMC3    C4 7940   1.881   4.373   1.401 -0.8207 -0.0994 -0.3722
  535TMC3    C5 7941   1.759   4.427   1.372  0.1066 -0.8298  0.5993
  535TMC3    C6 7942   1.658   4.437   1.471  0.2197  0.1851 -0.4943
  535TMC3     C 7943   2.043   4.313   1.564 -0.0635 -0.5972 -0.1941
  535TMC3     O 7944   2.084   4.326   1.679  0.0290  0.0472 -0.6653
  535TMC3     H 7945   1.838   4.302   1.723 -3.3641  0.1613  0.9248
  535TMC3    H1 7946   1.961   4.384   1.329 -3.0921  0.0596 -2.9201
  535TMC3    H2 7947   1.556   4.466   1.449  0.5040  1.0251 -0.7012
  535TMC3    C7 7948   1.739   4.446   1.227 -0.5459  0.1372 -0.2240
  535TMC3    C8 7949   1.579   4.330   1.658  0.3268 -0.1543  0.6154
  535TMC3    O1 7950   1.806   4.377   1.147 -0.9376 -0.0449 -0.9185
  535TMC3    O2 7951   1.496   4.273   1.588  0.7207  0.4493 -0.2717
  536MPD2     C 7952   0.492   2.342  16.307 -0.1637  0.1999 -0.5111
  536MPD2    C1 7953   0.497   2.480  16.324 -0.4856  0.0846  0.1526
  536MPD2    C2 7954   0.467   2.561  16.209 -0.1911  0.3013 -0.3038
  536MPD2    C3 7955   0.440   2.508  16.085  1.4460  0.2043 -0.3052
  536MPD2    C4 7956   0.452   2.372  16.071  0.3384 -0.7057  0.3069
  536MPD2    C5 7957   0.473   2.287  16.183  0.4933 -0.3533 -0.2124
  536MPD2     H 7958   0.447   2.667  16.221 -2.3489 -0.1946  0.4719
  536MPD2    H1 7959   0.425   2.332  15.974  1.0625  0.2502 -0.2966
  536MPD2    H2 7960   0.512   2.279  16.393 -0.7858  3.2514  1.8385
  536MPD2    H3 7961   0.481   2.180  16.175 -0.8097 -0.5119  0.5474
  536MPD2     N 7962   0.392   2.586  15.973  0.2143  0.2458  0.2491
  536MPD2    H5 7963   0.354   2.532  15.896 -0.6964  0.4363  0.5551
  536MPD2    N1 7964   0.510   2.536  16.454  0.4190  0.2028  0.2713
  536MPD2    H7 7965   0.527   2.468  16.526 -1.6081  0.4293  0.9696
  537TMC3    C1 7966   0.565   2.698  16.616  0.0216  0.3149 -0.3965
  537TMC3    C2 7967   0.644   2.803  16.643 -0.5071  0.3889 -0.3015
  537TMC3    C3 7968   0.686   2.818  16.771  0.7388 -0.2241 -0.0492
  537TMC3    C4 7969   0.511   2.618  16.711 -0.0832 -0.0415  0.0549
  537TMC3    C5 7970   0.559   2.630  16.839  0.0598 -0.6503 -0.2567
  537TMC3    C6 7971   0.662   2.721  16.865  0.2608  0.8070  0.3271
  537TMC3     C 7972   0.538   2.671  16.485 -0.1281 -0.0698 -0.8054
  537TMC3     O 7973   0.573   2.758  16.405 -0.4169  0.0521  0.3322
  537TMC3     H 7974   0.676   2.876  16.570  2.2716 -0.5831 -0.0314
  537TMC3    H1 7975   0.430   2.548  16.694 -0.4077  0.6455 -1.2239
  537TMC3    H2 7976   0.694   2.742  16.967  1.1908 -1.6752  0.5371
  537TMC3    C7 7977   0.480   2.583  16.947  0.3421  0.1599  0.4804
  537TMC3    C8 7978   0.801   2.902  16.791  0.7972  0.3070 -0.8051
  537TMC3    O1 7979   0.360   2.570  16.929 -0.3812 -0.1520  0.2000
  537TMC3    O2 7980   0.885   2.853  16.866 -0.9603  0.2271  0.2291
  538TMC3    C1 7981   2.336   1.319  11.009 -0.1033  0.1380  0.1170
  538TMC3    C2 7982   2.459   1.339  10.945  0.8475  0.2162 -0.1665
  538TMC3    C3 7983   2.458   1.385  10.813  0.1702  0.3220  0.5437
  538TMC3    C4 7984   2.221   1.350  10.938  0.2163  0.4971  0.7104
  538TMC3    C5 7985   2.223   1.399  10.808  0.7453 -0.0415  0.4997
  538TMC3    C6 7986   2.342   1.422  10.750 -0.3139  1.0634  0.1370
  538TMC3     C 7987   2.324   1.351  11.148  0.1891 -0.1728 -0.9282
  538TMC3     O 7988   2.222   1.409  11.184 -0.4342  0.5065  0.0942
  538TMC3     H 7989   2.551   1.297  10.983  0.5605 -1.8787 -1.7703
  538TMC3    H1 7990   2.123   1.340  10.982  0.6241  1.6289  1.8833
  538TMC3    H2 7991   2.348   1.448  10.645 -0.1299  1.3476  0.2177
  538TMC3    C7 7992   2.107   1.437  10.728 -0.2430  0.3663  0.5817
  538TMC3    C8 7993   2.564   1.340  10.733  0.3289 -0.1702  0.3183
  538TMC3    O1 7994   2.011   1.359  10.729  0.1426 -0.0381  0.2780
  538TMC3    O2 7995   2.632   1.252  10.786 -0.6732  0.2886 -0.0053
  539MPD2     C 7996   2.368   0.613  11.759 -0.1375  0.0975  0.1529
  539MPD2    C1 7997   2.279   0.617  11.654  0.0706 -0.6138  0.6792
  539MPD2    C2 7998   2.237   0.745  11.610 -0.1656 -0.9247  0.3315
  539MPD2    C3 7999   2.280   0.858  11.673  0.2746  0.5101  0.7353
  539MPD2    C4 8000   2.373   0.850  11.772  0.7502  0.0214 -0.2277
  539MPD2    C5 8001   2.421   0.725  11.809  0.0837 -0.5511 -0.2994
  539MPD2     H 8002   2.157   0.747  11.537  0.0457 -2.2495  0.0564
  539MPD2    H1 8003   2.419   0.936  11.819  1.5110 -0.5216  0.0216
  539MPD2    H2 8004   2.404   0.517  11.793 -0.7688  0.8503  3.0237
  539MPD2    H3 8005   2.495   0.711  11.887  0.1341  1.2615 -0.0312
  539MPD2     N 8006   2.232   0.984  11.642  0.4337 -0.2776  0.6616
  539MPD2    H5 8007   2.260   1.062  11.701 -1.8370  0.3435  0.9469
  539MPD2    N1 8008   2.222   0.501  11.602  0.4962 -0.2210  0.0766
  539MPD2    H7 8009   2.172   0.501  11.514 -0.2438  0.7793  0.5015
  540TMC3    C1 8010   2.082   1.149  11.558 -0.5130  0.2587 -0.6878
  540TMC3    C2 8011   2.067   1.209  11.433 -1.0364  0.3476 -0.4863
  540TMC3    C3 8012   2.016   1.337  11.425  0.5960 -0.3119  0.3837
  540TMC3    C4 8013   2.043   1.213  11.676  0.0280 -0.9847  0.2099
  540TMC3    C5 8014   1.996   1.341  11.659  0.5847  0.1719  0.3917
  540TMC3    C6 8015   1.973   1.396  11.536  0.4261  0.1017 -0.8327
  540TMC3     C 8016   2.138   1.021  11.546 -0.4761 -0.8001  1.3533
  540TMC3     O 8017   2.097   0.959  11.450  0.3816  0.3000 -0.6439
  540TMC3     H 8018   2.110   1.167  11.343  0.5362  2.2261 -0.5997
  540TMC3    H1 8019   2.068   1.164  11.769 -3.3217 -1.0642  1.0819
  540TMC3    H2 8020   1.909   1.484  11.531 -2.3569 -1.9671 -2.1456
  540TMC3    C7 8021   1.930   1.391  11.781 -0.8153  0.0522  0.1100
  540TMC3    C8 8022   1.929   1.359  11.304 -0.1847 -0.0161  0.0857
  540TMC3    O1 8023   1.903   1.308  11.868  0.2905 -0.2193  0.8590
  540TMC3    O2 8024   1.878   1.471  11.294  0.2002 -0.1383  0.2509
  541MPD2     C 8025   0.248   2.355  13.372  0.3914  0.9841  0.1900
  541MPD2    C1 8026   0.203   2.262  13.278 -0.5547 -0.2571 -0.3396
  541MPD2    C2 8027   0.251   2.279  13.151  0.0637  0.2558  0.1892
  541MPD2    C3 8028   0.321   2.392  13.104  0.2721  0.5679 -0.0457
  541MPD2    C4 8029   0.349   2.482  13.195  0.1051 -0.0030 -0.2734
  541MPD2    C5 8030   0.322   2.462  13.326 -0.4356  0.4915  0.0882
  541MPD2     H 8031   0.237   2.189  13.092 -2.4675  0.6008  0.2639
  541MPD2    H1 8032   0.411   2.566  13.165  0.2115 -1.0568 -3.0193
  541MPD2    H2 8033   0.216   2.354  13.475 -1.1783  0.1159 -0.3104
  541MPD2    H3 8034   0.348   2.535  13.401 -1.5203 -0.0428  0.9850
  541MPD2     N 8035   0.344   2.425  12.969 -0.5718 -0.0278  0.7057
  541MPD2    H5 8036   0.365   2.520  12.941  1.3747 -0.7804 -0.3805
  541MPD2    N1 8037   0.128   2.144  13.301  0.7127  0.0445  0.4293
  541MPD2    H7 8038   0.099   2.090  13.220  0.7834  0.2456  0.2708
  542TMC3    C1 8039   0.338   2.398  12.731  0.6031 -0.1744 -0.3481
  542TMC3    C2 8040   0.397   2.325  12.638 -0.4225 -0.1293 -0.0644
  542TMC3    C3 8041   0.409   2.368  12.511 -0.0020 -0.4292 -0.1396
  542TMC3    C4 8042   0.280   2.522  12.714 -0.0394 -0.0471 -0.1106
  542TMC3    C5 8043   0.287   2.560  12.582  0.1064  0.1733  0.4520
  542TMC3    C6 8044   0.347   2.487  12.484 -0.1664  0.5226  0.7946
  542TMC3     C 8045   0.326   2.337  12.859  0.3581 -0.4636 -0.4559
  542TMC3     O 8046   0.324   2.215  12.870  0.4800 -0.4366 -0.0517
  542TMC3     H 8047   0.426   2.224  12.665 -0.2774 -0.8852 -3.0582
  542TMC3    H1 8048   0.235   2.585  12.789 -1.1556  0.0899 -0.8905
  542TMC3    H2 8049   0.356   2.520  12.381  1.3791  2.2932  1.5101
  542TMC3    C7 8050   0.222   2.678  12.530  0.6910  0.0286  0.4180
  542TMC3    C8 8051   0.477   2.302  12.395  0.1566  0.7145  0.2022
  542TMC3    O1 8052   0.222   2.708  12.412 -0.1324  0.0778 -0.5474
  542TMC3    O2 8053   0.413   2.288  12.292  0.1467 -0.3862 -0.7092
  543TMC3    C1 8054   4.283   3.044  17.226 -0.4580  0.5773 -0.0461
  543TMC3    C2 8055   4.387   2.953  17.235  0.4376  0.0839 -0.4744
  543TMC3    C3 8056   4.365   2.845  17.318  0.0153 -0.1592  0.0425
  543TMC3    C4 8057   4.160   3.023  17.286  0.1202  0.5507 -0.5704
  543TMC3    C5 8058   4.131   2.906  17.363 -0.2301 -0.1645 -0.2967
  543TMC3    C6 8059   4.242   2.818  17.382 -0.1729  0.2889 -0.5819
  543TMC3     C 8060   4.316   3.149  17.129 -0.0421  0.7329  0.6095
  543TMC3     O 8061   4.416   3.130  17.059 -0.0008 -0.2944  0.1466
  543TMC3     H 8062   4.487   2.982  17.202 -0.6494  2.3790 -1.7453
  543TMC3    H1 8063   4.072   3.085  17.272 -0.8534 -0.5577  0.5198
  543TMC3    H2 8064   4.219   2.723  17.427  2.5800  0.4279  1.0806
  543TMC3    C7 8065   4.012   2.909  17.443 -0.4109 -0.0637 -0.0449
  543TMC3    C8 8066   4.470   2.746  17.317  0.5510 -0.1113  0.1449
  543TMC3    O1 8067   3.938   3.006  17.430 -0.8161  0.7238 -0.0866
  543TMC3    O2 8068   4.467   2.674  17.414 -0.4573  0.0066 -0.9380
  544MPD2     C 8069   0.073   2.405  17.103 -0.4094  0.4772 -0.3575
  544MPD2    C1 8070   0.034   2.420  17.230  0.4688 -0.1185  0.3756
  544MPD2    C2 8071   4.680   2.531  17.269  0.1992 -0.3032  0.1165
  544MPD2    C3 8072   4.629   2.619  17.171  0.8002 -0.3943  0.2986
  544MPD2    C4 8073   4.671   2.603  17.040  0.7609 -0.2062  0.0780
  544MPD2    C5 8074   0.033   2.498  17.010  0.4941  0.3596 -0.0127
  544MPD2     H 8075   4.657   2.554  17.372  0.9150 -1.2442  0.4822
  544MPD2    H1 8076   4.644   2.678  16.967 -0.4785 -0.7100  0.0229
  544MPD2    H2 8077   0.119   2.310  17.075  1.1284  0.8754  0.7907
  544MPD2    H3 8078   0.061   2.488  16.906 -1.8114 -0.3234 -0.5443
  544MPD2     N 8079   4.542   2.732  17.198 -0.2139  0.3076 -0.8821
  544MPD2    H5 8080   4.518   2.777  17.110  3.3219  0.4325 -1.7665
  544MPD2    N1 8081   0.071   2.318  17.325 -0.4165 -0.1967 -0.4419
  544MPD2    H7 8082   0.110   2.235  17.282  0.3908  0.0080 -0.1046
  545TMC3    C1 8083   0.097   2.203  17.534  0.1389  0.8160 -0.2098
  545TMC3    C2 8084   0.216   2.152  17.497  0.1725  0.8275 -0.4000
  545TMC3    C3 8085   0.249   2.028  17.555 -0.1743 -0.0222 -0.1599
  545TMC3    C4 8086   0.019   2.149  17.627  0.1015 -0.5798  0.0436
  545TMC3    C5 8087   0.052   2.031   0.001 -0.4777 -0.1026  0.8340
  545TMC3    C6 8088   0.172   1.969  17.650 -1.2688 -0.0939  0.4981
  545TMC3     C 8089   0.031   2.309  17.460  0.0447  0.2897 -0.4635
  545TMC3     O 8090   4.687   2.390  17.526 -0.5461  0.1446  0.0275
  545TMC3     H 8091   0.280   2.196  17.422  1.7936 -1.6461 -0.4935
  545TMC3    H1 8092   4.645   2.200  17.649  3.0665  4.5531  0.6544
  545TMC3    H2 8093   0.189   1.875   0.022  0.4051 -1.2974 -2.2604
  545TMC3    C7 8094   4.705   1.987   0.129  0.2961 -0.5066 -0.1460
  545TMC3    C8 8095   0.344   1.943  17.485  0.5147  0.6828  0.2548
  545TMC3    O1 8096   4.711   1.867   0.153 -0.5283  0.4603  0.0503
  545TMC3    O2 8097   0.430   2.001  17.420  0.1835  0.6076  0.0683
  546MPD2     C 8098   1.158   3.104  17.478  0.0530 -0.6803  0.4968
  546MPD2    C1 8099   1.078   3.163  17.378  0.1398 -0.5632  0.1789
  546MPD2    C2 8100   1.069   3.300  17.386 -0.0725  0.1213 -0.0653
  546MPD2    C3 8101   1.128   3.370  17.486 -0.0547 -0.4495 -0.1094
  546MPD2    C4 8102   1.221   3.308  17.574  0.4685 -0.3285  0.3502
  546MPD2    C5 8103   1.236   3.172  17.565  0.2900  0.6615  0.4502
  546MPD2     H 8104   1.005   3.350  17.314 -1.0832  1.0463  1.4958
  546MPD2    H1 8105   1.277   3.356  17.652  1.5295 -0.5519 -0.2777
  546MPD2    H2 8106   1.174   2.997  17.470 -1.2447 -0.7768 -0.8800
  546MPD2    H3 8107   1.310   3.126  17.630  2.6251  0.6054 -2.2080
  546MPD2     N 8108   1.122   3.516  17.495 -0.1443  0.4101  0.0929
  546MPD2    H5 8109   1.177   3.558  17.570 -2.3509  0.6206  1.5994
  546MPD2    N1 8110   0.995   3.087  17.296 -0.2129  0.1096  0.2917
  546MPD2    H7 8111   0.975   2.991  17.325 -1.8476  0.2353 -0.4255
  547TMC3    C1 8112   0.828   3.083  17.134 -0.4834 -0.8953 -0.1957
  547TMC3    C2 8113   0.759   3.181  17.071  1.1915 -0.4419 -0.5229
  547TMC3    C3 8114   0.623   3.189  17.086 -0.6211 -0.0683 -0.7575
  547TMC3    C4 8115   0.768   2.989  17.209 -0.3112 -0.4917 -0.1529
  547TMC3    C5 8116   0.637   3.001  17.225 -0.3216  0.2973 -0.2932
  547TMC3    C6 8117   0.560   3.106  17.173 -0.9587 -0.2935 -0.1977
  547TMC3     C 8118   0.953   3.137  17.178 -0.2109 -0.0911 -0.4233
  547TMC3     O 8119   0.997   3.235  17.113  0.8372 -0.0566 -0.0602
  547TMC3     H 8120   0.806   3.241  16.993  0.6946 -1.1311 -1.3563
  547TMC3    H1 8121   0.818   2.899  17.245  1.5645  0.1560 -1.0981
  547TMC3    H2 8122   0.451   3.109  17.172 -0.9216  1.4400  0.6405
  547TMC3    C7 8123   0.575   2.916  17.326 -0.3927  0.0763 -0.0154
  547TMC3    C8 8124   0.543   3.295  17.025 -0.5603  0.2319  0.1037
  547TMC3    O1 8125   0.646   2.866  17.415 -0.3399 -1.0368 -0.2698
  547TMC3    O2 8126   0.425   3.274  16.990 -0.0646  0.7424  1.0346
  548MPD2     C 8127   0.950   4.205  11.843  0.4359 -0.0269  0.1345
  548MPD2    C1 8128   0.926   4.120  11.957  0.5961 -0.5966  0.2911
  548MPD2    C2 8129   1.036   4.039  11.993 -0.7326  0.2091 -0.1856
  548MPD2    C3 8130   1.144   4.025  11.915  0.3639  0.1284 -1.0281
  548MPD2    C4 8131   1.148   4.088  11.795  0.9824  0.8821  0.6580
  548MPD2    C5 8132   1.056   4.184  11.759 -0.3069 -0.3295  0.5697
  548MPD2     H 8133   1.042   3.978  12.082 -1.7793 -0.5759 -0.6494
  548MPD2    H1 8134   1.236   4.075  11.732  0.4379 -1.2788  0.3723
  548MPD2    H2 8135   0.874   4.278  11.818  0.2038  0.4827  2.2546
  548MPD2    H3 8136   1.059   4.249  11.672  0.0609 -0.8449  0.2005
  548MPD2     N 8137   1.240   3.927  11.954  0.3313  0.4186  0.2822
  548MPD2    H5 8138   1.247   3.898  12.051 -2.2364 -1.1993 -0.0180
  548MPD2    N1 8139   0.805   4.134  12.024 -0.1205 -0.2083  0.8101
  548MPD2    H7 8140   0.737   4.201  11.991 -0.9669 -1.6967 -0.5038
  549TMC3    C1 8141   0.610   4.052  12.125  0.7957 -0.6105 -0.0007
  549TMC3    C2 8142   0.544   4.172  12.115 -0.5512  0.0868  0.2116
  549TMC3    C3 8143   0.412   4.181  12.138 -0.0699  0.1183 -0.3540
  549TMC3    C4 8144   0.540   3.935  12.145  0.4561  0.1895  0.2880
  549TMC3    C5 8145   0.404   3.941  12.165  0.6804  0.2780  0.0240
  549TMC3    C6 8146   0.345   4.060  12.152 -0.0037  0.6042 -0.4475
  549TMC3     C 8147   0.758   4.042  12.118 -0.5075 -0.2088  0.0533
  549TMC3     O 8148   0.813   3.937  12.148  0.1868  0.2276 -0.1977
  549TMC3     H 8149   0.608   4.259  12.108  0.7115 -0.9510 -1.0897
  549TMC3    H1 8150   0.607   3.851  12.142 -0.9354 -0.9839  2.0743
  549TMC3    H2 8151   0.237   4.067  12.157 -0.0917 -0.8817 -0.3262
  549TMC3    C7 8152   0.322   3.819  12.165 -0.0620 -0.2304  0.1389
  549TMC3    C8 8153   0.352   4.296  12.195 -0.3517  0.1510 -0.1644
  549TMC3    O1 8154   0.199   3.833  12.172 -0.1885  0.0371 -0.0246
  549TMC3    O2 8155   0.233   4.306  12.173  0.2132 -0.0983 -0.0242
  550TMC3    C1 8156   4.014   1.820  11.476 -0.0342 -0.0715 -0.9306
  550TMC3    C2 8157   4.050   1.864  11.600  0.0269  0.7213 -0.5458
  550TMC3    C3 8158   3.960   1.865  11.703  0.5307  0.2093  0.0247
  550TMC3    C4 8159   3.889   1.771  11.451  0.5917  0.2033 -0.1746
  550TMC3    C5 8160   3.797   1.790  11.546  0.2037 -0.5863  0.0277
  550TMC3    C6 8161   3.833   1.823  11.672  0.4137 -0.2712  0.5426
  550TMC3     C 8162   4.123   1.778  11.388 -0.2888 -0.4161  0.7684
  550TMC3     O 8163   4.224   1.766  11.452  0.1327  0.0655  0.3925
  550TMC3     H 8164   4.144   1.914  11.623 -0.5913  2.5539 -1.9412
  550TMC3    H1 8165   3.856   1.719  11.361 -0.6925 -0.2018  0.5260
  550TMC3    H2 8166   3.760   1.843  11.749 -0.6381  1.2065 -0.8279
  550TMC3    C7 8167   3.656   1.774  11.517 -0.3149  0.5655 -0.1098
  550TMC3    C8 8168   3.960   1.972  11.800  0.5430  0.5255  0.3868
  550TMC3    O1 8169   3.588   1.771  11.617 -0.6615 -0.1907 -0.1342
  550TMC3    O2 8170   3.857   2.037  11.827  0.3966 -0.1440 -0.1332
  551TMC3    C1 8171   1.855   4.459  13.316 -0.1616  0.3784 -0.3310
  551TMC3    C2 8172   1.980   4.474  13.266 -0.2064  0.0622 -0.0018
  551TMC3    C3 8173   2.082   4.463  13.349  0.4201 -0.2923 -0.3421
  551TMC3    C4 8174   1.831   4.443  13.450  0.4638  0.5823  0.4535
  551TMC3    C5 8175   1.939   4.425  13.531 -0.1247 -0.4641  0.9156
  551TMC3    C6 8176   2.065   4.431  13.478 -0.2084 -0.4899 -0.4268
  551TMC3     C 8177   1.748   4.439  13.224  0.0114  0.0299  0.5844
  551TMC3     O 8178   1.770   4.398  13.112  0.0479 -0.0425 -0.0842
  551TMC3     H 8179   1.982   4.466  13.158 -4.2792  1.2718 -0.1678
  551TMC3    H1 8180   1.733   4.422  13.492  0.3149 -0.7227 -0.5402
  551TMC3    H2 8181   2.143   4.413  13.551 -0.2895 -1.7849 -0.6588
  551TMC3    C7 8182   1.920   4.438  13.678 -0.4371 -0.2792  0.3338
  551TMC3    C8 8183   2.214   4.514  13.311 -0.2290 -0.0999  0.5292
  551TMC3    O1 8184   2.012   4.401  13.752  0.0557  0.4502  0.2323
  551TMC3    O2 8185   2.300   4.518  13.395  0.4211  0.2786  0.4130
  552MPD2     C 8186   3.639   1.590  13.678  0.3939  0.3277  0.3216
  552MPD2    C1 8187   3.618   1.524  13.794  0.3567  0.3964  0.0213
  552MPD2    C2 8188   3.726   1.521  13.885 -0.8901 -0.1140 -0.5325
  552MPD2    C3 8189   3.841   1.591  13.862  0.1325 -0.7396 -0.0949
  552MPD2    C4 8190   3.854   1.658  13.745  0.0252 -0.5274  0.4706
  552MPD2    C5 8191   3.751   1.662  13.655  0.1666 -0.3285  0.5616
  552MPD2     H 8192   3.718   1.465  13.977 -0.1724 -0.8509 -0.9206
  552MPD2    H1 8193   3.949   1.705  13.720  0.3851 -0.9918  0.9713
  552MPD2    H2 8194   3.564   1.597  13.600  1.1940  1.6574 -0.3366
  552MPD2    H3 8195   3.771   1.705  13.557  2.4290  1.0372  1.6247
  552MPD2     N 8196   3.953   1.601  13.955 -0.2848  0.0808 -0.3491
  552MPD2    H5 8197   4.045   1.628  13.921 -0.0081  0.3215  0.5774
  552MPD2    N1 8198   3.499   1.451  13.822 -0.3916  0.6755 -0.7445
  552MPD2    H7 8199   3.506   1.388  13.901 -0.9761  0.7170 -0.6632
  553TMC3    C1 8200   3.304   1.325  13.789  0.2927 -0.8186 -0.6248
  553TMC3    C2 8201   3.247   1.246  13.693 -0.4907  0.4259 -0.8357
  553TMC3    C3 8202   3.220   1.115  13.726 -0.2847 -0.2285  0.0148
  553TMC3    C4 8203   3.313   1.284  13.923  0.4334 -0.5696  0.1449
  553TMC3    C5 8204   3.286   1.158  13.953  0.2884  0.0232  0.2082
  553TMC3    C6 8205   3.235   1.076  13.856  0.2817  0.2809 -0.1795
  553TMC3     C 8206   3.389   1.440  13.743 -0.1671  0.8518 -0.2292
  553TMC3     O 8207   3.364   1.486  13.633 -0.2762 -0.1186  0.2398
  553TMC3     H 8208   3.266   1.277  13.591  2.5821 -0.0172 -0.4049
  553TMC3    H1 8209   3.357   1.348  13.998 -0.7905  0.5650 -0.1130
  553TMC3    H2 8210   3.243   0.970  13.876  1.1279  0.3184 -0.2992
  553TMC3    C7 8211   3.371   1.092  14.056 -0.4874  0.1335  0.4169
  553TMC3    C8 8212   3.277   1.026  13.625  0.7963  0.2013  0.0129
  553TMC3    O1 8213   3.301   1.032  14.137  0.1865  0.2445 -0.0006
  553TMC3    O2 8214   3.350   1.074  13.540  0.2324  0.9862 -0.0191
  554TMC3    C1 8215   0.878   0.772  11.399 -0.4337  0.5630  0.3738
  554TMC3    C2 8216   0.848   0.699  11.288 -0.0880 -0.4341  0.3571
  554TMC3    C3 8217   0.941   0.689  11.192  0.4312  0.0093  0.5174
  554TMC3    C4 8218   0.988   0.848  11.408  0.6920 -0.3644 -0.3959
  554TMC3    C5 8219   1.080   0.844  11.308  0.9256 -0.6219 -0.4989
  554TMC3    C6 8220   1.058   0.762  11.201  1.1021 -0.2974  0.0658
  554TMC3     C 8221   0.816   0.726  11.523  0.4296  0.5149 -0.7680
  554TMC3     O 8222   0.701   0.679  11.517 -0.7831 -0.0941 -0.1216
  554TMC3     H 8223   0.755   0.642  11.286 -1.3920  1.7464 -1.3796
  554TMC3    H1 8224   0.995   0.923  11.485 -2.3365  0.8901 -1.3070
  554TMC3    H2 8225   1.132   0.752  11.123  1.3282 -2.0277  0.4969
  554TMC3    C7 8226   1.122   0.972  11.250 -0.3895 -0.3473  0.0818
  554TMC3    C8 8227   0.913   0.634  11.061  0.2048 -0.7605  1.3181
  554TMC3    O1 8228   1.066   0.995  11.142 -0.7085  0.2186  0.1501
  554TMC3    O2 8229   1.005   0.626  10.981 -0.1776  0.3764  0.2712
  555TMC3    C1 8230   4.442   0.339  15.167  0.0929 -1.0208 -0.0842
  555TMC3    C2 8231   4.432   0.401  15.291  1.0863 -0.3719  0.1734
  555TMC3    C3 8232   4.485   0.334  15.395 -0.2327  0.1575 -0.8091
  555TMC3    C4 8233   4.478   0.203  15.156  0.3986  0.8712  0.1168
  555TMC3    C5 8234   4.514   0.140  15.274  0.0512  0.3456  0.1765
  555TMC3    C6 8235   4.531   0.203  15.392  0.3441 -0.0395 -0.8738
  555TMC3     C 8236   4.407   0.407  15.044  0.8290 -0.2627  0.1425
  555TMC3     O 8237   4.357   0.340  14.950 -0.1646 -0.1191 -0.3262
  555TMC3     H 8238   4.388   0.499  15.300 -0.7023 -0.8843 -2.8743
  555TMC3    H1 8239   4.467   0.149  15.063  0.9422 -2.7515  2.1728
  555TMC3    H2 8240   4.545   0.146  15.484 -0.9068  1.5427  0.2895
  555TMC3    C7 8241   4.569   0.001  15.258  0.6332 -0.2640  0.0651
  555TMC3    C8 8242   4.497   0.420  15.514  0.4299  0.3547  0.5081
  555TMC3    O1 8243   4.536   4.662  15.156  0.2722 -0.3294  0.5220
  555TMC3    O2 8244   4.416   0.515  15.520  0.3223 -0.0680 -0.0836
  556MPD2     C 8245   3.213   2.485  10.318 -0.2368  0.5042 -0.4455
  556MPD2    C1 8246   3.231   2.375  10.403  0.5256  0.4524  0.6905
  556MPD2    C2 8247   3.194   2.251  10.354 -0.5596  0.0946 -0.2779
  556MPD2    C3 8248   3.124   2.240  10.233  0.0664  0.1707  0.2532
  556MPD2    C4 8249   3.124   2.348  10.153  0.4833 -0.7344 -0.2519
  556MPD2    C5 8250   3.163   2.474  10.190 -0.1508  0.6738  0.0189
  556MPD2     H 8251   3.205   2.163  10.416 -2.5761 -0.4891 -0.7383
  556MPD2    H1 8252   3.073   2.351  10.057  1.0912 -1.3400 -0.5947
  556MPD2    H2 8253   3.254   2.581  10.345 -1.0543  0.3942  1.2198
  556MPD2    H3 8254   3.148   2.563  10.130 -1.5639 -0.1841 -0.9084
  556MPD2     N 8255   3.074   2.115  10.198  0.5419  0.9323  0.3723
  556MPD2    H5 8256   3.087   2.038  10.264 -1.3292 -0.4507 -0.8858
  556MPD2    N1 8257   3.262   2.393  10.536  0.1975 -0.3701 -0.4097
  556MPD2    H7 8258   3.291   2.309  10.583 -0.4159 -1.3742 -1.8301
  557TMC3    C1 8259   2.954   1.961  10.061  0.4365  0.1289 -0.2574
  557TMC3    C2 8260   2.918   1.916   9.941  1.0573 -0.0581  1.3164
  557TMC3    C3 8261   2.888   1.785   9.927 -0.8183 -0.5007 -0.4769
  557TMC3    C4 8262   2.941   1.885  10.176 -0.2524 -0.4050  0.0259
  557TMC3    C5 8263   2.911   1.749  10.154 -0.0434  0.1012 -0.8326
  557TMC3    C6 8264   2.877   1.699  10.032 -0.2285 -0.2335 -0.5313
  557TMC3     C 8265   3.033   2.087  10.070 -0.9637 -0.4109  0.2007
  557TMC3     O 8266   3.028   2.153   9.966 -0.0664 -0.7891  0.4997
  557TMC3     H 8267   2.913   1.984   9.857 -1.0557  0.3965  1.7891
  557TMC3    H1 8268   2.958   1.917  10.279 -2.5893  1.8258 -0.2619
  557TMC3    H2 8269   2.844   1.598  10.008 -1.4768 -0.3143  1.5397
  557TMC3    C7 8270   2.870   1.673  10.265 -0.8711  0.0195  0.4417
  557TMC3    C8 8271   2.824   1.748   9.806  0.2002  0.4950  0.7911
  557TMC3    O1 8272   2.836   1.735  10.366 -1.1207  0.0634 -0.0765
  557TMC3    O2 8273   2.797   1.847   9.734  0.3328  0.0499  0.5478
  558TMC3    C1 8274   1.168   4.555   9.736 -0.9467 -0.1653  0.1467
  558TMC3    C2 8275   1.048   4.522   9.787  0.4381  0.2720 -0.1954
  558TMC3    C3 8276   0.935   4.583   9.743 -1.2046 -0.3937 -0.2378
  558TMC3    C4 8277   1.192   4.647   9.640 -0.1029 -0.4901 -0.6786
  558TMC3    C5 8278   1.071   4.703   9.593 -1.0388  0.3615 -0.1178
  558TMC3    C6 8279   0.944   4.675   9.642  0.1245  0.4976  0.6387
  558TMC3     C 8280   1.281   4.497   9.797  0.4598  0.0489  0.4073
  558TMC3     O 8281   1.380   4.570   9.806 -0.2702  0.3458  0.0077
  558TMC3     H 8282   1.057   4.466   9.880 -1.0908 -0.4222 -0.4724
  558TMC3    H1 8283   1.289   4.659   9.593 -0.0080 -0.3599 -0.4529
  558TMC3    H2 8284   0.856   0.008   9.607 -0.3829 -0.5082  0.4042
  558TMC3    C7 8285   1.077   0.011   9.451 -0.2733  0.3364 -0.3651
  558TMC3    C8 8286   0.808   4.573   9.807  0.3043  0.4911  0.2760
  558TMC3    O1 8287   1.186   0.042   9.401 -0.3132  0.1142 -0.1961
  558TMC3    O2 8288   0.704   4.603   9.752 -0.0971 -0.1471  0.2605
  559MPD2     C 8289   0.969   0.177  10.295  1.3480 -1.0704 -0.1697
  559MPD2    C1 8290   0.880   0.160  10.399 -0.3383  0.3008 -0.0963
  559MPD2    C2 8291   0.912   0.199  10.531 -0.1675  0.0808 -0.1857
  559MPD2    C3 8292   1.039   0.250  10.556  0.8743 -0.0620 -0.0486
  559MPD2    C4 8293   1.131   0.263  10.453  1.0386 -0.5887  0.7636
  559MPD2    C5 8294   1.094   0.229  10.326 -0.0669 -0.4232  0.0337
  559MPD2     H 8295   0.838   0.209  10.610  0.1475  1.2908 -0.0359
  559MPD2    H1 8296   1.234   0.292  10.469  1.7578 -0.5924 -3.6848
  559MPD2    H2 8297   0.949   0.140  10.195 -0.6825 -0.3863 -0.0165
  559MPD2    H3 8298   1.166   0.228  10.246 -1.1623 -1.0513 -0.9440
  559MPD2     N 8299   1.067   0.281  10.689  0.6696 -0.2829  0.0929
  559MPD2    H5 8300   0.999   0.273  10.765 -0.7653  1.8803 -0.9477
  559MPD2    N1 8301   0.752   0.117  10.360 -0.6085 -0.2963 -0.2634
  559MPD2    H7 8302   0.737   0.111  10.260 -1.6509  0.6170 -0.1674
  560TMC3    C1 8303   1.177   0.343  10.886  0.4479  0.6586 -0.5753
  560TMC3    C2 8304   1.054   0.321  10.951 -0.3052  0.0783 -0.5678
  560TMC3    C3 8305   1.060   0.314  11.086  0.1293  0.1971  1.2124
  560TMC3    C4 8306   1.296   0.367  10.952  0.2517 -0.2200  0.1185
  560TMC3    C5 8307   1.294   0.361  11.090 -0.0816  0.0950  0.1469
  560TMC3    C6 8308   1.176   0.343  11.154  0.2748  0.3758 -0.2628
  560TMC3     C 8309   1.182   0.340  10.740 -0.1303  0.1904  0.1003
  560TMC3     O 8310   1.280   0.379  10.680  0.1025  0.2129 -0.3357
  560TMC3     H 8311   0.959   0.311  10.900 -1.6309  0.3419  1.8665
  560TMC3    H1 8312   1.384   0.387  10.892  0.8209 -2.0230  0.3499
  560TMC3    H2 8313   1.178   0.339  11.262  1.3688 -0.6241 -0.3148
  560TMC3    C7 8314   1.415   0.326  11.168 -0.5706  0.4044 -0.0255
  560TMC3    C8 8315   0.970   0.219  11.157  0.1291 -0.6392  0.5156
  560TMC3    O1 8316   1.401   0.245  11.256 -0.1535  0.0842  0.0822
  560TMC3    O2 8317   0.861   0.199  11.113 -0.2570  0.0357 -0.2200
  561TMC3    C1 8318   3.698   4.220  11.565 -0.8811  0.0186  0.3684
  561TMC3    C2 8319   3.603   4.149  11.621 -0.7067 -0.0137  0.5601
  561TMC3    C3 8320   3.474   4.186  11.608  0.1238 -0.3116  0.1419
  561TMC3    C4 8321   3.674   4.325  11.484 -0.3391 -0.4356  0.4042
  561TMC3    C5 8322   3.542   4.362  11.482  0.8179 -0.0979  0.4882
  561TMC3    C6 8323   3.440   4.301  11.545  0.1791 -0.0159 -0.2037
  561TMC3     C 8324   3.836   4.195  11.613 -0.2804 -0.4877 -0.5872
  561TMC3     O 8325   3.856   4.083  11.660 -0.4694  0.3617 -0.2149
  561TMC3     H 8326   3.627   4.073  11.695 -1.0957  0.0547  0.7543
  561TMC3    H1 8327   3.747   4.388  11.433 -2.0626  1.5634  0.3917
  561TMC3    H2 8328   3.338   4.319  11.514  0.6526  1.6756 -0.7614
  561TMC3    C7 8329   3.497   4.486  11.410 -0.6010 -0.3381 -0.5138
  561TMC3    C8 8330   3.385   4.099  11.684 -1.0080  0.1739 -0.3489
  561TMC3    O1 8331   3.377   4.507  11.401  0.0478 -0.0649  0.0917
  561TMC3    O2 8332   3.391   3.978  11.665  0.1063 -0.1011  0.4449
  562TMC3    C1 8333   4.416   0.404  16.059 -0.0526  0.5563  0.8919
  562TMC3    C2 8334   4.348   0.507  16.005  0.2772 -0.2834 -0.3417
  562TMC3    C3 8335   4.310   0.495  15.878  0.1535  0.1792 -0.6130
  562TMC3    C4 8336   4.435   0.272  16.005  0.0787 -0.5142  0.1831
  562TMC3    C5 8337   4.379   0.268  15.881 -0.6152  0.4639 -0.1558
  562TMC3    C6 8338   4.323   0.376  15.816  0.7567 -0.1643 -0.2545
  562TMC3     C 8339   4.455   0.424  16.196 -0.5338 -0.3414  0.1030
  562TMC3     O 8340   4.550   0.357  16.229  0.8554  0.1990 -0.5563
  562TMC3     H 8341   4.346   0.605  16.052  0.5119 -1.4561  2.0562
  562TMC3    H1 8342   4.490   0.199  16.062  1.4446 -0.3050 -0.8641
  562TMC3    H2 8343   4.293   0.360  15.713  0.5685  0.2019 -0.2531
  562TMC3    C7 8344   4.403   0.152  15.798 -0.1520  0.4520 -0.3477
  562TMC3    C8 8345   4.201   0.585  15.836  0.7150  0.3117 -0.3852
  562TMC3    O1 8346   4.394   0.159  15.674  0.1678 -0.1197  0.3293
  562TMC3    O2 8347   4.146   0.636  15.933 -0.1716 -0.8876  0.1484
  563MPD2     C 8348   2.101   1.900  15.609 -0.2435  0.4947 -0.0077
  563MPD2    C1 8349   2.115   1.922  15.744  0.8490  0.5276  0.3448
  563MPD2    C2 8350   2.225   1.872  15.807  0.7926  0.4031 -0.1343
  563MPD2    C3 8351   2.330   1.818  15.736 -0.1656 -0.1378 -0.3325
  563MPD2    C4 8352   2.329   1.809  15.596  0.2099  0.1496 -0.0419
  563MPD2    C5 8353   2.210   1.843  15.541 -0.6021  0.5990 -0.6456
  563MPD2     H 8354   2.230   1.863  15.915 -0.5864  1.3546 -0.0008
  563MPD2    H1 8355   2.395   1.747  15.537  2.0049  1.4902  0.5879
  563MPD2    H2 8356   2.009   1.928  15.558  0.7808  1.1407 -1.4973
  563MPD2    H3 8357   2.199   1.821  15.436 -1.6906 -1.6765 -0.0450
  563MPD2     N 8358   2.442   1.780  15.813  0.5103  0.2143  0.2597
  563MPD2    H5 8359   2.443   1.815  15.908  2.6332 -0.3264  0.4397
  563MPD2    N1 8360   2.007   1.972  15.814 -0.6693 -0.0587  0.0980
  563MPD2    H7 8361   1.920   1.978  15.763 -0.4217  2.3888 -0.0546
  564TMC3    C1 8362   1.877   2.014  16.010 -0.5567 -1.0284  0.3609
  564TMC3    C2 8363   1.769   1.953  15.951 -0.1581  0.6374 -0.1555
  564TMC3    C3 8364   1.683   1.876  16.032 -0.4274  0.7080 -0.1253
  564TMC3    C4 8365   1.900   2.005  16.145  0.3416 -0.3444  0.0371
  564TMC3    C5 8366   1.823   1.918  16.215  0.2047  1.1289  0.2702
  564TMC3    C6 8367   1.712   1.858  16.162 -0.0377 -0.3579  0.3198
  564TMC3     C 8368   2.006   2.012  15.943 -1.0756  0.6563  0.2696
  564TMC3     O 8369   2.103   2.034  16.011 -0.1355  0.0416  0.2709
  564TMC3     H 8370   1.742   1.956  15.847 -0.1550 -0.3622 -0.1901
  564TMC3    H1 8371   1.984   2.053  16.195  1.6876 -0.0137 -2.5469
  564TMC3    H2 8372   1.648   1.798  16.225  0.4192 -1.1662  0.0183
  564TMC3    C7 8373   1.906   1.821  16.284 -0.5606 -0.0957 -0.2341
  564TMC3    C8 8374   1.645   1.751  15.971 -0.4688  0.0754  0.0551
  564TMC3    O1 8375   1.995   1.861  16.357  0.2936  0.1159 -0.2337
  564TMC3    O2 8376   1.702   1.659  16.034  0.7015  0.0417 -0.1849
  565TMC3    C1 8377   2.808   3.509  10.375  0.0911  0.4715 -0.2820
  565TMC3    C2 8378   2.872   3.469  10.488 -0.4347 -0.1861  0.1017
  565TMC3    C3 8379   2.896   3.336  10.498 -0.8872  0.2281 -0.1907
  565TMC3    C4 8380   2.770   3.417  10.281  0.3312  0.2399  0.4617
  565TMC3    C5 8381   2.798   3.282  10.297  0.7336  0.1237 -0.1584
  565TMC3    C6 8382   2.855   3.241  10.409  0.6068  0.2760  0.2091
  565TMC3     C 8383   2.777   3.648  10.338  0.0362  0.0070  0.1064
  565TMC3     O 8384   2.670   3.665  10.288  0.1819  0.3313  0.1154
  565TMC3     H 8385   2.913   3.544  10.554 -0.1227 -1.9767  1.9235
  565TMC3    H1 8386   2.737   3.461  10.187  1.1762 -0.9971 -0.4167
  565TMC3    H2 8387   2.881   3.137  10.419  0.4013  0.0477 -1.4992
  565TMC3    C7 8388   2.732   3.174  10.224  0.1685  0.1436 -0.2523
  565TMC3    C8 8389   2.924   3.282  10.633  0.9617 -0.8488  0.1585
  565TMC3    O1 8390   2.730   3.074  10.290  0.2360 -0.4310 -0.4690
  565TMC3    O2 8391   2.883   3.350  10.728 -0.0084  0.7070  0.3264
  566MPD2     C 8392   4.019   4.608  14.091  0.1655 -0.5966 -0.5534
  566MPD2    C1 8393   4.010   4.693  13.980  0.8272  0.7068 -0.4078
  566MPD2    C2 8394   3.912   4.659  13.888 -0.2984  0.3175  0.2217
  566MPD2    C3 8395   3.846   4.537  13.897 -0.2983 -0.0963  0.1608
  566MPD2    C4 8396   3.866   4.449  13.998 -0.0633  0.2801  0.8615
  566MPD2    C5 8397   3.962   4.485  14.096  0.7197  0.2992  1.0581
  566MPD2     H 8398   3.895   0.007  13.804 -1.0870 -0.1596  0.0027
  566MPD2    H1 8399   3.823   4.350  14.005 -0.8704  0.4831 -1.2763
  566MPD2    H2 8400   4.091   4.629  14.170 -0.7178 -2.0975  0.6508
  566MPD2    H3 8401   3.992   4.416  14.175  0.5067 -0.2424  0.6647
  566MPD2     N 8402   3.778   4.487  13.786  0.4139 -0.2415 -0.0877
  566MPD2    H5 8403   3.789   4.388  13.767  0.5760 -0.6390  2.0851
  566MPD2    N1 8404   4.096   0.077  13.970  0.4266 -0.6077 -0.2362
  566MPD2    H7 8405   4.145   0.117  14.049 -0.7789 -0.9120  0.6562
  567TMC3    C1 8406   4.254   0.215  13.859  0.1538  0.1583  0.0313
  567TMC3    C2 8407   4.307   0.252  13.739 -0.6512  0.0944 -0.3093
  567TMC3    C3 8408   4.418   0.331  13.742  0.0379 -0.3982  0.1844
  567TMC3    C4 8409   4.303   0.264  13.977  0.1535  0.1876  0.3618
  567TMC3    C5 8410   4.413   0.347  13.977 -0.6751  0.1657 -0.1272
  567TMC3    C6 8411   4.477   0.377  13.857 -0.4067  0.2101  0.4687
  567TMC3     C 8412   4.129   0.141  13.853  0.3414  0.1094 -0.6799
  567TMC3     O 8413   4.078   0.133  13.744 -0.1744  0.5468  0.3124
  567TMC3     H 8414   4.254   0.232  13.646 -1.7379  1.4552  0.0278
  567TMC3    H1 8415   4.243   0.256  14.066  0.5355  1.0593  0.6964
  567TMC3    H2 8416   4.556   0.451  13.862  0.0579 -0.2439 -0.0998
  567TMC3    C7 8417   4.470   0.397  14.105 -0.2935  0.2802  0.6744
  567TMC3    C8 8418   4.478   0.375  13.618  0.1306 -0.2415 -0.3203
  567TMC3    O1 8419   4.560   0.479  14.095 -0.2818 -0.1992  0.0825
  567TMC3    O2 8420   4.403   0.372  13.520 -0.2120  0.3388 -0.3716
  568MPD2     C 8421   1.204   0.333  16.287 -0.4084 -0.6821  0.7504
  568MPD2    C1 8422   1.302   0.388  16.366  0.4213  0.4820  0.4175
  568MPD2    C2 8423   1.374   0.498  16.316  0.0939  0.8418 -0.3402
  568MPD2    C3 8424   1.330   0.566  16.207  0.0117  0.6531  0.2306
  568MPD2    C4 8425   1.236   0.513  16.133 -0.5721 -0.1965  0.8347
  568MPD2    C5 8426   1.175   0.394  16.167  0.3191 -0.4579  0.5921
  568MPD2     H 8427   1.451   0.548  16.374  1.0989 -2.6201  1.3220
  568MPD2    H1 8428   1.210   0.559  16.038 -0.5749 -1.5325  0.1860
  568MPD2    H2 8429   1.139   0.253  16.321 -1.2424 -0.4329 -0.2399
  568MPD2    H3 8430   1.105   0.343  16.102  0.6625  2.0350 -1.7166
  568MPD2     N 8431   1.403   0.688  16.161  0.3415 -0.0680 -0.0609
  568MPD2    H5 8432   1.478   0.714  16.224 -0.6174 -0.1538  1.1099
  568MPD2    N1 8433   1.334   0.318  16.485  0.3532  0.6873 -0.0123
  568MPD2    H7 8434   1.274   0.241  16.515 -0.9653  1.2500 -1.2059
  569TMC3    C1 8435   1.439   0.896  16.056  0.5862  0.4523 -0.3241
  569TMC3    C2 8436   1.489   0.945  16.172  0.4765  0.0345  0.0947
  569TMC3    C3 8437   1.555   1.068  16.160  0.3390  0.2876  0.1619
  569TMC3    C4 8438   1.429   0.970  15.941  0.7170  0.5803 -0.3486
  569TMC3    C5 8439   1.502   1.088  15.936 -0.3298 -0.3912  0.3536
  569TMC3    C6 8440   1.568   1.139  16.046 -0.2289 -0.4349  0.6559
  569TMC3     C 8441   1.368   0.778  16.057  0.0138 -0.3332 -0.3252
  569TMC3     O 8442   1.285   0.760  15.973  0.6183  0.2195 -0.7298
  569TMC3     H 8443   1.482   0.905  16.273  0.0174 -0.0062  0.0468
  569TMC3    H1 8444   1.378   0.928  15.855 -0.0731 -0.1400  0.4765
  569TMC3    H2 8445   1.626   1.230  16.042 -0.4798 -0.2405  1.6157
  569TMC3    C7 8446   1.455   1.178  15.834  0.7128  0.5738  0.1672
  569TMC3    C8 8447   1.567   1.133  16.283  0.8810  0.1005 -0.1259
  569TMC3    O1 8448   1.367   1.137  15.755 -0.4612  0.1408  0.3810
  569TMC3    O2 8449   1.585   1.070  16.382  0.0325  0.8389 -0.4726
  570TMC3    C1 8450   1.151   4.131  16.264 -0.3250  0.5649  0.3833
  570TMC3    C2 8451   1.278   4.141  16.207  0.5880 -0.6759 -0.2225
  570TMC3    C3 8452   1.315   4.266  16.162 -0.2378  0.5254  0.1094
  570TMC3    C4 8453   1.065   4.235  16.276 -0.4234 -0.0594 -0.5124
  570TMC3    C5 8454   1.108   4.356  16.227  0.1133 -0.2576 -0.5115
  570TMC3    C6 8455   1.233   4.376  16.178  0.8952 -0.0819  0.3123
  570TMC3     C 8456   1.125   4.006  16.337  0.3270 -0.3234  0.4714
  570TMC3     O 8457   1.170   3.905  16.283  0.4487 -0.5301 -0.5172
  570TMC3     H 8458   1.337   4.051  16.195 -0.0706 -0.8992 -1.8593
  570TMC3    H1 8459   0.971   4.225  16.330  0.0032 -1.0518  0.0194
  570TMC3    H2 8460   1.274   4.473  16.152  1.0395 -0.4795 -0.9353
  570TMC3    C7 8461   1.004   4.454  16.213  0.0441  0.3688 -0.6606
  570TMC3    C8 8462   1.446   4.285  16.105 -0.4288  0.6114  0.0032
  570TMC3    O1 8463   0.903   4.432  16.275 -0.4245 -0.5063  0.4596
  570TMC3    O2 8464   1.470   4.387  16.050 -0.3350 -0.2887  0.3217
  571MPD2     C 8465   3.291   0.541  17.409  0.2776  0.3609  0.0734
  571MPD2    C1 8466   3.238   0.490  17.528 -0.1992 -0.1663  0.8759
  571MPD2    C2 8467   3.198   0.571  17.632 -0.3631  0.9237 -0.4353
  571MPD2    C3 8468   3.207   0.710  17.604 -0.6182 -0.6380  0.7344
  571MPD2    C4 8469   3.236   0.764  17.479  1.0412  0.3712 -0.2621
  571MPD2    C5 8470   3.274   0.676  17.379  0.1334  0.4486 -0.4330
  571MPD2     H 8471   3.161   0.531   0.047  0.2500  0.8371 -0.2316
  571MPD2    H1 8472   3.244   0.871  17.463  0.0850  0.5634  0.4979
  571MPD2    H2 8473   3.326   0.477  17.329 -0.7040 -0.1794  0.0769
  571MPD2    H3 8474   3.318   0.716  17.288 -0.7572  1.3374 -0.4682
  571MPD2     N 8475   3.180   0.811   0.023 -0.5014  1.0314  0.0604
  571MPD2    H5 8476   3.185   0.907  17.671  2.9789  0.5077 -0.9028
  571MPD2    N1 8477   3.235   0.352  17.532  0.5244 -0.0416  0.1527
  571MPD2    H7 8478   3.251   0.310  17.441 -0.2805  0.8670 -0.4098
  572TMC3    C1 8479   3.147   0.909   0.242 -0.2819  0.6820  0.5692
  572TMC3    C2 8480   3.106   0.885   0.377 -0.0170 -0.2870 -0.3690
  572TMC3    C3 8481   3.129   0.990   0.464 -0.0407 -0.4069 -0.0223
  572TMC3    C4 8482   3.190   1.030   0.194  0.7504 -0.1405 -0.7628
  572TMC3    C5 8483   3.209   1.133   0.292 -0.8119  0.4421  0.8530
  572TMC3    C6 8484   3.184   1.104   0.429  0.1536 -0.2781 -0.0174
  572TMC3     C 8485   3.151   0.791   0.160 -0.1342 -0.4922  0.2968
  572TMC3     O 8486   3.114   0.684   0.207  0.5015  0.5563 -0.2157
  572TMC3     H 8487   3.068   0.789   0.411 -0.0970  0.1169  0.6847
  572TMC3    H1 8488   3.206   1.053   0.089  0.7281  2.3646 -0.2140
  572TMC3    H2 8489   3.220   1.172   0.506 -1.1082  1.1073 -0.6529
  572TMC3    C7 8490   3.293   1.244   0.251 -0.2917 -0.0460 -0.5233
  572TMC3    C8 8491   3.107   0.963   0.606 -0.1332  0.3887  0.5169
  572TMC3    O1 8492   3.275   1.286   0.138 -0.0863  0.2867  0.3780
  572TMC3    O2 8493   3.071   0.850   0.634  0.3366 -0.0116 -0.1638
  573MPD2     C 8494   4.355   2.805   1.461 -0.3945 -1.1651  0.1705
  573MPD2    C1 8495   4.295   2.747   1.352 -0.0046  0.0220 -0.1968
  573MPD2    C2 8496   4.371   2.694   1.254  0.1302 -0.5037  0.9173
  573MPD2    C3 8497   4.505   2.689   1.262 -0.3264 -0.6570  0.2038
  573MPD2    C4 8498   4.566   2.742   1.376  0.6037  0.5763  0.6833
  573MPD2    C5 8499   4.492   2.807   1.469  0.2402  0.4318 -0.7149
  573MPD2     H 8500   4.324   2.645   1.170 -0.8230 -1.8340  2.2311
  573MPD2    H1 8501   4.673   2.756   1.387  0.7868 -0.9725  0.8091
  573MPD2    H2 8502   4.300   2.860   1.536  0.2744  0.3509 -0.4593
  573MPD2    H3 8503   4.540   2.853   1.554 -1.6327  2.4950 -0.7663
  573MPD2     N 8504   4.591   2.634   1.166  0.1025 -0.1800  1.1075
  573MPD2    H5 8505   4.690   2.646   1.188 -0.2354  2.0104  1.4239
  573MPD2    N1 8506   4.157   2.746   1.350  0.4982  0.4998 -0.6254
  573MPD2    H7 8507   4.115   2.796   1.427  0.9803  2.7107 -1.7963
  574TMC3    C1 8508   4.660   2.561   0.954 -0.4325  0.5442  0.3703
  574TMC3    C2 8509   4.630   2.491   0.838  0.2330 -0.4708  0.2858
  574TMC3    C3 8510   4.717   2.499   0.735  0.1113 -0.3361  0.4403
  574TMC3    C4 8511   0.062   2.633   0.967  0.2423 -0.3488  0.3480
  574TMC3    C5 8512   0.147   2.637   0.858  0.3342  0.1107  0.0045
  574TMC3    C6 8513   0.114   2.570   0.743 -0.1607  0.0583 -0.1002
  574TMC3     C 8514   4.553   2.580   1.045 -0.2924  0.1170  0.2314
  574TMC3     O 8515   4.440   2.538   1.017  0.6027  0.0096  0.3064
  574TMC3     H 8516   4.536   2.437   0.828  0.7836 -1.4071  0.1510
  574TMC3    H1 8517   0.096   2.671   1.062  0.6113 -1.0378  0.4864
  574TMC3    H2 8518   0.180   2.573   0.657 -0.1791 -3.6515 -0.2422
  574TMC3    C7 8519   0.236   2.744   0.846 -0.8267  0.3867  0.7455
  574TMC3    C8 8520   0.001   2.399   0.625  0.6153 -0.2814 -0.3803
  574TMC3    O1 8521   0.307   2.746   0.744 -0.0222  0.3274 -0.1463
  574TMC3    O2 8522   0.103   2.397   0.552 -0.6129  0.8442 -0.5635
  575TMC3    C1 8523   2.865   3.246  11.506  0.5213 -0.2925  0.2127
  575TMC3    C2 8524   2.882   3.127  11.572  0.7583  0.0191  0.1428
  575TMC3    C3 8525   2.940   3.021  11.504 -0.5186 -0.4486 -0.6843
  575TMC3    C4 8526   2.904   3.264  11.375  0.6797 -0.2358  0.1352
  575TMC3    C5 8527   2.966   3.160  11.313  0.7430 -0.0266 -0.4177
  575TMC3    C6 8528   2.984   3.042  11.379  0.6355  0.0289  0.9554
  575TMC3     C 8529   2.795   3.352  11.566  0.5662  0.3959 -0.4087
  575TMC3     O 8530   2.808   3.462  11.504 -0.3302 -0.0678 -0.3890
  575TMC3     H 8531   2.874   3.128  11.680  0.4418  0.9110  0.1131
  575TMC3    H1 8532   2.886   3.359  11.325  2.4579  1.2566  2.3314
  575TMC3    H2 8533   3.005   2.952  11.322 -0.5058  1.8525 -2.3079
  575TMC3    C7 8534   2.966   3.159  11.170  0.2984  0.0244  0.1657
  575TMC3    C8 8535   2.963   2.900  11.579  0.3987  0.3873  0.0275
  575TMC3    O1 8536   2.926   3.266  11.118 -0.5569 -0.1933 -0.1056
  575TMC3    O2 8537   3.038   2.826  11.517  0.2225  0.2026 -0.4242
  576MPD2     C 8538   2.696   0.252  12.023  0.5556  0.2592 -0.6093
  576MPD2    C1 8539   2.573   0.200  12.068  0.1441  0.4092 -0.0742
  576MPD2    C2 8540   2.468   0.284  12.097 -0.0959  0.7471  0.2204
  576MPD2    C3 8541   2.481   0.418  12.075 -0.0943  0.8007  0.1892
  576MPD2    C4 8542   2.598   0.468  12.016 -0.6351  0.4168 -0.3078
  576MPD2    C5 8543   2.708   0.391  12.004  0.0154  0.8747  0.1331
  576MPD2     H 8544   2.373   0.251  12.136 -0.7088  0.0528 -1.8789
  576MPD2    H1 8545   2.606   0.574  11.994  2.2605  0.1613 -0.5768
  576MPD2    H2 8546   2.788   0.200  12.002 -1.3559 -3.3691 -0.0727
  576MPD2    H3 8547   2.801   0.429  11.965  0.4817  0.7789  1.1703
  576MPD2     N 8548   2.374   0.504  12.117  0.2536  0.6456 -0.1877
  576MPD2    H5 8549   2.290   0.460  12.154 -0.7447  3.9019  1.3619
  576MPD2    N1 8550   2.555   0.059  12.100  0.4390 -0.0287  0.0736
  576MPD2    H7 8551   2.463   0.035  12.137  0.6466  1.4256  1.5165
  577TMC3    C1 8552   2.635   4.545  12.111 -0.1524  0.5031  0.4554
  577TMC3    C2 8553   2.732   4.456  12.090  0.0889 -0.4895  0.1273
  577TMC3    C3 8554   2.720   4.328  12.142 -0.1534  0.9066  0.0232
  577TMC3    C4 8555   2.523   4.514  12.184  0.2837  0.2208  0.6120
  577TMC3    C5 8556   2.511   4.387  12.231 -0.7512 -0.0201  0.1381
  577TMC3    C6 8557   2.611   4.294  12.218 -0.3026  0.2046  0.4004
  577TMC3     C 8558   2.649   4.685  12.065  0.2796  0.6043 -0.4564
  577TMC3     O 8559   2.752   4.692  11.995 -0.6762 -0.0904  0.3504
  577TMC3     H 8560   2.819   4.483  12.031 -1.3148 -0.5674 -1.9900
  577TMC3    H1 8561   2.448   4.588  12.207 -0.0555 -0.6696  2.3265
  577TMC3    H2 8562   2.595   4.191  12.244 -2.5380  0.3428 -0.4024
  577TMC3    C7 8563   2.380   4.323  12.200  0.2398 -0.5935  0.0983
  577TMC3    C8 8564   2.811   4.218  12.118  0.0093  0.1040 -0.8387
  577TMC3    O1 8565   2.371   4.202  12.217 -0.6514 -0.1049 -0.6926
  577TMC3    O2 8566   2.809   4.128  12.204 -0.1992  0.3821  0.0350
  578MPD2     C 8567   0.029   4.213   1.835  0.1856  0.4561 -0.1043
  578MPD2    C1 8568   0.085   4.209   1.711 -0.3141 -0.0065 -0.1654
  578MPD2    C2 8569   0.222   4.177   1.710  0.6092  0.0096  0.2889
  578MPD2    C3 8570   0.299   4.165   1.826  0.0678 -0.2901  0.2908
  578MPD2    C4 8571   0.240   4.180   1.949 -0.2799 -0.4444  0.9732
  578MPD2    C5 8572   0.107   4.206   1.947 -0.4217 -0.2518 -0.5220
  578MPD2     H 8573   0.273   4.161   1.615  0.0045  2.8717 -0.5003
  578MPD2    H1 8574   0.298   4.162   2.038  2.2861  1.3697 -0.3305
  578MPD2    H2 8575   4.645   4.231   1.862 -0.0029 -3.7017  1.9984
  578MPD2    H3 8576   0.064   4.216   2.046  2.3206 -2.2050  0.8503
  578MPD2     N 8577   0.439   4.143   1.814 -0.1625 -0.3318 -0.2307
  578MPD2    H5 8578   0.476   4.129   1.721  2.8063  0.7761  0.7812
  578MPD2    N1 8579   0.016   4.242   1.593 -0.9094  0.2572 -0.0375
  578MPD2    H7 8580   0.075   4.240   1.510 -2.2346 -1.3644 -0.9440
  579TMC3    C1 8581   0.668   4.112   1.858 -0.0162  0.8157 -0.2202
  579TMC3    C2 8582   0.774   4.161   1.924  0.1494 -0.0547 -0.1185
  579TMC3    C3 8583   0.901   4.150   1.868 -0.0759  0.2412 -0.0650
  579TMC3    C4 8584   0.680   4.072   1.726 -0.5449 -0.4713  0.5334
  579TMC3    C5 8585   0.804   4.055   1.674  0.0736 -0.2101 -0.0113
  579TMC3    C6 8586   0.920   4.092   1.740 -0.2598  0.0253  0.6036
  579TMC3     C 8587   0.539   4.141   1.913  0.1983  0.1273 -0.2462
  579TMC3     O 8588   0.540   4.159   2.031  0.2552  0.3022 -0.0461
  579TMC3     H 8589   0.762   4.193   2.027  0.1110 -1.6911  0.3887
  579TMC3    H1 8590   0.597   4.024   1.676 -0.3602 -0.1140 -0.1127
  579TMC3    H2 8591   1.019   4.054   1.716 -0.4738 -0.7641  0.9778
  579TMC3    C7 8592   0.820   4.006   1.536  0.1383 -0.6653  0.5450
  579TMC3    C8 8593   1.014   4.203   1.945  0.5133  0.6775  0.4259
  579TMC3    O1 8594   0.936   3.970   1.513  0.3781 -0.0935  0.1242
  579TMC3    O2 8595   0.994   4.238   2.060  0.0413 -0.3550 -0.1586
  580TMC3    C1 8596   0.374   3.052  11.367  0.0291 -0.3534 -0.3294
  580TMC3    C2 8597   0.465   3.025  11.269 -0.0883 -1.2098 -0.1442
  580TMC3    C3 8598   0.525   2.906  11.281  0.8040  0.5008 -0.2615
  580TMC3    C4 8599   0.324   2.964  11.463 -0.0682  1.0877  0.2113
  580TMC3    C5 8600   0.390   2.844  11.475  0.3889  0.2914 -0.1796
  580TMC3    C6 8601   0.493   2.822  11.393  0.5587  0.4484  0.0865
  580TMC3     C 8602   0.385   3.189  11.409  0.3336 -0.4783 -0.1741
  580TMC3     O 8603   0.463   3.255  11.348  0.0262  0.3670  0.0954
  580TMC3     H 8604   0.481   3.101  11.194  0.2071 -0.7694  0.3608
  580TMC3    H1 8605   0.240   2.989  11.526 -0.4478  0.1070  0.0903
  580TMC3    H2 8606   0.553   2.733  11.407  0.1163 -0.2836 -2.6548
  580TMC3    C7 8607   0.411   2.805  11.611 -0.2200  0.4965 -0.5236
  580TMC3    C8 8608   0.656   2.880  11.220 -0.1375 -0.2576 -0.9119
  580TMC3    O1 8609   0.524   2.758  11.634 -0.7739 -0.2154 -0.0104
  580TMC3    O2 8610   0.706   2.769  11.216 -0.3192 -0.2144  0.2662
  581MPD2     C 8611   2.960   2.980  14.836 -0.0988  0.0101 -0.0214
  581MPD2    C1 8612   2.915   3.050  14.946 -0.4852 -0.0396  0.6632
  581MPD2    C2 8613   2.789   3.111  14.949 -0.2363 -0.1335  0.7873
  581MPD2    C3 8614   2.710   3.106  14.831  0.4333  0.8237 -0.7705
  581MPD2    C4 8615   2.761   3.038  14.723 -0.2232  0.1481 -0.0499
  581MPD2    C5 8616   2.887   2.988  14.721 -0.4371  0.1851  0.0047
  581MPD2     H 8617   2.747   3.152  15.040  1.9087  1.3623  1.1006
  581MPD2    H1 8618   2.719   3.037  14.623 -0.7708 -1.7687  0.1928
  581MPD2    H2 8619   3.045   2.913  14.836  0.8447  1.2139 -0.9267
  581MPD2    H3 8620   2.919   2.942  14.628  0.1732  0.0710  0.2751
  581MPD2     N 8621   2.584   3.169  14.830 -0.3889  0.7063  0.2829
  581MPD2    H5 8622   2.559   3.234  14.905  1.9428  2.0436 -0.0775
  581MPD2    N1 8623   2.995   3.037  15.062 -0.3967 -0.0618 -0.1696
  581MPD2    H7 8624   3.077   2.984  15.037 -1.1668 -0.0896 -2.5683
  582TMC3    C1 8625   3.068   3.047  15.295  0.4517 -0.3191 -0.3702
  582TMC3    C2 8626   3.044   3.095  15.420  0.0106 -0.2389  0.2589
  582TMC3    C3 8627   3.084   3.019  15.515 -0.5476 -0.2803  0.2895
  582TMC3    C4 8628   3.128   2.923  15.268  0.2669 -0.0703 -0.9509
  582TMC3    C5 8629   3.159   2.839  15.367  0.2836  0.3197  0.1380
  582TMC3    C6 8630   3.140   2.894  15.492 -0.0164 -0.4989  0.1889
  582TMC3     C 8631   2.985   3.097  15.184  0.1483 -0.2802 -0.2729
  582TMC3     O 8632   2.896   3.173  15.223 -0.2494 -0.0830  0.0186
  582TMC3     H 8633   2.981   3.182  15.436  1.1779  0.6420  0.0520
  582TMC3    H1 8634   3.143   2.891  15.166 -0.7372  1.9339 -1.7272
  582TMC3    H2 8635   3.167   2.823  15.568  0.3905 -0.2655  0.2580
  582TMC3    C7 8636   3.096   2.715  15.331  0.0657  0.4759  0.0307
  582TMC3    C8 8637   3.087   3.077  15.648  0.5273  0.5679  0.4854
  582TMC3    O1 8638   3.137   2.674  15.227 -0.0904 -0.0770  0.0220
  582TMC3    O2 8639   3.027   3.176  15.687  0.6374 -0.2890 -0.0168
  583MPD2     C 8640   2.802   4.470  16.701  0.5777 -0.0331  0.6882
  583MPD2    C1 8641   2.810   4.569  16.610  0.0922  0.4416 -0.4879
  583MPD2    C2 8642   2.775   4.701  16.638  0.0827 -0.3334 -0.1091
  583MPD2    C3 8643   2.714   0.007  16.758  0.2654  0.1380  0.2801
  583MPD2    C4 8644   2.720   4.626  16.855 -0.0279 -0.1493 -0.1427
  583MPD2    C5 8645   2.766   4.503  16.826 -0.9414 -0.0647 -0.0529
  583MPD2     H 8646   2.765   0.055  16.559 -0.4277  0.1754  0.4220
  583MPD2    H1 8647   2.696   4.636  16.960  0.6939 -0.3806  0.0449
  583MPD2    H2 8648   2.845   4.372  16.686  0.9722  0.5626 -2.0565
  583MPD2    H3 8649   2.764   4.435  16.910  1.0678  1.7769  1.5010
  583MPD2     N 8650   2.672   0.145  16.785  0.0992  0.5741 -0.5387
  583MPD2    H5 8651   2.665   0.213  16.710  3.1222  1.5904  0.0802
  583MPD2    N1 8652   2.876   4.554  16.484 -0.1572  0.8170  0.0125
  583MPD2    H7 8653   2.887   4.635  16.423  1.1203  1.3632  0.9636
  584TMC3    C1 8654   2.596   0.338  16.904  0.1155 -0.0308  0.0927
  584TMC3    C2 8655   2.681   0.421  16.834  0.0787 -0.8445  0.0656
  584TMC3    C3 8656   2.695   0.553  16.878 -0.3118  0.3072 -0.1575
  584TMC3    C4 8657   2.533   0.381  17.018  0.0681 -0.1453 -0.3528
  584TMC3    C5 8658   2.554   0.513  17.059 -0.5732  0.4429 -0.8935
  584TMC3    C6 8659   2.639   0.599  16.996 -0.4157 -0.4475  0.4896
  584TMC3     C 8660   2.622   0.194  16.903 -0.5412 -0.3816 -0.7607
  584TMC3     O 8661   2.580   0.135  17.000 -0.1660 -0.3666  0.1336
  584TMC3     H 8662   2.742   0.381  16.754  0.4463  1.0109 -0.5880
  584TMC3    H1 8663   2.486   0.308  17.083  2.0947  0.0705  1.3442
  584TMC3    H2 8664   2.667   0.698  17.029  0.3023 -0.2161 -0.8250
  584TMC3    C7 8665   2.546   0.538  17.201  0.5323 -0.8019  0.6590
  584TMC3    C8 8666   2.773   0.648  16.790  0.5487  0.5992  0.4593
  584TMC3    O1 8667   2.557   0.446  17.278  0.2698  0.1735  0.2117
  584TMC3    O2 8668   2.827   0.605  16.689 -0.0046 -0.2173 -0.3314
  585MPD2     C 8669   2.256   4.027   0.564 -0.1221  0.4278 -0.6729
  585MPD2    C1 8670   2.199   4.068   0.450 -0.0700  0.0178 -1.1506
  585MPD2    C2 8671   2.218   3.985   0.343 -0.6345 -0.3498  0.9380
  585MPD2    C3 8672   2.298   3.869   0.346 -0.0153  0.3891 -0.2409
  585MPD2    C4 8673   2.358   3.840   0.463  0.0985  0.1119 -0.0401
  585MPD2    C5 8674   2.333   3.913   0.578 -0.2827  0.2738 -0.8040
  585MPD2     H 8675   2.166   4.005   0.250  1.4797 -0.6923 -0.3312
  585MPD2    H1 8676   2.403   3.742   0.473  3.8051  1.8895  0.5667
  585MPD2    H2 8677   2.238   4.077   0.658 -2.3799 -1.9148  0.1054
  585MPD2    H3 8678   2.370   3.881   0.674 -0.8488  0.8274 -0.4004
  585MPD2     N 8679   2.317   3.779   0.239  0.3265  0.7150  0.3750
  585MPD2    H5 8680   2.379   3.700   0.247  0.6400  0.9874  0.6375
  585MPD2    N1 8681   2.120   4.187   0.434  0.0264  0.1442 -0.2542
  585MPD2    H7 8682   2.081   4.203   0.342 -0.6224  1.1912  0.2041
  586TMC3    C1 8683   2.283   3.694   0.018  0.0491 -0.2523  0.0147
  586TMC3    C2 8684   2.364   3.580   0.047 -0.6547  0.3795  0.3871
  586TMC3    C3 8685   2.370   3.480  17.631  0.1385 -0.2943  0.1147
  586TMC3    C4 8686   2.200   3.701  17.588 -0.0618  0.1831 -0.2769
  586TMC3    C5 8687   2.208   3.596  17.500  0.5805 -0.6088  0.8971
  586TMC3    C6 8688   2.298   3.493  17.513 -0.3057  0.3919  0.5381
  586TMC3     C 8689   2.251   3.793   0.117  0.3752  0.5249  0.1887
  586TMC3     O 8690   2.165   3.874   0.078  0.4386 -0.1512  0.0077
  586TMC3     H 8691   2.428   3.578   0.135  2.6453  0.1504 -2.0196
  586TMC3    H1 8692   2.142   3.789  17.563 -0.1932  0.5096  1.1430
  586TMC3    H2 8693   2.298   3.414  17.439 -0.3041  0.8114  0.0850
  586TMC3    C7 8694   2.081   3.551  17.438  1.0488 -0.2135 -0.4384
  586TMC3    C8 8695   2.406   3.346  17.665 -0.2361  0.6952  0.1846
  586TMC3    O1 8696   2.089   3.448  17.368 -0.5016  0.5332 -0.3672
  586TMC3    O2 8697   2.406   3.264  17.575 -0.0635  0.0661 -0.1532
  587TMC3    C1 8698   4.491   2.811  16.283  0.2178  0.6409  0.2935
  587TMC3    C2 8699   4.481   2.742  16.387 -0.0982  0.2374 -0.9236
  587TMC3    C3 8700   4.594   2.706  16.453  0.3725  0.5852 -0.8350
  587TMC3    C4 8701   4.606   2.878  16.243  0.2647 -0.4960 -0.0931
  587TMC3    C5 8702   4.716   2.846  16.315 -0.1727 -0.0228 -0.1731
  587TMC3    C6 8703   4.710   2.759  16.419  0.2273 -0.3767  0.0049
  587TMC3     C 8704   4.384   2.807  16.179 -0.7539  0.2802  0.0988
  587TMC3     O 8705   4.380   2.890  16.090  0.5108  0.2382 -0.0064
  587TMC3     H 8706   4.385   2.698  16.411  0.2422  0.2804  0.4981
  587TMC3    H1 8707   4.613   2.958  16.170 -0.5366 -0.3340  0.0007
  587TMC3    H2 8708   0.079   2.719  16.469 -1.3808 -2.3019  1.3073
  587TMC3    C7 8709   0.109   2.940  16.308 -0.0526 -0.2176  0.1964
  587TMC3    C8 8710   4.574   2.681  16.594 -0.2754  0.0550  0.0965
  587TMC3    O1 8711   0.117   3.001  16.203  0.6890  0.1050 -0.0454
  587TMC3    O2 8712   4.649   2.600  16.651  0.2883 -0.2398  0.8609
  588TMC3    C1 8713   2.121   0.587  10.037 -0.6281 -0.7310  0.1441
  588TMC3    C2 8714   2.091   0.456  10.034  0.5648  0.5810  0.1597
  588TMC3    C3 8715   2.187   0.363  10.057  0.0843  0.0854 -0.6090
  588TMC3    C4 8716   2.250   0.626  10.051 -0.5189 -0.4215 -0.1491
  588TMC3    C5 8717   2.346   0.541  10.097 -0.3502 -0.2183  0.2031
  588TMC3    C6 8718   2.318   0.402  10.091 -0.5847  0.5883 -0.6875
  588TMC3     C 8719   2.024   0.685   9.998  0.1721 -0.7050 -0.2066
  588TMC3     O 8720   1.936   0.639   9.926 -0.6783  0.0077  0.1509
  588TMC3     H 8721   1.991   0.434   9.999 -0.4321  0.7142  2.9415
  588TMC3    H1 8722   2.275   0.723  10.009  0.5826 -0.9687 -0.7586
  588TMC3    H2 8723   2.394   0.326  10.104 -0.5768  0.9451  1.2800
  588TMC3    C7 8724   2.474   0.597  10.126 -0.5069 -0.0955  0.0877
  588TMC3    C8 8725   2.161   0.220  10.029  0.0295  0.4066 -0.5263
  588TMC3    O1 8726   2.561   0.509  10.139  0.1011  0.2636  0.1665
  588TMC3    O2 8727   2.053   0.206   9.970 -0.5511  0.4236  0.3752
  589TMC3    C1 8728   0.551   3.111   1.496  0.0585 -0.0076  0.0784
  589TMC3    C2 8729   0.649   3.186   1.547 -0.1055  0.2317  0.0209
  589TMC3    C3 8730   0.773   3.160   1.494  0.1285 -0.1218  0.0911
  589TMC3    C4 8731   0.566   3.024   1.395 -0.3244  0.0011  0.1348
  589TMC3    C5 8732   0.689   3.000   1.350 -0.5958  0.1171  0.0324
  589TMC3    C6 8733   0.796   3.060   1.404 -0.4515 -0.2174  0.0279
  589TMC3     C 8734   0.422   3.170   1.514  0.2253  0.3854 -0.6669
  589TMC3     O 8735   0.339   3.153   1.425  0.0958  0.0739  0.0526
  589TMC3     H 8736   0.639   3.274   1.609  0.1120 -0.0173  0.4110
  589TMC3    H1 8737   0.475   2.990   1.346 -0.1890  0.1920 -0.2519
  589TMC3    H2 8738   0.895   3.024   1.378 -1.3238 -2.1867 -0.5277
  589TMC3    C7 8739   0.704   2.870   1.285  0.2138 -0.2822  0.3907
  589TMC3    C8 8740   0.881   3.231   1.548  0.4507  0.1204  0.6132
  589TMC3    O1 8741   0.595   2.812   1.272 -0.0116  0.6481 -0.4043
  589TMC3    O2 8742   0.861   3.309   1.643  0.6758 -0.3301 -0.0368
  590MPD2     C 8743   0.427   0.735  16.610 -0.7115 -0.4358  0.0750
  590MPD2    C1 8744   0.371   0.796  16.507 -0.1742 -0.6217 -0.9521
  590MPD2    C2 8745   0.454   0.863  16.419  0.2857  0.6411  0.2249
  590MPD2    C3 8746   0.585   0.884  16.448  0.2601  0.2615 -0.0553
  590MPD2    C4 8747   0.645   0.823  16.552  0.6579 -0.4433  0.1524
  590MPD2    C5 8748   0.565   0.740  16.632 -0.0103 -0.6382  0.5923
  590MPD2     H 8749   0.413   0.907  16.329  0.9471 -0.2527 -0.5250
  590MPD2    H1 8750   0.750   0.831  16.578  0.9632 -1.1301 -0.8610
  590MPD2    H2 8751   0.370   0.677  16.681 -1.1489  1.5383  1.3544
  590MPD2    H3 8752   0.612   0.698  16.720  1.1730  0.4682  0.4708
  590MPD2     N 8753   0.653   0.972  16.366  0.2447  0.4630  0.1203
  590MPD2    H5 8754   0.603   0.997  16.282  1.4918 -1.6623 -1.2619
  590MPD2    N1 8755   0.230   0.783  16.490  0.3454  0.1636 -0.1331
  590MPD2    H7 8756   0.178   0.728  16.557  1.7464 -1.7149 -0.6017
  591TMC3    C1 8757   0.810   1.105  16.274  0.2625 -0.0100  0.2243
  591TMC3    C2 8758   0.796   1.047  16.152  0.0952 -0.5315  0.0831
  591TMC3    C3 8759   0.834   1.117  16.036  0.6820  0.3977 -0.0755
  591TMC3    C4 8760   0.839   1.234  16.290  0.5487  0.5609 -0.6485
  591TMC3    C5 8761   0.853   1.310  16.174 -0.3191 -0.0134 -0.8478
  591TMC3    C6 8762   0.857   1.250  16.047  0.3028  0.8667  0.1742
  591TMC3     C 8763   0.771   1.030  16.391  0.1068 -0.7394  0.2499
  591TMC3     O 8764   0.851   1.021  16.485 -0.2617  0.7145 -0.0061
  591TMC3     H 8765   0.761   0.945  16.137  0.6900 -0.6844 -0.2828
  591TMC3    H1 8766   0.836   1.284  16.386 -0.1599  0.4035 -0.5912
  591TMC3    H2 8767   0.869   1.307  15.956 -0.1774 -2.2707 -1.8661
  591TMC3    C7 8768   0.858   1.456  16.193 -0.1211  0.3335  0.0120
  591TMC3    C8 8769   0.880   1.039  15.925  0.1570  0.1357 -0.2861
  591TMC3    O1 8770   0.829   1.501  16.303  0.4654 -0.1716  0.2865
  591TMC3    O2 8771   0.855   0.920  15.925 -0.1643  0.3101 -0.0799
  592MPD2     C 8772   1.435   3.073  11.159  0.5779  0.3747 -0.1621
  592MPD2    C1 8773   1.442   3.127  11.288  0.1793 -0.7178 -0.4787
  592MPD2    C2 8774   1.397   3.051  11.393 -0.1998  0.1916  0.4291
  592MPD2    C3 8775   1.349   2.922  11.380  0.3139  0.4032  0.0427
  592MPD2    C4 8776   1.346   2.873  11.248  0.1195 -0.0246 -0.0843
  592MPD2    C5 8777   1.389   2.946  11.139 -0.1617 -0.3806  0.0279
  592MPD2     H 8778   1.402   3.085  11.496  0.3298 -1.7621  1.0603
  592MPD2    H1 8779   1.314   2.774  11.219  0.2787 -0.1325  0.1073
  592MPD2    H2 8780   1.458   3.128  11.068  0.1119  3.1788  1.4075
  592MPD2    H3 8781   1.380   2.908  11.039 -0.7460 -2.3741  0.8446
  592MPD2     N 8782   1.330   2.851  11.493 -0.5051 -0.0186  0.2209
  592MPD2    H5 8783   1.349   2.902  11.578  1.4531  1.1888 -0.9454
  592MPD2    N1 8784   1.506   3.253  11.297 -0.2263  0.8406  0.0685
  592MPD2    H7 8785   1.566   3.281  11.220  1.2301  0.1582  0.9437
  593TMC3    C1 8786   1.596   3.435  11.409  0.5001 -0.2134 -0.0751
  593TMC3    C2 8787   1.581   3.537  11.504  0.7530 -0.6725 -0.1420
  593TMC3    C3 8788   1.691   3.597  11.554 -0.0362  0.0936  0.0091
  593TMC3    C4 8789   1.713   3.429  11.339 -0.2500 -0.1092  0.0754
  593TMC3    C5 8790   1.818   3.501  11.384  0.4574 -0.1115 -0.0357
  593TMC3    C6 8791   1.809   3.592  11.492 -0.1388  0.0105  0.5030
  593TMC3     C 8792   1.497   3.332  11.404  0.0308 -0.8976 -0.0210
  593TMC3     O 8793   1.427   3.319  11.504 -0.5633  0.7339 -0.0290
  593TMC3     H 8794   1.498   3.536  11.574 -0.5015  0.9084 -1.5985
  593TMC3    H1 8795   1.731   3.347  11.270  0.5563 -0.7608  1.0632
  593TMC3    H2 8796   1.893   3.655  11.517  0.3416 -0.1379 -0.7360
  593TMC3    C7 8797   1.917   3.546  11.283 -0.2624 -0.0146  0.2223
  593TMC3    C8 8798   1.674   3.694  11.652 -0.6634  0.0244  0.1976
  593TMC3    O1 8799   2.016   3.607  11.320  0.0572  0.0699 -0.2193
  593TMC3    O2 8800   1.578   3.768  11.636 -0.2437  0.4527 -0.2050
  594MPD2     C 8801   4.450   1.925  13.847 -0.3160  0.0133 -0.4148
  594MPD2    C1 8802   4.470   1.885  13.976 -0.4563  0.7118 -0.5566
  594MPD2    C2 8803   4.583   1.913  14.038 -0.4611 -0.0858 -0.1001
  594MPD2    C3 8804   4.679   1.981  13.970 -0.3178 -0.0140  0.1578
  594MPD2    C4 8805   4.658   2.030  13.843  0.2947  0.5026  0.1384
  594MPD2    C5 8806   4.541   2.000  13.782  0.3428  0.0500 -0.2054
  594MPD2     H 8807   4.597   1.892  14.143  1.4430 -1.2110 -0.5859
  594MPD2    H1 8808   0.012   2.085  13.785  2.0497 -0.7829  1.1361
  594MPD2    H2 8809   4.347   1.936  13.815 -0.6561  1.7112  1.2108
  594MPD2    H3 8810   4.508   2.043  13.688  1.0237  0.9134 -0.0556
  594MPD2     N 8811   0.068   2.021  14.057 -0.7061 -0.0973 -0.0611
  594MPD2    H5 8812   0.057   1.982  14.150  1.5638 -1.4559 -0.3528
  594MPD2    N1 8813   4.375   1.806  14.037 -0.4988 -0.0375  0.3932
  594MPD2    H7 8814   4.298   1.773  13.980 -0.6055  1.0336 -0.0704
  595TMC3    C1 8815   0.430   2.282  14.214 -0.2426  0.0270 -0.1747
  595TMC3    C2 8816   0.368   2.210  14.118 -0.2073  0.1605  0.4467
  595TMC3    C3 8817   0.249   2.149  14.139  0.0150 -0.6605 -0.2803
  595TMC3    C4 8818   0.369   2.298  14.334 -0.3518  0.6908  0.8413
  595TMC3    C5 8819   0.244   2.249  14.354  0.1466 -0.2083  0.1776
  595TMC3    C6 8820   0.185   2.176  14.258  0.1875  0.4244 -0.5768
  595TMC3     C 8821   0.573   2.301  14.202 -0.0181 -0.0765  0.1229
  595TMC3     O 8822   0.627   2.346  14.304  0.3105 -0.4825 -0.6539
  595TMC3     H 8823   0.409   2.183  14.021  1.2866  0.0754  1.1031
  595TMC3    H1 8824   0.413   2.366  14.406 -0.2104 -0.4784  1.8702
  595TMC3    H2 8825   0.093   2.127  14.286 -0.4212  1.6923 -0.3433
  595TMC3    C7 8826   0.176   2.286  14.476  0.1536  0.5555  0.5634
  595TMC3    C8 8827   0.173   2.099  14.021  0.2062 -0.4616  0.4116
  595TMC3    O1 8828   0.057   2.259  14.493  0.0684 -0.8483 -0.1926
  595TMC3    O2 8829   0.202   2.137  13.909  0.8946  0.7907  1.3529
  596MPD2     C 8830   3.469   4.432  16.621  0.7187 -0.1186 -0.0354
  596MPD2    C1 8831   3.498   4.535  16.531  0.0123  1.1481 -0.5257
  596MPD2    C2 8832   3.531   4.512  16.403  0.4058  0.3398  0.1312
  596MPD2    C3 8833   3.512   4.387  16.344  0.0192  0.3774  0.1042
  596MPD2    C4 8834   3.475   4.283  16.431  0.0187 -0.2393 -0.4542
  596MPD2    C5 8835   3.462   4.305  16.569  0.4150 -0.0485  0.6159
  596MPD2     H 8836   3.547   4.604  16.347  0.7307 -0.3869 -0.9850
  596MPD2    H1 8837   3.453   4.183  16.395  0.8823 -0.5796 -0.0583
  596MPD2    H2 8838   3.440   4.446  16.725 -1.2731  0.2437 -0.6343
  596MPD2    H3 8839   3.442   4.223  16.637 -0.1332  0.4985  1.1162
  596MPD2     N 8840   3.532   4.368  16.201  0.1418  0.0287 -0.3250
  596MPD2    H5 8841   3.505   4.277  16.166 -0.7741  0.7444 -1.4575
  596MPD2    N1 8842   3.512   4.676  16.565  0.2478  0.0394  0.1062
  596MPD2    H7 8843   3.537   0.021  16.490 -0.8516 -1.1580 -1.2778
  597TMC3    C1 8844   3.513   0.153  16.697 -0.1576  0.2671 -1.0493
  597TMC3    C2 8845   3.596   0.210  16.605 -0.4254  0.2858 -0.6991
  597TMC3    C3 8846   3.629   0.345  16.624 -0.5476 -0.1826 -0.0073
  597TMC3    C4 8847   3.457   0.229  16.801 -0.9517 -0.6133  0.3659
  597TMC3    C5 8848   3.487   0.366  16.803  0.3330  0.1373  0.3724
  597TMC3    C6 8849   3.573   0.422  16.714 -0.1070 -0.2980 -0.4527
  597TMC3     C 8850   3.486   0.011  16.689 -0.2539  0.1711 -0.0674
  597TMC3     O 8851   3.433   4.683  16.792 -0.2294 -0.5115  0.7360
  597TMC3     H 8852   3.654   0.145  16.540 -0.3122  0.0078 -0.3219
  597TMC3    H1 8853   3.400   0.184  16.881 -2.4731  0.5203 -0.0737
  597TMC3    H2 8854   3.604   0.525  16.721 -0.9362 -0.1199  0.5800
  597TMC3    C7 8855   3.404   0.437  16.900 -0.3302 -0.1179  0.2554
  597TMC3    C8 8856   3.738   0.395  16.543  0.0961 -0.5817  0.1205
  597TMC3    O1 8857   3.382   0.391  17.011  0.2474 -0.4596  0.1963
  597TMC3    O2 8858   3.829   0.317  16.516  0.3319  0.0927  0.0020
  598TMC3    C1 8859   1.872   1.567  15.244 -0.2286 -0.9617  0.1986
  598TMC3    C2 8860   1.807   1.453  15.208  0.0337 -0.8586  0.3732
  598TMC3    C3 8861   1.840   1.399  15.087 -0.2765 -0.1870  0.0277
  598TMC3    C4 8862   1.973   1.628  15.169 -0.5097 -0.7886 -0.0998
  598TMC3    C5 8863   1.993   1.567  15.047  0.5764  0.0993 -0.3026
  598TMC3    C6 8864   1.925   1.462  15.001 -0.7838 -0.2344 -0.0525
  598TMC3     C 8865   1.862   1.612  15.382 -0.1141 -0.6893  0.5078
  598TMC3     O 8866   1.905   1.721  15.405 -0.5400 -0.0531  0.8681
  598TMC3     H 8867   1.723   1.417  15.267  0.5150 -3.3779 -0.4459
  598TMC3    H1 8868   2.027   1.713  15.210  0.3664 -1.8085  0.8686
  598TMC3    H2 8869   1.922   1.436  14.896 -2.1606  0.2361 -0.1320
  598TMC3    C7 8870   2.081   1.634  14.952 -0.2748  0.3705  0.4545
  598TMC3    C8 8871   1.753   1.288  15.028  0.6265  0.2865  0.5687
  598TMC3    O1 8872   2.100   1.576  14.846  0.1555  0.0001  0.3756
  598TMC3    O2 8873   1.787   1.229  14.927  0.3827  0.2551  0.0997
  599MPD2     C 8874   2.379   3.934  16.316 -0.0545 -0.0639 -0.2667
  599MPD2    C1 8875   2.297   3.849  16.252  0.0650  0.6099 -0.0696
  599MPD2    C2 8876   2.160   3.855  16.277 -0.1962  0.3785 -0.2698
  599MPD2    C3 8877   2.108   3.949  16.364  0.3235 -0.6237 -0.0155
  599MPD2    C4 8878   2.195   4.043  16.424 -0.3961 -0.2206  0.3378
  599MPD2    C5 8879   2.330   4.026  16.403 -0.0018 -0.0292 -0.8100
  599MPD2     H 8880   2.101   3.787  16.217 -2.1575  1.3441  0.5604
  599MPD2    H1 8881   2.160   4.105  16.505 -0.0350  2.0898 -1.2875
  599MPD2    H2 8882   2.487   3.924  16.306 -0.0152  3.2113 -3.1062
  599MPD2    H3 8883   2.396   4.098  16.449 -0.8435  0.1984  0.0349
  599MPD2     N 8884   1.968   3.956  16.389 -0.2237 -0.1192 -0.6825
  599MPD2    H5 8885   1.931   4.044  16.424 -0.7822  0.6950 -3.3550
  599MPD2    N1 8886   2.359   3.756  16.164  0.2206  0.5465 -0.0639
  599MPD2    H7 8887   2.461   3.765  16.165  0.2384  0.2141  0.9291
  600TMC3    C1 8888   1.732   3.873  16.392  0.4378 -0.3633 -0.3025
  600TMC3    C2 8889   1.661   3.767  16.337 -0.5930  0.3924 -0.0400
  600TMC3    C3 8890   1.521   3.773  16.358  0.3440 -0.1026 -0.1385
  600TMC3    C4 8891   1.669   3.981  16.455  0.2758  0.2709  0.3276
  600TMC3    C5 8892   1.529   3.980  16.464 -0.2781 -0.0280 -0.3788
  600TMC3    C6 8893   1.457   3.881  16.414 -0.2290 -0.3345  0.4111
  600TMC3     C 8894   1.882   3.852  16.368 -0.4174 -0.3118  0.3131
  600TMC3     O 8895   1.915   3.738  16.340  0.6794 -0.2578  1.0879
  600TMC3     H 8896   1.707   3.678  16.296  2.4635  1.9482  0.0144
  600TMC3    H1 8897   1.719   4.067  16.498  0.4087 -0.3881  1.4831
  600TMC3    H2 8898   1.352   3.884  16.441 -0.9155 -1.0350 -2.1934
  600TMC3    C7 8899   1.461   4.105  16.493 -0.0248  0.1835  0.2912
  600TMC3    C8 8900   1.455   3.645  16.346  0.5790  0.5726  0.4710
  600TMC3    O1 8901   1.347   4.093  16.539 -0.2919  0.7358 -1.0063
  600TMC3    O2 8902   1.524   3.548  16.370  0.4495  1.0675  0.2648
  601MPD2     C 8903   3.677   1.576   0.311  0.3336 -0.1422 -0.0313
  601MPD2    C1 8904   3.577   1.567   0.214 -0.7592 -0.7632  0.0677
  601MPD2    C2 8905   3.483   1.468   0.233 -0.2135  0.0289 -0.6820
  601MPD2    C3 8906   3.487   1.369   0.331 -0.0786 -0.0979 -0.6945
  601MPD2    C4 8907   3.590   1.380   0.416 -0.7022  0.1136 -0.1222
  601MPD2    C5 8908   3.682   1.477   0.406 -0.6231 -0.1273  0.2418
  601MPD2     H 8909   3.398   1.474   0.166 -1.4421  0.1669  0.9017
  601MPD2    H1 8910   3.598   1.303   0.492  1.2576 -0.4828 -0.9473
  601MPD2    H2 8911   3.758   1.649   0.309  1.5648 -1.4645  2.8992
  601MPD2    H3 8912   3.764   1.472   0.477 -1.2799  1.8241  1.1510
  601MPD2     N 8913   3.390   1.271   0.344  0.1798 -0.5146  0.2941
  601MPD2    H5 8914   3.404   1.199   0.414 -0.1169 -2.5028 -1.6710
  601MPD2    N1 8915   3.554   1.656   0.107 -0.5639 -0.4346  0.1838
  601MPD2    H7 8916   3.463   1.649   0.063  1.0437  0.0606 -3.2763
  602TMC3    C1 8917   3.621   1.835  17.641 -0.0229  0.4187 -0.7268
  602TMC3    C2 8918   3.730   1.889  17.577 -0.1186 -0.3300 -0.3862
  602TMC3    C3 8919   3.701   1.997  17.501 -0.2895  0.3358 -0.4261
  602TMC3    C4 8920   3.493   1.897  17.635  0.0282 -0.7280 -0.6014
  602TMC3    C5 8921   3.485   2.012  17.559 -0.0701 -0.5432  0.2408
  602TMC3    C6 8922   3.587   2.060  17.490 -0.5299  0.3957  0.4032
  602TMC3     C 8923   3.651   1.740   0.067 -1.0095  0.4587 -0.9642
  602TMC3     O 8924   3.765   1.752   0.106 -0.0932 -0.1133 -0.1001
  602TMC3     H 8925   3.831   1.852  17.590  0.2363  0.2278 -1.6055
  602TMC3    H1 8926   3.415   1.867   0.026  0.1693 -3.2809 -1.5643
  602TMC3    H2 8927   3.571   2.139  17.418  2.5867  0.1225 -0.6092
  602TMC3    C7 8928   3.356   2.067  17.545 -0.1774 -0.0892  0.2628
  602TMC3    C8 8929   3.814   2.076  17.451 -0.1447  0.0792 -0.3673
  602TMC3    O1 8930   3.255   2.005  17.564  0.8236 -0.2066  0.1100
  602TMC3    O2 8931   3.911   2.010  17.418  0.2531  0.3769 -0.0731
  603TMC3    C1 8932   2.784   2.866  10.620  0.0331  0.4084  0.9702
  603TMC3    C2 8933   2.809   2.864  10.756  0.4082  0.6023 -0.3767
  603TMC3    C3 8934   2.753   2.968  10.831  0.5789 -0.1761  0.3433
  603TMC3    C4 8935   2.691   2.945  10.562 -0.2175 -0.3142 -0.6985
  603TMC3    C5 8936   2.631   3.035  10.644  0.5578 -0.6534 -0.1301
  603TMC3    C6 8937   2.671   3.053  10.770  0.1785  0.3966 -0.6569
  603TMC3     C 8938   2.817   2.745  10.539  0.3370  0.4225 -0.6802
  603TMC3     O 8939   2.798   2.747  10.419  0.1299 -0.6008 -0.2148
  603TMC3     H 8940   2.877   2.795  10.805  0.6222  0.6721 -0.5762
  603TMC3    H1 8941   2.658   2.936  10.459  0.6780 -0.0311 -1.0120
  603TMC3    H2 8942   2.594   3.102  10.828  0.4664 -0.7275  0.6655
  603TMC3    C7 8943   2.561   3.147  10.587  0.3839  0.1705  0.2492
  603TMC3    C8 8944   2.738   2.934  10.974 -0.5467  0.4145 -0.3465
  603TMC3    O1 8945   2.578   3.250  10.643  0.2199  0.0847  0.2068
  603TMC3    O2 8946   2.767   2.820  11.002 -0.0550 -0.1727  0.0025
  604MPD2     C 8947   3.067   1.315  16.343  0.7804  0.3087 -0.2985
  604MPD2    C1 8948   2.945   1.276  16.291 -0.9759 -0.5865 -0.0822
  604MPD2    C2 8949   2.943   1.267  16.150  0.7006  0.0866 -0.1035
  604MPD2    C3 8950   3.058   1.278  16.073  0.2508 -0.0993  0.3308
  604MPD2    C4 8951   3.178   1.315  16.132  0.1561 -0.3265 -0.0859
  604MPD2    C5 8952   3.180   1.338  16.269  0.2168 -0.4069  0.3296
  604MPD2     H 8953   2.846   1.251  16.104  1.4787 -0.6059 -1.4906
  604MPD2    H1 8954   3.274   1.320  16.081  0.8605 -0.7421  1.1908
  604MPD2    H2 8955   3.072   1.327  16.451  0.5957 -3.5627  0.1165
  604MPD2    H3 8956   3.268   1.364  16.327 -0.3087  0.5801  0.6859
  604MPD2     N 8957   3.045   1.242  15.942 -0.5571  0.3720  0.1278
  604MPD2    H5 8958   2.953   1.225  15.903 -0.6884  0.6312  0.3313
  604MPD2    N1 8959   2.832   1.259  16.379  0.4971  0.1327  0.2142
  604MPD2    H7 8960   2.841   1.265  16.480 -2.5107 -2.0538  0.6054
  605TMC3    C1 8961   2.623   1.269  16.450  0.2330  0.2670  0.0485
  605TMC3    C2 8962   2.684   1.290  16.570 -0.2414  0.0414  0.1601
  605TMC3    C3 8963   2.640   1.399  16.646 -0.0849 -0.1629  0.6054
  605TMC3    C4 8964   2.512   1.346  16.411 -0.0393  0.0142 -0.0046
  605TMC3    C5 8965   2.467   1.440  16.499  0.4125 -0.6436 -0.6972
  605TMC3    C6 8966   2.531   1.478  16.609  0.0188 -0.0398 -0.2053
  605TMC3     C 8967   2.707   1.232  16.342  0.1231  0.1215  0.9180
  605TMC3     O 8968   2.653   1.227  16.231 -0.4509  0.2136 -0.2390
  605TMC3     H 8969   2.766   1.227  16.602 -1.0026 -2.0357 -1.9496
  605TMC3    H1 8970   2.462   1.315  16.320 -0.5572 -0.7587  0.5357
  605TMC3    H2 8971   2.498   1.560  16.671  2.9788 -0.4979  1.9859
  605TMC3    C7 8972   2.332   1.496  16.478 -0.0493  0.1949 -0.4626
  605TMC3    C8 8973   2.749   1.471  16.707  0.1858 -0.1871 -0.2051
  605TMC3    O1 8974   2.298   1.604  16.532  0.0041 -0.3293  0.0769
  605TMC3    O2 8975   2.855   1.436  16.662  0.2872  0.5745  0.0259
  606TMC3    C1 8976   3.451   0.397   0.303  0.1717 -0.3418  0.0184
  606TMC3    C2 8977   3.487   0.351   0.425  0.2109  0.3846  0.2562
  606TMC3    C3 8978   3.537   0.225   0.438 -0.4122 -0.2588 -0.1762
  606TMC3    C4 8979   3.479   0.336   0.190  0.8960  0.1710 -0.1724
  606TMC3    C5 8980   3.546   0.219   0.200 -0.5607 -0.0929 -0.4787
  606TMC3    C6 8981   3.560   0.153   0.325 -0.1390  0.4375 -0.2832
  606TMC3     C 8982   3.425   0.537   0.295 -0.4615 -0.4427  0.4572
  606TMC3     O 8983   3.386   0.589   0.399 -0.2599  0.0487  0.2425
  606TMC3     H 8984   3.466   0.409   0.514 -0.1386  0.0948  0.3630
  606TMC3    H1 8985   3.421   0.359   0.101  0.0387  2.8411  1.0817
  606TMC3    H2 8986   3.595   0.050   0.332  2.0863  1.1460 -0.8841
  606TMC3    C7 8987   3.571   0.154   0.072  0.1567 -0.8373  0.4150
  606TMC3    C8 8988   3.616   0.188   0.555  0.8089  0.5845 -0.7812
  606TMC3    O1 8989   3.564   0.226  17.651 -0.8764  0.1489  0.0625
  606TMC3    O2 8990   3.720   0.140   0.517  0.7240 -0.3532 -0.3340
  607MPD2     C 8991   1.661   2.597  11.526  0.2315  0.4637 -0.0998
  607MPD2    C1 8992   1.654   2.692  11.627 -1.1642  0.1291  0.4548
  607MPD2    C2 8993   1.624   2.653  11.757  0.0448  0.4424  0.1427
  607MPD2    C3 8994   1.610   2.521  11.784 -0.1709 -0.5740  0.2092
  607MPD2    C4 8995   1.626   2.419  11.688  0.5198  0.4007 -0.2924
  607MPD2    C5 8996   1.637   2.461  11.555  0.6796 -0.5743  0.4192
  607MPD2     H 8997   1.616   2.716  11.844  1.8961  0.1297  0.5372
  607MPD2    H1 8998   1.606   2.314  11.707  0.7636  0.5285  0.6946
  607MPD2    H2 8999   1.674   2.630  11.423 -1.6315 -0.6948 -0.6992
  607MPD2    H3 9000   1.639   2.381  11.482  4.4521  0.2852 -0.4004
  607MPD2     N 9001   1.588   2.494  11.920  0.1663 -0.5102  0.4606
  607MPD2    H5 9002   1.609   2.577  11.975  0.0684 -1.8887  2.5769
  607MPD2    N1 9003   1.670   2.824  11.583 -0.0552  0.0206  0.0328
  607MPD2    H7 9004   1.685   2.845  11.485 -0.5563 -1.2092 -0.3155
  608TMC3    C1 9005   1.698   3.059  11.605 -0.3816  0.1441 -0.0608
  608TMC3    C2 9006   1.670   3.158  11.699  0.4874 -0.0290 -0.2177
  608TMC3    C3 9007   1.760   3.260  11.719  0.4499 -0.6408 -0.0887
  608TMC3    C4 9008   1.816   3.058  11.535  0.0146  0.1944  0.4338
  608TMC3    C5 9009   1.908   3.155  11.567  0.2838 -0.2973 -0.0321
  608TMC3    C6 9010   1.879   3.262  11.645  0.4744 -0.9783 -0.8248
  608TMC3     C 9011   1.657   2.929  11.666  0.4167  0.3914 -0.0366
  608TMC3     O 9012   1.618   2.933  11.784  0.2339  0.3362  0.0933
  608TMC3     H 9013   1.578   3.168  11.755  0.6081  0.2135 -0.0637
  608TMC3    H1 9014   1.840   2.978  11.464  0.1556  0.2278  0.4432
  608TMC3    H2 9015   1.960   3.324  11.681  0.2258 -1.4613  0.5458
  608TMC3    C7 9016   2.014   3.170  11.467  0.1372  0.1292 -0.4147
  608TMC3    C8 9017   1.782   3.286  11.868 -0.2134  0.6411 -0.0869
  608TMC3    O1 9018   1.974   3.175  11.351 -0.5344  0.0229  0.2657
  608TMC3    O2 9019   1.838   3.390  11.900  0.1188  0.2782  0.0278
  609TMC3    C1 9020   0.245   2.769   9.102 -0.2442  0.8320  0.1111
  609TMC3    C2 9021   0.232   2.872   9.009 -0.2371  0.6174 -0.2025
  609TMC3    C3 9022   0.327   2.876   8.905 -0.9515  0.0384 -0.4361
  609TMC3    C4 9023   0.339   2.666   9.087 -0.0110 -0.0425  0.3462
  609TMC3    C5 9024   0.429   2.678   8.976  0.6091  0.1073 -0.2644
  609TMC3    C6 9025   0.425   2.789   8.888  0.1779 -0.1054  0.0040
  609TMC3     C 9026   0.153   2.753   9.209  0.4444  0.0896  0.6133
  609TMC3     O 9027   0.138   2.640   9.253  0.1554  0.1721 -0.2721
  609TMC3     H 9028   0.163   2.953   9.032 -0.9509 -0.0238 -0.0593
  609TMC3    H1 9029   0.343   2.587   9.160  0.0473  1.2189  1.7120
  609TMC3    H2 9030   0.515   2.811   8.833 -0.2129  0.0240 -0.5881
  609TMC3    C7 9031   0.543   2.587   8.978  0.4027  0.8575 -1.3564
  609TMC3    C8 9032   0.324   2.994   8.825  1.2085  0.9668 -0.6541
  609TMC3    O1 9033   0.590   2.552   9.087 -0.9332  0.1080 -0.0767
  609TMC3    O2 9034   0.274   3.088   8.876 -0.5214 -0.4241  0.0358
  610TMC3    C1 9035   2.272   2.554  12.706  0.9722 -0.1839  0.1464
  610TMC3    C2 9036   2.300   2.672  12.641 -0.2356  0.1328 -0.0022
  610TMC3    C3 9037   2.418   2.714  12.612 -0.1257  0.4356 -0.5140
  610TMC3    C4 9038   2.369   2.473  12.749  0.1525  0.2713 -0.1327
  610TMC3    C5 9039   2.494   2.519  12.724  0.0342 -0.0287 -0.6696
  610TMC3    C6 9040   2.526   2.640  12.660 -0.6614  0.2045  0.3735
  610TMC3     C 9041   2.150   2.491  12.663 -0.0890  0.0030 -0.6597
  610TMC3     O 9042   2.098   2.549  12.570 -0.2531  0.0815  0.1246
  610TMC3     H 9043   2.217   2.741  12.632  0.1394  0.8561  1.9445
  610TMC3    H1 9044   2.355   2.388  12.815 -1.0784 -0.2709 -1.0908
  610TMC3    H2 9045   2.626   2.672  12.632 -0.4090 -1.6879 -0.9310
  610TMC3    C7 9046   2.595   2.449  12.799  0.2055  0.5283 -0.1366
  610TMC3    C8 9047   2.437   2.832  12.529 -0.1715  0.0368  0.2771
  610TMC3    O1 9048   2.560   2.365  12.883 -0.5985 -0.1563 -0.1162
  610TMC3    O2 9049   2.554   2.879  12.534  0.4981 -0.4521 -0.2040
  611MPD2     C 9050   1.732   2.477  10.292 -0.1544 -0.2467 -0.4207
  611MPD2    C1 9051   1.645   2.549  10.221  0.4381 -0.0144  0.2802
  611MPD2    C2 9052   1.699   2.657  10.150 -0.3996 -0.2438  0.3380
  611MPD2    C3 9053   1.835   2.684  10.141  0.1662 -0.6209  0.7118
  611MPD2    C4 9054   1.915   2.613  10.225  0.2330  0.1270  0.3922
  611MPD2    C5 9055   1.860   2.513  10.296  0.1119  0.4273 -0.6159
  611MPD2     H 9056   1.633   2.725  10.097  0.7300  0.1096 -0.6142
  611MPD2    H1 9057   2.021   2.634  10.237  0.8003 -3.8139  2.5703
  611MPD2    H2 9058   1.701   2.399  10.360  0.2556 -1.4800 -1.6511
  611MPD2    H3 9059   1.914   2.442  10.358  0.0717 -0.0110 -1.0783
  611MPD2     N 9060   1.896   2.800  10.075  0.4745 -0.0219  0.2547
  611MPD2    H5 9061   1.996   2.811  10.090  0.5355 -1.5218  0.9501
  611MPD2    N1 9062   1.504   2.517  10.244 -0.4515  0.0821  0.0435
  611MPD2    H7 9063   1.464   2.440  10.295  0.8886 -0.9796 -0.4985
  612TMC3    C1 9064   1.906   2.977   9.913 -0.2381 -0.2317 -0.2163
  612TMC3    C2 9065   2.007   3.046   9.969 -0.2969  0.1228 -0.3341
  612TMC3    C3 9066   2.068   3.146   9.896  0.2824  0.7883 -0.5637
  612TMC3    C4 9067   1.864   3.012   9.791  0.3653  0.1065  0.6406
  612TMC3    C5 9068   1.919   3.114   9.727 -1.0050  0.7493  0.2304
  612TMC3    C6 9069   2.027   3.185   9.777 -0.0755 -0.1770  0.1036
  612TMC3     C 9070   1.829   2.876   9.981  0.5816  0.5228  0.3323
  612TMC3     O 9071   1.717   2.864   9.936 -0.0471 -0.9995  0.1955
  612TMC3     H 9072   2.030   3.032  10.074  0.6348  0.7692 -0.4523
  612TMC3    H1 9073   1.781   2.956   9.750  0.5622  1.4654 -1.5840
  612TMC3    H2 9074   2.061   3.278   9.732 -0.9209 -0.4661 -1.1344
  612TMC3    C7 9075   1.831   3.180   9.640  0.4837 -0.7025 -0.7985
  612TMC3    C8 9076   2.155   3.238   9.978  0.7858  0.2076 -0.6896
  612TMC3    O1 9077   1.712   3.162   9.662 -0.2962 -0.6459 -0.3246
  612TMC3    O2 9078   2.167   3.357   9.941  0.5173  0.2689  0.1504
  613MPD2     C 9079   0.043   0.083  16.780  0.5416  0.4081 -0.5246
  613MPD2    C1 9080   0.093   0.052  16.656 -0.7922 -0.7518 -0.0311
  613MPD2    C2 9081   0.057   4.651  16.592  0.1653  0.0545  0.1626
  613MPD2    C3 9082   4.705   4.551  16.658  0.2267 -0.1339  0.6638
  613MPD2    C4 9083   4.665   4.584  16.784  0.2775  0.0258 -0.5754
  613MPD2    C5 9084   4.680   4.708  16.841 -0.4483  0.2805 -0.8152
  613MPD2     H 9085   0.109   4.628  16.500  1.1934  0.5371  0.6235
  613MPD2    H1 9086   4.616   4.509  16.845  2.2468 -0.8230 -0.0285
  613MPD2    H2 9087   0.058   0.182  16.822 -2.9709  0.6326  0.1857
  613MPD2    H3 9088   4.661   0.003  16.947  1.5444  0.7356 -0.5168
  613MPD2     N 9089   4.680   4.428  16.599 -0.2727 -0.1866 -0.0159
  613MPD2    H5 9090   4.680   4.347  16.660  0.8328  0.6556  1.1002
  613MPD2    N1 9091   0.169   0.136  16.572 -0.0443 -0.0446 -0.1423
  613MPD2    H7 9092   0.209   0.109  16.483 -0.1631  0.2731 -0.2932
  614TMC3    C1 9093   0.256   0.318  16.469  0.4330 -0.5084 -0.2898
  614TMC3    C2 9094   0.342   0.225  16.421 -0.1349  0.1696  0.4558
  614TMC3    C3 9095   0.335   0.193  16.289 -0.1191  0.3511  0.8284
  614TMC3    C4 9096   0.183   0.396  16.383 -0.3539  0.0229  0.2766
  614TMC3    C5 9097   0.182   0.366  16.252  0.0836  0.1222 -0.2947
  614TMC3    C6 9098   0.266   0.272  16.198 -0.2600 -0.1166 -0.4734
  614TMC3     C 9099   0.189   0.272  16.590 -0.4107 -0.1657  0.3483
  614TMC3     O 9100   0.119   0.348  16.655 -0.4210  0.0623  0.3203
  614TMC3     H 9101   0.397   0.161  16.488  1.1449  0.3652 -0.4106
  614TMC3    H1 9102   0.107   0.464  16.420 -0.9607 -0.8084  0.5591
  614TMC3    H2 9103   0.250   0.256  16.092  0.1598  1.2334 -0.7345
  614TMC3    C7 9104   0.126   0.463  16.156  0.8323 -0.5010 -0.1554
  614TMC3    C8 9105   0.336   0.049  16.271  0.8373 -0.1461 -0.2167
  614TMC3    O1 9106   0.120   0.577  16.194 -0.3743  0.2643  0.1909
  614TMC3    O2 9107   0.345   4.691  16.366  0.5195  0.0134 -0.2735
  615MPD2     C 9108   0.061   2.467  16.233 -0.0390  0.2370  0.5450
  615MPD2    C1 9109   4.656   2.411  16.267  0.3631  0.0805  0.3895
  615MPD2    C2 9110   4.563   2.403  16.168  0.1579  0.3811 -0.4665
  615MPD2    C3 9111   4.591   2.471  16.043  0.2214 -0.1130 -0.0811
  615MPD2    C4 9112   4.708   2.538  16.020  0.3098 -0.2727  0.0900
  615MPD2    C5 9113   0.091   2.541  16.116  0.1076  0.3097  0.4370
  615MPD2     H 9114   4.483   2.330  16.179  1.5418 -1.0387  0.2678
  615MPD2    H1 9115   0.000   2.592  15.927  1.5093 -0.7856 -0.0581
  615MPD2    H2 9116   0.143   2.464  16.304  1.7488  1.7975 -1.4535
  615MPD2    H3 9117   0.186   2.590  16.095 -0.6931  1.2889 -0.8772
  615MPD2     N 9118   4.503   2.462  15.936  0.0332  0.0717  0.1176
  615MPD2    H5 9119   4.514   2.512  15.848 -0.0802  1.8693  1.1346
  615MPD2    N1 9120   4.630   2.349  16.390  0.1764 -0.1745 -0.1109
  615MPD2    H7 9121   4.540   2.302  16.394 -0.9541  1.9298 -0.6940
  616TMC3    C1 9122   4.642   2.267  16.607 -0.3284  0.1515 -0.4999
  616TMC3    C2 9123   4.700   2.168  16.682  0.0346  0.1927 -0.0388
  616TMC3    C3 9124   4.635   2.116  16.787  0.3057  0.2151  0.0057
  616TMC3    C4 9125   4.512   2.310  16.645  0.4360 -0.2689 -0.4204
  616TMC3    C5 9126   4.439   2.245  16.739  0.1167  0.2120  0.6602
  616TMC3    C6 9127   4.504   2.150  16.811 -0.0335  0.2292  0.5896
  616TMC3     C 9128   4.708   2.329  16.496  0.3852  0.1203 -0.3552
  616TMC3     O 9129   0.111   2.339  16.501  0.6033 -0.0307  0.0793
  616TMC3     H 9130   0.083   2.134  16.665  0.0193 -0.9566  2.2121
  616TMC3    H1 9131   4.480   2.403  16.598  0.4292 -0.5797 -1.0246
  616TMC3    H2 9132   4.450   2.097  16.889 -0.4318  0.1770  0.2808
  616TMC3    C7 9133   4.306   2.293  16.786 -0.1255 -0.0348  0.6243
  616TMC3    C8 9134   4.703   2.023  16.877  0.1178 -0.6924  0.4203
  616TMC3    O1 9135   4.266   2.246  16.890 -0.4459 -0.5101  0.2464
  616TMC3    O2 9136   4.631   1.964  16.959 -0.1556 -0.2147  0.5334
  617MPD2     C 9137   2.660   4.479  13.671 -0.1235 -0.1418 -0.6569
  617MPD2    C1 9138   2.687   4.440  13.802 -0.3631  0.0456  0.7470
  617MPD2    C2 9139   2.578   4.399  13.877  0.1018 -0.2796 -0.1023
  617MPD2    C3 9140   2.455   4.402  13.828  0.2572 -0.2464  0.6109
  617MPD2    C4 9141   2.434   4.454  13.702  0.5241  1.0251 -0.1423
  617MPD2    C5 9142   2.536   4.475  13.620 -0.2823 -0.1157  0.7149
  617MPD2     H 9143   2.592   4.374  13.982 -2.6002  0.1838  0.3631
  617MPD2    H1 9144   2.332   4.461  13.668  0.3277 -2.1321 -0.2254
  617MPD2    H2 9145   2.742   4.489  13.602  1.7291  2.0300  1.8332
  617MPD2    H3 9146   2.522   4.506  13.517 -0.7954  0.5702  0.9877
  617MPD2     N 9147   2.342   4.359  13.897 -0.3540  0.4401  0.3418
  617MPD2    H5 9148   2.248   4.380  13.867 -0.2237  0.3029 -0.1549
  617MPD2    N1 9149   2.817   4.461  13.847 -0.3027 -0.4207 -0.1862
  617MPD2    H7 9150   2.886   4.513  13.793 -0.3881 -0.7175 -0.5837
  618TMC3    C1 9151   3.009   4.403  13.957  0.3220  0.1268  0.1403
  618TMC3    C2 9152   3.075   4.282  13.941 -0.0113 -0.2353 -0.2661
  618TMC3    C3 9153   3.197   4.281  13.874 -0.0150  0.2095 -0.9016
  618TMC3    C4 9154   3.062   4.515  13.910  0.8947 -0.5199 -0.5299
  618TMC3    C5 9155   3.170   4.506  13.830  0.2664  0.0961  0.1133
  618TMC3    C6 9156   3.245   4.389  13.813 -0.3909  0.4085 -0.0077
  618TMC3     C 9157   2.869   4.399  13.959 -0.6158  0.2934  0.0657
  618TMC3     O 9158   2.819   4.301  14.021 -0.0953 -0.3842 -0.5073
  618TMC3     H 9159   3.015   4.192  13.951  1.2269 -1.0982 -0.5613
  618TMC3    H1 9160   3.006   4.606  13.931  0.8957 -0.6038 -0.1480
  618TMC3    H2 9161   3.327   4.379  13.743  0.4619 -0.9005  1.1927
  618TMC3    C7 9162   3.144   4.570  13.704 -0.5020  0.3749  0.1246
  618TMC3    C8 9163   3.249   4.158  13.823 -0.2819 -0.0010  0.8390
  618TMC3    O1 9164   3.029   4.599  13.690 -0.8254  0.1055  0.2614
  618TMC3    O2 9165   3.170   4.067  13.800  0.1531 -0.5270  0.5851
  619MPD2     C 9166   3.968   0.881  14.027  0.6722  0.1308  0.0236
  619MPD2    C1 9167   3.893   0.832  13.923 -0.5471 -0.5785 -0.6348
  619MPD2    C2 9168   3.768   0.778  13.947 -0.2826  0.1569 -0.1337
  619MPD2    C3 9169   3.717   0.772  14.077  0.2572  0.3694  0.3663
  619MPD2    C4 9170   3.788   0.820  14.183 -1.1025 -0.0768  0.0859
  619MPD2    C5 9171   3.906   0.872  14.154 -0.3958 -0.5006 -0.4939
  619MPD2     H 9172   3.716   0.719  13.872  0.0287 -2.0377  1.3785
  619MPD2    H1 9173   3.755   0.798  14.284 -0.5380  1.4837  0.5960
  619MPD2    H2 9174   4.069   0.919  14.025  0.5758  0.3988  0.1932
  619MPD2    H3 9175   3.969   0.907  14.235 -0.6261 -1.5230  0.1303
  619MPD2     N 9176   3.590   0.711  14.082  0.5062 -0.3681  0.0372
  619MPD2    H5 9177   3.552   0.657  14.005  1.8411 -0.2264 -0.7202
  619MPD2    N1 9178   3.931   0.826  13.788 -0.8494 -0.0127 -0.2158
  619MPD2    H7 9179   3.867   0.787  13.719  0.9213 -4.3683  0.5941
  620TMC3    C1 9180   4.033   0.890  13.590 -0.7021 -0.3526  0.5418
  620TMC3    C2 9181   3.944   0.811  13.523 -0.0140  0.1222  0.3068
  620TMC3    C3 9182   3.879   0.850  13.412 -0.6224 -0.0981  0.7322
  620TMC3    C4 9183   4.057   1.018  13.548  0.1509  0.3724 -0.5220
  620TMC3    C5 9184   3.989   1.060  13.433 -0.0337  0.4564 -0.1930
  620TMC3    C6 9185   3.911   0.975  13.364 -0.2892  0.9356  0.5348
  620TMC3     C 9186   4.039   0.883  13.736  0.1254  0.1102  0.0214
  620TMC3     O 9187   4.142   0.936  13.781  0.0639 -0.3805 -0.1600
  620TMC3     H 9188   3.910   0.718  13.565  0.1931  0.0335  0.2781
  620TMC3    H1 9189   4.116   1.084  13.612  0.8570 -2.3195  1.5684
  620TMC3    H2 9190   3.856   1.015  13.280  1.8528  1.6565 -0.5104
  620TMC3    C7 9191   3.942   1.194  13.438 -0.6052  0.0075  0.0781
  620TMC3    C8 9192   3.736   0.849  13.431  0.5758  0.6001  0.2619
  620TMC3    O1 9193   4.018   1.285  13.428  0.0850  0.3955 -0.0086
  620TMC3    O2 9194   3.693   0.962  13.432  0.3339  0.0387 -0.3561
  621MPD2     C 9195   0.197   1.566   9.305  0.3538  0.1295 -0.2726
  621MPD2    C1 9196   0.287   1.540   9.408  0.1688 -0.5063  0.8871
  621MPD2    C2 9197   0.332   1.642   9.486  1.0025  0.0461 -0.0248
  621MPD2    C3 9198   0.301   1.775   9.453 -0.1477  0.2001 -0.1471
  621MPD2    C4 9199   0.235   1.802   9.337 -0.0560  1.3543  0.2047
  621MPD2    C5 9200   0.173   1.699   9.270 -0.1983  0.5319  0.4647
  621MPD2     H 9201   0.400   1.622   9.568  2.3898 -1.0161 -1.4074
  621MPD2    H1 9202   0.205   1.902   9.307 -2.9942 -0.5542 -3.1987
  621MPD2    H2 9203   0.152   1.488   9.244 -1.6017  0.1369  1.1895
  621MPD2    H3 9204   0.110   1.713   9.183  0.2796  0.6454  0.1363
  621MPD2     N 9205   0.358   1.875   9.533  0.4015 -0.4774 -0.5983
  621MPD2    H5 9206   0.429   1.845   9.598  0.0520  1.5283  0.6917
  621MPD2    N1 9207   0.334   1.412   9.452  0.4099 -0.6623  0.0941
  621MPD2    H7 9208   0.386   1.404   9.538  1.8107  0.2241 -0.6659
  622TMC3    C1 9209   0.359   1.189   9.466 -1.0379  0.2021 -0.1593
  622TMC3    C2 9210   0.335   1.184   9.602 -0.8693  0.3127  0.6178
  622TMC3    C3 9211   0.311   1.056   9.659 -0.1653  0.5711 -0.7568
  622TMC3    C4 9212   0.353   1.074   9.398  0.2841 -0.4352 -0.1667
  622TMC3    C5 9213   0.321   0.950   9.450 -0.1047 -0.9268  0.4264
  622TMC3    C6 9214   0.297   0.944   9.583  0.1499  0.1639  0.0411
  622TMC3     C 9215   0.299   1.299   9.389  0.1865  0.0117 -0.6289
  622TMC3     O 9216   0.238   1.277   9.288 -0.0577 -0.4464  0.4703
  622TMC3     H 9217   0.307   1.272   9.658  0.8499  2.6197 -2.1767
  622TMC3    H1 9218   0.371   1.090   9.292  0.0227  1.9631  0.1528
  622TMC3    H2 9219   0.261   0.848   9.618 -2.4801  1.0057 -0.3394
  622TMC3    C7 9220   0.222   0.889   9.362  0.2065  0.0593  0.0795
  622TMC3    C8 9221   0.284   1.039   9.802 -0.5713 -0.0072  0.2225
  622TMC3    O1 9222   0.203   0.769   9.376  0.3752 -0.8121 -0.0899
  622TMC3    O2 9223   0.226   0.937   9.827 -0.2041 -0.0072  0.1894
  623MPD2     C 9224   3.264   1.670  15.955  0.1004  0.9921  0.1628
  623MPD2    C1 9225   3.173   1.668  16.057  0.4504 -0.1419  0.2027
  623MPD2    C2 9226   3.203   1.708  16.186 -0.5122 -0.5753 -0.0073
  623MPD2    C3 9227   3.326   1.760  16.215  0.3654  0.5334 -0.0049
  623MPD2    C4 9228   3.410   1.792  16.111 -0.3896 -0.1237 -0.2234
  623MPD2    C5 9229   3.383   1.741  15.984  0.0212  0.2045 -0.3578
  623MPD2     H 9230   3.137   1.691  16.271 -0.3146  2.7534  0.8226
  623MPD2    H1 9231   3.506   1.843  16.118  0.5852 -2.0049  0.2584
  623MPD2    H2 9232   3.251   1.640  15.852  0.7762 -0.6914  0.5689
  623MPD2    H3 9233   3.465   1.761  15.916  1.6316  1.8425  2.0600
  623MPD2     N 9234   3.355   1.791  16.352  0.0945 -0.1572 -0.3458
  623MPD2    H5 9235   3.283   1.763  16.417  0.3761 -0.6683 -0.2558
  623MPD2    N1 9236   3.040   1.617  16.041  0.8307 -0.2459  0.3703
  623MPD2    H7 9237   2.969   1.627  16.113 -0.6633  0.2208 -1.1605
  624TMC3    C1 9238   3.576   1.881  16.738  0.5542  0.1896  0.2238
  624TMC3    C2 9239   3.456   1.883  16.801 -0.5358  0.6753 -0.1284
  624TMC3    C3 9240   3.340   1.890  16.729 -0.4811 -0.4675  0.0342
  624TMC3    C4 9241   3.582   1.891  16.601  0.0825  0.0468  0.6631
  624TMC3    C5 9242   3.466   1.894  16.535 -0.8017  0.7352 -0.2702
  624TMC3    C6 9243   3.336   1.900  16.590  0.0654 -0.2142  0.5312
  624TMC3     C 9244   3.687   1.829  16.811 -0.2697 -0.2670 -0.5260
  624TMC3     O 9245   3.660   1.744  16.891 -0.4055  0.1270 -0.2862
  624TMC3     H 9246   3.451   1.868  16.908 -1.7244  2.4616  0.0632
  624TMC3    H1 9247   3.681   1.893  16.558 -1.2450  0.1840 -2.3812
  624TMC3    H2 9248   3.251   1.920  16.526 -0.5056 -1.3348  0.9291
  624TMC3    C7 9249   3.471   1.861  16.395 -0.2812  0.3588  0.5701
  624TMC3    C8 9250   3.215   1.916  16.793  0.3046 -0.3313 -0.3625
  624TMC3    O1 9251   3.564   1.915  16.335  0.7184  0.4500  0.1235
  624TMC3    O2 9252   3.217   1.994  16.893  0.2266  0.0198  0.0645
  625MPD2     C 9253   2.953   2.321   0.402  0.2270 -0.0577 -0.4180
  625MPD2    C1 9254   3.058   2.410   0.406  0.3806 -0.0975  0.3867
  625MPD2    C2 9255   3.165   2.379   0.480 -0.7995 -1.0163  0.9343
  625MPD2    C3 9256   3.178   2.264   0.550 -0.8603  0.4775 -0.9755
  625MPD2    C4 9257   3.068   2.176   0.549  0.5609 -0.6459  0.0922
  625MPD2    C5 9258   2.955   2.209   0.480 -0.6617  0.0473 -0.0077
  625MPD2     H 9259   3.239   2.458   0.483 -0.3223 -1.4536  0.7974
  625MPD2    H1 9260   3.079   2.076   0.589  1.3975 -1.3550 -1.9256
  625MPD2    H2 9261   2.856   2.343   0.358 -0.1091  0.1598  0.4331
  625MPD2    H3 9262   2.869   2.145   0.489 -0.2815 -0.4297  0.2257
  625MPD2     N 9263   3.303   2.249   0.616  0.6662 -0.7764  0.0647
  625MPD2    H5 9264   3.377   2.316   0.598 -1.4982  1.4346 -0.6729
  625MPD2    N1 9265   3.049   2.540   0.353  0.4386 -0.7895 -0.0528
  625MPD2    H7 9266   3.130   2.600   0.368 -0.7905  1.2197 -1.4087
  626TMC3    C1 9267   2.955   2.747   0.309 -0.5026  0.2112 -0.2195
  626TMC3    C2 9268   2.867   2.829   0.240  0.2142  0.3230 -0.6794
  626TMC3    C3 9269   2.878   2.967   0.242 -0.9779  0.9569 -0.3339
  626TMC3    C4 9270   3.054   2.804   0.383  0.8001 -0.0660  0.0545
  626TMC3    C5 9271   3.071   2.942   0.379  0.8534  0.0344  0.3092
  626TMC3    C6 9272   2.992   3.023   0.301  0.3232  0.2243 -0.2867
  626TMC3     C 9273   2.938   2.605   0.301  0.1801 -0.7737  0.1320
  626TMC3     O 9274   2.836   2.551   0.259  0.6188 -0.3608  0.6808
  626TMC3     H 9275   2.781   2.791   0.186  0.5517 -0.2487 -0.8163
  626TMC3    H1 9276   3.114   2.757   0.460 -1.3053 -1.1721  1.0118
  626TMC3    H2 9277   3.000   3.130   0.285 -0.5861  0.5708  1.5960
  626TMC3    C7 9278   3.189   2.995   0.444 -0.3041 -0.5820 -0.0705
  626TMC3    C8 9279   2.810   3.047   0.144 -0.6221 -0.0609 -0.0658
  626TMC3    O1 9280   3.281   2.917   0.449  0.3648 -0.6355 -0.5633
  626TMC3    O2 9281   2.772   2.980   0.048  0.3120  0.0660  0.2299
  627MPD2     C 9282   1.944   3.228  14.320  0.3436  0.3031 -0.4753
  627MPD2    C1 9283   1.947   3.163  14.447 -0.2580 -0.1449  0.4879
  627MPD2    C2 9284   1.860   3.059  14.466  0.0043  0.1007  0.6719
  627MPD2    C3 9285   1.778   3.018  14.367  0.1567 -0.1814  0.2509
  627MPD2    C4 9286   1.779   3.081  14.245 -0.1679  0.8636 -0.3341
  627MPD2    C5 9287   1.858   3.187  14.228  0.1372 -0.5584  0.5424
  627MPD2     H 9288   1.850   3.007  14.560  0.4217 -0.4128  0.4346
  627MPD2    H1 9289   1.723   3.042  14.161 -0.9970  1.3852 -0.0207
  627MPD2    H2 9290   2.020   3.302  14.296 -0.6076  1.8166  1.2155
  627MPD2    H3 9291   1.861   3.235  14.131  0.7998 -0.3310  0.6780
  627MPD2     N 9292   1.696   2.905  14.387 -0.5939  0.2627 -0.1391
  627MPD2    H5 9293   1.692   2.870  14.482 -2.1400  0.2358 -0.1984
  627MPD2    N1 9294   2.039   3.199  14.545  0.3385 -0.7658 -0.2235
  627MPD2    H7 9295   2.052   3.139  14.626  0.8853  0.1713  0.3806
  628TMC3    C1 9296   2.192   3.332  14.655  0.1214  0.2177 -0.4435
  628TMC3    C2 9297   2.281   3.234  14.656 -0.3300  0.0677  0.0002
  628TMC3    C3 9298   2.391   3.261  14.733  0.3454 -0.3361 -0.5456
  628TMC3    C4 9299   2.216   3.459  14.702  0.1463  0.5569  1.0756
  628TMC3    C5 9300   2.327   3.485  14.776 -0.7583 -0.2419  0.2626
  628TMC3    C6 9301   2.414   3.376  14.804 -0.4371  0.8027 -0.2991
  628TMC3     C 9302   2.081   3.323  14.563  0.0497 -0.4831 -0.5491
  628TMC3     O 9303   2.038   3.424  14.510  0.0492  0.3789  0.3267
  628TMC3     H 9304   2.269   3.139  14.605 -2.5549  0.1552  0.3702
  628TMC3    H1 9305   2.143   3.539  14.706 -1.5051 -0.6610 -4.4551
  628TMC3    H2 9306   2.516   3.399  14.829  0.0511 -1.8385  0.1010
  628TMC3    C7 9307   2.382   3.625  14.772 -0.1346  1.1719  0.2940
  628TMC3    C8 9308   2.500   3.170  14.718 -0.1519 -0.4239 -0.4961
  628TMC3    O1 9309   2.492   3.651  14.825  0.3098  0.1877 -0.6420
  628TMC3    O2 9310   2.492   3.100  14.615  0.1400  0.3407  0.1410
  629MPD2     C 9311   0.409   1.760  17.009  0.3893  0.5361  0.8593
  629MPD2    C1 9312   0.441   1.864  16.923  0.0045  0.1093  0.4815
  629MPD2    C2 9313   0.340   1.942  16.873 -0.1308  0.1347 -0.5490
  629MPD2    C3 9314   0.214   1.929  16.914 -0.2427  0.0491  0.7800
  629MPD2    C4 9315   0.182   1.819  16.994 -0.0192 -0.0255 -0.6089
  629MPD2    C5 9316   0.281   1.733  17.040 -0.3015 -0.0510 -0.5567
  629MPD2     H 9317   0.367   2.019  16.802 -0.1318  1.2152  0.6316
  629MPD2    H1 9318   0.078   1.804  17.019 -0.1316  0.0325 -1.0496
  629MPD2    H2 9319   0.480   1.688  17.048 -1.1949 -1.5546 -0.1292
  629MPD2    H3 9320   0.249   1.649  17.101  1.6808 -0.1760  0.3122
  629MPD2     N 9321   0.121   2.022  16.863 -0.0100  0.2835  0.8085
  629MPD2    H5 9322   0.165   2.092  16.805  0.6869 -0.9805 -0.1752
  629MPD2    N1 9323   0.576   1.880  16.891  0.7653 -0.0209 -0.3180
  629MPD2    H7 9324   0.647   1.816  16.925  0.4096 -1.3738 -2.1109
  630TMC3    C1 9325   0.759   1.977  16.795  0.7761 -0.5443 -0.4859
  630TMC3    C2 9326   0.814   2.050  16.690  0.8844 -0.4546  0.6106
  630TMC3    C3 9327   0.947   2.024  16.667 -0.4249 -0.1030  0.9109
  630TMC3    C4 9328   0.828   1.902  16.884  0.2998  0.2429  0.5907
  630TMC3    C5 9329   0.964   1.894  16.855 -0.3048 -0.4732  0.2922
  630TMC3    C6 9330   1.024   1.944  16.742 -0.4745  0.2247  0.2536
  630TMC3     C 9331   0.620   1.978  16.808 -0.9191 -0.2778  0.2929
  630TMC3     O 9332   0.565   2.071  16.755  0.1672 -0.4657  0.1412
  630TMC3     H 9333   0.757   2.110  16.620  1.5292 -0.7981 -0.2133
  630TMC3    H1 9334   0.796   1.907  16.988  1.9799 -2.6430  1.2707
  630TMC3    H2 9335   1.120   1.903  16.715 -0.7611  1.3810 -2.5216
  630TMC3    C7 9336   1.035   1.907  16.977 -0.6662  0.8540  0.2308
  630TMC3    C8 9337   1.019   2.115  16.579  0.7350 -0.2817  0.2629
  630TMC3    O1 9338   0.990   1.866  17.087 -0.3713  0.6172  0.0081
  630TMC3    O2 9339   1.140   2.127  16.597 -0.3135 -0.3705 -0.1480
  631MPD2     C 9340   4.363   1.755  15.255  0.3202 -0.4360  0.0935
  631MPD2    C1 9341   4.246   1.823  15.242  0.6798  0.4273 -0.2002
  631MPD2    C2 9342   4.215   1.928  15.327  0.7688 -0.1674  0.4835
  631MPD2    C3 9343   4.309   1.978  15.413  0.5086  0.2424  0.1001
  631MPD2    C4 9344   4.434   1.918  15.417 -0.1511 -0.1126  0.3940
  631MPD2    C5 9345   4.457   1.807  15.341 -0.2444  0.0311 -0.4311
  631MPD2     H 9346   4.118   1.974  15.316  1.1181  0.6074  0.6894
  631MPD2    H1 9347   4.517   1.954  15.478  0.3808 -0.8166  0.0795
  631MPD2    H2 9348   4.388   1.664  15.201  1.4430  0.7656 -1.4065
  631MPD2    H3 9349   4.560   1.773  15.346 -0.5538 -0.8802 -0.1945
  631MPD2     N 9350   4.266   2.090  15.490 -0.4388 -0.3067 -0.7917
  631MPD2    H5 9351   4.169   2.119  15.485  0.4582  3.4030  2.5841
  631MPD2    N1 9352   4.146   1.749  15.178  0.1318 -0.0329 -0.5605
  631MPD2    H7 9353   4.170   1.685  15.103 -0.1050  1.9498 -2.3096
  632TMC3    C1 9354   3.920   1.680  15.139 -0.2005 -0.7519 -0.8974
  632TMC3    C2 9355   3.804   1.651  15.196  0.5244  0.2853 -0.5105
  632TMC3    C3 9356   3.684   1.660  15.133  1.2804  0.0146 -0.0701
  632TMC3    C4 9357   3.922   1.734  15.011  0.0625 -0.1882 -0.0503
  632TMC3    C5 9358   3.804   1.778  14.962  0.0224  0.0087 -0.1018
  632TMC3    C6 9359   3.679   1.737  15.021  0.6110  0.4463  0.1141
  632TMC3     C 9360   4.012   1.757  15.218 -0.3488 -0.4183  0.3061
  632TMC3     O 9361   3.963   1.798  15.320 -0.5602  0.1942 -0.2245
  632TMC3     H 9362   3.813   1.616  15.298 -1.8075  1.2956  0.0572
  632TMC3    H1 9363   4.015   1.761  14.960  0.6160 -0.8169  0.6300
  632TMC3    H2 9364   3.578   1.759  14.988  0.2481 -2.4753 -0.7557
  632TMC3    C7 9365   3.805   1.855  14.838 -0.1611  0.0804 -0.8135
  632TMC3    C8 9366   3.565   1.661  15.213  0.1336  0.0056 -0.8084
  632TMC3    O1 9367   3.904   1.836  14.770 -0.0226 -0.2400 -0.0444
  632TMC3    O2 9368   3.468   1.719  15.181  0.4307  0.0117 -0.4823
  633MPD2     C 9369   3.103   4.329  17.431  0.2134 -0.3011  0.3347
  633MPD2    C1 9370   3.183   4.265  17.345 -0.3451 -0.0409  0.6738
  633MPD2    C2 9371   3.273   4.168  17.384 -0.5785  0.3017  0.0354
  633MPD2    C3 9372   3.299   4.141  17.510  0.3551  0.2428  0.7970
  633MPD2    C4 9373   3.232   4.215  17.603 -0.2033 -0.0052  0.2016
  633MPD2    C5 9374   3.123   4.294  17.563 -1.1001  0.0085  0.2575
  633MPD2     H 9375   3.333   4.122  17.306 -0.1321  1.5832 -0.3829
  633MPD2    H1 9376   3.245   4.202   0.031  0.8650 -1.6172 -0.1220
  633MPD2    H2 9377   3.016   4.391  17.414 -0.8057 -1.7292  0.3187
  633MPD2    H3 9378   3.054   4.327  17.639 -2.2858 -2.4527  0.2532
  633MPD2     N 9379   3.407   4.063  17.553 -0.3993  0.2699 -0.5439
  633MPD2    H5 9380   3.443   4.066  17.648  2.0796 -3.4564 -1.3701
  633MPD2    N1 9381   3.172   4.271  17.205  0.3438 -0.4700 -0.4317
  633MPD2    H7 9382   3.219   4.200  17.150 -1.0308 -1.3478 -0.4622
  634TMC3    C1 9383   3.113   4.382  17.002  0.6510 -0.0998 -0.8433
  634TMC3    C2 9384   3.103   4.270  16.929  0.3250  0.2470 -0.0634
  634TMC3    C3 9385   3.096   4.279  16.792 -0.3647 -0.1216 -0.0112
  634TMC3    C4 9386   3.128   4.502  16.937 -0.7420  0.5860  0.0856
  634TMC3    C5 9387   3.131   4.504  16.804  0.9577  0.5144 -0.3649
  634TMC3    C6 9388   3.113   4.396  16.726  0.2832  0.4025  0.5916
  634TMC3     C 9389   3.106   4.379  17.148  1.0293  0.0592 -0.3423
  634TMC3     O 9390   3.074   4.483  17.194 -0.0255  0.4427 -0.2235
  634TMC3     H 9391   3.073   4.173  16.968 -2.8136  1.2831  0.1568
  634TMC3    H1 9392   3.144   4.585  17.005  0.0017 -1.1125  1.9895
  634TMC3    H2 9393   3.133   4.393  16.620  0.9498 -0.6384  0.7572
  634TMC3    C7 9394   3.116   4.631  16.731 -0.3936  0.9105 -0.0769
  634TMC3    C8 9395   3.151   4.160  16.729 -0.7243 -0.0141  1.0077
  634TMC3    O1 9396   3.176   4.646  16.627  0.8415 -0.1735 -0.2229
  634TMC3    O2 9397   3.202   4.077  16.798  0.2793  0.0028  0.4829
  635TMC3    C1 9398   3.211   0.134  17.627  0.4466  0.6916  0.1454
  635TMC3    C2 9399   3.243   0.091  17.502  0.0591  0.2466 -0.2978
  635TMC3    C3 9400   3.299   4.684  17.487  0.5286 -0.3401  0.0011
  635TMC3    C4 9401   3.241   0.063   0.062 -0.6963 -0.8588 -0.3708
  635TMC3    C5 9402   3.291   4.659   0.043 -0.0341  0.0714  0.4490
  635TMC3    C6 9403   3.324   4.608  17.598 -0.5416 -0.7558 -0.0911
  635TMC3     C 9404   3.193   0.278  17.643 -0.7697 -0.2770  0.1248
  635TMC3     O 9405   3.171   0.304   0.078 -0.3972  0.2041 -0.3567
  635TMC3     H 9406   3.203   0.147  17.419 -0.0078  0.2070 -0.2923
  635TMC3    H1 9407   3.228   0.112   0.158  0.4053 -2.5360  0.6217
  635TMC3    H2 9408   3.357   4.505  17.595 -0.3906 -0.6712 -1.1547
  635TMC3    C7 9409   3.335   4.582   0.159  0.6220  0.3081 -0.5226
  635TMC3    C8 9410   3.363   4.656  17.365  0.2850  0.3257 -0.0442
  635TMC3    O1 9411   3.349   4.462   0.141  0.4264  0.3655  0.1537
  635TMC3    O2 9412   3.386   0.036  17.301  0.1830  0.1939 -0.1660
  636MPD2     C 9413   4.508   4.588  15.740 -0.3391 -0.4434  1.3847
  636MPD2    C1 9414   4.485   4.637  15.864  0.4357  0.3608 -0.0560
  636MPD2    C2 9415   4.518   4.557  15.969  0.7958  0.3734 -0.1716
  636MPD2    C3 9416   4.566   4.435  15.952  0.6946  0.0828  0.4551
  636MPD2    C4 9417   4.588   4.382  15.826 -0.5016  0.4762  0.6879
  636MPD2    C5 9418   4.551   4.459  15.714  0.1087  0.2956  0.0707
  636MPD2     H 9419   4.508   4.600  16.068 -0.3774  1.4384 -0.7448
  636MPD2    H1 9420   4.606   4.277  15.811  1.5550  0.9814 -0.3244
  636MPD2    H2 9421   4.498   4.647  15.650 -1.8906 -3.8127 -0.6269
  636MPD2    H3 9422   4.567   4.422  15.613  0.2096  0.0321  0.1839
  636MPD2     N 9423   4.593   4.368  16.069 -0.1349 -0.1236  0.0031
  636MPD2    H5 9424   4.570   4.418  16.154  0.2615 -2.4310  1.4780
  636MPD2    N1 9425   4.434   0.048  15.887  0.1291  0.3205 -0.5940
  636MPD2    H7 9426   4.409   0.074  15.982  2.1428  1.6030 -0.3990
  637TMC3    C1 9427   4.648   4.187  16.223 -0.0569 -0.0005 -0.0443
  637TMC3    C2 9428   4.600   4.273  16.317  0.2691 -0.1635  0.7530
  637TMC3    C3 9429   4.679   4.283  16.423  0.9591  0.1015  0.5261
  637TMC3    C4 9430   0.056   4.133  16.229  0.0938 -0.6785 -0.0699
  637TMC3    C5 9431   0.143   4.170  16.329  0.4958  0.3895 -0.4704
  637TMC3    C6 9432   0.086   4.230  16.439  0.8547 -0.5873 -0.1131
  637TMC3     C 9433   4.629   4.237  16.085  0.2669 -0.3320  0.0261
  637TMC3     O 9434   4.637   4.152  15.997  0.3787  0.3378  0.0966
  637TMC3     H 9435   4.498   4.307  16.307  0.2731 -1.1830 -2.6924
  637TMC3    H1 9436   0.092   4.073  16.146  1.9865  0.4971 -0.0839
  637TMC3    H2 9437   0.144   4.271  16.520 -0.3383  0.5751  0.1519
  637TMC3    C7 9438   0.256   4.237  16.298 -0.3518 -0.0790 -0.0438
  637TMC3    C8 9439   4.676   4.418  16.465 -0.2068  0.0922  0.6372
  637TMC3    O1 9440   0.310   4.306  16.383  0.4057  0.6663 -0.0522
  637TMC3    O2 9441   4.640   4.503  16.382  0.3454  0.1666  0.2840
  638MPD2     C 9442   4.352   3.923  14.822  0.1642 -0.7943 -0.5615
  638MPD2    C1 9443   4.378   3.800  14.763 -0.0131  0.3799 -0.8339
  638MPD2    C2 9444   4.317   3.689  14.815 -0.0175 -0.2606  0.2331
  638MPD2    C3 9445   4.229   3.695  14.917 -0.4422  0.5197  0.3852
  638MPD2    C4 9446   4.195   3.818  14.969  0.3195  0.9176  0.2697
  638MPD2    C5 9447   4.259   3.927  14.925 -0.1780 -0.5942  0.2925
  638MPD2     H 9448   4.337   3.594  14.767 -0.3301 -1.0525  1.6825
  638MPD2    H1 9449   4.115   3.823  15.042  0.8949  1.1944  0.8794
  638MPD2    H2 9450   4.403   4.014  14.793 -1.7947  0.7556  0.8672
  638MPD2    H3 9451   4.240   4.025  14.967 -0.3383  0.3488 -1.9816
  638MPD2     N 9452   4.177   3.567  14.963 -0.4751  0.3277  1.0090
  638MPD2    H5 9453   4.213   3.482  14.921 -1.9621  1.1758 -1.9876
  638MPD2    N1 9454   4.473   3.789  14.655  0.7259 -1.1365  0.0726
  638MPD2    H7 9455   4.530   3.871  14.636  0.8138 -0.8802  1.4319
  639TMC3    C1 9456   4.048   3.422  15.074 -0.0425 -0.3513  0.0252
  639TMC3    C2 9457   3.917   3.379  15.100 -0.2431  0.5195  0.2789
  639TMC3    C3 9458   3.903   3.263  15.168  0.4188  0.0859 -0.2185
  639TMC3    C4 9459   4.160   3.352  15.117  1.0833 -0.0105  0.1293
  639TMC3    C5 9460   4.138   3.242  15.183 -0.0857 -1.0177  0.2978
  639TMC3    C6 9461   4.009   3.199  15.220 -0.3193  0.4369  0.1261
  639TMC3     C 9462   4.066   3.552  15.041  0.0306  0.3044  0.1428
  639TMC3     O 9463   3.978   3.633  15.070 -0.1310  0.0670 -0.1231
  639TMC3     H 9464   3.830   3.437  15.072 -0.8912 -1.2046 -1.2786
  639TMC3    H1 9465   4.259   3.395  15.110  0.7530  0.8806  0.9872
  639TMC3    H2 9466   4.006   3.096  15.254 -0.4415 -0.1503 -1.6769
  639TMC3    C7 9467   4.247   3.145  15.210 -0.2531 -0.0828  0.1769
  639TMC3    C8 9468   3.829   3.166  15.094  0.4332 -0.3676 -0.2163
  639TMC3    O1 9469   4.224   3.045  15.277  0.1219  0.0931 -0.3454
  639TMC3    O2 9470   3.879   3.053  15.083  0.0774 -0.0550 -0.3509
  640MPD2     C 9471   0.447   2.806  10.346  0.5853 -0.2019 -0.6648
  640MPD2    C1 9472   0.436   2.881  10.229 -0.3649 -0.0384 -0.5880
  640MPD2    C2 9473   0.375   2.997  10.238 -0.5516 -0.2857 -0.7132
  640MPD2    C3 9474   0.335   3.051  10.360 -0.2703  0.1862  0.0095
  640MPD2    C4 9475   0.354   2.979  10.476 -0.0647  0.2009  0.0267
  640MPD2    C5 9476   0.402   2.853  10.466  0.1630 -0.6208 -0.5194
  640MPD2     H 9477   0.355   3.053  10.147  0.0817  0.1223 -0.6072
  640MPD2    H1 9478   0.343   3.024  10.574  2.4345  1.7951 -0.4279
  640MPD2    H2 9479   0.491   2.708  10.358  0.7567 -0.0752 -0.2724
  640MPD2    H3 9480   0.429   2.792  10.552  2.0987  0.0008 -0.7007
  640MPD2     N 9481   0.273   3.177  10.357  0.4409 -0.0034  0.9537
  640MPD2    H5 9482   0.270   3.226  10.268 -1.5054 -0.7856  0.5831
  640MPD2    N1 9483   0.467   2.826  10.105 -0.4835  0.1700 -0.0253
  640MPD2    H7 9484   0.439   2.875  10.021 -0.0583  1.7132  0.7262
  641TMC3    C1 9485   0.561   2.690   9.932  0.8403 -0.7305  0.1075
  641TMC3    C2 9486   0.625   2.576   9.903  0.0291  0.0756 -0.7036
  641TMC3    C3 9487   0.626   2.548   9.768 -0.1903  0.1078  0.5140
  641TMC3    C4 9488   0.547   2.795   9.842  0.5872  0.5139  0.0165
  641TMC3    C5 9489   0.548   2.761   9.714 -0.3025 -0.5295 -0.5564
  641TMC3    C6 9490   0.588   2.635   9.672 -0.2273 -0.4391  0.7558
  641TMC3     C 9491   0.532   2.707  10.077  0.0543 -0.0485  0.2924
  641TMC3     O 9492   0.573   2.623  10.157  0.0123  0.5025 -0.3830
  641TMC3     H 9493   0.655   2.498   9.972  2.6199 -1.2502 -3.3495
  641TMC3    H1 9494   0.504   2.888   9.877  0.0007 -0.2877  1.4158
  641TMC3    H2 9495   0.585   2.609   9.567 -0.7386  2.6155  0.0050
  641TMC3    C7 9496   0.541   2.870   9.616 -0.1896  0.1132 -0.7550
  641TMC3    C8 9497   0.690   2.431   9.712  0.9626  0.2819  0.1266
  641TMC3    O1 9498   0.476   2.966   9.652  0.1770 -0.9291 -0.0755
  641TMC3    O2 9499   0.729   2.435   9.597 -0.7418 -0.4969 -0.2974
  642TMC3    C1 9500   1.388   3.756  11.952  0.0335  0.5897  0.1657
  642TMC3    C2 9501   1.457   3.804  12.056 -0.2204 -0.1213  0.6125
  642TMC3    C3 9502   1.542   3.719  12.122  0.2812 -0.5765  0.8300
  642TMC3    C4 9503   1.384   3.623  11.915  0.1846  0.6918  0.7466
  642TMC3    C5 9504   1.465   3.532  11.994  0.4570 -0.2908  0.5841
  642TMC3    C6 9505   1.548   3.579  12.093  0.5789 -0.7201  0.6594
  642TMC3     C 9506   1.326   3.858  11.873 -0.3892 -0.3726 -0.1689
  642TMC3     O 9507   1.317   3.843  11.751  0.0925 -0.0031 -0.0820
  642TMC3     H 9508   1.462   3.910  12.078  0.1093  0.7663 -3.8549
  642TMC3    H1 9509   1.320   3.604  11.830  0.5154  1.6061  0.3036
  642TMC3    H2 9510   1.618   3.520  12.152  1.1522 -2.0888 -1.3841
  642TMC3    C7 9511   1.440   3.396  11.969 -0.5474  0.4812 -0.4993
  642TMC3    C8 9512   1.625   3.767  12.233  0.3736 -0.0681  0.4534
  642TMC3    O1 9513   1.397   3.358  11.860 -0.5421  0.0073  0.1840
  642TMC3    O2 9514   1.718   3.691  12.262  0.3004  0.0337  0.1746
  643TMC3    C1 9515   0.432   2.845   0.411  0.3956  0.3658  0.2344
  643TMC3    C2 9516   0.298   2.831   0.450  0.5554 -0.6318  0.1144
  643TMC3    C3 9517   0.219   2.736   0.385  0.1154 -0.0987 -0.4936
  643TMC3    C4 9518   0.488   2.779   0.310 -0.1389  0.5632 -0.4118
  643TMC3    C5 9519   0.415   2.673   0.258  0.7018 -0.8404 -0.4781
  643TMC3    C6 9520   0.288   2.648   0.304 -0.5197 -0.3274 -0.5245
  643TMC3     C 9521   0.494   2.977   0.433 -0.0918 -0.0005 -0.1499
  643TMC3     O 9522   0.432   3.082   0.443 -0.0793 -0.1058  0.3313
  643TMC3     H 9523   0.248   2.900   0.516  0.7499 -0.1096 -0.2842
  643TMC3    H1 9524   0.583   2.801   0.263 -0.2602  0.8580 -0.5192
  643TMC3    H2 9525   0.228   2.567   0.265 -0.9022  0.0676 -0.7660
  643TMC3    C7 9526   0.432   2.669   0.116 -0.6174 -0.4220  0.2614
  643TMC3    C8 9527   0.099   2.784   0.323  0.1921 -0.2434  0.9056
  643TMC3    O1 9528   0.545   2.684   0.074 -0.1031 -0.4589 -0.3175
  643TMC3    O2 9529   0.043   2.706   0.249 -0.1187 -0.3185  0.3841
  644MPD2     C 9530   0.239   3.221   9.571  0.0699 -0.2565 -0.1149
  644MPD2    C1 9531   0.342   3.293   9.510  0.4609 -0.2643 -0.4553
  644MPD2    C2 9532   0.300   3.409   9.445  0.2594 -0.2130  0.1081
  644MPD2    C3 9533   0.167   3.445   9.437  0.2068 -0.1378  0.5739
  644MPD2    C4 9534   0.069   3.361   9.483  0.0931  0.0149 -0.3461
  644MPD2    C5 9535   0.104   3.250   9.557  0.0238 -0.2520 -0.0349
  644MPD2     H 9536   0.383   3.469   9.411  0.0938 -0.3126 -0.4612
  644MPD2    H1 9537   4.682   3.377   9.468 -0.1355 -1.1639 -0.0338
  644MPD2    H2 9538   0.264   3.135   9.632 -2.4321 -1.9274 -1.4396
  644MPD2    H3 9539   0.024   3.183   9.587 -0.9609  2.1642  2.7526
  644MPD2     N 9540   0.143   3.558   9.366 -0.3230  0.1457  0.1197
  644MPD2    H5 9541   0.226   3.602   9.327 -0.4656  0.0248 -0.3163
  644MPD2    N1 9542   0.481   3.256   9.532 -0.5623  0.1101 -0.6479
  644MPD2    H7 9543   0.492   3.166   9.577 -0.3313  0.9424  0.9528
  645TMC3    C1 9544   0.022   3.741   9.271  0.9592 -0.6688 -0.0696
  645TMC3    C2 9545   0.128   3.777   9.196 -0.0966 -0.5964  0.5893
  645TMC3    C3 9546   0.117   3.874   9.109  0.0838 -0.0692 -0.8779
  645TMC3    C4 9547   4.621   3.805   9.267 -0.0827 -0.0824  0.3858
  645TMC3    C5 9548   4.621   3.923   9.204 -0.1000 -0.4907 -0.7699
  645TMC3    C6 9549   4.718   3.948   9.113  0.2195  0.0382 -0.9339
  645TMC3     C 9550   0.024   3.624   9.364 -0.2169  0.2870 -0.7400
  645TMC3     O 9551   4.653   3.622   9.445  0.1825 -0.6865 -0.2424
  645TMC3     H 9552   0.215   3.712   9.190 -0.4727 -1.1750  1.3988
  645TMC3    H1 9553   4.540   3.777   9.333  0.6213 -1.2532  0.7591
  645TMC3    H2 9554   0.004   4.041   9.057  2.3350 -0.8712 -2.2463
  645TMC3    C7 9555   4.509   4.007   9.219 -0.1136  0.0208  0.4138
  645TMC3    C8 9556   0.228   3.902   9.019  0.7315 -0.0060 -0.4997
  645TMC3    O1 9557   4.418   3.963   9.287  0.4324 -0.5890 -0.3343
  645TMC3    O2 9558   0.344   3.873   9.053 -0.7301  0.1166 -0.4513
  646MPD2     C 9559   4.356   2.276  14.789 -0.8989 -1.2120 -0.0680
  646MPD2    C1 9560   4.304   2.213  14.681 -0.4585 -0.4058 -0.1103
  646MPD2    C2 9561   4.221   2.284  14.589  0.1517 -0.5008 -0.6241
  646MPD2    C3 9562   4.195   2.420  14.614  0.5928 -0.6183 -0.1395
  646MPD2    C4 9563   4.240   2.473  14.731 -0.0050  0.0572  0.3307
  646MPD2    C5 9564   4.322   2.406  14.810  0.1912 -0.2391 -0.1124
  646MPD2     H 9565   4.183   2.246  14.495  3.2389 -1.8101 -1.3313
  646MPD2    H1 9566   4.209   2.573  14.761 -0.4847  0.3738 -1.2219
  646MPD2    H2 9567   4.415   2.229  14.866 -0.6196 -1.0854 -0.2047
  646MPD2    H3 9568   4.365   2.453  14.897  1.4592 -1.4416 -0.0769
  646MPD2     N 9569   4.134   2.499  14.508 -0.2880  0.1727  0.6421
  646MPD2    H5 9570   4.101   2.454  14.423 -1.2176  0.3376  0.9153
  646MPD2    N1 9571   4.339   2.085  14.655  0.4126  0.2258  0.2522
  646MPD2    H7 9572   4.423   2.048  14.699 -0.3758 -0.6430  1.0235
  647TMC3    C1 9573   4.322   1.865  14.596 -0.1606  0.4162  0.3697
  647TMC3    C2 9574   4.265   1.769  14.671 -0.5593 -0.1579  1.0622
  647TMC3    C3 9575   4.333   1.659  14.709 -0.1537 -0.2124  0.6962
  647TMC3    C4 9576   4.455   1.853  14.561 -1.4019 -0.3528  0.0053
  647TMC3    C5 9577   4.524   1.744  14.605  0.5384 -0.2029  0.7871
  647TMC3    C6 9578   4.466   1.643  14.680  0.3177 -0.0868 -0.1746
  647TMC3     C 9579   4.258   1.992  14.594 -0.1397  0.6186 -0.0925
  647TMC3     O 9580   4.142   1.995  14.555  0.0161 -0.3607 -0.4637
  647TMC3     H 9581   4.157   1.772  14.686 -0.6712  1.0294  0.0128
  647TMC3    H1 9582   4.505   1.926  14.498  0.3523 -0.4386  1.3079
  647TMC3    H2 9583   4.524   1.555  14.701 -0.1884 -0.7616 -1.5930
  647TMC3    C7 9584   4.661   1.719  14.569  0.3929 -0.6844 -0.7779
  647TMC3    C8 9585   4.273   1.586  14.814  0.8125  0.6205  0.5857
  647TMC3    O1 9586   4.694   1.609  14.530  0.3979  1.3952 -0.2187
  647TMC3    O2 9587   4.350   1.560  14.907  0.2633 -0.6924 -0.5297
  648TMC3    C1 9588   3.543   4.454  15.983  0.8963  0.4494  0.0708
  648TMC3    C2 9589   3.552   4.335  15.919 -0.3298  0.3397  0.3159
  648TMC3    C3 9590   3.582   4.342  15.783 -0.3592 -0.2594  0.4837
  648TMC3    C4 9591   3.546   4.574  15.920 -0.3015  0.4810  0.9491
  648TMC3    C5 9592   3.561   4.578  15.785 -0.2423  0.1251 -0.5741
  648TMC3    C6 9593   3.581   4.463  15.714 -0.5373  0.0577 -0.9060
  648TMC3     C 9594   3.584   4.464  16.119 -0.3611  0.7620  0.2843
  648TMC3     O 9595   3.668   4.549  16.146 -0.0862  0.0857  0.2576
  648TMC3     H 9596   3.548   4.242  15.973  2.8480  0.5473  0.9014
  648TMC3    H1 9597   3.547   4.659  15.986  2.6319  0.4352  0.9523
  648TMC3    H2 9598   3.600   4.472  15.607  1.6235  2.8890 -0.2577
  648TMC3    C7 9599   3.528   4.704  15.726 -0.3397 -0.2658  0.5851
  648TMC3    C8 9600   3.622   4.224  15.715  0.1211  0.0476 -0.0018
  648TMC3    O1 9601   3.582   0.017  15.620  0.0458 -0.2713  0.8650
  648TMC3    O2 9602   3.582   4.114  15.757  0.0895  0.0990  0.2173
  649TMC3    C1 9603   2.436   0.989  13.100 -0.2739  0.2379  0.4855
  649TMC3    C2 9604   2.553   1.040  13.137  0.3576  0.0602  0.3867
  649TMC3    C3 9605   2.632   0.966  13.222  0.1160 -0.6372  0.7784
  649TMC3    C4 9606   2.399   0.864  13.125 -0.1773  0.3481 -0.1254
  649TMC3    C5 9607   2.481   0.794  13.204 -0.7641  0.5863  0.1383
  649TMC3    C6 9608   2.592   0.845  13.267  0.5453 -0.0324 -0.9331
  649TMC3     C 9609   2.342   1.084  13.045  0.3421  0.7006 -0.5424
  649TMC3     O 9610   2.365   1.197  13.086  0.3103 -0.0742  0.5476
  649TMC3     H 9611   2.585   1.142  13.117 -1.0624  0.3017 -0.5775
  649TMC3    H1 9612   2.308   0.821  13.087 -0.2066  1.0021 -0.7799
  649TMC3    H2 9613   2.649   0.800  13.347  1.2045 -1.4332 -2.1968
  649TMC3    C7 9614   2.430   0.664  13.250  0.3448 -0.0867 -0.2220
  649TMC3    C8 9615   2.723   1.039  13.313 -0.1064 -0.8362 -1.4980
  649TMC3    O1 9616   2.311   0.629  13.232  0.0438  0.2199 -0.1311
  649TMC3    O2 9617   2.728   0.996  13.425  0.1613  0.5561  0.2454
  650TMC3    C1 9618   0.587   2.913  12.442 -0.4883  0.0495 -0.2039
  650TMC3    C2 9619   0.603   3.050  12.428  0.1458  0.0726 -1.3293
  650TMC3    C3 9620   0.638   3.088  12.302 -0.2845  0.0715 -0.8337
  650TMC3    C4 9621   0.598   2.818  12.341  0.2858 -0.1763  0.4106
  650TMC3    C5 9622   0.626   2.868  12.220  0.7465 -0.0678  0.5981
  650TMC3    C6 9623   0.639   3.002  12.196  0.5362  0.2643  0.3713
  650TMC3     C 9624   0.554   2.876  12.577  0.6637  0.3636 -0.7310
  650TMC3     O 9625   0.528   2.975  12.646  0.4618  0.4918 -0.1146
  650TMC3     H 9626   0.596   3.126  12.504  3.7707 -0.2818 -0.6442
  650TMC3    H1 9627   0.555   2.718  12.343  2.1308 -0.9696  0.8886
  650TMC3    H2 9628   0.643   3.046  12.097  0.3723  0.4775  0.4588
  650TMC3    C7 9629   0.580   2.792  12.107 -0.3434 -0.3680 -0.7272
  650TMC3    C8 9630   0.595   3.213  12.251 -0.5728 -0.0023 -0.1785
  650TMC3    O1 9631   0.638   2.825  12.002 -0.4192  0.1179 -0.1439
  650TMC3    O2 9632   0.673   3.282  12.187  0.2566  0.7189  0.4758
  651MPD2     C 9633   4.474   4.536  10.619  0.0317  0.4954 -1.1725
  651MPD2    C1 9634   4.465   4.671  10.592 -0.0592  0.3557  0.0430
  651MPD2    C2 9635   4.576   4.713  10.526  0.5317 -0.7830  0.2286
  651MPD2    C3 9636   4.692   4.639  10.495  0.0896 -0.3678 -0.3517
  651MPD2    C4 9637   4.684   4.506  10.523 -0.0130 -0.5470  0.0096
  651MPD2    C5 9638   4.573   4.453  10.584 -0.3151 -0.1834 -0.0299
  651MPD2     H 9639   4.580   0.098  10.497  0.1294 -1.3503 -1.8538
  651MPD2    H1 9640   0.049   4.441  10.503  0.2039 -0.1399 -0.4075
  651MPD2    H2 9641   4.380   4.492  10.651  1.0302 -2.5909 -2.5598
  651MPD2    H3 9642   4.565   4.345  10.580  2.0031 -0.3544  0.1400
  651MPD2     N 9643   0.084   4.708  10.449 -0.0958 -0.0236  0.7381
  651MPD2    H5 9644   0.073   0.087  10.422 -0.4344  0.2542  1.9031
  651MPD2    N1 9645   4.361   0.032  10.631 -0.6756 -0.2962 -0.1346
  651MPD2    H7 9646   4.364   0.129  10.602 -2.8630 -0.2251 -0.1249
  652TMC3    C1 9647   0.529   0.109  10.376 -0.3151 -0.2363 -0.4127
  652TMC3    C2 9648   0.438   0.029  10.440  0.1741 -0.6143  0.3111
  652TMC3    C3 9649   0.311   0.030  10.391  0.5800  0.3386 -0.4107
  652TMC3    C4 9650   0.504   0.210  10.297  0.0934  0.2462 -0.4298
  652TMC3    C5 9651   0.372   0.212  10.247  0.6059 -0.3507 -0.3307
  652TMC3    C6 9652   0.279   0.124  10.291  0.9050  0.0194 -0.0922
  652TMC3     C 9653   0.648   0.113  10.448  0.0909  0.1400 -0.4797
  652TMC3     O 9654   0.647   0.096  10.567 -0.3635 -0.1412 -0.5207
  652TMC3     H 9655   0.468   4.668  10.507 -0.5211 -2.0806 -1.1392
  652TMC3    H1 9656   0.587   0.273  10.268  1.9876 -1.7361  0.6979
  652TMC3    H2 9657   0.176   0.136  10.258  0.9383  3.0008  0.8682
  652TMC3    C7 9658   0.327   0.330  10.174  0.4275 -0.7088  0.2307
  652TMC3    C8 9659   0.212   4.661  10.454 -0.0103 -0.1828  0.0152
  652TMC3    O1 9660   0.234   0.318  10.095 -0.0652 -0.1527 -0.5064
  652TMC3    O2 9661   0.257   4.567  10.514  0.8121 -0.0351  0.2883
  653MPD2     C 9662   2.833   0.081  17.481 -0.7097  0.2752  1.2257
  653MPD2    C1 9663   2.743   0.172  17.429  0.1765  0.7307  0.5563
  653MPD2    C2 9664   2.649   0.117  17.337  0.4599 -0.4775 -0.0443
  653MPD2    C3 9665   2.650   4.704  17.303  0.5162  0.2772 -0.4973
  653MPD2    C4 9666   2.744   4.614  17.359 -1.1705  0.4486  0.0852
  653MPD2    C5 9667   2.834   4.668  17.444  0.5210 -0.0788 -0.3181
  653MPD2     H 9668   2.582   0.190  17.296  0.8092  0.6253  1.3395
  653MPD2    H1 9669   2.750   4.508  17.339 -3.4732  0.5416 -1.1207
  653MPD2    H2 9670   2.905   0.114  17.555  1.2657 -0.4999 -0.3760
  653MPD2    H3 9671   2.908   4.605  17.491  0.7733  0.4851  0.0403
  653MPD2     N 9672   2.569   4.656  17.195  0.4046 -0.2016  0.2836
  653MPD2    H5 9673   2.535   0.010  17.134 -0.1126  0.2252  1.0808
  653MPD2    N1 9674   2.747   0.309  17.446 -0.5593  0.9109 -0.2209
  653MPD2    H7 9675   2.689   0.375  17.395 -0.9051  0.4443 -0.4374
  654TMC3    C1 9676   2.461   4.493  17.038  0.7964 -0.5197  0.3523
  654TMC3    C2 9677   2.402   4.599  16.972  0.4730  0.5393 -0.4014
  654TMC3    C3 9678   2.367   4.575  16.841  0.2515 -1.0640  0.1561
  654TMC3    C4 9679   2.496   4.382  16.986  0.1674  0.0143 -0.5041
  654TMC3    C5 9680   2.475   4.375  16.849 -0.0598  0.2559  0.8870
  654TMC3    C6 9681   2.407   4.467  16.775  0.0363  0.2334  0.7347
  654TMC3     C 9682   2.533   4.520  17.168 -0.1746 -0.2616 -0.2618
  654TMC3     O 9683   2.570   4.416  17.223  0.2983  0.1760 -0.6198
  654TMC3     H 9684   2.371   4.686  17.028 -0.6940 -0.7033  0.8750
  654TMC3    H1 9685   2.554   4.306  17.038 -0.8433  0.8793  1.9037
  654TMC3    H2 9686   2.383   4.448  16.672 -0.7714  2.4775  0.5146
  654TMC3    C7 9687   2.445   4.243  16.800 -0.2147  0.0260 -0.5393
  654TMC3    C8 9688   2.232   4.620  16.815  0.0539 -0.1430 -0.5409
  654TMC3    O1 9689   2.346   4.235  16.725 -0.3995 -0.0515 -0.6130
  654TMC3    O2 9690   2.198   0.011  16.861  0.1354 -0.2149 -0.2347
  655MPD2     C 9691   4.165   4.647  15.612 -0.8085  0.0927  0.3286
  655MPD2    C1 9692   4.123   0.041  15.551 -0.1541  1.3415  0.0007
  655MPD2    C2 9693   4.135   0.045  15.414 -0.6746 -0.3510 -0.1431
  655MPD2    C3 9694   4.183   4.659  15.338 -0.1554 -0.1598  0.6886
  655MPD2    C4 9695   4.214   4.546  15.408 -0.7263 -0.1460  0.3261
  655MPD2    C5 9696   4.212   4.545  15.539  0.8047 -0.0515  0.1324
  655MPD2     H 9697   4.097   0.134  15.365  3.9515  1.5478 -0.2689
  655MPD2    H1 9698   4.236   4.456  15.352 -0.1374  0.8010 -0.9835
  655MPD2    H2 9699   4.161   4.637  15.720  0.6113  1.0916  0.4782
  655MPD2    H3 9700   4.246   4.458  15.594 -0.1872 -1.6062 -1.7081
  655MPD2     N 9701   4.208   4.661  15.198  0.1766 -0.1587  0.2825
  655MPD2    H5 9702   4.223   4.573  15.149  0.6573  0.4263 -0.6313
  655MPD2    N1 9703   4.055   0.152  15.618 -0.7343 -0.2842 -0.0565
  655MPD2    H7 9704   4.012   0.228  15.566 -1.7117 -0.5186  0.4109
  656TMC3    C1 9705   3.940   0.265  15.793  0.9833  0.1809 -0.2832
  656TMC3    C2 9706   3.881   0.252  15.913 -0.3130  0.2972  0.3801
  656TMC3    C3 9707   3.775   0.334  15.944 -0.2975  0.3175 -0.3482
  656TMC3    C4 9708   3.894   0.360  15.707  0.4642 -0.5483 -0.0549
  656TMC3    C5 9709   3.780   0.435  15.740  0.3105 -0.7947 -0.1596
  656TMC3    C6 9710   3.720   0.426  15.858  0.0474  0.7208 -0.3859
  656TMC3     C 9711   4.033   0.167  15.750 -0.3360 -0.2779 -0.3282
  656TMC3     O 9712   4.054   0.079  15.834  0.3985 -0.2777  0.0059
  656TMC3     H 9713   3.915   0.182  15.989 -0.2523  0.0181  0.0989
  656TMC3    H1 9714   3.942   0.360  15.610 -0.4705 -1.3013 -0.5228
  656TMC3    H2 9715   3.627   0.477  15.881 -0.6175 -0.5023 -0.3803
  656TMC3    C7 9716   3.706   0.479  15.618  0.6834  0.3158 -0.0229
  656TMC3    C8 9717   3.689   0.275  16.041 -0.0764 -0.2682 -0.0949
  656TMC3    O1 9718   3.739   0.419  15.514 -0.0402 -0.4775 -0.3809
  656TMC3    O2 9719   3.695   0.155  16.065 -0.1820  0.6533  0.1641
  657TMC3    C1 9720   2.999   4.546  15.042 -0.0647 -0.0098 -0.6080
  657TMC3    C2 9721   2.947   4.479  15.149  0.4147  0.2465 -0.1586
  657TMC3    C3 9722   2.887   4.552  15.250 -0.3695 -0.1573  0.7674
  657TMC3    C4 9723   2.971   4.684  15.027 -0.1792 -1.0024  0.2992
  657TMC3    C5 9724   2.910   0.026  15.131 -0.3249  0.0854  0.5992
  657TMC3    C6 9725   2.871   4.683  15.248 -0.1389 -0.3277 -0.4082
  657TMC3     C 9726   3.045   4.481  14.923  0.1714  0.0467 -0.6587
  657TMC3     O 9727   3.055   4.559  14.831  0.0940  0.2106 -0.0836
  657TMC3     H 9728   2.954   4.371  15.147  0.9175  0.2985 -1.2710
  657TMC3    H1 9729   3.005   0.028  14.946  1.4530 -2.1982  0.0446
  657TMC3    H2 9730   2.837   0.009  15.341 -1.5327 -0.7695 -0.6913
  657TMC3    C7 9731   2.953   0.162  15.143  0.1153  0.3637 -0.1637
  657TMC3    C8 9732   2.823   4.483  15.358  0.2547 -0.3081 -0.0882
  657TMC3    O1 9733   3.068   0.187  15.116 -0.4375 -0.1159  0.7795
  657TMC3    O2 9734   2.719   4.535  15.399  0.0794 -0.6010 -0.1534
  658MPD2     C 9735   4.508   0.401  14.615  0.0658  0.3085  0.0161
  658MPD2    C1 9736   4.418   0.304  14.581 -0.2332  0.6918 -0.1593
  658MPD2    C2 9737   4.402   0.277  14.444 -0.0847  0.6826 -0.3451
  658MPD2    C3 9738   4.456   0.356  14.344 -0.2910  0.7346  0.1245
  658MPD2    C4 9739   4.541   0.455  14.382  0.0955  0.4744 -0.5123
  658MPD2    C5 9740   4.576   0.472  14.517 -0.2413 -0.0904  0.0554
  658MPD2     H 9741   4.373   0.177  14.413 -0.2938  1.2943 -2.1372
  658MPD2    H1 9742   4.590   0.520  14.310 -1.8516  2.5882  0.0781
  658MPD2    H2 9743   4.529   0.427  14.718 -2.0920 -2.3266  1.1103
  658MPD2    H3 9744   4.643   0.548  14.554 -1.3511  0.5558  0.7441
  658MPD2     N 9745   4.421   0.332  14.211  0.2314 -0.2384  0.1661
  658MPD2    H5 9746   4.346   0.265  14.196 -0.6551  0.8816 -0.3649
  658MPD2    N1 9747   4.352   0.225  14.677 -0.2671  1.2321 -0.2435
  658MPD2    H7 9748   4.350   0.249  14.776 -2.2221  0.4470 -0.0859
  659TMC3    C1 9749   4.191   0.072  14.753 -0.2048  0.3968  0.5973
  659TMC3    C2 9750   4.246   0.051  14.876 -0.3599  0.3725  1.1250
  659TMC3    C3 9751   4.168   4.716  14.977 -0.5221 -0.6122  0.1605
  659TMC3    C4 9752   4.056   0.057  14.730  0.0867 -0.2667  1.1770
  659TMC3    C5 9753   3.980   4.712  14.829 -0.3095 -0.4382 -0.1324
  659TMC3    C6 9754   4.041   4.677  14.952  0.2399 -0.0918  0.0144
  659TMC3     C 9755   4.263   0.126  14.646  0.2839 -0.1227  0.0219
  659TMC3     O 9756   4.207   0.100  14.540 -0.4902 -0.1515 -0.3733
  659TMC3     H 9757   4.353   0.069  14.881 -0.6583  2.9422 -1.7031
  659TMC3    H1 9758   4.007   0.063  14.633 -0.2455  0.5399  1.3921
  659TMC3    H2 9759   3.965   4.667  15.029 -1.0960 -2.8036 -1.6603
  659TMC3    C7 9760   3.849   0.051  14.855  1.0817 -0.4089 -0.1154
  659TMC3    C8 9761   4.179   0.046  15.112 -0.0540  0.0725  0.1571
  659TMC3    O1 9762   3.842   0.140  14.937 -0.0097 -0.0406 -0.4468
  659TMC3    O2 9763   4.137   0.159  15.129 -0.3782 -0.9711 -0.4464
  660MPD2     C 9764   2.661   3.515  12.670 -0.7466 -0.5099  0.3047
  660MPD2    C1 9765   2.529   3.549  12.670  0.8355  0.1227 -0.1569
  660MPD2    C2 9766   2.442   3.507  12.766 -0.0661 -0.1346 -0.2815
  660MPD2    C3 9767   2.480   3.405  12.851 -0.3983 -0.3643 -0.1642
  660MPD2    C4 9768   2.613   3.356  12.848 -0.9220  0.3755 -0.1404
  660MPD2    C5 9769   2.706   3.421  12.764 -0.0304  0.3583 -0.4199
  660MPD2     H 9770   2.340   3.544  12.763 -0.1459 -0.2495  1.2010
  660MPD2    H1 9771   2.647   3.279  12.916 -1.7854  0.2369  0.1280
  660MPD2    H2 9772   2.735   3.567  12.609 -0.4705 -1.9076 -0.5494
  660MPD2    H3 9773   2.808   3.386  12.759  0.0436  0.4437  0.5124
  660MPD2     N 9774   2.390   3.339  12.941  0.0538  0.2878  0.5005
  660MPD2    H5 9775   2.405   3.248  12.985  0.2647 -0.9135 -2.0382
  660MPD2    N1 9776   2.489   3.644  12.570 -0.3540  0.1238 -0.4986
  660MPD2    H7 9777   2.562   3.685  12.513  0.7311 -1.0274  0.0717
  661TMC3    C1 9778   2.348   3.782  12.430  1.0333 -0.1418  0.5824
  661TMC3    C2 9779   2.452   3.793  12.341  0.1658 -0.0732 -0.3187
  661TMC3    C3 9780   2.427   3.856  12.220 -0.1917 -0.7433  0.8121
  661TMC3    C4 9781   2.223   3.816  12.398  0.3296  0.3498 -0.4689
  661TMC3    C5 9782   2.201   3.877  12.278 -0.3605 -0.0643  0.3184
  661TMC3    C6 9783   2.301   3.901  12.185 -0.7342 -0.0196 -1.1211
  661TMC3     C 9784   2.357   3.693  12.545  0.4112 -0.3570  0.3487
  661TMC3     O 9785   2.251   3.658  12.602  0.2463 -0.1982  0.4652
  661TMC3     H 9786   2.554   3.758  12.348  0.3763  0.7404  0.5528
  661TMC3    H1 9787   2.147   3.808  12.475 -0.5963 -1.7443 -1.5996
  661TMC3    H2 9788   2.275   3.947  12.090  0.2684  0.0959 -1.3352
  661TMC3    C7 9789   2.066   3.910  12.236  0.1867  0.0293 -0.3380
  661TMC3    C8 9790   2.539   3.899  12.134 -0.2022 -0.2215  0.5496
  661TMC3    O1 9791   2.022   4.009  12.301 -0.6620 -0.8625  0.1110
  661TMC3    O2 9792   2.644   3.831  12.127 -0.1295  0.0060  0.4538
  662MPD2     C 9793   2.428   2.976   0.335  0.1982  0.3232 -0.3533
  662MPD2    C1 9794   2.403   2.977   0.201 -0.4117 -0.3082 -0.5315
  662MPD2    C2 9795   2.409   3.091   0.121  0.4638 -0.7030 -0.3474
  662MPD2    C3 9796   2.445   3.208   0.187  0.4639  0.1911 -0.1115
  662MPD2    C4 9797   2.486   3.207   0.318 -0.9307 -0.6998  0.2326
  662MPD2    C5 9798   2.475   3.090   0.394  0.3231 -0.3736 -0.4949
  662MPD2     H 9799   2.392   3.077   0.015  0.8885  0.1939 -0.5305
  662MPD2    H1 9800   2.505   3.304   0.364  1.9796 -2.6022  3.0016
  662MPD2    H2 9801   2.441   2.882   0.388 -3.4736 -0.0767 -0.2005
  662MPD2    H3 9802   2.507   3.082   0.498 -2.9284 -0.3342  0.5195
  662MPD2     N 9803   2.425   3.335   0.124  0.9274  0.3463 -0.0694
  662MPD2    H5 9804   2.432   3.415   0.186 -1.5459 -0.5480  1.3819
  662MPD2    N1 9805   2.361   2.863   0.129 -0.1926 -0.0135 -0.1087
  662MPD2    H7 9806   2.370   2.859   0.028 -1.8826  0.1466 -0.2550
  663TMC3    C1 9807   2.233   2.672   0.084  0.2801 -0.7538  0.0871
  663TMC3    C2 9808   2.195   2.722  17.642 -0.9146 -0.6046 -0.1507
  663TMC3    C3 9809   2.109   2.663  17.546  0.2523 -0.1668 -0.3553
  663TMC3    C4 9810   2.192   2.550   0.123 -0.6066  0.1013 -1.0462
  663TMC3    C5 9811   2.116   2.488   0.022 -0.1460 -0.1321 -0.5205
  663TMC3    C6 9812   2.080   2.536  17.577  0.9664  0.2751  0.3263
  663TMC3     C 9813   2.311   2.748   0.184  0.4182  0.4133 -0.3533
  663TMC3     O 9814   2.318   2.716   0.305 -0.0272 -0.2034 -0.1145
  663TMC3     H 9815   2.220   2.824  17.614  0.3869 -1.4819 -2.1653
  663TMC3    H1 9816   2.204   2.518   0.226  4.7209 -2.8739 -2.5807
  663TMC3    H2 9817   1.997   2.497  17.520  1.7239 -1.1270  0.1791
  663TMC3    C7 9818   2.042   2.370   0.064 -0.0373 -0.2121 -0.5075
  663TMC3    C8 9819   1.988   2.742  17.517  0.3352 -1.3181 -0.4004
  663TMC3    O1 9820   2.021   2.348   0.181  0.2577 -0.0407  0.1005
  663TMC3    O2 9821   1.883   2.683  17.508  0.6027  0.4029 -0.3454
  664MPD2     C 9822   0.493   1.787   0.109  0.3383  0.5169  0.8980
  664MPD2    C1 9823   0.514   1.912   0.155 -0.5064  0.1532  0.4326
  664MPD2    C2 9824   0.427   1.956   0.258  0.5919  0.1930 -0.3414
  664MPD2    C3 9825   0.330   1.874   0.314 -0.5189  0.1311 -0.3650
  664MPD2    C4 9826   0.310   1.746   0.262 -0.8838 -0.0168 -0.3418
  664MPD2    C5 9827   0.392   1.710   0.165 -0.3678  0.0703 -0.2463
  664MPD2     H 9828   0.433   2.058   0.294  4.0956 -0.1525  0.0312
  664MPD2    H1 9829   0.229   1.680   0.290 -0.3539  1.1128  3.8941
  664MPD2    H2 9830   0.550   1.752   0.024 -2.2636 -2.7655  0.4942
  664MPD2    H3 9831   0.371   1.612   0.124 -0.8152  0.5301 -1.1006
  664MPD2     N 9832   0.259   1.916   0.428 -0.5950  0.0652  0.7959
  664MPD2    H5 9833   0.281   2.009   0.460 -0.5721  0.5290 -0.5648
  664MPD2    N1 9834   0.620   1.989   0.109  0.5546 -0.0119  0.0201
  664MPD2    H7 9835   0.627   2.084   0.145  1.3746  0.9937 -2.7865
  665TMC3    C1 9836   0.129   1.929   0.617 -0.2795 -0.0064 -0.0464
  665TMC3    C2 9837   0.017   1.896   0.690 -0.0836 -0.1230 -0.6164
  665TMC3    C3 9838   4.718   1.954   0.815 -0.2452 -0.3643  0.0318
  665TMC3    C4 9839   0.220   2.013   0.670  0.4676 -0.3748  0.5880
  665TMC3    C5 9840   0.193   2.078   0.790  0.4124  0.3930 -0.4670
  665TMC3    C6 9841   0.083   2.051   0.861  1.1830 -0.4781 -0.5312
  665TMC3     C 9842   0.161   1.850   0.501  0.0997 -0.5392 -1.3284
  665TMC3     O 9843   0.109   1.737   0.490 -0.1719  0.4871 -0.1198
  665TMC3     H 9844   4.672   1.817   0.651  0.3947 -0.6877 -0.2635
  665TMC3    H1 9845   0.305   2.038   0.608  1.2390  0.2069  1.8795
  665TMC3    H2 9846   0.065   2.104   0.954  2.0041 -2.7330  0.9180
  665TMC3    C7 9847   0.291   2.178   0.821  0.1420  0.4482 -0.3153
  665TMC3    C8 9848   4.589   1.941   0.886 -0.1092  0.3324 -0.2298
  665TMC3    O1 9849   0.377   2.190   0.737  0.6475 -0.2829 -0.2233
  665TMC3    O2 9850   4.572   2.024   0.974  0.6514 -0.1267 -0.6116
  666TMC3    C1 9851   0.412   2.074   9.629 -0.6022  0.0855 -0.1869
  666TMC3    C2 9852   0.500   1.996   9.701 -0.1430 -0.1365  0.1444
  666TMC3    C3 9853   0.522   2.032   9.829  0.0478 -0.3643 -0.0844
  666TMC3    C4 9854   0.363   2.193   9.673 -0.7096  0.0076  0.1479
  666TMC3    C5 9855   0.393   2.229   9.807  1.0509 -0.3021  1.0466
  666TMC3    C6 9856   0.458   2.137   9.889  0.3796  0.3372 -0.1806
  666TMC3     C 9857   0.335   2.006   9.532  0.4449  0.3456  0.2578
  666TMC3     O 9858   0.245   2.064   9.473 -0.3561 -0.1575 -0.3471
  666TMC3     H 9859   0.565   1.921   9.658  0.3129  0.7284 -0.6999
  666TMC3    H1 9860   0.281   2.244   9.624  0.0548 -0.8466 -2.0547
  666TMC3    H2 9861   0.454   2.152   9.996 -1.5716  0.8330 -0.3138
  666TMC3    C7 9862   0.347   2.350   9.873  0.6231 -0.7302  0.5851
  666TMC3    C8 9863   0.580   1.924   9.909  0.4002  0.1164 -0.2295
  666TMC3    O1 9864   0.370   2.356   9.993  0.2297 -0.1155 -0.0624
  666TMC3    O2 9865   0.601   1.816   9.852  0.6342  0.1501  0.3232
  667MPD2     C 9866   1.388   1.038  14.591 -0.4756 -0.3191  0.0231
  667MPD2    C1 9867   1.275   1.086  14.664  0.0949 -0.3168  0.4312
  667MPD2    C2 9868   1.142   1.035  14.641  0.2151  0.0285  0.2217
  667MPD2    C3 9869   1.131   0.938  14.541 -0.7793  0.5795 -0.4539
  667MPD2    C4 9870   1.241   0.895  14.471 -0.3161 -0.0794  0.0108
  667MPD2    C5 9871   1.364   0.936  14.500  0.0164 -0.3923 -0.5244
  667MPD2     H 9872   1.059   1.078  14.697 -0.4970 -1.5739  0.3844
  667MPD2    H1 9873   1.231   0.838  14.379 -2.5402 -0.4856  0.5146
  667MPD2    H2 9874   1.489   1.076  14.601 -0.2613 -0.6699 -0.8390
  667MPD2    H3 9875   1.447   0.898  14.441  1.0973 -1.5511  1.7634
  667MPD2     N 9876   1.009   0.893  14.499  0.1865 -0.0142  0.0302
  667MPD2    H5 9877   1.014   0.812  14.438 -1.6383 -0.4518  0.4543
  667MPD2    N1 9878   1.289   1.200  14.743  0.2229  0.4877  0.0415
  667MPD2    H7 9879   1.207   1.226  14.796 -0.6525  0.8959 -1.4979
  668TMC3    C1 9880   1.403   1.381  14.858 -0.3053  0.2147 -0.2246
  668TMC3    C2 9881   1.500   1.482  14.859 -0.6030  0.3281 -0.0975
  668TMC3    C3 9882   1.512   1.551  14.975 -0.9232  0.3961  0.2687
  668TMC3    C4 9883   1.316   1.355  14.966 -0.1008  0.7388 -0.4789
  668TMC3    C5 9884   1.339   1.426  15.079  0.6000  0.0595  0.0463
  668TMC3    C6 9885   1.431   1.526  15.085  0.3746  0.0829 -0.3474
  668TMC3     C 9886   1.410   1.277  14.761 -0.3561 -0.0229  0.0249
  668TMC3     O 9887   1.526   1.271  14.717 -0.0428 -0.0866 -0.5623
  668TMC3     H 9888   1.562   1.502  14.773  1.2736  0.2363  1.2228
  668TMC3    H1 9889   1.273   1.257  14.980 -2.1449  1.5540 -1.0960
  668TMC3    H2 9890   1.442   1.573  15.182 -1.5093  1.6527 -0.9091
  668TMC3    C7 9891   1.242   1.419  15.187  0.7474  0.6964  0.8210
  668TMC3    C8 9892   1.588   1.672  14.980  0.1913  0.0423  0.0073
  668TMC3    O1 9893   1.288   1.454  15.296 -0.3280 -0.0994 -0.2091
  668TMC3    O2 9894   1.571   1.742  15.078  0.7174 -0.0543 -0.3540
  669TMC3    C1 9895   4.193   1.490  14.335 -0.5770 -0.4198 -0.0411
  669TMC3    C2 9896   4.092   1.479  14.255 -0.1659 -0.3748 -0.0415
  669TMC3    C3 9897   4.074   1.563  14.153  0.9264 -0.0775  0.0844
  669TMC3    C4 9898   4.278   1.594  14.309  0.3821 -0.5956 -0.1989
  669TMC3    C5 9899   4.266   1.673  14.198 -0.6120  0.3880 -0.2089
  669TMC3    C6 9900   4.153   1.663  14.114  0.2337 -0.3942 -0.4674
  669TMC3     C 9901   4.200   1.410  14.459  0.1638  0.2910 -0.5785
  669TMC3     O 9902   4.093   1.370  14.503  0.4824 -0.3231  0.0734
  669TMC3     H 9903   4.019   1.402  14.279  0.3410  0.8834  5.5162
  669TMC3    H1 9904   4.364   1.612  14.373  0.5151  2.5041 -1.2826
  669TMC3    H2 9905   4.128   1.730  14.033  0.9403 -1.5636 -1.6609
  669TMC3    C7 9906   4.381   1.755  14.167 -0.0263  0.2941 -0.2713
  669TMC3    C8 9907   3.948   1.553  14.083  0.2470 -0.3505 -0.6356
  669TMC3    O1 9908   4.472   1.763  14.249  0.1122 -0.4382  0.3050
  669TMC3    O2 9909   3.858   1.506  14.151  0.4285 -0.6319  0.5056
  670MPD2     C 9910   2.252   4.112  13.493  0.4597 -0.4118 -0.0599
  670MPD2    C1 9911   2.382   4.147  13.520  0.0150  0.4497 -0.1037
  670MPD2    C2 9912   2.425   4.119  13.653 -0.3220 -0.0882  0.3755
  670MPD2    C3 9913   2.354   4.048  13.742  0.1031  0.1239 -0.3666
  670MPD2    C4 9914   2.229   4.008  13.707 -0.6275 -0.0021  0.1061
  670MPD2    C5 9915   2.176   4.047  13.588  0.7148  0.3115  0.7022
  670MPD2     H 9916   2.529   4.141  13.674  0.3162 -1.8985 -0.8783
  670MPD2    H1 9917   2.165   3.943  13.765  0.3505 -1.5298 -0.5518
  670MPD2    H2 9918   2.202   4.117  13.396 -0.0447  2.3394  0.3524
  670MPD2    H3 9919   2.074   4.026  13.560  1.0464 -0.5787  0.1439
  670MPD2     N 9920   2.420   4.009  13.859  0.4459 -0.3135 -0.1155
  670MPD2    H5 9921   2.509   4.055  13.872  1.4064 -2.0709 -0.5371
  670MPD2    N1 9922   2.473   4.206  13.426  0.2339 -0.1623  0.7949
  670MPD2    H7 9923   2.566   4.232  13.458  0.6388  0.2541 -0.7441
  671TMC3    C1 9924   2.444   3.891  14.071 -0.4061  0.0133  0.1171
  671TMC3    C2 9925   2.586   3.884  14.068 -0.2225  0.1712 -0.4106
  671TMC3    C3 9926   2.645   3.827  14.178  0.7499  0.2178 -0.0618
  671TMC3    C4 9927   2.375   3.839  14.180  0.3099  0.3578  0.2777
  671TMC3    C5 9928   2.437   3.783  14.288  0.1538 -0.5823 -0.0745
  671TMC3    C6 9929   2.574   3.789  14.300 -0.0449 -0.4556 -0.1642
  671TMC3     C 9930   2.368   3.913  13.949 -0.7060 -0.5490 -0.1443
  671TMC3     O 9931   2.257   3.862  13.956 -0.1570 -0.2961 -0.6775
  671TMC3     H 9932   2.635   3.883  13.972 -0.3434 -4.4750 -0.4248
  671TMC3    H1 9933   2.267   3.839  14.183  0.3208  0.9302  0.8223
  671TMC3    H2 9934   2.616   3.716  14.369  1.5252  0.3617 -0.2504
  671TMC3    C7 9935   2.380   3.653  14.324  0.0152  0.4097  0.1192
  671TMC3    C8 9936   2.775   3.757  14.150 -0.3019 -0.4260 -0.4832
  671TMC3    O1 9937   2.421   3.598  14.423 -0.4202 -0.4295  0.4910
  671TMC3    O2 9938   2.786   3.722  14.034 -0.0353  0.2781  0.0320
  672MPD2     C 9939   2.753   4.465   1.171  0.0733  0.3316  0.0558
  672MPD2    C1 9940   2.889   4.460   1.143 -0.1344  0.3733 -0.2230
  672MPD2    C2 9941   2.967   4.560   1.196  0.3294 -0.0643 -0.2151
  672MPD2    C3 9942   2.911   4.664   1.278 -0.5196  0.2410  0.1087
  672MPD2    C4 9943   2.774   4.672   1.291  0.8630 -0.4385  0.1092
  672MPD2    C5 9944   2.701   4.562   1.251 -0.3649 -0.0650 -0.4719
  672MPD2     H 9945   3.071   4.573   1.169  0.6587 -0.8325  0.6399
  672MPD2    H1 9946   2.733   0.041   1.341  1.0416 -0.0620 -0.4124
  672MPD2    H2 9947   2.685   4.387   1.139  0.1574  0.5334 -0.6124
  672MPD2    H3 9948   2.594   4.568   1.267 -0.4512  0.7921 -1.3506
  672MPD2     N 9949   2.983   0.061   1.319  0.5714 -0.1637 -0.3796
  672MPD2    H5 9950   2.927   0.140   1.350  1.5450  0.3468  0.0525
  672MPD2    N1 9951   2.951   4.363   1.058  0.9500  0.1794  0.2811
  672MPD2    H7 9952   3.050   4.370   1.039  0.5711  2.9579 -0.6496
  673TMC3    C1 9953   2.985   4.279   0.851  0.4174  0.0379 -0.1844
  673TMC3    C2 9954   3.099   4.199   0.867  0.7318  0.1291 -0.6381
  673TMC3    C3 9955   3.187   4.177   0.759 -0.2249  0.4080 -1.0097
  673TMC3    C4 9956   2.950   4.328   0.727 -0.4704  0.1587  0.3136
  673TMC3    C5 9957   3.036   4.303   0.623 -0.1414 -0.7846  0.1236
  673TMC3    C6 9958   3.144   4.217   0.637 -0.2377  0.0197 -0.4645
  673TMC3     C 9959   2.889   4.307   0.954 -0.1594  0.2570 -0.7713
  673TMC3     O 9960   2.770   4.293   0.927  0.7056  0.1244  0.5940
  673TMC3     H 9961   3.111   4.150   0.963 -0.4994 -0.7796 -0.9471
  673TMC3    H1 9962   2.865   4.393   0.715 -0.3700  0.1758 -0.2767
  673TMC3    H2 9963   3.202   4.190   0.549 -0.7953 -0.1894 -0.7640
  673TMC3    C7 9964   3.014   4.352   0.492  0.9624  0.7227 -0.6094
  673TMC3    C8 9965   3.314   4.105   0.783  0.8796  0.1964  0.1030
  673TMC3    O1 9966   3.050   4.279   0.400 -0.2172  0.2588 -0.4747
  673TMC3    O2 9967   3.360   4.048   0.683 -0.3634  0.2848 -0.4116
  674MPD2     C 9968   2.226   4.543  17.422  0.3808 -0.7471  0.3585
  674MPD2    C1 9969   2.308   4.541  17.531 -0.3319 -0.3697 -0.0758
  674MPD2    C2 9970   2.254   4.547  17.658  0.1459 -0.1634  0.0336
  674MPD2    C3 9971   2.116   4.563  17.675 -0.3394  0.6619 -0.2070
  674MPD2    C4 9972   2.041   4.588  17.561  0.6907  0.4408  0.2022
  674MPD2    C5 9973   2.097   4.576  17.441 -0.2875 -0.1682 -0.2003
  674MPD2     H 9974   2.313   4.512   0.064  1.4637  0.8370 -0.4684
  674MPD2    H1 9975   1.933   4.598  17.556  0.4030 -2.2011  0.7511
  674MPD2    H2 9976   2.264   4.529  17.321  0.9869  2.2018  0.1774
  674MPD2    H3 9977   2.039   4.572  17.349  0.3378 -0.9965 -0.5519
  674MPD2     N 9978   2.063   4.550   0.125  0.4613  0.1639 -0.4947
  674MPD2    H5 9979   2.130   4.534   0.199 -0.1801  1.1132  0.2931
  674MPD2    N1 9980   2.447   4.523  17.516 -0.3641  0.2693 -0.6084
  674MPD2    H7 9981   2.482   4.503  17.423 -2.4747 -1.0768 -1.1119
  675TMC3    C1 9982   2.641   4.464  17.650 -0.4619  0.2681 -0.0056
  675TMC3    C2 9983   2.682   4.457   0.101 -0.4290  0.7494 -0.5030
  675TMC3    C3 9984   2.718   4.337   0.151 -0.4031  0.1427  0.5680
  675TMC3    C4 9985   2.655   4.355  17.566  0.1319 -0.8408 -0.3193
  675TMC3    C5 9986   2.705   4.243  17.623  0.0902  0.1360 -0.2540
  675TMC3    C6 9987   2.744   4.227   0.072  0.5023  0.6416  0.4926
  675TMC3     C 9988   2.533   4.559  17.618 -0.2071  0.8663 -0.2638
  675TMC3     O 9989   2.503   4.638   0.028  0.5676  0.0272  0.2223
  675TMC3     H 9990   2.667   4.543   0.165 -2.2078 -0.7333  1.0634
  675TMC3    H1 9991   2.623   4.367  17.464  0.9737 -2.2006 -0.7374
  675TMC3    H2 9992   2.771   4.135   0.123  1.3023  0.0412 -0.9891
  675TMC3    C7 9993   2.736   4.141  17.528 -0.1342 -0.9548 -1.2796
  675TMC3    C8 9994   2.675   4.315   0.293 -0.2912  0.2999 -0.7230
  675TMC3    O1 9995   2.686   4.131  17.419  0.6941 -0.0960  0.3133
  675TMC3    O2 9996   2.601   4.402   0.341  0.0939  0.4856 -0.3960
  676MPD2     C 9997   1.220   2.384  11.012  0.1249  0.3764  0.3773
  676MPD2    C1 9998   1.114   2.327  11.079  0.3729 -0.4436 -0.3000
  676MPD2    C2 9999   1.091   2.196  11.077 -0.3974  0.0352 -0.1230
  676MPD2    C310000   1.173   2.116  10.993  0.6131 -0.4354 -0.7981
  676MPD2    C410001   1.269   2.172  10.915 -0.0913  0.6757  0.3274
  676MPD2    C510002   1.289   2.306  10.923 -0.2509  1.2915  0.1140
  676MPD2     H10003   1.021   2.150  11.146  0.0096  1.8517  1.5049
  676MPD2    H110004   1.335   2.123  10.844 -0.7645  0.4508 -0.1496
  676MPD2    H210005   1.246   2.489  11.027 -3.2293  1.2760 -0.0805
  676MPD2    H310006   1.376   2.350  10.875  0.4007  0.9651  1.0000
  676MPD2     N10007   1.153   1.966  10.997  0.1396  0.1230 -0.6606
  676MPD2    H510008   1.072   1.939  11.053 -0.8378  0.4080 -1.9586
  676MPD2    N110009   1.041   2.403  11.179  0.4435 -0.2115  0.1708
  676MPD2    H710010   0.975   2.350  11.235 -0.8053  0.0892 -1.0095
  677TMC3    C110011   0.962   2.580  11.313 -0.1057 -0.3500  0.4851
  677TMC3    C210012   0.878   2.490  11.367 -0.6143  0.3201 -0.2682
  677TMC3    C310013   0.807   2.532  11.474  0.3232 -0.0813 -0.7955
  677TMC3    C410014   0.980   2.703  11.367  0.4400  0.5540  0.3452
  677TMC3    C510015   0.926   2.734  11.488 -0.2043 -0.2512 -0.3795
  677TMC3    C610016   0.842   2.644  11.547 -0.8205 -0.3230 -0.2810
  677TMC3     C10017   1.052   2.540  11.206 -0.4271  0.1437 -0.1564
  677TMC3     O10018   1.114   2.629  11.149 -0.5913  0.3281 -0.1842
  677TMC3     H10019   0.848   2.398  11.318  0.5606 -0.2119  0.0217
  677TMC3    H110020   1.042   2.778  11.320  2.6941 -1.9490 -0.6753
  677TMC3    H210021   0.786   2.671  11.636 -0.8095  0.1573 -0.4193
  677TMC3    C710022   0.940   2.865  11.561  0.1299 -0.6400  0.1891
  677TMC3    C810023   0.679   2.469  11.493 -0.2222  0.2890 -0.1459
  677TMC3    O110024   0.868   2.888  11.658 -0.1613  0.3053 -0.0987
  677TMC3    O210025   0.628   2.455  11.386  0.1841 -0.4795 -0.8886
  678MPD2     C10026   1.367   3.388   1.553  0.0545 -0.4634 -0.5026
  678MPD2    C110027   1.348   3.304   1.438  0.3375 -0.3007 -0.4572
  678MPD2    C210028   1.221   3.258   1.410 -0.5602  0.2814  0.1470
  678MPD2    C310029   1.120   3.277   1.503 -0.5659  0.1859  0.5095
  678MPD2    C410030   1.146   3.345   1.620 -0.1094 -0.5849  0.0181
  678MPD2    C510031   1.267   3.401   1.643  0.8254 -0.6681  0.7834
  678MPD2     H10032   1.208   3.200   1.319  0.0320 -0.9041  0.8176
  678MPD2    H110033   1.074   3.364   1.698  0.3769  0.8739  0.1118
  678MPD2    H210034   1.461   3.433   1.581  0.1858 -0.3137 -1.1735
  678MPD2    H310035   1.274   3.458   1.735  2.5815 -0.1505  0.3178
  678MPD2     N10036   0.996   3.227   1.465  0.0889 -0.6399 -0.1836
  678MPD2    H510037   0.991   3.179   1.376 -1.1640 -0.9459  0.0538
  678MPD2    N110038   1.447   3.262   1.343 -0.0221  0.1871  0.7242
  678MPD2    H710039   1.415   3.201   1.269 -0.4503  0.6364  0.5351
  679TMC3    C110040   1.722   3.074   1.095 -0.0302  0.5195  0.5085
  679TMC3    C210041   1.619   3.136   1.161 -0.0800  0.2283 -0.7372
  679TMC3    C310042   1.648   3.259   1.211  0.2948 -0.1247  0.7982
  679TMC3    C410043   1.844   3.131   1.062 -0.3757 -1.3525  0.5497
  679TMC3    C510044   1.868   3.255   1.112  0.0806 -0.0161  0.7685
  679TMC3    C610045   1.769   3.319   1.188  0.0861  0.3519  0.0981
  679TMC3     C10046   1.697   2.948   1.032  0.1396 -0.7904  0.4862
  679TMC3     O10047   1.791   2.892   0.978 -0.1454 -0.1678 -0.2767
  679TMC3     H10048   1.533   3.080   1.197  1.2204 -2.0878 -1.2319
  679TMC3    H110049   1.916   3.085   0.995 -0.1552  1.4616 -1.1563
  679TMC3    H210050   1.782   3.418   1.230 -0.0339  0.9063 -1.1788
  679TMC3    C710051   1.953   3.335   1.021  0.3237 -0.2478  0.5598
  679TMC3    C810052   1.576   3.318   1.324 -0.1281  0.9988 -0.1144
  679TMC3    O110053   2.028   3.270   0.948 -0.0794  0.0363 -0.4725
  679TMC3    O210054   1.624   3.409   1.395  0.1494 -0.3218 -0.9116
  680MPD2     C10055   1.890   1.036  13.596 -0.1267  0.2513  0.4970
  680MPD2    C110056   1.952   1.000  13.716 -0.3549  0.3614  0.5268
  680MPD2    C210057   2.043   1.087  13.770  0.5655 -0.4410 -0.1145
  680MPD2    C310058   2.058   1.214  13.723 -0.9429  0.7046 -0.8766
  680MPD2    C410059   1.990   1.252  13.606 -0.2377 -0.7461  0.1374
  680MPD2    C510060   1.906   1.163  13.546 -0.1736 -0.4810 -0.3900
  680MPD2     H10061   2.108   1.058  13.852 -2.6413 -0.6974  2.3070
  680MPD2    H110062   1.999   1.353  13.566  1.2052 -0.9732 -0.1070
  680MPD2    H210063   1.818   0.973  13.544  0.6633  1.1944 -1.7359
  680MPD2    H310064   1.847   1.181  13.457  1.4999  1.8925 -1.0193
  680MPD2     N10065   2.153   1.305  13.776 -0.3379  0.3330 -0.2042
  680MPD2    H510066   2.170   1.391  13.724 -0.2818 -0.9026 -2.2041
  680MPD2    N110067   1.949   0.868  13.771  0.4452 -0.1716  0.0981
  680MPD2    H710068   2.005   0.843  13.852  1.3893 -1.9175 -1.1000
  681TMC3    C110069   1.894   0.639  13.787 -0.3032  0.0173 -0.0402
  681TMC3    C210070   1.800   0.552  13.837 -0.4289 -0.1069 -0.0933
  681TMC3    C310071   1.843   0.430  13.870  0.2931  0.4847  0.2173
  681TMC3    C410072   2.027   0.607  13.779 -0.6620  0.3079 -0.9613
  681TMC3    C510073   2.063   0.482  13.824  0.5435 -0.4750  0.4374
  681TMC3    C610074   1.972   0.393  13.869  0.0000 -0.2404  0.1789
  681TMC3     C10075   1.859   0.772  13.732 -0.0966  0.3438 -0.5368
  681TMC3     O10076   1.763   0.775  13.658 -0.2893  0.3048 -0.1234
  681TMC3     H10077   1.694   0.574  13.831 -1.0159 -1.9200  3.4716
  681TMC3    H110078   2.105   0.674  13.744 -1.4996  1.1479 -1.2284
  681TMC3    H210079   1.999   0.293  13.902  1.9490  0.5232  0.9152
  681TMC3    C710080   2.192   0.437  13.788 -0.3934 -0.2640 -0.0905
  681TMC3    C810081   1.759   0.367  13.967 -0.2962  0.9985  0.8169
  681TMC3    O110082   2.247   0.349  13.854  0.4653 -0.0038  0.1888
  681TMC3    O210083   1.640   0.362  13.940 -0.2042  0.2144 -0.5001
  682MPD2     C10084   4.333   3.166  10.750  0.3001 -0.2417  0.4054
  682MPD2    C110085   4.294   3.037  10.728  1.0895 -0.7766 -0.0636
  682MPD2    C210086   4.202   2.977  10.807  0.2238 -0.3154  0.2663
  682MPD2    C310087   4.160   3.041  10.921  0.0896 -0.3534 -0.0837
  682MPD2    C410088   4.197   3.174  10.945  0.8492  0.4470 -0.9582
  682MPD2    C510089   4.283   3.236  10.859  0.7508 -0.4227  0.5368
  682MPD2     H10090   4.181   2.874  10.783 -0.0648 -0.4640  1.1469
  682MPD2    H110091   4.170   3.229  11.034 -0.7963 -0.6436 -0.7689
  682MPD2    H210092   4.411   3.214  10.692 -2.8214  1.1694 -2.6539
  682MPD2    H310093   4.316   3.335  10.888  1.1880 -1.0267  2.0548
  682MPD2     N10094   4.080   2.973  11.016  0.3431  0.2305 -1.2395
  682MPD2    H510095   4.059   3.028  11.098  0.7620  0.6113 -1.3886
  682MPD2    N110096   4.353   2.944  10.637 -0.3786  0.3015  0.1801
  682MPD2    H710097   4.303   2.857  10.648 -0.1138  0.0085 -0.9532
  683TMC3    C110098   3.960   2.769  11.348 -0.2867 -0.3948  0.7261
  683TMC3    C210099   3.871   2.675  11.341 -0.7082 -0.8167 -0.0136
  683TMC3    C310100   3.820   2.639  11.219 -0.4246  0.1056 -0.3562
  683TMC3    C410101   4.009   2.833  11.240  0.0919  0.6534  0.2411
  683TMC3    C510102   3.958   2.794  11.117  0.4490  0.0669 -0.5618
  683TMC3    C610103   3.856   2.703  11.102 -0.3948 -0.5478 -0.2534
  683TMC3     C10104   4.053   2.770  11.466 -0.0544  0.1188  0.1504
  683TMC3     O10105   4.111   2.871  11.491 -0.0851 -0.4857 -0.3017
  683TMC3     H10106   3.825   2.642  11.434 -1.5373  0.0795 -0.1075
  683TMC3    H110107   4.103   2.886  11.249  0.9408 -1.0159  1.0794
  683TMC3    H210108   3.810   2.680  11.006 -0.1552 -1.6162 -0.1105
  683TMC3    C710109   4.038   2.842  11.001  0.1083 -0.1503 -0.4287
  683TMC3    C810110   3.720   2.538  11.221  1.0769 -0.2601  0.0894
  683TMC3    O110111   4.038   2.769  10.907 -0.0039 -0.5795 -0.2220
  683TMC3    O210112   3.666   2.507  11.329 -0.0745  0.3468 -0.3422
  684MPD2     C10113   2.673   1.826  16.487  0.8708 -1.1625 -0.2028
  684MPD2    C110114   2.639   1.874  16.355 -0.2260  0.2637  0.3679
  684MPD2    C210115   2.623   2.007  16.333  0.0390  0.3789 -0.3311
  684MPD2    C310116   2.640   2.095  16.442  0.1620 -0.4891 -0.1801
  684MPD2    C410117   2.653   2.044  16.567 -0.3626 -0.2174 -0.2146
  684MPD2    C510118   2.687   1.915  16.590 -0.2666  0.4650 -0.9700
  684MPD2     H10119   2.621   2.047  16.233 -1.3936  0.7666 -0.1421
  684MPD2    H110120   2.664   2.114  16.649 -0.3697 -3.8964  2.9362
  684MPD2    H210121   2.684   1.723  16.520 -0.2293 -1.0826  0.3885
  684MPD2    H310122   2.709   1.887  16.692 -1.0595  1.0140 -0.6463
  684MPD2     N10123   2.645   2.233  16.428 -0.1856 -0.8704 -0.3312
  684MPD2    H510124   2.666   2.295  16.505 -1.2727 -1.0373  0.0951
  684MPD2    N110125   2.623   1.790  16.242 -0.0778 -1.0675 -0.3003
  684MPD2    H710126   2.600   1.837  16.155 -1.4614  1.3812  1.4058
  685TMC3    C110127   2.677   1.625  16.104 -0.1514  0.2091 -0.3483
  685TMC3    C210128   2.599   1.680  16.015  0.3806  0.2385 -0.0382
  685TMC3    C310129   2.639   1.672  15.881  0.3582  0.1495  0.1769
  685TMC3    C410130   2.796   1.571  16.075  0.4915  0.7534  0.0236
  685TMC3    C510131   2.834   1.552  15.942  0.4661  0.3375  0.1596
  685TMC3    C610132   2.750   1.597  15.841 -0.4066  0.2119  0.2058
  685TMC3     C10133   2.650   1.656  16.244  0.4761  0.3438  0.1291
  685TMC3     O10134   2.682   1.586  16.335 -0.2497  0.2253 -0.3784
  685TMC3     H10135   2.498   1.716  16.032 -0.4136 -1.4372 -1.1966
  685TMC3    H110136   2.851   1.526  16.156  1.2930  1.2665 -0.2365
  685TMC3    H210137   2.783   1.607  15.738  1.3669  1.1980  0.8742
  685TMC3    C710138   2.977   1.576  15.920  0.0927  0.0287  0.0431
  685TMC3    C810139   2.549   1.701  15.773 -0.0282 -0.0274 -0.1904
  685TMC3    O110140   3.022   1.566  15.808  0.4913 -0.0692 -0.6984
  685TMC3    O210141   2.575   1.653  15.662 -0.3190 -0.1037 -0.0816
  686MPD2     C10142   3.948   1.993  16.335 -0.6176 -0.4287 -0.1501
  686MPD2    C110143   3.904   1.962  16.212 -0.2418  0.7277 -0.1451
  686MPD2    C210144   3.925   2.045  16.105 -0.4899 -0.3701  0.1175
  686MPD2    C310145   4.007   2.150  16.117  0.4909 -0.0410  0.5932
  686MPD2    C410146   4.061   2.180  16.237 -0.5128 -0.4608  0.3498
  686MPD2    C510147   4.022   2.111  16.349 -0.2598 -0.1577  0.1325
  686MPD2     H10148   3.877   2.018  16.011  1.3449 -1.8501 -0.3969
  686MPD2    H110149   4.118   2.271  16.253  0.5965 -0.9984 -0.5527
  686MPD2    H210150   3.933   1.920  16.413  3.8173 -0.0705  1.0451
  686MPD2    H310151   4.053   2.119  16.453  2.3659  2.3838 -0.8474
  686MPD2     N10152   4.052   2.229  16.013 -0.0141  0.0119  0.3349
  686MPD2    H510153   4.129   2.293  16.024 -0.5553  0.8593 -0.7458
  686MPD2    N110154   3.814   1.846  16.198 -0.2471  0.1712 -0.1789
  686MPD2    H710155   3.792   1.795  16.284 -1.1853  0.5357 -0.1963
  687TMC3    C110156   4.094   2.297  15.792 -0.4662 -0.4000 -0.0179
  687TMC3    C210157   4.145   2.238  15.684  0.2796 -0.2235 -0.3958
  687TMC3    C310158   4.279   2.260  15.649  0.3422  0.2267 -0.4241
  687TMC3    C410159   4.164   2.395  15.860  0.4634  0.2030  1.1570
  687TMC3    C510160   4.296   2.410  15.826  0.7301 -0.7097  0.0568
  687TMC3    C610161   4.357   2.342  15.726 -1.0364 -0.1041  0.8586
  687TMC3     C10162   4.022   2.201  15.876  0.4953 -0.2890 -0.0840
  687TMC3     O10163   3.972   2.100  15.825  0.2884 -0.3546 -0.1446
  687TMC3     H10164   4.082   2.164  15.637  0.0549 -1.5264  1.9342
  687TMC3    H110165   4.117   2.448  15.942  2.8292  1.9541  1.3688
  687TMC3    H210166   4.464   2.344  15.709 -1.3696  0.8749 -1.0900
  687TMC3    C710167   4.370   2.425  15.952 -0.3562  0.3096 -0.1479
  687TMC3    C810168   4.351   2.166  15.569 -0.3259 -0.2528  0.0351
  687TMC3    O110169   4.310   2.395  16.053  0.5915 -0.1680  0.3667
  687TMC3    O210170   4.472   2.165  15.590 -0.3721  0.0028 -0.1805
  688MPD2     C10171   3.097   0.830  17.022  0.6260 -0.3540  0.5647
  688MPD2    C110172   3.094   0.698  17.076  0.0189 -0.5105 -0.1474
  688MPD2    C210173   3.187   0.608  17.021 -0.6730  0.2188 -0.0625
  688MPD2    C310174   3.280   0.649  16.924 -0.3747  0.3020 -0.3440
  688MPD2    C410175   3.273   0.779  16.877  0.1042  0.5602 -0.3002
  688MPD2    C510176   3.188   0.867  16.927  0.5221  0.3127  0.3472
  688MPD2     H10177   3.192   0.503  17.050 -1.7849  0.6369  1.6473
  688MPD2    H110178   3.342   0.817  16.803  1.7342 -0.8825  0.4726
  688MPD2    H210179   3.031   0.910  17.053  1.3257  0.6801 -0.5954
  688MPD2    H310180   3.187   0.968  16.888  0.5294  0.3652  0.4821
  688MPD2     N10181   3.374   0.566  16.858 -0.3386 -0.0153  0.5274
  688MPD2    H510182   3.404   0.600  16.768 -4.1740 -0.2174 -0.8138
  688MPD2    N110183   3.011   0.658  17.187 -0.7558 -0.4826  0.2702
  688MPD2    H710184   3.023   0.564  17.224 -1.3247 -0.6391  0.0539
  689TMC3    C110185   2.883   0.690  17.387  0.2532 -0.5169  0.9494
  689TMC3    C210186   2.877   0.771  17.502  0.7117  0.2003  1.1939
  689TMC3    C310187   2.856   0.708  17.622 -0.0113  0.5803 -0.7965
  689TMC3    C410188   2.851   0.556  17.393 -0.3206  0.3652 -0.4332
  689TMC3    C510189   2.833   0.503  17.521  0.4409  0.4959  0.0182
  689TMC3    C610190   2.833   0.575  17.639 -0.4494  0.2709 -0.3629
  689TMC3     C10191   2.941   0.747  17.267 -0.2055 -0.0726  0.8380
  689TMC3     O10192   2.919   0.868  17.260 -0.4336  0.2856  0.0681
  689TMC3     H10193   2.896   0.878  17.494  1.6387 -0.2304 -2.0675
  689TMC3    H110194   2.850   0.497  17.302  2.3238  1.5874 -1.2659
  689TMC3    H210195   2.813   0.523   0.053 -0.9342 -0.6287 -0.9758
  689TMC3    C710196   2.821   0.361  17.544 -0.0619  0.0203  0.0149
  689TMC3    C810197   2.826   0.793   0.060 -0.3442  0.3262 -0.6248
  689TMC3    O110198   2.862   0.312  17.650  0.0541  0.0633  0.1338
  689TMC3    O210199   2.771   0.737   0.155  0.1959 -0.0836 -0.2603
  690MPD2     C10200   0.572   2.333  15.562 -0.1810 -0.4801 -0.2531
  690MPD2    C110201   0.568   2.280  15.435  0.1814  0.0315  0.1986
  690MPD2    C210202   0.677   2.306  15.351 -0.6524  0.2843 -0.6366
  690MPD2    C310203   0.788   2.370  15.400 -0.2131 -0.2683 -0.1148
  690MPD2    C410204   0.787   2.424  15.519  0.2428  0.0692  0.5195
  690MPD2    C510205   0.679   2.405  15.602  0.6393 -0.2190  0.0580
  690MPD2     H10206   0.679   2.260  15.253  0.3549 -0.2938 -0.3525
  690MPD2    H110207   0.872   2.472  15.567  0.3147 -2.3127  2.7726
  690MPD2    H210208   0.487   2.320  15.628  0.1628  0.1663  0.3062
  690MPD2    H310209   0.674   2.454  15.699  0.3487  2.9727 -1.5791
  690MPD2     N10210   0.895   2.388  15.316  0.2287  0.0464  0.3612
  690MPD2    H510211   0.875   2.362  15.220  1.7383  0.5889 -0.1065
  690MPD2    N110212   0.458   2.200  15.384  0.4001 -0.5153 -0.0342
  690MPD2    H710213   0.473   2.155  15.294  0.3706 -1.1284  0.2761
  691TMC3    C110214   0.243   2.131  15.349  0.3367 -0.3717  0.4751
  691TMC3    C210215   0.124   2.180  15.308  0.2318 -0.0413 -0.4584
  691TMC3    C310216   0.029   2.100  15.252  0.5880 -0.8917 -0.5257
  691TMC3    C410217   0.265   1.996  15.341 -0.3652  0.1905 -0.2311
  691TMC3    C510218   0.169   1.918  15.283  0.7103  0.8570 -0.1333
  691TMC3    C610219   0.053   1.964  15.235 -0.3653 -0.0357 -0.0245
  691TMC3     C10220   0.332   2.212  15.435  0.1401 -0.4707  0.1004
  691TMC3     O10221   0.281   2.277  15.530  0.1908  0.1930  0.3755
  691TMC3     H10222   0.096   2.285  15.315  2.2296  0.2456  3.1215
  691TMC3    H110223   0.360   1.955  15.372 -0.0948  1.2678  0.3539
  691TMC3    H210224   4.699   1.903  15.183  1.4790 -1.1815 -1.2730
  691TMC3    C710225   0.186   1.780  15.318 -0.1048 -0.2075  0.4007
  691TMC3    C810226   4.610   2.153  15.227  0.0365  0.2614  0.0012
  691TMC3    O110227   0.292   1.749  15.365  0.8337 -0.7953 -0.1961
  691TMC3    O210228   4.545   2.083  15.150  0.0741 -0.2690  0.4407
  692TMC3    C110229   2.388   3.563  16.029  0.6729  0.1864  0.0881
  692TMC3    C210230   2.517   3.554  16.073  0.2977  0.2002  1.2499
  692TMC3    C310231   2.593   3.449  16.021  0.2373  0.1051 -0.4974
  692TMC3    C410232   2.337   3.481  15.929 -0.6002 -0.1598  0.3401
  692TMC3    C510233   2.419   3.389  15.873  1.0789  0.0989  0.6082
  692TMC3    C610234   2.552   3.391  15.905  0.0412 -0.3881 -0.9670
  692TMC3     C10235   2.300   3.662  16.087  0.4317  0.4085  0.0970
  692TMC3     O10236   2.186   3.650  16.043  0.3330 -0.1965 -0.0352
  692TMC3     H10237   2.552   3.604  16.162  0.9244  0.7307  0.7027
  692TMC3    H110238   2.232   3.476  15.903 -0.3647  1.1223 -0.8557
  692TMC3    H210239   2.614   3.316  15.856 -1.4105  0.4559 -4.1338
  692TMC3    C710240   2.357   3.266  15.837  0.4449  0.3642  0.0067
  692TMC3    C810241   2.618   3.342  16.110  0.3820 -0.1398  0.1533
  692TMC3    O110242   2.249   3.265  15.783  0.5367 -0.5273 -0.5135
  692TMC3    O210243   2.700   3.259  16.075 -0.4310 -0.1244  0.5804
  693MPD2     C10244   1.833   1.792  10.472  0.0319  0.4847  0.1702
  693MPD2    C110245   1.804   1.665  10.515 -0.5308  0.7839 -0.0492
  693MPD2    C210246   1.896   1.578  10.571  0.3034 -0.0654 -0.2192
  693MPD2    C310247   2.023   1.627  10.588 -1.0931 -0.0072  0.3160
  693MPD2    C410248   2.057   1.748  10.538  0.3551 -0.1662 -0.0957
  693MPD2    C510249   1.961   1.834  10.492  0.1751  1.0055 -0.2316
  693MPD2     H10250   1.872   1.481  10.615  1.6357  0.3332  1.4092
  693MPD2    H110251   2.155   1.794  10.547 -0.2639  1.3040 -0.9046
  693MPD2    H210252   1.752   1.856  10.439 -0.6268 -0.7646 -0.6623
  693MPD2    H310253   1.984   1.938  10.474  1.7255  0.8913  1.0530
  693MPD2     N10254   2.123   1.557  10.659 -0.7477 -0.0379  0.2252
  693MPD2    H510255   2.213   1.602  10.670 -1.0589  0.1676  1.9134
  693MPD2    N110256   1.676   1.615  10.522  0.1212  0.4664 -0.5892
  693MPD2    H710257   1.600   1.682  10.520 -1.8000 -1.7031  0.4352
  694TMC3    C110258   1.498   1.470  10.547 -0.0142  0.1033  0.6416
  694TMC3    C210259   1.432   1.372  10.479  0.7042  0.1567  0.6935
  694TMC3    C310260   1.326   1.322  10.536 -0.0845 -0.1690  0.4662
  694TMC3    C410261   1.461   1.517  10.668  0.7117 -0.5982  0.2261
  694TMC3    C510262   1.355   1.452  10.727  0.3506 -0.4541  0.3276
  694TMC3    C610263   1.280   1.358  10.659 -0.4510 -0.0233 -0.1099
  694TMC3     C10264   1.636   1.487  10.512  0.3589  0.4482 -0.1229
  694TMC3     O10265   1.693   1.386  10.476  0.7590  0.1315 -0.0962
  694TMC3     H10266   1.466   1.331  10.384 -1.2847 -1.0593  0.5093
  694TMC3    H110267   1.523   1.583  10.727  2.1285  0.3546 -2.3501
  694TMC3    H210268   1.186   1.316  10.692 -1.9766  1.0970 -3.0176
  694TMC3    C710269   1.358   1.448  10.872  0.7575  0.1184  0.1973
  694TMC3    C810270   1.240   1.246  10.451 -0.6910 -0.0594  0.4764
  694TMC3    O110271   1.417   1.544  10.920  0.5483  0.0593  0.1760
  694TMC3    O210272   1.174   1.155  10.501 -0.1947 -0.1011 -0.1553
  695MPD2     C10273   2.818   3.283  13.321  0.6157 -0.5633  0.7796
  695MPD2    C110274   2.798   3.283  13.459 -0.3735  0.0062  0.5376
  695MPD2    C210275   2.669   3.303  13.511  0.1490  0.8120 -0.7248
  695MPD2    C310276   2.569   3.349  13.422 -0.0713 -0.3446  0.2700
  695MPD2    C410277   2.600   3.364  13.290 -0.8223 -0.0747 -0.2075
  695MPD2    C510278   2.718   3.319  13.243 -0.1511  0.0250  0.2900
  695MPD2     H10279   2.646   3.287  13.615  2.6593  2.9301  0.1496
  695MPD2    H110280   2.524   3.400  13.222 -0.5325  0.4065 -0.2720
  695MPD2    H210281   2.917   3.265  13.281 -0.0837  0.4447 -1.3748
  695MPD2    H310282   2.735   3.327  13.136  1.1044 -0.9610  0.4175
  695MPD2     N10283   2.438   3.372  13.478  0.0350  0.2041  0.4587
  695MPD2    H510284   2.434   3.358  13.578  3.2604 -1.5172  0.3620
  695MPD2    N110285   2.904   3.252  13.551 -0.0008 -0.5320  0.0176
  695MPD2    H710286   2.877   3.241  13.648  1.1511 -1.6894  0.2001
  696TMC3    C110287   2.213   3.425  13.475 -0.0164 -0.2513 -0.4964
  696TMC3    C210288   2.199   3.366  13.596 -0.1820  0.1146 -0.1812
  696TMC3    C310289   2.082   3.365  13.664  0.0834  0.2033 -0.2909
  696TMC3    C410290   2.110   3.498  13.421  0.0205 -0.0619 -0.6914
  696TMC3    C510291   1.990   3.495  13.490  0.4150 -0.4161  0.1716
  696TMC3    C610292   1.982   3.435  13.613  0.0562  0.9101  0.9322
  696TMC3     C10293   2.337   3.426  13.408  0.6303  0.0883 -0.3794
  696TMC3     O10294   2.339   3.489  13.300  0.2953 -0.5610  0.4510
  696TMC3     H10295   2.278   3.299  13.630 -0.0311  0.2932 -0.1814
  696TMC3    H110296   2.105   3.552  13.327 -2.0106  0.7368 -0.1290
  696TMC3    H210297   1.898   3.453  13.679 -0.2998  0.3233  0.6332
  696TMC3    C710298   1.905   3.610  13.475  0.4477 -0.1250 -0.0478
  696TMC3    C810299   2.111   3.403  13.800 -0.0816 -0.4090  0.4655
  696TMC3    O110300   1.868   3.636  13.363  0.3980  0.1350 -0.2868
  696TMC3    O210301   2.068   3.514  13.835 -0.2680 -0.1971 -0.4717
  697MPD2     C10302   1.550   0.456  15.789  0.3381  0.4123  0.3026
  697MPD2    C110303   1.657   0.425  15.710 -0.5274 -0.5569  0.4748
  697MPD2    C210304   1.678   0.493  15.592  0.4107  0.0543  0.1909
  697MPD2    C310305   1.610   0.599  15.563 -0.5526 -0.7209 -0.4791
  697MPD2    C410306   1.503   0.642  15.641 -0.2766 -0.5877 -0.0735
  697MPD2    C510307   1.471   0.564  15.755  0.1423 -0.0493 -0.5363
  697MPD2     H10308   1.746   0.451  15.519 -0.2197 -2.4292  1.0138
  697MPD2    H110309   1.439   0.722  15.608 -1.9613 -2.8346 -2.2072
  697MPD2    H210310   1.525   0.405  15.882  1.2915  0.4084  0.5553
  697MPD2    H310311   1.392   0.590  15.824  0.7894  0.3451  0.0433
  697MPD2     N10312   1.644   0.673  15.448 -0.8827 -0.0732 -0.6067
  697MPD2    H510313   1.701   0.630  15.376 -1.8401  0.1834 -1.5189
  697MPD2    N110314   1.734   0.312  15.743 -0.5392 -0.1122 -0.1298
  697MPD2    H710315   1.806   0.275  15.682 -0.0287  1.3670 -0.4147
  698TMC3    C110316   1.683   0.853  15.321 -0.2111  0.5842 -0.5294
  698TMC3    C210317   1.763   0.954  15.365  0.1031 -0.1107 -0.5405
  698TMC3    C310318   1.853   1.009  15.281  0.3217 -0.0051 -1.1229
  698TMC3    C410319   1.704   0.788  15.202 -0.0183 -0.4466  0.0449
  698TMC3    C510320   1.799   0.845  15.114  0.4249 -0.3580 -0.1411
  698TMC3    C610321   1.867   0.955  15.153 -0.5018 -0.9100 -0.7228
  698TMC3     C10322   1.597   0.801  15.421  0.7834 -0.6156 -0.7538
  698TMC3     O10323   1.555   0.890  15.499  0.1310  0.1526 -0.7031
  698TMC3     H10324   1.749   0.999  15.463 -1.3100 -0.4526 -0.5776
  698TMC3    H110325   1.627   0.720  15.166 -3.0724  3.0510 -0.0512
  698TMC3    H210326   1.936   1.003  15.085  0.0802  0.2373  0.6698
  698TMC3    C710327   1.819   0.789  14.982 -0.2700  0.9789 -0.7437
  698TMC3    C810328   1.920   1.132  15.326  0.5941  0.2000  0.1407
  698TMC3    O110329   1.733   0.713  14.942 -0.6648 -0.1497  0.6713
  698TMC3    O210330   1.861   1.194  15.409  0.0336  0.2051 -0.9562
  699TMC3    C110331   2.194   3.319  13.065  0.5307 -0.6213  0.2686
  699TMC3    C210332   2.262   3.225  13.145  0.9470  1.0293  0.3105
  699TMC3    C310333   2.182   3.135  13.209  0.1140 -0.8167  0.0236
  699TMC3    C410334   2.061   3.312  13.042  0.7830 -0.4214  0.2911
  699TMC3    C510335   1.981   3.219  13.112  0.4796 -0.3269  0.0109
  699TMC3    C610336   2.043   3.126  13.189 -0.2194 -0.6564 -0.4102
  699TMC3     C10337   2.272   3.399  12.978  0.3875 -0.0815  0.7087
  699TMC3     O10338   2.230   3.509  12.950 -0.1701  0.1380  0.8059
  699TMC3     H10339   2.367   3.236  13.171  1.7355  0.7845 -2.7564
  699TMC3    H110340   2.020   3.398  12.990  0.4548 -0.0317  1.1901
  699TMC3    H210341   1.977   3.066  13.251  0.0127 -1.5176 -0.9959
  699TMC3    C710342   1.854   3.267  13.155 -0.7339 -0.2001 -0.4298
  699TMC3    C810343   2.247   3.067  13.324  0.2357 -0.4874  0.0012
  699TMC3    O110344   1.838   3.282  13.273 -0.7598 -0.2343 -0.8420
  699TMC3    O210345   2.170   3.022  13.410  0.4941  0.0685 -0.0842
  700TMC3    C110346   0.509   0.899  17.034 -0.8179  0.0784 -0.1399
  700TMC3    C210347   0.557   0.772  17.022  0.0170 -0.2289  0.1826
  700TMC3    C310348   0.650   0.730  17.121 -0.4641  0.2843 -0.4387
  700TMC3    C410349   0.542   0.980  17.141 -0.0972  0.0316  0.1665
  700TMC3    C510350   0.608   0.924  17.250 -0.1729 -0.4566  0.0781
  700TMC3    C610351   0.665   0.802  17.235 -0.2255 -0.0166  0.3867
  700TMC3     C10352   0.490   0.959  16.907  0.3043  0.8443 -0.8912
  700TMC3     O10353   0.378   0.960  16.864  0.4867  0.1874 -0.3146
  700TMC3     H10354   0.559   0.724  16.925 -1.9881 -0.0109  0.0347
  700TMC3    H110355   0.517   1.085  17.140  0.7136  0.2416  1.9932
  700TMC3    H210356   0.723   0.770  17.321  2.1161  2.2825 -0.3655
  700TMC3    C710357   0.681   1.017  17.337 -0.0581  0.2264 -0.1088
  700TMC3    C810358   0.750   0.628  17.079  0.8952  0.1019  0.8487
  700TMC3    O110359   0.790   0.983  17.381 -0.0464  0.0164 -0.6803
  700TMC3    O210360   0.864   0.642  17.121 -0.6961  0.4942  0.5426
  701TMC3    C110361   1.604   4.149  15.708  0.1640  0.3715 -0.6719
  701TMC3    C210362   1.606   4.120  15.574 -0.4527  0.0836 -0.6486
  701TMC3    C310363   1.644   4.219  15.488 -0.3568 -0.0841  0.2554
  701TMC3    C410364   1.642   4.272  15.761  0.1598 -0.6573 -0.1583
  701TMC3    C510365   1.667   4.368  15.671 -0.2538 -0.7300 -0.8381
  701TMC3    C610366   1.683   4.339  15.540  0.6135  0.0137 -0.3037
  701TMC3     C10367   1.483   4.121  15.771  0.9110  0.0552 -0.2921
  701TMC3     O10368   1.429   4.224  15.810 -0.0268  0.8813 -0.0557
  701TMC3     H10369   1.568   4.025  15.536 -0.4119  0.4055 -1.5059
  701TMC3    H110370   1.657   4.285  15.867  1.0012 -0.0975 -0.3488
  701TMC3    H210371   1.702   4.414  15.464 -0.2106 -0.1841 -0.7038
  701TMC3    C710372   1.644   4.506  15.696  0.5383 -0.5558  0.5132
  701TMC3    C810373   1.593   4.223  15.355 -0.4144 -0.2607 -0.0625
  701TMC3    O110374   1.653   4.580  15.602 -0.3765  0.2576 -0.5465
  701TMC3    O210375   1.612   4.327  15.289  0.2710  0.4093  0.3236
  702MPD2     C10376   1.112   1.723  10.275  0.1502 -0.4313  0.4823
  702MPD2    C110377   1.078   1.806  10.380 -0.1788  0.0777  0.1789
  702MPD2    C210378   1.088   1.943  10.361 -0.7706  0.2234 -1.2505
  702MPD2    C310379   1.144   1.994  10.243  0.1247  0.1176 -0.4675
  702MPD2    C410380   1.184   1.912  10.147  0.0997  0.4787  0.5681
  702MPD2    C510381   1.160   1.775  10.157 -0.4699  0.3202 -0.2838
  702MPD2     H10382   1.073   2.007  10.448  0.5083 -0.2985 -0.6396
  702MPD2    H110383   1.238   1.949  10.061 -1.6898  0.6898 -0.4736
  702MPD2    H210384   1.119   1.617  10.294 -1.8536 -0.5543  0.5354
  702MPD2    H310385   1.207   1.707  10.088 -0.1183  0.3573 -0.0832
  702MPD2     N10386   1.166   2.132  10.239  0.3037 -1.2810  0.3411
  702MPD2    H510387   1.217   2.157  10.155 -0.3595 -1.5003 -0.1265
  702MPD2    N110388   1.058   1.760  10.513  0.6387 -0.7560 -0.6685
  702MPD2    H710389   1.073   1.828  10.587 -0.5961 -3.0192  1.6747
  703TMC3    C110390   1.135   2.364  10.314 -0.1970  0.2925  0.1625
  703TMC3    C210391   1.044   2.448  10.369  1.0394  1.0704 -0.4243
  703TMC3    C310392   1.067   2.586  10.353  0.8988 -0.0947 -0.6852
  703TMC3    C410393   1.255   2.413  10.260  0.5530 -0.2707 -0.9844
  703TMC3    C510394   1.280   2.552  10.272  0.8832 -0.0012  0.1099
  703TMC3    C610395   1.184   2.637  10.309  0.1464 -0.1550  0.5747
  703TMC3     C10396   1.102   2.220  10.328 -0.0513 -0.1616  0.2460
  703TMC3     O10397   0.991   2.199  10.379  0.2753  0.0138 -0.4671
  703TMC3     H10398   0.961   2.404  10.423  1.8396 -1.3775 -1.2145
  703TMC3    H110399   1.322   2.346  10.207  2.2801  1.5651 -1.1218
  703TMC3    H210400   1.205   2.743  10.308  0.4511 -0.2225 -0.6086
  703TMC3    C710401   1.401   2.608  10.214 -0.1562 -0.8995  0.1389
  703TMC3    C810402   1.001   2.664  10.459 -0.0125 -0.1400 -0.9127
  703TMC3    O110403   1.407   2.723  10.175 -0.0278  0.3068  0.1421
  703TMC3    O210404   1.082   2.718  10.537 -0.2268 -0.3854  0.7249
  704TMC3    C110405   2.830   0.818  12.305  0.1644  0.0662 -0.4421
  704TMC3    C210406   2.958   0.806  12.319  0.0080  0.0486  0.0997
  704TMC3    C310407   3.017   0.696  12.373  0.3292  0.2290 -0.2913
  704TMC3    C410408   2.742   0.718  12.334 -0.8391 -0.2429  0.0945
  704TMC3    C510409   2.802   0.603  12.385  0.5991 -0.7503 -0.3024
  704TMC3    C610410   2.940   0.590  12.403 -0.0907  0.0490  0.0054
  704TMC3     C10411   2.783   0.905  12.205  0.0230  0.2600 -0.7946
  704TMC3     O10412   2.701   0.995  12.232 -0.5131 -0.1297  0.3106
  704TMC3     H10413   3.018   0.887  12.278  0.1410 -0.5633 -0.9186
  704TMC3    H110414   2.637   0.735  12.314 -1.1507 -0.3063  1.6326
  704TMC3    H210415   2.989   0.507  12.452  0.4657  0.6804  0.5039
  704TMC3    C710416   2.718   0.487  12.387 -0.0137 -0.3884 -0.1878
  704TMC3    C810417   3.170   0.693  12.362  0.1149  0.3641 -0.9702
  704TMC3    O110418   2.601   0.500  12.412 -0.1613 -0.3244  0.3345
  704TMC3    O210419   3.222   0.770  12.287  0.4649 -0.3932  0.2722
  705MPD2     C10420   2.521   3.031  16.844  0.0691 -0.5856  0.4193
  705MPD2    C110421   2.528   3.164  16.806  0.3310 -0.0578  0.5627
  705MPD2    C210422   2.431   3.254  16.851 -1.0530 -0.3591 -0.2438
  705MPD2    C310423   2.333   3.201  16.930  0.3243  0.4683 -0.7972
  705MPD2    C410424   2.333   3.067  16.969 -0.4443  0.5198  0.4525
  705MPD2    C510425   2.418   2.978  16.914 -0.2950 -0.1517 -0.1227
  705MPD2     H10426   2.430   3.360  16.825 -0.0300 -0.2243  0.2599
  705MPD2    H110427   2.249   3.035  17.029  0.7244 -1.9686  0.7605
  705MPD2    H210428   2.599   2.964  16.810  1.8625  0.7662  1.8686
  705MPD2    H310429   2.424   2.871  16.932  0.9444 -0.2527 -1.1802
  705MPD2     N10430   2.225   3.277  16.974 -0.2365  0.1914 -0.6972
  705MPD2    H510431   2.147   3.222  17.009  1.2635 -1.5496 -0.0671
  705MPD2    N110432   2.621   3.211  16.714 -0.2906 -0.0358  0.2948
  705MPD2    H710433   2.618   3.309  16.689 -2.7283 -0.4674 -1.0856
  706TMC3    C110434   2.962   3.211  16.383 -0.3615 -0.7544 -0.5161
  706TMC3    C210435   2.908   3.325  16.325  0.1574  0.7608  1.3933
  706TMC3    C310436   2.813   3.393  16.396 -0.1324  1.0702  0.3950
  706TMC3    C410437   2.910   3.161  16.497  0.4202  0.3478  0.0575
  706TMC3    C510438   2.795   3.220  16.549  0.5110  0.2951 -0.7577
  706TMC3    C610439   2.747   3.337  16.505  0.1049  0.4951  0.1382
  706TMC3     C10440   3.072   3.147  16.319  0.5084 -0.3455  0.3326
  706TMC3     O10441   3.141   3.082  16.396  0.4121 -0.6320 -1.1494
  706TMC3     H10442   2.959   3.372  16.243 -0.5020  1.4330  1.3718
  706TMC3    H110443   2.952   3.075  16.547  0.5949  0.8168  0.7048
  706TMC3    H210444   2.663   3.388  16.551 -0.5850  2.1537 -2.9151
  706TMC3    C710445   2.726   3.148  16.662  0.2168 -0.3706  0.1994
  706TMC3    C810446   2.789   3.528  16.354 -0.4494  0.5385  0.9427
  706TMC3    O110447   2.777   3.046  16.702 -0.4130 -0.2771 -0.5119
  706TMC3    O210448   2.822   3.566  16.237 -0.1781  0.0854  0.2253
  707TMC3    C110449   2.972   2.387   0.875 -0.1611  0.6799 -0.2914
  707TMC3    C210450   3.040   2.275   0.921 -0.4692  0.4576  0.0329
  707TMC3    C310451   2.975   2.154   0.916 -0.1105 -0.0450  0.1025
  707TMC3    C410452   2.840   2.369   0.832 -0.3795  0.3872 -0.5683
  707TMC3    C510453   2.788   2.245   0.821 -0.8848 -0.5599  1.0435
  707TMC3    C610454   2.856   2.135   0.858  0.3389 -0.5314  0.2114
  707TMC3     C10455   3.037   2.510   0.831 -0.4230  0.3643 -0.7662
  707TMC3     O10456   2.973   2.577   0.748  0.0768  0.4008  0.2464
  707TMC3     H10457   3.147   2.276   0.907 -0.6140 -1.6251 -1.2420
  707TMC3    H110458   2.785   2.456   0.798 -1.7300 -0.9321 -1.7636
  707TMC3    H210459   2.819   2.033   0.861 -2.3038  0.4703  2.2470
  707TMC3    C710460   2.656   2.229   0.751  0.1210 -0.6019 -0.3729
  707TMC3    C810461   3.052   2.041   0.955 -0.1140  0.4471 -0.2433
  707TMC3    O110462   2.591   2.335   0.736 -0.5306 -0.0936  0.1897
  707TMC3    O210463   3.018   1.937   0.899  0.3453 -0.7765 -0.7402
  708MPD2     C10464   1.394   1.781  14.009 -0.5401 -0.2607  1.0176
  708MPD2    C110465   1.296   1.681  14.008 -0.4905  0.8807  0.4875
  708MPD2    C210466   1.328   1.546  14.016  0.4574  0.2147  0.1789
  708MPD2    C310467   1.464   1.508  14.035 -0.6525  0.0804  0.9918
  708MPD2    C410468   1.557   1.607  14.057 -0.7084 -0.6317 -0.2647
  708MPD2    C510469   1.526   1.739  14.036 -0.0901  0.9947 -0.4414
  708MPD2     H10470   1.246   1.475  14.015 -1.3230  2.2671  2.0516
  708MPD2    H110471   1.662   1.584  14.070 -0.2325 -0.4459 -3.8505
  708MPD2    H210472   1.375   1.887  14.018  0.2266 -0.2065  1.9266
  708MPD2    H310473   1.595   1.823  14.038 -0.2194  1.0847  0.2578
  708MPD2     N10474   1.499   1.378  14.070  0.5765 -0.0669  0.6327
  708MPD2    H510475   1.592   1.359  14.106  1.1871 -0.6478 -1.2377
  708MPD2    N110476   1.159   1.721  14.002 -0.3119  0.1631 -0.4223
  708MPD2    H710477   1.097   1.644  14.027  0.5891 -1.0024 -1.7360
  709TMC3    C110478   0.975   1.863  14.016 -0.8064 -0.7251 -1.1031
  709TMC3    C210479   0.899   1.902  13.907  0.6148  0.7442  0.6547
  709TMC3    C310480   0.780   1.847  13.901 -0.4769  0.8430  0.5475
  709TMC3    C410481   0.924   1.794  14.118  0.2922 -0.1056  0.8859
  709TMC3    C510482   0.791   1.762  14.117  0.7218  0.2893 -0.2312
  709TMC3    C610483   0.714   1.778  14.000 -0.0577  0.3158  0.4053
  709TMC3     C10484   1.108   1.843  13.971 -0.7019  0.6535  0.6864
  709TMC3     O10485   1.166   1.942  13.929 -0.6809  0.4170  0.0937
  709TMC3     H10486   0.940   1.956  13.822 -1.3345  0.7547 -0.2810
  709TMC3    H110487   0.979   1.762  14.206  2.9848 -1.7115 -1.3952
  709TMC3    H210488   0.622   1.724  13.983  0.5568  0.3022 -2.9530
  709TMC3    C710489   0.758   1.665  14.219 -0.5735  0.3458 -0.6670
  709TMC3    C810490   0.680   1.895  13.802 -0.3261  0.2602  0.5314
  709TMC3    O110491   0.813   1.673  14.328  0.1609  0.3801  0.1783
  709TMC3    O210492   0.565   1.913  13.841  0.0275  0.1820  0.6935
  710TMC3    C110493   1.875   3.655   0.231 -0.5545  0.0266 -0.8629
  710TMC3    C210494   1.913   3.566   0.133 -0.4424 -0.2343 -0.4475
  710TMC3    C310495   2.003   3.461   0.161  0.0957 -0.1934 -0.3020
  710TMC3    C410496   1.940   3.645   0.352  0.3714 -0.2695  0.1851
  710TMC3    C510497   2.026   3.539   0.375  0.3742  0.0029  0.7836
  710TMC3    C610498   2.053   3.442   0.283  0.0220 -0.0692 -0.7419
  710TMC3     C10499   1.746   3.730   0.205  0.4908  0.3066  0.0535
  710TMC3     O10500   1.680   3.698   0.109 -0.0510 -0.7790 -0.4540
  710TMC3     H10501   1.874   3.579   0.032  0.0385 -1.8749 -0.8519
  710TMC3    H110502   1.878   3.681   0.433  2.7467  3.1102  0.5048
  710TMC3    H210503   2.112   3.353   0.298  0.4647  0.6602  1.8967
  710TMC3    C710504   2.056   3.515   0.511 -0.3063 -0.3009  0.1999
  710TMC3    C810505   2.012   3.354   0.069  0.1668  0.4726 -0.1098
  710TMC3    O110506   2.032   3.401   0.546 -0.1215  0.0714  0.4693
  710TMC3    O210507   2.115   3.287   0.078  0.2548 -0.1200 -0.8945
  711TMC3    C110508   1.858   4.084  14.967  0.2766  0.3678 -0.7983
  711TMC3    C210509   1.848   4.129  15.097 -0.3863 -0.0161 -0.2067
  711TMC3    C310510   1.955   4.127  15.181  0.5564 -0.1938  0.3510
  711TMC3    C410511   1.974   4.048  14.910 -0.4853  0.1797 -0.4723
  711TMC3    C510512   2.078   4.032  14.999 -0.6733  0.8296 -0.3279
  711TMC3    C610513   2.065   4.068  15.133 -0.8339  0.2245  0.0003
  711TMC3     C10514   1.757   3.990  14.931 -0.1269 -0.6678  0.6093
  711TMC3     O10515   1.769   3.931  14.820 -0.2220 -0.6189  0.1460
  711TMC3     H10516   1.756   4.168  15.140 -0.3469 -1.5760  1.3262
  711TMC3    H110517   1.978   4.028  14.803  1.1842  0.9161 -0.5454
  711TMC3    H210518   2.141   4.048  15.207 -1.8496  0.3247  1.0753
  711TMC3    C710519   2.127   3.903  14.986 -0.8638 -0.5723  0.0467
  711TMC3    C810520   1.932   4.106  15.317 -0.0821 -0.1600 -0.3712
  711TMC3    O110521   2.224   3.891  15.062  0.0575  0.8448 -0.8764
  711TMC3    O210522   1.829   4.048  15.338  0.0605  0.5860  0.6430
  712MPD2     C10523   3.381   0.182  13.511  0.0415  0.7021  0.4648
  712MPD2    C110524   3.264   0.200  13.572 -0.7666 -0.5095  0.4014
  712MPD2    C210525   3.257   0.248  13.701  0.4322  0.4870 -0.0086
  712MPD2    C310526   3.369   0.287  13.767 -0.0460 -0.0381  0.1025
  712MPD2    C410527   3.490   0.254  13.707  0.4211 -0.1328 -0.4816
  712MPD2    C510528   3.499   0.189  13.586  0.0932  0.3106  0.4532
  712MPD2     H10529   3.160   0.262  13.746 -0.4782 -0.9199 -1.5500
  712MPD2    H110530   3.578   0.264  13.768  0.9753 -2.5015 -0.8993
  712MPD2    H210531   3.395   0.171  13.405  0.0408 -2.6914  0.8246
  712MPD2    H310532   3.588   0.175  13.525  0.8410 -3.1603  2.3770
  712MPD2     N10533   3.357   0.363  13.884  0.0403  0.1784 -0.0848
  712MPD2    H510534   3.434   0.425  13.906  0.7145 -0.3475 -0.9404
  712MPD2    N110535   3.136   0.183  13.511 -0.7199 -0.2549 -0.0840
  712MPD2    H710536   3.054   0.186  13.571  0.3117 -0.0954  1.3406
  713TMC3    C110537   3.251   0.504  14.043 -0.4122 -0.3486 -0.0326
  713TMC3    C210538   3.376   0.550  14.081 -0.0857 -0.6344 -0.0192
  713TMC3    C310539   3.380   0.659  14.163 -0.2015 -0.3978 -0.3214
  713TMC3    C410540   3.137   0.561  14.088 -0.2626  0.3025  0.1865
  713TMC3    C510541   3.145   0.671  14.172 -0.1042 -0.3224  0.0468
  713TMC3    C610542   3.270   0.716  14.211  0.6414 -0.6576 -0.1802
  713TMC3     C10543   3.247   0.387  13.963 -0.2947  0.1967  0.3282
  713TMC3     O10544   3.144   0.319  13.971 -0.5661 -0.4096  0.4063
  713TMC3     H10545   3.468   0.495  14.068 -0.5802 -1.9317  1.9660
  713TMC3    H110546   3.039   0.521  14.067 -0.8837  2.0034 -0.2264
  713TMC3    H210547   3.274   0.815  14.254 -0.6341 -0.7951  0.2619
  713TMC3    C710548   3.051   0.772  14.130 -0.0856 -0.5354  0.3698
  713TMC3    C810549   3.503   0.733  14.180  0.1985  0.3653  0.8496
  713TMC3    O110550   2.961   0.735  14.054  0.6518 -0.0273 -0.4676
  713TMC3    O210551   3.500   0.820  14.264  0.0106  0.3172  0.6511
  714MPD2     C10552   0.333   3.539   1.294  0.3682  0.0133  0.6856
  714MPD2    C110553   0.401   3.579   1.406  0.5596  0.9195 -0.2994
  714MPD2    C210554   0.326   3.653   1.502  0.6721  0.0208 -0.1369
  714MPD2    C310555   0.184   3.677   1.488 -0.0167  0.5715 -0.1908
  714MPD2    C410556   0.120   3.627   1.381 -1.2945  0.8258  0.0867
  714MPD2    C510557   0.192   3.561   1.280  0.1317  0.1549 -0.1750
  714MPD2     H10558   0.373   3.705   1.584 -1.3708  0.7954  0.5281
  714MPD2    H110559   0.014   3.637   1.362 -1.0714  2.3665 -0.3532
  714MPD2    H210560   0.384   3.513   1.202  0.1409 -2.0735  1.1360
  714MPD2    H310561   0.145   3.528   1.189  1.4020  1.2046 -1.2174
  714MPD2     N10562   0.116   3.755   1.586  0.0406 -0.1877  0.0077
  714MPD2    H510563   0.154   3.743   1.679 -0.1654 -0.0253  0.1122
  714MPD2    N110564   0.540   3.560   1.423  0.3712  0.4194 -0.4939
  714MPD2    H710565   0.583   3.605   1.503 -2.2838 -1.5123  2.0451
  715TMC3    C110566   0.771   3.505   1.377  0.0849  0.2175  0.1261
  715TMC3    C210567   0.855   3.473   1.274  0.7955  0.1315 -0.0401
  715TMC3    C310568   0.982   3.531   1.271  0.4599 -0.0759  0.2934
  715TMC3    C410569   0.818   3.584   1.479  0.0439 -0.4490  0.6705
  715TMC3    C510570   0.948   3.622   1.477  0.1379 -0.3371  0.8601
  715TMC3    C610571   1.025   3.601   1.372 -0.1512 -0.8145 -0.2941
  715TMC3     C10572   0.630   3.498   1.340 -0.1394  0.4340  0.2515
  715TMC3     O10573   0.602   3.442   1.236  0.5892 -0.6453  0.3914
  715TMC3     H10574   0.815   3.422   1.187  0.7206 -0.7114  0.4896
  715TMC3    H110575   0.750   3.621   1.555  0.9246  2.4602  0.0126
  715TMC3    H210576   1.131   3.625   1.376 -0.2587 -0.3026 -0.5110
  715TMC3    C710577   1.016   3.679   1.600  0.2108  0.2784  0.1123
  715TMC3    C810578   1.073   3.467   1.184  0.3367  0.1068 -0.2867
  715TMC3    O110579   1.113   3.752   1.585 -0.0962  0.1552 -0.2349
  715TMC3    O210580   1.032   3.375   1.109 -0.6625  0.2182  0.4235
  716MPD2     C10581   0.844   2.163   9.923 -0.1538  0.5390 -0.8918
  716MPD2    C110582   0.814   2.234   9.805  0.6014  0.0576 -0.8464
  716MPD2    C210583   0.862   2.187   9.685  0.3841 -0.6585 -0.0582
  716MPD2    C310584   0.924   2.065   9.676  0.5066  0.3799  0.1419
  716MPD2    C410585   0.968   2.002   9.790 -0.0528 -0.6937 -0.2322
  716MPD2    C510586   0.926   2.055   9.914  0.3970  1.1951  0.0696
  716MPD2     H10587   0.836   2.249   9.599 -0.5202 -1.3012 -0.2400
  716MPD2    H110588   1.022   1.908   9.788  0.3883 -0.3636 -3.0117
  716MPD2    H210589   0.802   2.186  10.020  1.5971 -0.2229  0.0584
  716MPD2    H310590   0.946   2.002  10.006 -2.3649 -1.4248 -0.8312
  716MPD2     N10591   0.945   2.017   9.543 -0.7883  0.5818  0.5194
  716MPD2    H510592   0.905   2.085   9.478 -1.4364 -0.2161  0.0840
  716MPD2    N110593   0.731   2.344   9.814 -0.2396 -0.5259  0.1268
  716MPD2    H710594   0.695   2.363   9.907  0.2545  0.5622  0.0970
  717TMC3    C110595   0.995   1.921   9.356  0.2868 -0.4037  0.4644
  717TMC3    C210596   0.955   2.037   9.291 -0.3933 -0.2231  0.2765
  717TMC3    C310597   0.925   2.024   9.156  0.5240  0.3655  0.4463
  717TMC3    C410598   1.026   1.804   9.290  0.0796  0.2478  0.2312
  717TMC3    C510599   0.998   1.797   9.153  0.1521  0.2149  0.2364
  717TMC3    C610600   0.941   1.905   9.090  0.0389  0.2823  0.4866
  717TMC3     C10601   1.017   1.912   9.494  0.4244 -0.1455 -0.2335
  717TMC3     O10602   1.038   1.808   9.558  0.6445  0.3975  0.1464
  717TMC3     H10603   0.939   2.138   9.327  0.4219  0.6767 -1.8824
  717TMC3    H110604   1.035   1.719   9.357 -0.0898 -0.6448 -0.8807
  717TMC3    H210605   0.905   1.888   8.989 -0.4568  0.8285  0.5725
  717TMC3    C710606   0.968   1.668   9.092  0.6765  0.7692  0.0190
  717TMC3    C810607   0.851   2.139   9.095  0.0347 -0.3967  0.4055
  717TMC3    O110608   0.872   1.659   9.015 -0.7293 -0.6242  0.1849
  717TMC3    O210609   0.817   2.235   9.167 -0.3837 -0.3958  0.0579
  718MPD2     C10610   0.223   1.046  12.993 -0.2893  1.1221  0.0244
  718MPD2    C110611   0.150   1.128  12.908 -0.8240 -0.2196 -0.1953
  718MPD2    C210612   0.021   1.090  12.880  0.0816 -0.0612  0.3142
  718MPD2    C310613   4.698   0.961  12.906 -0.2888 -0.4501 -0.0865
  718MPD2    C410614   0.060   0.868  12.974  0.6740 -0.1250  0.8494
  718MPD2    C510615   0.182   0.915  13.018  0.2422 -0.1935 -0.0581
  718MPD2     H10616   4.681   1.150  12.812  2.5404  3.5991  1.4305
  718MPD2    H110617   0.028   0.765  12.989  0.5206 -0.3636 -1.2041
  718MPD2    H210618   0.327   1.066  13.018 -0.3789  0.3543  1.0078
  718MPD2    H310619   0.249   0.846  13.069  2.3635  0.9735 -1.2274
  718MPD2     N10620   4.569   0.930  12.858  0.1479  0.1086  0.2838
  718MPD2    H510621   4.531   1.009  12.809 -0.9710 -0.4024  0.3388
  718MPD2    N110622   0.203   1.254  12.863 -0.3187 -0.6289  0.1582
  718MPD2    H710623   0.290   1.286  12.906 -0.1392  1.4710 -1.7788
  719TMC3    C110624   0.220   1.445  12.715  0.2029  0.5410  0.1129
  719TMC3    C210625   0.145   1.511  12.622  0.6143 -0.1648 -0.4213
  719TMC3    C310626   0.176   1.518  12.489  0.3748 -0.2768 -0.6870
  719TMC3    C410627   0.347   1.409  12.685  0.1080  0.1849 -0.6374
  719TMC3    C510628   0.386   1.432  12.558 -0.0152  0.3337  1.4173
  719TMC3    C610629   0.305   1.489  12.460 -0.8920  0.5555  0.4193
  719TMC3     C10630   0.138   1.336  12.772 -0.2125  0.5937  0.6357
  719TMC3     O10631   0.037   1.316  12.705  0.3646  0.4783 -0.0374
  719TMC3     H10632   0.043   1.534  12.649  0.1724  0.1691 -2.3705
  719TMC3    H110633   0.414   1.364  12.757 -0.1370 -1.3340 -1.3523
  719TMC3    H210634   0.336   1.540  12.369 -2.6531  0.1755 -0.3980
  719TMC3    C710635   0.529   1.473  12.544 -0.0890  0.3992 -0.1004
  719TMC3    C810636   0.081   1.478  12.388 -0.0011 -0.0324  0.3144
  719TMC3    O110637   0.576   1.517  12.438 -0.5794  0.5705 -0.3443
  719TMC3    O210638   0.107   1.499  12.267 -0.1310 -0.0462 -0.4675
  720MPD2     C10639   3.338   2.158  13.442 -0.0195 -0.0444  0.1474
  720MPD2    C110640   3.325   2.244  13.550  0.5570 -0.3337 -0.2783
  720MPD2    C210641   3.395   2.216  13.662 -0.4687 -0.3241 -0.3107
  720MPD2    C310642   3.486   2.112  13.671 -0.1232  0.3734 -0.8060
  720MPD2    C410643   3.501   2.022  13.566  0.6859 -0.3833 -0.1129
  720MPD2    C510644   3.428   2.052  13.450 -0.0094  0.4990 -0.1304
  720MPD2     H10645   3.404   2.300  13.730  0.1891 -1.1307  0.5903
  720MPD2    H110646   3.557   1.932  13.584  0.0159 -0.5141  1.3376
  720MPD2    H210647   3.288   2.169  13.346  0.5012  0.3553 -0.0780
  720MPD2    H310648   3.430   1.982  13.367  0.7381 -1.9875  1.9618
  720MPD2     N10649   3.579   2.105  13.778  0.2786  1.0068  0.0318
  720MPD2    H510650   3.542   2.142  13.865  0.3308 -0.8056  0.8320
  720MPD2    N110651   3.241   2.355  13.529  0.0712 -0.5197  0.0329
  720MPD2    H710652   3.226   2.383  13.433  1.0815  2.4769  0.7692
  721TMC3    C110653   3.766   2.032  13.888 -0.2013 -0.1680 -0.0925
  721TMC3    C210654   3.699   2.057  14.001 -0.5052 -0.4445  0.4515
  721TMC3    C310655   3.770   2.069  14.120 -0.3521  0.9785 -0.4913
  721TMC3    C410656   3.904   2.041  13.885  0.2183 -0.3064 -1.1071
  721TMC3    C510657   3.974   2.063  14.002 -0.3251 -0.0962 -0.1702
  721TMC3    C610658   3.910   2.067  14.121 -0.5035 -0.4683  0.0917
  721TMC3     C10659   3.701   2.048  13.765 -0.3349  0.2184  0.6493
  721TMC3     O10660   3.761   2.014  13.664  0.1046  0.2519  0.0024
  721TMC3     H10661   3.593   2.042  14.012 -0.5890 -0.5282 -0.4765
  721TMC3    H110662   3.958   2.025  13.792  1.8936 -0.1202 -0.1816
  721TMC3    H210663   3.959   2.107  14.210 -0.5301 -2.5385  1.0476
  721TMC3    C710664   4.114   2.096  13.991  1.2931  0.2154 -0.0892
  721TMC3    C810665   3.688   2.093  14.238 -1.1441 -0.4302 -0.0181
  721TMC3    O110666   4.160   2.130  13.882  0.4839 -0.2733 -0.4343
  721TMC3    O210667   3.577   2.131  14.212  0.3738  0.0731  0.3960
  722MPD2     C10668   2.246   0.909  13.496 -0.0325  0.2980  0.2332
  722MPD2    C110669   2.256   1.035  13.450 -0.1497 -0.1172 -0.1079
  722MPD2    C210670   2.173   1.078  13.349  0.3587  0.3186  0.2439
  722MPD2    C310671   2.073   0.994  13.296 -0.1681  0.7149  0.3767
  722MPD2    C410672   2.065   0.864  13.348 -0.1093 -1.0010  1.0619
  722MPD2    C510673   2.148   0.822  13.451 -0.0998  0.1224  0.0059
  722MPD2     H10674   2.170   1.180  13.313 -0.5836  0.6475  1.2403
  722MPD2    H110675   1.978   0.803  13.330 -1.8241  1.3425  1.3863
  722MPD2    H210676   2.315   0.862  13.566  1.2366  1.6679 -0.0940
  722MPD2    H310677   2.129   0.722  13.489  0.0246  0.3236  0.6037
  722MPD2     N10678   1.979   1.046  13.196  0.2983  0.4625  0.6118
  722MPD2    H510679   1.989   1.139  13.157  0.0131 -0.1737 -0.9588
  722MPD2    N110680   2.345   1.130  13.492  0.2158 -0.9147  0.5244
  722MPD2    H710681   2.353   1.210  13.430 -0.1367 -1.0221  0.3408
  723TMC3    C110682   1.798   1.049  13.056 -0.2030 -0.4201 -0.1207
  723TMC3    C210683   1.708   0.979  12.984  0.4135 -0.2574  0.3426
  723TMC3    C310684   1.643   1.045  12.881 -0.0287  0.2983  0.8020
  723TMC3    C410685   1.815   1.188  13.047  0.1373  0.9122  0.2984
  723TMC3    C510686   1.740   1.250  12.955 -0.4466 -0.6658  0.2118
  723TMC3    C610687   1.655   1.181  12.872  0.7241 -0.0957 -0.3541
  723TMC3     C10688   1.876   0.977  13.154  0.2855  0.6685 -0.2220
  723TMC3     O10689   1.847   0.858  13.167  0.1038 -0.5992 -0.3524
  723TMC3     H10690   1.708   0.872  12.997  1.6333 -0.1503  1.2077
  723TMC3    H110691   1.874   1.237  13.123 -1.1088  0.9895  1.2226
  723TMC3    H210692   1.600   1.226  12.791  3.2188  2.9643 -0.3384
  723TMC3    C710693   1.743   1.396  12.947 -0.6040  0.4911  0.6353
  723TMC3    C810694   1.539   0.980  12.804 -0.5128  0.2562  0.5627
  723TMC3    O110695   1.798   1.440  13.047 -0.0741  0.0838  0.7167
  723TMC3    O210696   1.452   1.055  12.762 -0.3195  0.0262  0.5180
  724TMC3    C110697   2.487   0.287   9.839  0.2714 -0.0452  0.2070
  724TMC3    C210698   2.512   0.419   9.811  0.0832 -0.3759 -0.0140
  724TMC3    C310699   2.418   0.484   9.736  0.0494  0.1670 -0.4411
  724TMC3    C410700   2.384   0.215   9.779  0.4917  0.3210 -0.1234
  724TMC3    C510701   2.290   0.286   9.701 -0.1736 -0.3958  0.3099
  724TMC3    C610702   2.313   0.424   9.672  0.3043 -0.0641  0.0569
  724TMC3     C10703   2.579   0.220   9.921 -0.1086  0.7251 -0.1291
  724TMC3     O10704   2.537   0.127   9.985  0.2098  0.1818 -0.8150
  724TMC3     H10705   2.571   0.476   9.882  0.4897 -2.7368  1.5078
  724TMC3    H110706   2.378   0.109   9.800 -0.1315 -0.0581 -2.2047
  724TMC3    H210707   2.251   0.483   9.606  1.3971  1.8206  0.7301
  724TMC3    C710708   2.173   0.213   9.649  0.2904  0.9480 -0.1579
  724TMC3    C810709   2.399   0.625   9.746  0.7229 -0.1627 -1.3224
  724TMC3    O110710   2.190   0.093   9.635  0.0767 -0.6114 -0.2879
  724TMC3    O210711   2.285   0.669   9.734 -0.5555  0.0347  0.6719
  725TMC3    C110712   3.898   2.764  12.267 -0.8115  0.7621  0.3759
  725TMC3    C210713   3.853   2.852  12.172  1.0250 -0.2603  0.8091
  725TMC3    C310714   3.820   2.799  12.052  0.6262  1.3080  0.4859
  725TMC3    C410715   3.914   2.628  12.239  0.0670  0.0982 -0.6997
  725TMC3    C510716   3.882   2.575  12.113 -0.2379  0.2244  0.0772
  725TMC3    C610717   3.830   2.662  12.021  0.6627 -0.2198 -1.4946
  725TMC3     C10718   3.941   2.820  12.394  0.0453 -0.2250  0.1040
  725TMC3     O10719   3.977   2.936  12.384 -0.1992  0.2238 -0.6110
  725TMC3     H10720   3.845   2.956  12.201 -3.1977 -0.3044 -0.2778
  725TMC3    H110721   3.944   2.568  12.325  2.0955  0.9908 -0.7730
  725TMC3    H210722   3.828   2.638  11.915  1.4726  0.1238 -1.5836
  725TMC3    C710723   3.907   2.440  12.093  0.5624  0.6292 -0.4973
  725TMC3    C810724   3.805   2.899  11.938  0.3038  0.4657 -0.1148
  725TMC3    O110725   3.843   2.392  12.004 -0.8209 -0.1154 -0.7278
  725TMC3    O210726   3.767   2.846  11.837  0.1069 -0.4364 -0.3261
  726MPD2     C10727   2.621   4.385  10.680  0.6809  0.0210 -0.3825
  726MPD2    C110728   2.535   4.448  10.593 -0.0027 -0.5723 -0.0749
  726MPD2    C210729   2.424   4.382  10.561  0.1607 -0.5304 -0.0862
  726MPD2    C310730   2.388   4.263  10.611 -0.1067  0.0511 -0.5219
  726MPD2    C410731   2.479   4.198  10.685  0.1513  0.0987 -0.7046
  726MPD2    C510732   2.594   4.263  10.733 -0.2417 -0.0633 -0.3244
  726MPD2     H10733   2.350   4.423  10.493  0.4497 -0.2147 -0.2085
  726MPD2    H110734   2.476   4.095  10.720  3.0930  0.6345  1.1217
  726MPD2    H210735   2.712   4.430  10.719  0.4233  1.5298 -1.5446
  726MPD2    H310736   2.673   4.210  10.786  0.5085  0.6408 -0.7373
  726MPD2     N10737   2.265   4.201  10.578 -0.3248  0.3558 -0.3710
  726MPD2    H510738   2.241   4.109  10.613  0.5791 -0.0430 -0.8325
  726MPD2    N110739   2.539   4.576  10.545  0.3152 -0.2728 -0.4493
  726MPD2    H710740   2.480   4.596  10.465  0.4866  1.2431 -0.2045
  727TMC3    C110741   2.617   0.056  10.471 -0.3001  0.4958 -0.2596
  727TMC3    C210742   2.728   0.139  10.457 -0.3663 -0.5976  0.0227
  727TMC3    C310743   2.708   0.269  10.418 -0.5584 -1.1035  0.0830
  727TMC3    C410744   2.492   0.109  10.455 -0.3449  0.2369  0.3183
  727TMC3    C510745   2.484   0.232  10.408  0.9098 -0.2833  0.0863
  727TMC3    C610746   2.588   0.319  10.394  0.7945 -0.8038  0.2847
  727TMC3     C10747   2.636   4.667  10.564 -0.6945  0.5961 -0.4489
  727TMC3     O10748   2.730   4.663  10.640  0.6578  0.3972 -0.8904
  727TMC3     H10749   2.826   0.097  10.477 -1.7744 -4.8036 -2.0158
  727TMC3    H110750   2.399   0.054  10.465  0.2503 -0.8056  0.1283
  727TMC3    H210751   2.575   0.419  10.356  2.8937 -0.5372  0.2551
  727TMC3    C710752   2.346   0.278  10.410 -0.1790 -0.0562  0.4853
  727TMC3    C810753   2.824   0.337  10.386  0.5097  0.3768  0.1773
  727TMC3    O110754   2.259   0.197  10.381 -0.2139 -0.2163 -0.3227
  727TMC3    O210755   2.914   0.330  10.470  0.1066  0.8750  0.2166
  728TMC3    C110756   1.113   2.467  15.247  0.1943 -0.4132 -0.2063
  728TMC3    C210757   1.245   2.491  15.279 -0.1684 -0.0295 -0.3476
  728TMC3    C310758   1.334   2.566  15.201 -0.0203 -0.1593  0.5193
  728TMC3    C410759   1.079   2.512  15.122  0.0479 -0.5449 -0.8994
  728TMC3    C510760   1.163   2.587  15.047  0.2648 -0.3402 -0.3923
  728TMC3    C610761   1.288   2.621  15.087  0.3570 -0.1034 -0.6272
  728TMC3     C10762   1.022   2.428  15.358  0.2185 -0.2988  0.2733
  728TMC3     O10763   1.071   2.439  15.466  0.1116 -0.4234 -0.1370
  728TMC3     H10764   1.274   2.433  15.367  0.9042  1.4627  0.2958
  728TMC3    H110765   0.975   2.515  15.092  0.6887  0.3678 -3.0897
  728TMC3    H210766   1.364   2.669  15.026 -0.2233  2.4227  0.6404
  728TMC3    C710767   1.130   2.588  14.904 -1.2451  0.3010  0.6455
  728TMC3    C810768   1.479   2.569  15.217 -0.4390  0.0000  0.0469
  728TMC3    O110769   1.055   2.500  14.859  0.3677 -0.1484 -0.4186
  728TMC3    O210770   1.550   2.599  15.126  1.1589 -0.1344 -0.5774
  729MPD2     C10771   3.647   3.540  16.908  0.0737 -0.2270 -0.3123
  729MPD2    C110772   3.736   3.646  16.888 -0.5742  0.8319 -0.6397
  729MPD2    C210773   3.784   3.702  17.004 -0.6955 -0.6057  0.2714
  729MPD2    C310774   3.744   3.654  17.125  0.3369  0.0775 -0.2225
  729MPD2    C410775   3.664   3.547  17.144 -0.5843  0.0547  0.1228
  729MPD2    C510776   3.615   3.494  17.032 -0.4900 -0.5093  0.1392
  729MPD2     H10777   3.863   3.777  16.995  0.3960 -1.9243 -1.0176
  729MPD2    H110778   3.618   3.510  17.235 -1.0880  1.3601  0.4098
  729MPD2    H210779   3.606   3.482  16.826  1.2495  0.4789 -1.4095
  729MPD2    H310780   3.548   3.411  17.051 -1.7813  1.3832  3.8276
  729MPD2     N10781   3.780   3.716  17.250  0.1586  0.1947 -0.0072
  729MPD2    H510782   3.745   3.671  17.333  1.7823 -2.0388 -0.5345
  729MPD2    N110783   3.770   3.679  16.761 -0.2718  0.6246  0.2253
  729MPD2    H710784   3.726   3.625  16.687  0.4786  0.3146  0.0022
  730TMC3    C110785   3.791   3.881  17.395 -0.0003 -0.7912  0.3565
  730TMC3    C210786   3.849   3.996  17.434 -0.1270  0.2839 -0.1799
  730TMC3    C310787   3.783   4.087  17.518 -0.5979  0.1281 -0.4173
  730TMC3    C410788   3.670   3.846  17.450 -0.4326 -0.0998  0.6422
  730TMC3    C510789   3.605   3.936  17.529  0.1779 -0.2255  0.6004
  730TMC3    C610790   3.669   4.050  17.580  0.5962  0.2656 -0.1996
  730TMC3     C10791   3.811   3.844  17.262 -0.0383 -0.5736 -0.0281
  730TMC3     O10792   3.822   3.936  17.178  0.2974  0.5065  0.6471
  730TMC3     H10793   3.934   4.030  17.377 -0.6744  1.4463 -0.3171
  730TMC3    H110794   3.611   3.765  17.409  0.7503 -0.3370 -0.5821
  730TMC3    H210795   3.616   4.119  17.645  0.4238  0.7755 -0.8835
  730TMC3    C710796   3.478   3.975  17.474 -0.0927 -0.0240 -0.6982
  730TMC3    C810797   3.810   4.228  17.497 -0.2222 -0.4939  0.0664
  730TMC3    O110798   3.451   3.933  17.358  0.4368 -0.0933 -0.3016
  730TMC3    O210799   3.884   4.258  17.408  0.2032  0.2933  0.3635
  731MPD2     C10800   2.825   2.179  12.054  0.2067 -0.3031 -0.2572
  731MPD2    C110801   2.929   2.151  11.968 -0.3709 -0.0070  0.4277
  731MPD2    C210802   3.060   2.167  12.008  0.0427 -0.0793  0.2253
  731MPD2    C310803   3.089   2.221  12.133 -0.1495 -0.2528 -0.8823
  731MPD2    C410804   2.983   2.252  12.211 -0.3170 -0.1050 -0.1352
  731MPD2    C510805   2.852   2.221  12.176 -0.3957  0.1941  1.0731
  731MPD2     H10806   3.137   2.144  11.935  0.0977 -0.7362  0.4886
  731MPD2    H110807   2.987   2.311  12.302  0.6292 -0.9533  0.3661
  731MPD2    H210808   2.721   2.172  12.024 -0.6942 -0.3057  2.8765
  731MPD2    H310809   2.775   2.232  12.252 -0.2759 -0.4396  1.2820
  731MPD2     N10810   3.220   2.261  12.167 -0.1540  0.1423 -0.0638
  731MPD2    H510811   3.290   2.248  12.095  1.3583  1.7071  1.1169
  731MPD2    N110812   2.897   2.084  11.848 -1.0424 -0.8719 -0.1740
  731MPD2    H710813   2.799   2.075  11.825  0.1346 -1.4759 -4.9761
  732TMC3    C110814   2.917   1.939  11.661  0.2075  0.8101  0.0906
  732TMC3    C210815   2.789   1.911  11.671 -0.7803  0.5009  0.0331
  732TMC3    C310816   2.737   1.815  11.591 -0.1720 -0.0250  0.4926
  732TMC3    C410817   2.999   1.870  11.580 -0.0252  0.1745  0.5533
  732TMC3    C510818   2.936   1.773  11.505 -0.0219  0.8528  0.2667
  732TMC3    C610819   2.808   1.740  11.512  0.5123  0.4747  0.0906
  732TMC3     C10820   2.980   2.018  11.763 -0.0523 -0.0448  0.0961
  732TMC3     O10821   3.100   2.003  11.764 -0.1310 -0.1110  0.3631
  732TMC3     H10822   2.722   1.969  11.734  0.3398 -0.2645  1.9311
  732TMC3    H110823   3.101   1.904  11.568 -0.2724  0.7350  0.0746
  732TMC3    H210824   2.766   1.655  11.460 -1.0571  0.3651  1.5121
  732TMC3    C710825   3.018   1.718  11.402 -0.1840 -0.4701  0.3024
  732TMC3    C810826   2.612   1.747  11.623  0.3634  1.2026  0.2288
  732TMC3    O110827   2.970   1.673  11.298 -0.1106  0.7329 -0.7026
  732TMC3    O210828   2.544   1.701  11.532 -0.1095 -0.0927  0.0431
  733TMC3    C110829   4.136   0.828  12.810 -0.1366  0.2022  0.1805
  733TMC3    C210830   4.254   0.797  12.875 -0.8921  0.4777  0.0379
  733TMC3    C310831   4.373   0.832  12.808 -0.2405  0.1521  0.5596
  733TMC3    C410832   4.124   0.906  12.696  0.0653 -0.6086  0.4655
  733TMC3    C510833   4.248   0.945  12.639  0.1085  0.1424 -0.1395
  733TMC3    C610834   4.370   0.923  12.704 -0.4666 -0.0994 -0.0570
  733TMC3     C10835   4.028   0.845  12.896  0.0614 -0.8100 -0.3855
  733TMC3     O10836   3.954   0.939  12.878  0.0947 -0.2833 -0.0352
  733TMC3     H10837   4.267   0.748  12.970 -2.3979  0.3461  0.1779
  733TMC3    H110838   4.030   0.933  12.650  0.5517 -0.6163 -0.5452
  733TMC3    H210839   4.459   0.940  12.646 -1.1045  1.1809 -0.6522
  733TMC3    C710840   4.244   1.053  12.534  0.0594 -0.2063  0.0565
  733TMC3    C810841   4.494   0.815  12.877  0.1945 -0.0615 -0.1382
  733TMC3    O110842   4.151   1.052  12.449  0.2174 -0.4266 -0.2910
  733TMC3    O210843   4.503   0.730  12.963  0.5876 -0.1934 -0.0618
  734MPD2     C10844   1.784   3.047  12.320 -0.1464  0.1362 -0.2277
  734MPD2    C110845   1.761   2.956  12.224 -0.0883 -0.4918 -0.2904
  734MPD2    C210846   1.752   3.004  12.093  0.0292 -0.1740 -0.0055
  734MPD2    C310847   1.768   3.132  12.061 -0.3096  0.1223 -0.2902
  734MPD2    C410848   1.791   3.216  12.160 -0.2836 -0.4572 -0.0670
  734MPD2    C510849   1.795   3.177  12.287  0.5381  0.6816 -0.1181
  734MPD2     H10850   1.734   2.930  12.016 -0.4270 -1.2385  1.1139
  734MPD2    H110851   1.806   3.322  12.144 -1.2175 -0.3687 -0.3930
  734MPD2    H210852   1.783   3.015  12.423 -0.3964  1.6124  0.2326
  734MPD2    H310853   1.803   3.253  12.364  0.2188 -0.3750  0.9655
  734MPD2     N10854   1.762   3.165  11.926  0.1516  0.6430  0.6572
  734MPD2    H510855   1.730   3.083  11.875 -2.0318  2.5313 -1.0004
  734MPD2    N110856   1.737   2.820  12.265  0.0820  0.8160 -0.1392
  734MPD2    H710857   1.734   2.802  12.365  1.0698  1.1117 -0.0511
  735TMC3    C110858   1.672   2.584  12.242  0.0898  0.9102 -0.5156
  735TMC3    C210859   1.579   2.523  12.159  0.0187  0.1878 -0.8083
  735TMC3    C310860   1.614   2.396  12.109 -0.4472 -0.8464  0.1446
  735TMC3    C410861   1.792   2.520  12.266  0.7951  0.3233 -0.1568
  735TMC3    C510862   1.816   2.389  12.219  0.0935 -0.0253  0.2322
  735TMC3    C610863   1.726   2.328  12.142  0.6533  0.6292 -0.3104
  735TMC3     C10864   1.685   2.713  12.189  0.4597  0.0566  0.2473
  735TMC3     O10865   1.678   2.706  12.065  0.5078 -0.0661  0.5806
  735TMC3     H10866   1.489   2.577  12.132  0.5810  1.2497 -0.5624
  735TMC3    H110867   1.873   2.576  12.311  0.8997 -1.1375  1.5043
  735TMC3    H210868   1.754   2.236  12.093  2.7735 -0.0754  2.1686
  735TMC3    C710869   1.950   2.369  12.175 -0.4162 -0.1602  0.0836
  735TMC3    C810870   1.577   2.372  11.979 -0.3553  0.6746 -0.4506
  735TMC3    O110871   1.993   2.480  12.136 -0.1247  0.5989  0.4660
  735TMC3    O210872   1.581   2.260  11.925 -0.0982 -0.1311 -0.2735
  736MPD2     C10873   2.109   2.046  12.126 -0.4113 -0.0098 -0.5177
  736MPD2    C110874   2.102   2.189  12.118 -0.0145  0.1854  0.4729
  736MPD2    C210875   2.191   2.261  12.045  0.7272  0.1012 -0.3326
  736MPD2    C310876   2.291   2.197  11.979 -0.3279  0.7085 -0.7165
  736MPD2    C410877   2.314   2.065  12.001 -0.4353  0.1834  0.2522
  736MPD2    C510878   2.224   1.989  12.080  0.3761  0.0739  0.4090
  736MPD2     H10879   2.177   2.369  12.050  0.0269  0.0932 -2.0135
  736MPD2    H110880   2.400   2.009  11.968 -0.1086 -0.1212  1.6098
  736MPD2    H210881   2.037   1.981  12.175  0.1700 -0.0195  0.3229
  736MPD2    H310882   2.227   1.881  12.080 -1.8176  0.0042  0.2954
  736MPD2     N10883   2.392   2.265  11.910 -0.9015 -0.1896  0.4192
  736MPD2    H510884   2.457   2.204  11.861  2.0255  1.7779  1.8246
  736MPD2    N110885   1.993   2.240  12.184  0.8576 -0.1272  0.0759
  736MPD2    H710886   1.940   2.175  12.241 -2.3221  1.7209 -0.7188
  737TMC3    C110887   2.486   2.434  11.776 -0.7885  0.0484  0.0436
  737TMC3    C210888   2.470   2.552  11.705  0.1354  0.3301 -0.1755
  737TMC3    C310889   2.558   2.599  11.604 -0.0478 -0.0533 -0.2933
  737TMC3    C410890   2.602   2.364  11.758  0.3140 -0.4664 -0.0635
  737TMC3    C510891   2.692   2.412  11.663 -0.4286  0.0267 -0.0925
  737TMC3    C610892   2.672   2.530  11.589  0.5721 -0.3130  0.6514
  737TMC3     C10893   2.392   2.399  11.877  0.2963  0.2055  0.0703
  737TMC3     O10894   2.323   2.488  11.913 -0.1895  0.5014  0.2533
  737TMC3     H10895   2.381   2.612  11.718  1.4150  2.1347  0.2938
  737TMC3    H110896   2.633   2.282  11.822 -2.8212 -0.8092  0.9686
  737TMC3    H210897   2.734   2.543  11.501 -0.8645 -2.5860 -0.6800
  737TMC3    C710898   2.755   2.297  11.592  0.7124 -0.0560 -0.1762
  737TMC3    C810899   2.557   2.743  11.572 -0.9190  0.5141 -0.5534
  737TMC3    O110900   2.719   2.186  11.628 -0.4558 -0.3068 -0.3304
  737TMC3    O210901   2.523   2.812  11.666  0.1971  0.2474  0.1578
  738MPD2     C10902   2.125   1.334  15.423  0.9726 -0.2683  0.7613
  738MPD2    C110903   2.146   1.249  15.315  0.6071  0.0974 -0.4182
  738MPD2    C210904   2.260   1.268  15.238  0.4246  0.1459 -0.2510
  738MPD2    C310905   2.350   1.373  15.266 -0.2036 -0.0556 -0.4379
  738MPD2    C410906   2.331   1.446  15.379  0.2046  0.1194 -0.4935
  738MPD2    C510907   2.215   1.430  15.449 -0.6220 -0.6214  0.3984
  738MPD2     H10908   2.271   1.194  15.160 -2.6956  1.3397 -1.7846
  738MPD2    H110909   2.397   1.527  15.409  2.8553 -2.2591 -0.0053
  738MPD2    H210910   2.034   1.330  15.482  1.0272  0.9503  0.9407
  738MPD2    H310911   2.193   1.495  15.533  0.4997  1.2503 -0.7490
  738MPD2     N10912   2.463   1.397  15.186  0.2948  0.9738 -0.0414
  738MPD2    H510913   2.532   1.458  15.228 -0.6647  0.8436  1.7127
  738MPD2    N110914   2.052   1.148  15.273 -0.9395  0.3177  1.1141
  738MPD2    H710915   2.073   1.091  15.192 -5.3898  2.7259 -1.7271
  739TMC3    C110916   2.594   1.377  14.985  0.6085 -0.4614 -0.2575
  739TMC3    C210917   2.587   1.383  14.843 -0.8065  1.1191  0.2779
  739TMC3    C310918   2.700   1.415  14.779  0.0569 -0.4064 -0.5257
  739TMC3    C410919   2.706   1.374  15.047  0.6958  0.3532 -0.8461
  739TMC3    C510920   2.827   1.386  14.979  0.4649 -0.3594 -0.5957
  739TMC3    C610921   2.822   1.423  14.850 -0.0031  0.7297 -0.0985
  739TMC3     C10922   2.482   1.333  15.062  0.3397  0.1087 -0.0286
  739TMC3     O10923   2.417   1.253  14.992 -0.2514 -0.5211  0.0095
  739TMC3     H10924   2.489   1.388  14.798 -0.0592  0.6327 -1.4346
  739TMC3    H110925   2.703   1.354  15.154 -1.1292 -0.6773 -1.0858
  739TMC3    H210926   2.916   1.446  14.800  0.8070 -0.4798  0.8687
  739TMC3    C710927   2.953   1.346  15.040 -0.0157  0.1434  0.7169
  739TMC3    C810928   2.698   1.454  14.638 -0.0755  0.3032 -0.3322
  739TMC3    O110929   2.953   1.262  15.127  0.1717 -0.2014  0.6794
  739TMC3    O210930   2.604   1.410  14.574 -0.1398 -0.2294 -0.0194
  740TMC3    C110931   3.363   2.555  14.153 -0.4043 -0.0557 -0.2309
  740TMC3    C210932   3.427   2.538  14.275  0.9184  0.0690  0.3403
  740TMC3    C310933   3.553   2.479  14.271  0.1998  0.5521 -0.4065
  740TMC3    C410934   3.425   2.535  14.035  0.2762 -0.4967  0.0874
  740TMC3    C510935   3.551   2.479  14.037  0.1189 -0.1084  0.7834
  740TMC3    C610936   3.616   2.443  14.153 -0.6831  0.6915  0.0665
  740TMC3     C10937   3.243   2.640  14.160  0.2298  0.3634 -0.3539
  740TMC3     O10938   3.212   2.691  14.052 -0.1203 -0.8219 -1.1209
  740TMC3     H10939   3.381   2.556  14.371 -2.6109 -0.0817 -1.3292
  740TMC3    H110940   3.378   2.561  13.940  1.2034 -0.8392 -0.4660
  740TMC3    H210941   3.712   2.395  14.140 -1.0564  0.1991 -0.8410
  740TMC3    C710942   3.612   2.443  13.903 -0.1082 -0.1940 -0.4939
  740TMC3    C810943   3.624   2.454  14.393 -0.4862 -0.3652 -0.0599
  740TMC3    O110944   3.698   2.358  13.915 -0.3230  0.7070  0.1623
  740TMC3    O210945   3.732   2.400  14.383 -0.3566 -0.4620  0.1526
  741TMC3    C110946   2.705   2.246  13.901 -0.3356 -0.1544 -0.0208
  741TMC3    C210947   2.599   2.215  13.982  0.1747 -0.2776 -0.3882
  741TMC3    C310948   2.606   2.097  14.055 -0.3044  0.8104  0.1060
  741TMC3    C410949   2.825   2.185  13.919  0.1214 -0.2810 -0.0678
  741TMC3    C510950   2.825   2.066  13.988  0.2075  0.2956 -0.0618
  741TMC3    C610951   2.715   2.013  14.053  0.2908  0.3405 -0.8297
  741TMC3     C10952   2.693   2.341  13.798 -0.6278  0.0401 -0.5446
  741TMC3     O10953   2.797   2.400  13.758  0.2432 -0.0256 -0.1438
  741TMC3     H10954   2.516   2.284  13.994  0.5877  0.4291 -1.5141
  741TMC3    H110955   2.909   2.225  13.863  0.1389  1.5331  1.2377
  741TMC3    H210956   2.717   1.922  14.111  0.6324  0.3329 -0.8500
  741TMC3    C710957   2.952   2.016  14.035  0.5497  0.5068  0.1441
  741TMC3    C810958   2.471   2.041  14.074  0.0457  0.6386  0.1711
  741TMC3    O110959   2.963   1.984  14.151  0.2092 -0.9710  0.1353
  741TMC3    O210960   2.383   2.087  14.005 -0.6810  0.2160 -0.3174
  742TMC3    C110961   2.204   0.270  15.593 -0.0626 -0.2212  0.4330
  742TMC3    C210962   2.147   0.250  15.472 -0.3587 -0.6700  0.0160
  742TMC3    C310963   2.229   0.210  15.369 -0.6799  0.1267  0.4625
  742TMC3    C410964   2.345   0.270  15.613  0.9171  0.1922 -0.0485
  742TMC3    C510965   2.421   0.241  15.503  0.2114 -0.1657  0.8787
  742TMC3    C610966   2.365   0.208  15.382  0.3114  0.0377  0.1024
  742TMC3     C10967   2.120   0.305  15.703  0.6046  0.9118 -0.4047
  742TMC3     O10968   2.013   0.367  15.686  0.4759 -0.2668  0.3390
  742TMC3     H10969   2.040   0.236  15.475 -0.7688  2.5104  0.3528
  742TMC3    H110970   2.395   0.293  15.706  1.0385 -1.2754  0.2511
  742TMC3    H210971   2.429   0.218  15.295  0.9673  0.8623  0.6734
  742TMC3    C710972   2.564   0.225  15.515  0.2079 -0.4841  0.1604
  742TMC3    C810973   2.170   0.142  15.254  0.3823  0.3422 -0.5230
  742TMC3    O110974   2.626   0.147  15.446  0.9139 -0.2322 -0.6447
  742TMC3    O210975   2.249   0.078  15.187 -0.2684  0.3284 -0.6510
  743MPD2     C10976   3.833   2.628   1.701 -0.5133  0.0415  0.7964
  743MPD2    C110977   3.932   2.548   1.643  0.5608  0.0303  0.1534
  743MPD2    C210978   4.055   2.542   1.707 -0.3200 -0.1565 -0.2529
  743MPD2    C310979   4.084   2.615   1.819 -0.5582 -0.6703 -0.7668
  743MPD2    C410980   3.984   2.698   1.870  0.3230 -0.3158 -0.2171
  743MPD2    C510981   3.864   2.709   1.807  0.1254  0.3243 -0.1839
  743MPD2     H10982   4.137   2.478   1.676 -0.6899 -1.8586  2.2428
  743MPD2    H110983   3.993   2.759   1.960 -1.6838 -3.4635  2.1382
  743MPD2    H210984   3.736   2.636   1.653 -0.1893 -0.1818  0.0956
  743MPD2    H310985   3.785   2.770   1.850  0.5184  0.8270 -0.1820
  743MPD2     N10986   4.218   2.607   1.851 -0.0335 -0.7246 -0.2381
  743MPD2    H510987   4.278   2.538   1.806  1.5981  0.5641 -0.0496
  743MPD2    N110988   3.909   2.480   1.525  0.0772 -0.1065 -0.5678
  743MPD2    H710989   3.823   2.489   1.471 -1.3793 -0.0876  1.7363
  744TMC3    C110990   3.970   2.343   1.333  0.1168  0.2182  0.1699
  744TMC3    C210991   3.836   2.321   1.303 -0.0624 -0.5172 -0.6499
  744TMC3    C310992   3.800   2.230   1.203 -0.6064 -0.0429  0.3655
  744TMC3    C410993   4.066   2.283   1.254  0.1384 -0.2762  0.8164
  744TMC3    C510994   4.024   2.202   1.151 -0.2393  0.4621  0.3855
  744TMC3    C610995   3.895   2.167   1.132  0.0182 -0.2684 -0.2545
  744TMC3     C10996   4.010   2.419   1.455 -1.1747 -0.1143 -0.6807
  744TMC3     O10997   4.121   2.380   1.485 -0.3680 -0.1705  0.5718
  744TMC3     H10998   3.754   2.371   1.353  0.7492  2.6878 -2.5178
  744TMC3    H110999   4.172   2.303   1.265 -0.1746  1.4072  0.6347
  744TMC3    H211000   3.864   2.102   1.050  0.4241 -0.1841 -0.4764
  744TMC3    C711001   4.131   2.124   1.091 -0.1186  1.1599 -0.8059
  744TMC3    C811002   3.661   2.210   1.173 -0.0153 -0.1107  0.0435
  744TMC3    O111003   4.246   2.154   1.120 -0.1880 -0.0790  0.0709
  744TMC3    O211004   3.575   2.296   1.191  0.4255 -0.5204 -0.8062
  745TMC3    C111005   2.969   0.148  13.361  0.3535  0.2345  0.0631
  745TMC3    C211006   2.898   0.104  13.469 -1.0868  0.2315 -0.1507
  745TMC3    C311007   2.758   0.135  13.461  0.9590  0.1059 -0.9610
  745TMC3    C411008   2.920   0.220  13.256 -0.3548  0.5767  0.1161
  745TMC3    C511009   2.784   0.229  13.248 -0.1062  0.6025  0.2517
  745TMC3    C611010   2.702   0.178  13.346  0.1084  0.0113  0.1640
  745TMC3     C11011   3.108   0.159  13.379 -0.1441 -0.8054  0.0980
  745TMC3     O11012   3.176   0.174  13.280  0.3705  0.6226 -0.3681
  745TMC3     H11013   2.943   0.043  13.547  0.5688  1.4510 -0.1588
  745TMC3    H111014   2.979   0.249  13.170 -0.2707  1.0819  0.3368
  745TMC3    H211015   2.596   0.194  13.333  0.3392  1.4816  0.0405
  745TMC3    C711016   2.723   0.332  13.167 -0.3644 -0.4530 -0.4912
  745TMC3    C811017   2.665   0.102  13.574  0.5364  0.4066 -0.6933
  745TMC3    O111018   2.609   0.330  13.121  0.2241 -0.5333 -0.4288
  745TMC3    O211019   2.550   0.064  13.551 -0.2223  0.4983 -0.5220
  746TMC3    C111020   1.147   1.761  10.866 -0.0447 -0.1710  0.2849
  746TMC3    C211021   1.160   1.731  10.732 -0.1487 -0.4231 -0.2374
  746TMC3    C311022   1.069   1.633  10.685 -0.0585 -1.0390 -0.1868
  746TMC3    C411023   1.053   1.708  10.944  0.8920 -0.3452  0.2893
  746TMC3    C511024   0.964   1.619  10.888  0.1334 -0.1380  0.1054
  746TMC3    C611025   0.965   1.583  10.764  0.0904  0.0024 -0.0936
  746TMC3     C11026   1.215   1.881  10.907  0.0597 -0.6780  0.8517
  746TMC3     O11027   1.326   1.895  10.856 -0.3574  0.3576  0.1104
  746TMC3     H11028   1.245   1.754  10.670  0.5124 -0.6087  0.6019
  746TMC3    H111029   1.057   1.725  11.051 -2.2932 -0.9132  0.4946
  746TMC3    H211030   0.899   1.506  10.726 -1.6049  0.7459  1.4005
  746TMC3    C711031   0.834   1.610  10.955 -0.5662 -0.4469  0.3529
  746TMC3    C811032   1.042   1.633  10.544  0.3941  0.2274  0.1945
  746TMC3    O111033   0.738   1.578  10.886 -0.0847 -0.7980 -0.0871
  746TMC3    O211034   0.978   1.545  10.488  0.1162 -0.2135  0.2216
  747TMC3    C111035   3.304   2.484  10.742 -0.3311 -0.1816  0.3418
  747TMC3    C211036   3.260   2.372  10.803  0.2431 -0.0984  0.2068
  747TMC3    C311037   3.263   2.371  10.935 -0.3078 -0.2109  0.5996
  747TMC3    C411038   3.364   2.581  10.808 -0.0527 -0.2586  0.6952
  747TMC3    C511039   3.373   2.578  10.943  0.1257 -0.2421  0.6847
  747TMC3    C611040   3.318   2.471  11.008  0.6413 -1.1738  0.4340
  747TMC3     C11041   3.276   2.511  10.601 -0.6946 -0.2395  0.1275
  747TMC3     O11042   3.240   2.623  10.570 -0.0690 -0.1555  0.0923
  747TMC3     H11043   3.196   2.297  10.757  1.4985 -1.1115  0.1130
  747TMC3    H111044   3.387   2.669  10.748  0.0726 -1.1018 -0.4965
  747TMC3    H211045   3.336   2.468  11.115  1.2220 -0.9968  0.3368
  747TMC3    C711046   3.430   2.692  11.019  0.4919 -0.3657  0.1291
  747TMC3    C811047   3.188   2.254  11.005  0.9182  0.5207  0.1311
  747TMC3    O111048   3.383   2.702  11.128 -0.5950 -0.5708  0.1197
  747TMC3    O211049   3.166   2.150  10.942 -0.1900  0.7578 -0.1724
  748MPD2     C11050   3.635   3.335   2.258 -0.2237 -0.4923 -0.2617
  748MPD2    C111051   3.726   3.236   2.231 -0.1602 -0.4652 -0.6536
  748MPD2    C211052   3.835   3.263   2.154  0.1306  0.4538  0.3877
  748MPD2    C311053   3.860   3.392   2.107 -0.3431  0.2693  0.3957
  748MPD2    C411054   3.774   3.492   2.136  0.6950  0.5159  0.5101
  748MPD2    C511055   3.664   3.462   2.212  0.1348 -0.3895 -0.3000
  748MPD2     H11056   3.896   3.181   2.118 -2.5678 -1.3697 -0.0033
  748MPD2    H111057   3.791   3.592   2.100 -0.7013  1.2461  1.8782
  748MPD2    H211058   3.548   3.321   2.321 -0.4330  0.6125 -0.3048
  748MPD2    H311059   3.594   3.543   2.230  0.4897  0.0973 -1.0629
  748MPD2     N11060   3.974   3.408   2.030 -0.7171 -0.2729  0.0192
  748MPD2    H511061   4.025   3.325   2.000  0.3663  1.2399 -2.2951
  748MPD2    N111062   3.703   3.116   2.292 -0.1880  0.8735  0.4122
  748MPD2    H711063   3.614   3.107   2.339 -0.5260  2.8070  0.1669
  749TMC3    C111064   4.168   3.506   1.954 -0.8121  0.0849 -0.6843
  749TMC3    C211065   4.250   3.409   1.997 -0.1046  0.4532  0.6391
  749TMC3    C311066   4.356   3.369   1.919 -0.0778 -0.6667  0.2468
  749TMC3    C411067   4.189   3.574   1.843 -0.3822  0.3305  0.4463
  749TMC3    C511068   4.303   3.541   1.775  0.4588 -0.2608 -0.2808
  749TMC3    C611069   4.389   3.445   1.806  0.3925 -0.0362 -0.1288
  749TMC3     C11070   4.038   3.530   2.010  0.4023 -0.4319  0.0203
  749TMC3     O11071   3.992   3.645   2.018  0.7050  0.4480  0.1862
  749TMC3     H11072   4.223   3.358   2.089 -0.6396 -0.0787  0.1842
  749TMC3    H111073   4.132   3.664   1.823 -0.2473 -0.3726 -3.2119
  749TMC3    H211074   4.487   3.434   1.761  0.3227 -2.0484  0.2186
  749TMC3    C711075   4.353   3.624   1.668  0.1515  0.3764  0.4732
  749TMC3    C811076   4.463   3.292   1.985 -0.4372  0.2664  0.7087
  749TMC3    O111077   4.469   3.605   1.631 -0.2388 -0.0454 -0.2381
  749TMC3    O211078   4.460   3.272   2.102 -0.1535 -0.5577 -0.5999
  750MPD2     C11079   1.082   3.905  11.055 -0.1539 -0.2190 -0.0335
  750MPD2    C111080   0.976   3.841  11.114  0.5695  0.5287  0.0635
  750MPD2    C211081   0.899   3.753  11.032 -0.4096  0.0849 -0.6627
  750MPD2    C311082   0.947   3.726  10.904 -0.3236  0.7461  0.2580
  750MPD2    C411083   1.061   3.795  10.857 -0.1012 -0.2238 -0.6541
  750MPD2    C511084   1.127   3.890  10.930  0.0262  0.2027 -0.1176
  750MPD2     H11085   0.823   3.690  11.077 -1.3304  0.7479 -1.2925
  750MPD2    H111086   1.103   3.769  10.761 -2.2535  0.2240 -1.7199
  750MPD2    H211087   1.153   3.950  11.124  0.6204 -0.3370 -0.7557
  750MPD2    H311088   1.217   3.942  10.900  0.0462 -0.7652 -1.7025
  750MPD2     N11089   0.911   3.609  10.823  0.2747  0.4633 -0.4306
  750MPD2    H511090   0.960   3.600  10.735  0.1974 -0.2212 -0.3992
  750MPD2    N111091   0.940   3.869  11.249 -0.0481 -0.0864  0.2794
  750MPD2    H711092   0.994   3.938  11.299 -0.3087 -2.0310  3.2239
  751TMC3    C111093   0.808   3.398  10.787  0.2147 -0.2391 -0.1074
  751TMC3    C211094   0.704   3.310  10.817 -0.0940  0.6774 -0.2744
  751TMC3    C311095   0.712   3.180  10.774 -0.1813 -0.7871  0.3156
  751TMC3    C411096   0.920   3.352  10.718 -0.3032  0.4597  0.4751
  751TMC3    C511097   0.926   3.214  10.693 -0.7420  0.1618 -0.9622
  751TMC3    C611098   0.829   3.127  10.728  0.4022  0.1686  0.2352
  751TMC3     C11099   0.808   3.523  10.858 -0.4872 -0.5379 -0.0065
  751TMC3     O11100   0.737   3.522  10.954 -0.0868 -0.5809 -0.6856
  751TMC3     H11101   0.615   3.353  10.861 -1.1974  0.1376 -1.9513
  751TMC3    H111102   0.996   3.420  10.682 -1.4817  0.3233 -2.2466
  751TMC3    H211103   0.833   3.021  10.706  1.4166  0.0687  0.9395
  751TMC3    C711104   1.016   3.190  10.582 -0.3488 -0.3884 -0.5336
  751TMC3    C811105   0.591   3.087  10.771 -0.0861 -0.2812  0.2134
  751TMC3    O111106   1.092   3.278  10.550 -0.3351 -0.3386  0.9831
  751TMC3    O211107   0.601   2.989  10.699 -0.2853 -0.2391  0.4041
  752TMC3    C111108   4.051   4.539  17.155  0.3971  0.7493  0.2142
  752TMC3    C211109   4.115   4.427  17.186  0.1403  0.2143 -0.1952
  752TMC3    C311110   4.155   4.410  17.313  0.3235 -0.1561  0.2384
  752TMC3    C411111   4.037   4.643  17.244  0.1489  0.2779  0.5996
  752TMC3    C511112   4.080   4.623  17.370  0.1682 -0.5643 -0.6475
  752TMC3    C611113   4.134   4.502  17.407  0.2546  0.7749  0.1282
  752TMC3     C11114   4.006   4.574  17.017  0.1761  0.4696 -0.0860
  752TMC3     O11115   3.971   4.689  16.991  0.1706 -0.0753  0.1228
  752TMC3     H11116   4.138   4.352  17.111 -2.6147 -1.9475  1.1127
  752TMC3    H111117   3.994   0.020  17.217 -1.7621  0.2096  3.4143
  752TMC3    H211118   4.162   4.481  17.509 -0.4588  1.9449  0.5739
  752TMC3    C711119   4.061   0.011  17.469 -1.1663 -0.6972 -0.2811
  752TMC3    C811120   4.229   4.290  17.348 -0.6821  0.2987  0.4043
  752TMC3    O111121   4.045   0.126  17.432 -0.3525  0.5010 -0.3288
  752TMC3    O211122   4.307   4.306  17.444  0.5139 -0.3010 -0.3781
  753TMC3    C111123   1.042   0.324  13.357 -0.0599 -0.3869 -0.0759
  753TMC3    C211124   1.103   0.331  13.480 -1.4299  0.1708 -0.9647
  753TMC3    C311125   1.133   0.215  13.545 -0.1093  0.1789 -0.0199
  753TMC3    C411126   1.003   0.207  13.303  0.8088  0.6226 -0.0058
  753TMC3    C511127   1.047   0.091  13.365  0.3331  0.0744 -0.2792
  753TMC3    C611128   1.101   0.094  13.494 -0.2339  0.1378  0.5949
  753TMC3     C11129   1.022   0.447  13.287  0.1278  0.6012 -0.1012
  753TMC3     O11130   0.933   0.446  13.204  0.4414  0.2029  0.4997
  753TMC3     H11131   1.121   0.423  13.534 -0.4681 -1.0565  0.7958
  753TMC3    H111132   0.963   0.211  13.203 -0.3153  1.0743  0.4537
  753TMC3    H211133   1.141   0.006  13.543 -2.4471 -0.8802  0.5398
  753TMC3    C711134   0.982   4.695  13.308 -0.8323 -0.1241 -0.0719
  753TMC3    C811135   1.227   0.228  13.658 -0.4219 -0.3942  0.2813
  753TMC3    O111136   0.938   4.698  13.190  0.2789 -0.4246  0.5579
  753TMC3    O211137   1.273   0.340  13.678 -0.1982 -0.0789  0.4012
  754MPD2     C11138   0.139   3.441  12.595 -0.1172 -0.2268  0.1811
  754MPD2    C111139   0.100   3.361  12.693  0.2307  1.2881  0.8524
  754MPD2    C211140   4.689   3.368  12.745  0.7527 -0.5394 -0.1431
  754MPD2    C311141   4.594   3.446  12.685  0.2421 -0.5387 -0.3882
  754MPD2    C411142   4.637   3.518  12.579  0.0260  0.1643  0.5888
  754MPD2    C511143   0.050   3.528  12.540  0.1162 -0.3091  0.4458
  754MPD2     H11144   4.671   3.306  12.832  1.6860 -0.1979  0.3011
  754MPD2    H111145   4.562   3.569  12.519 -0.1893  0.0603  0.7690
  754MPD2    H211146   0.239   3.433  12.555  0.9230 -0.4538  2.8371
  754MPD2    H311147   0.085   3.583  12.453 -0.2441 -1.4906 -0.4419
  754MPD2     N11148   4.463   3.456  12.732  0.4010  0.1383  0.6173
  754MPD2    H511149   4.404   3.502  12.663  1.0570 -1.3594 -0.9677
  754MPD2    N111150   0.185   3.274  12.759 -0.4723 -0.6939 -0.1867
  754MPD2    H711151   0.135   3.211  12.820  0.8881 -1.6694 -0.0779
  755MPD2     C11152   4.333   3.540  13.627 -0.6169 -0.1571  0.9120
  755MPD2    C111153   4.269   3.635  13.553  0.0329  1.2822 -0.1914
  755MPD2    C211154   4.213   3.601  13.433 -0.0695  0.2730  0.2418
  755MPD2    C311155   4.252   3.477  13.376  0.7218  0.2048 -0.2948
  755MPD2    C411156   4.326   3.387  13.447  0.6743  0.6815 -0.0167
  755MPD2    C511157   4.360   3.417  13.572 -0.9804 -0.4797  0.4068
  755MPD2     H11158   4.154   3.670  13.375 -0.1430  0.5782  0.6791
  755MPD2    H111159   4.347   3.292  13.399  2.0759  1.6657 -1.3528
  755MPD2    H211160   4.359   3.557  13.731  1.4231  2.2150  0.0413
  755MPD2    H311161   4.419   3.344  13.627 -0.3180 -0.6936 -0.5685
  755MPD2     N11162   4.222   3.437  13.248  1.1699 -0.0961  0.4044
  755MPD2    H511163   4.259   3.346  13.223 -1.2165 -0.6987 -0.9944
  755MPD2    N111164   4.241   3.769  13.597  0.1272  0.0028 -0.2071
  755MPD2    H711165   4.179   3.826  13.539  0.9494 -0.1130 -1.1975
  756MPD2     C11166   1.013   0.042   9.175 -1.0498  0.3176 -0.5138
  756MPD2    C111167   0.936   4.680   9.253 -0.3903 -1.3515 -0.4917
  756MPD2    C211168   0.832   4.607   9.205  0.0004 -0.3728  0.0480
  756MPD2    C311169   0.791   4.621   9.074  0.0529 -0.1414 -0.2784
  756MPD2    C411170   0.871   4.696   8.993 -0.0338 -0.0987  1.2310
  756MPD2    C511171   0.982   0.053   9.041  0.4809 -0.1528 -0.4353
  756MPD2     H11172   0.784   4.541   9.275  0.5778 -0.7601  0.0801
  756MPD2    H111173   0.856   4.718   8.888  1.6649  2.3279  1.4944
  756MPD2    H211174   1.098   0.095   9.216 -2.0369  0.7031  1.0449
  756MPD2    H311175   1.038   0.112   8.969 -0.5376  1.1234 -0.1818
  756MPD2     N11176   0.689   4.540   9.017 -0.3463  0.0289 -0.1824
  756MPD2    H511177   0.647   4.567   8.929 -2.0278  1.0277  0.9317
  756MPD2    N111178   0.966   4.679   9.389  0.3038 -0.0292  0.8014
  756MPD2    H711179   0.897   4.632   9.447  0.7498 -1.1594  0.4237
  757MPD2     C11180   0.116   3.993   9.585 -0.0658 -0.3832  0.5146
  757MPD2    C111181   0.230   3.942   9.531 -0.1709 -0.3187 -0.0296
  757MPD2    C211182   0.272   3.994   9.412  0.4371  0.3222 -0.1772
  757MPD2    C311183   0.210   4.100   9.358 -0.2104  0.2237 -0.0261
  757MPD2    C411184   0.096   4.146   9.409 -0.1297  0.2362  0.3435
  757MPD2    C511185   0.044   4.090   9.526  0.0115 -0.3408  0.2242
  757MPD2     H11186   0.352   3.949   9.354 -0.6248 -0.0720 -1.3211
  757MPD2    H111187   0.041   4.227   9.361 -0.5591 -1.7700 -2.5858
  757MPD2    H211188   0.084   3.966   9.685 -0.0816  0.6829  0.7933
  757MPD2    H311189   4.671   4.137   9.558 -0.2558  0.2721 -1.4835
  757MPD2     N11190   0.271   4.161   9.245 -0.3028 -0.1151  0.1782
  757MPD2    H511191   0.362   4.121   9.225  1.0558  2.9261  0.3249
  757MPD2    N111192   0.300   3.835   9.592 -0.1766 -0.5438  0.2750
  757MPD2    H711193   0.259   3.797   9.676 -0.7887  1.1354  0.7400
  758MPD2     C11194   4.514   3.128  15.902 -0.0833  0.4931  0.1055
  758MPD2    C111195   4.639   3.144  15.948  0.8803  0.2901 -0.7803
  758MPD2    C211196   4.658   3.234  16.046 -0.1970 -0.3863 -0.5172
  758MPD2    C311197   4.555   3.311  16.102  0.0817  0.7090  0.5421
  758MPD2    C411198   4.431   3.279  16.062 -0.1673  0.1950  1.2473
  758MPD2    C511199   4.410   3.190  15.963  0.5903  0.6645  0.1346
  758MPD2     H11200   0.037   3.245  16.092 -0.1607 -0.0457 -0.6783
  758MPD2    H111201   4.346   3.336  16.098  1.0774  2.2779  0.9133
  758MPD2    H211202   4.494   3.045  15.835 -0.1208  1.0068 -0.5150
  758MPD2    H311203   4.312   3.177  15.919  0.6332  1.3366 -0.1489
  758MPD2     N11204   4.569   3.411  16.197 -0.3340 -0.2999 -0.3094
  758MPD2    H511205   4.485   3.452  16.236 -0.8425 -2.7308  1.1426
  758MPD2    N111206   0.020   3.059  15.904  0.1446 -0.2928 -0.1949
  758MPD2    H711207   0.105   3.056  15.959  0.7989 -0.1720 -1.1887
  759MPD2     C11208   0.218   1.829   9.960 -0.5183 -0.6513 -0.0021
  759MPD2    C111209   0.215   1.910  10.073 -0.6843  0.7493  1.1266
  759MPD2    C211210   0.164   2.039  10.064 -0.5692  0.3397  0.2892
  759MPD2    C311211   0.112   2.085   9.944 -0.4833  0.2291 -0.0819
  759MPD2    C411212   0.126   2.006   9.837 -0.4740  0.8521 -0.1119
  759MPD2    C511213   0.174   1.884   9.848  0.3214  0.1345  0.4240
  759MPD2     H11214   0.140   2.103  10.148 -0.6671 -1.5283  1.6845
  759MPD2    H111215   0.095   2.036   9.738 -0.0768 -0.7645 -0.7256
  759MPD2    H211216   0.252   1.727   9.967 -0.5877 -0.8638 -2.8201
  759MPD2    H311217   0.174   1.823   9.758 -2.4825 -1.6849  1.6789
  759MPD2     N11218   0.050   2.210   9.935  0.0221  0.2949 -0.3662
  759MPD2    H511219   0.035   2.265  10.018 -2.8967  0.4038 -0.9738
  759MPD2    N111220   0.267   1.872  10.198 -0.1507  0.1006 -0.2629
  759MPD2    H711221   0.262   1.939  10.274 -1.5285  0.7976 -0.9722
  760MPD2     C11222   3.567   4.123  11.974 -0.2382 -0.2854  0.4585
  760MPD2    C111223   3.687   4.183  11.967 -0.4643 -0.0137 -0.8611
  760MPD2    C211224   3.803   4.107  11.980  0.3358 -0.4839 -0.0576
  760MPD2    C311225   3.797   3.974  11.998  0.4608 -0.2856  0.1693
  760MPD2    C411226   3.676   3.914  12.018  0.5752 -0.7746  0.0360
  760MPD2    C511227   3.563   3.991  12.004  0.0799  0.3055  0.3186
  760MPD2     H11228   3.903   4.147  11.988  0.6109 -1.3767  0.8102
  760MPD2    H111229   3.677   3.810  12.046 -0.4679 -0.5100  1.0406
  760MPD2    H211230   3.475   4.181  11.974 -0.3561 -0.4601 -0.7713
  760MPD2    H311231   3.474   3.940  12.040  0.4282 -1.2625 -1.0314
  760MPD2     N11232   3.911   3.887  11.994 -0.5005  0.1002 -0.0495
  760MPD2    H511233   3.893   3.788  11.998 -1.9840  0.3259 -1.5171
  760MPD2    N111234   3.699   4.321  11.960 -0.0507 -0.2589 -0.4207
  760MPD2    H711235   3.787   4.367  11.983 -0.5002 -1.2928  3.4834
  761MPD2     C11236   0.135   2.946  10.956  0.3405  0.3787 -0.3069
  761MPD2    C111237   0.211   2.888  10.864  0.5715 -0.0738 -0.3915
  761MPD2    C211238   0.335   2.942  10.836  0.2940  0.5340  0.0487
  761MPD2    C311239   0.382   3.059  10.898 -0.5083  0.7650 -0.1479
  761MPD2    C411240   0.305   3.116  10.992  0.0359 -0.4413  0.0741
  761MPD2    C511241   0.183   3.056  11.021 -0.2853 -0.3349  0.6023
  761MPD2     H11242   0.383   2.894  10.751 -2.3746  0.4583 -1.4464
  761MPD2    H111243   0.321   3.208  11.047 -2.9209  0.2306 -0.1505
  761MPD2    H211244   0.052   2.894  11.003 -0.6710  0.4844 -1.9739
  761MPD2    H311245   0.126   3.089  11.108 -1.1313  0.0281 -0.0897
  761MPD2     N11246   0.499   3.126  10.859 -0.6117 -0.1099  0.1468
  761MPD2    H511247   0.522   3.192  10.933 -2.0047 -0.9874  1.3694
  761MPD2    N111248   0.186   2.763  10.805 -0.2493 -0.2063  0.4188
  761MPD2    H711249   0.265   2.717  10.761  0.4358  0.9738  0.3986
  762MPD2     C11250   0.646   2.678  10.850 -0.0207  0.8426 -0.1028
  762MPD2    C111251   0.599   2.598  10.740  0.3772 -0.4652  0.5574
  762MPD2    C211252   0.676   2.577  10.624  0.0766  0.2216 -0.3435
  762MPD2    C311253   0.797   2.647  10.607 -0.0294  0.4454  0.1185
  762MPD2    C411254   0.837   2.729  10.711 -0.2387  0.1360  0.0639
  762MPD2    C511255   0.765   2.740  10.830  0.2118 -0.1557 -0.2845
  762MPD2     H11256   0.666   2.513  10.537  0.3567  1.9475 -1.6509
  762MPD2    H111257   0.933   2.779  10.712 -0.7673  1.1996 -2.8947
  762MPD2    H211258   0.592   2.698  10.942 -0.5569  0.1477 -0.2652
  762MPD2    H311259   0.801   2.811  10.903 -2.4646  1.4597 -0.5184
  762MPD2     N11260   0.870   2.629  10.482 -0.4044  0.4357  0.3790
  762MPD2    H511261   0.829   2.578  10.404 -1.6702  0.1590  1.2183
  762MPD2    N111262   0.466   2.538  10.756  0.3357  0.5634  0.3775
  762MPD2    H711263   0.409   2.551  10.839  0.7911  0.7056  0.6693
  763MPD2     C11264   1.520   3.112  15.951  0.1477  1.0930 -0.1955
  763MPD2    C111265   1.661   3.132  15.966  0.2009 -0.9272  0.3900
  763MPD2    C211266   1.715   3.181  16.081  0.0498  0.6711 -0.1935
  763MPD2    C311267   1.639   3.193  16.201 -0.3067 -0.0928 -1.1778
  763MPD2    C411268   1.501   3.171  16.185  0.2357  0.3272  0.6247
  763MPD2    C511269   1.446   3.134  16.068 -0.3373 -0.5696 -0.4003
  763MPD2     H11270   1.820   3.207  16.081  0.0012  0.8638 -2.1472
  763MPD2    H111271   1.431   3.186  16.267 -0.9988 -0.3114 -0.3165
  763MPD2    H211272   1.472   3.070  15.864  1.8232  0.3368 -0.7628
  763MPD2    H311273   1.341   3.112  16.058 -0.7800  1.7809 -0.8789
  763MPD2     N11274   1.695   3.241  16.324  0.1995 -0.1341 -0.4373
  763MPD2    H511275   1.631   3.261  16.400  0.0174 -0.8734 -0.3965
  763MPD2    N111276   1.755   3.107  15.859 -0.5847 -0.2976 -0.1546
  763MPD2    H711277   1.853   3.118  15.881  0.0438 -1.5237 -2.3381
  764MPD2     C11278   4.639   4.481   0.276  0.2190 -0.0837  0.1586
  764MPD2    C111279   4.520   4.553   0.266 -0.2167  0.6789 -0.1652
  764MPD2    C211280   4.450   4.567   0.383  0.2241 -0.5619 -0.1831
  764MPD2    C311281   4.494   4.520   0.505 -0.2043  0.5454  0.9352
  764MPD2    C411282   4.619   4.460   0.516 -0.1197 -0.8824 -0.0266
  764MPD2    C511283   4.685   4.432   0.396  0.0505 -0.7521  0.3553
  764MPD2     H11284   4.351   4.611   0.377  1.3922  2.2122  1.3138
  764MPD2    H111285   4.660   4.428   0.612  1.1195 -2.8067 -1.1823
  764MPD2    H211286   4.694   4.457   0.185 -1.5600  0.3026 -1.0249
  764MPD2    H311287   0.051   4.364   0.397 -0.7270 -1.7689 -1.6261
  764MPD2     N11288   4.409   4.536   0.623 -0.3189 -0.0954 -0.2151
  764MPD2    H511289   4.328   4.591   0.599  0.1786  1.4557  1.7308
  764MPD2    N111290   4.469   4.627   0.148  0.4810 -0.2068 -0.5591
  764MPD2    H711291   4.379   4.670   0.164  0.2132 -0.6536 -0.8853
  765MPD2     C11292   4.193   2.465  15.281  0.3356 -0.1399 -0.0069
  765MPD2    C111293   4.304   2.505  15.364  0.1616 -0.1291  0.5674
  765MPD2    C211294   4.427   2.447  15.355 -0.2806 -0.3815  0.5160
  765MPD2    C311295   4.458   2.339  15.273 -0.1357 -0.2005  0.3021
  765MPD2    C411296   4.354   2.297  15.187  0.4995 -0.9312  0.0546
  765MPD2    C511297   4.230   2.358  15.200 -0.2539 -0.1228 -0.1886
  765MPD2     H11298   4.503   2.482  15.424 -0.7361 -1.0061  1.3389
  765MPD2    H111299   4.365   2.221  15.111  1.0990 -1.3400  0.5521
  765MPD2    H211300   4.093   2.505  15.290  0.5857  0.2452  1.0589
  765MPD2    H311301   4.150   2.333  15.131  1.5637  1.5164 -2.9274
  765MPD2     N11302   4.584   2.274  15.288  0.0297  0.9971  0.0347
  765MPD2    H511303   4.646   2.309  15.360 -0.3091  2.0605 -0.2034
  765MPD2    N111304   4.271   2.621  15.438 -0.3570 -0.2389 -0.1066
  765MPD2    H711305   4.170   2.630  15.429 -0.1933  1.3229 -0.2253
  766MPD2     C11306   3.793   2.726  15.403  0.4004 -0.6461  0.0249
  766MPD2    C111307   3.878   2.823  15.444  0.1541  0.4979 -0.1458
  766MPD2    C211308   3.975   2.862  15.357 -0.5747 -0.4265  0.3522
  766MPD2    C311309   4.008   2.789  15.243 -0.7778  0.1053  0.7700
  766MPD2    C411310   3.918   2.687  15.203  0.0936 -0.1568 -0.4956
  766MPD2    C511311   3.821   2.654  15.292  0.1139  0.3451  0.3695
  766MPD2     H11312   4.046   2.942  15.377 -2.1382  1.3687 -1.2682
  766MPD2    H111313   3.940   2.614  15.126  0.0564 -0.8457  0.1458
  766MPD2    H211314   3.711   2.690  15.464  1.4682 -2.7032  0.2445
  766MPD2    H311315   3.749   2.576  15.266  1.5633 -0.7067 -0.5251
  766MPD2     N11316   4.132   2.807  15.182 -0.5905  0.3333 -0.2957
  766MPD2    H511317   4.191   2.875  15.228  1.5376 -1.6647 -0.0726
  766MPD2    N111318   3.865   2.868  15.576  0.1626  0.4933  0.5186
  766MPD2    H711319   3.771   2.853  15.611  0.3163  0.2540  0.8335
  767MPD2     C11320   3.548   3.212  14.869  0.2638 -0.5669  0.6982
  767MPD2    C111321   3.667   3.155  14.915  0.1346  0.2997  0.9157
  767MPD2    C211322   3.729   3.064  14.829  0.3257  0.0868 -0.2189
  767MPD2    C311323   3.669   3.021  14.710 -0.3976  0.4354 -0.1394
  767MPD2    C411324   3.544   3.077  14.676 -0.1314 -0.4002  0.5171
  767MPD2    C511325   3.486   3.164  14.759 -0.3538  0.7868 -0.2472
  767MPD2     H11326   3.829   3.033  14.856  0.4434  0.8422  0.2268
  767MPD2    H111327   3.492   3.060  14.582 -0.8883 -2.5850  1.3344
  767MPD2    H211328   3.500   3.292  14.924 -1.4435 -0.6580 -0.6643
  767MPD2    H311329   3.395   3.211  14.725 -1.2511 -0.2946  0.6500
  767MPD2     N11330   3.733   2.918  14.637 -0.0985  0.3155  0.3019
  767MPD2    H511331   3.811   2.871  14.681  1.8293  0.9869 -2.4280
  767MPD2    N111332   3.725   3.214  15.025  0.1006 -0.5633 -0.4833
  767MPD2    H711333   3.678   3.300  15.051 -0.2520 -1.1293  0.7323
  768MPD2     C11334   0.193   1.327  10.900  0.1308 -0.3745  0.1232
  768MPD2    C111335   0.212   1.408  11.008 -0.1954 -0.5611 -0.2616
  768MPD2    C211336   0.305   1.366  11.097 -0.3155 -0.0584 -0.3548
  768MPD2    C311337   0.392   1.259  11.067 -0.9082  0.0014 -0.1691
  768MPD2    C411338   0.367   1.180  10.959 -0.1078  0.5445 -0.5244
  768MPD2    C511339   0.269   1.213  10.872 -0.7915 -0.1099  0.7529
  768MPD2     H11340   0.323   1.429  11.184 -1.5655  1.3595 -1.1193
  768MPD2    H111341   0.427   1.094  10.932 -1.9968 -1.3941  1.4017
  768MPD2    H211342   0.123   1.352  10.821  0.3136  2.1426  0.7499
  768MPD2    H311343   0.251   1.150  10.786 -0.1998 -0.9651  1.2598
  768MPD2     N11344   0.498   1.217  11.146  0.6236 -0.0921 -0.5657
  768MPD2    H511345   0.551   1.137  11.114  0.2461 -0.7122  0.3885
  768MPD2    N111346   0.137   1.521  11.044  0.1503 -0.3083  0.3009
  768MPD2    H711347   0.143   1.571  11.132  0.2383 -0.1962  0.2315
  769MPD2     C11348   1.270   4.060  14.983  0.3630 -0.6643 -0.8852
  769MPD2    C111349   1.279   3.958  15.074 -1.4698 -0.2533  0.3557
  769MPD2    C211350   1.352   3.983  15.191 -0.0915 -0.4145 -0.2253
  769MPD2    C311351   1.417   4.100  15.217 -0.1945 -0.3817 -1.0496
  769MPD2    C411352   1.404   4.203  15.123 -0.1479 -0.7789  0.1992
  769MPD2    C511353   1.334   4.180  15.006  0.1404  0.2509  0.6400
  769MPD2     H11354   1.365   3.900  15.260  0.0569 -1.3954 -1.4421
  769MPD2    H111355   1.450   4.300  15.138 -2.5717  0.2068  1.3936
  769MPD2    H211356   1.203   4.042  14.900 -0.7742 -0.3265 -0.0355
  769MPD2    H311357   1.309   4.264  14.943  2.7441  0.9139  0.4988
  769MPD2     N11358   1.515   4.116  15.319 -0.2308  0.3123  0.2878
  769MPD2    H511359   1.510   4.033  15.378 -0.5384 -0.8841 -1.4142
  769MPD2    N111360   1.213   3.841  15.048 -0.4093 -0.1581 -0.4406
  769MPD2    H711361   1.154   3.848  14.965  0.2631  0.4633 -0.8739
  770MPD2     C11362   0.849   3.034  14.559 -0.8418  0.4765  0.2810
  770MPD2    C111363   0.752   3.069  14.647  0.1563 -0.9458 -0.5479
  770MPD2    C211364   0.784   3.178  14.726 -0.2874  0.9793  0.1700
  770MPD2    C311365   0.904   3.245  14.716 -0.5211 -0.0261  0.3288
  770MPD2    C411366   0.998   3.209  14.621 -0.6580  0.3304  0.2157
  770MPD2    C511367   0.969   3.098  14.544  1.3194 -0.0859  0.6020
  770MPD2     H11368   0.710   3.212  14.797 -1.3497  0.8683 -0.8940
  770MPD2    H111369   1.093   3.261  14.610  0.8520 -2.6288 -0.8088
  770MPD2    H211370   0.833   2.944  14.499  1.1123  0.2966  0.0111
  770MPD2    H311371   1.038   3.058  14.471  0.5324 -1.5406  0.6494
  770MPD2     N11372   0.926   3.361  14.795 -0.0888  0.1825 -0.5246
  770MPD2    H511373   0.852   3.376  14.864  1.4341 -1.4313  1.4834
  770MPD2    N111374   0.637   2.996  14.653  0.6338  0.3833  0.4010
  770MPD2    H711375   0.638   2.911  14.597 -0.2969 -0.8490  2.2135
  771MPD2     C11376   2.115   2.205  13.857 -1.0570 -1.0803 -0.1245
  771MPD2    C111377   2.056   2.322  13.822 -0.8519  0.2847 -0.1853
  771MPD2    C211378   1.943   2.318  13.735 -0.3817  0.6583  0.6243
  771MPD2    C311379   1.907   2.199  13.675 -0.7984 -0.3062  0.6857
  771MPD2    C411380   1.966   2.082  13.717 -0.4198  0.3148 -0.6069
  771MPD2    C511381   2.072   2.087  13.802  0.1201 -0.0616 -0.4484
  771MPD2     H11382   1.890   2.410  13.713 -0.9841 -0.3655 -2.2059
  771MPD2    H111383   1.929   1.986  13.684  0.5968 -0.0404 -0.7133
  771MPD2    H211384   2.203   2.193  13.920  0.8065  0.3720 -2.4437
  771MPD2    H311385   2.125   2.001  13.841  1.0465 -0.6895 -3.0535
  771MPD2     N11386   1.804   2.200  13.581 -1.2541  0.4005  0.5264
  771MPD2    H511387   1.753   2.287  13.568 -0.0583  1.2935  1.9045
  771MPD2    N111388   2.115   2.449  13.860  0.4761  0.0330  0.1317
  771MPD2    H711389   2.063   2.531  13.830  1.1821 -0.2473 -1.8611
  772MPD2     C11390   1.851   3.121  13.869 -0.4570  0.1121 -0.4379
  772MPD2    C111391   1.831   2.984  13.865 -0.0771  1.1996 -0.7095
  772MPD2    C211392   1.705   2.937  13.838  0.2519  0.5301  0.0945
  772MPD2    C311393   1.605   3.029  13.797 -0.6146  0.4278  0.3481
  772MPD2    C411394   1.633   3.161  13.785  0.1885  0.3076  0.1035
  772MPD2    C511395   1.752   3.209  13.830  0.2659  0.1988  0.0785
  772MPD2     H11396   1.693   2.830  13.831 -3.0084  0.7108  3.1703
  772MPD2    H111397   1.573   3.243  13.747  0.5934  0.1461 -0.8962
  772MPD2    H211398   1.944   3.170  13.897 -0.0361 -0.9018 -0.0640
  772MPD2    H311399   1.773   3.315  13.832  1.7913 -0.1311  1.0518
  772MPD2     N11400   1.472   2.989  13.766 -0.3245  0.4258  0.5761
  772MPD2    H511401   1.410   3.070  13.764 -0.7637  0.0963  0.8067
  772MPD2    N111402   1.936   2.892  13.888 -0.1949 -0.4386  0.0427
  772MPD2    H711403   1.908   2.795  13.884 -3.6177  0.5452  0.1910
  773MPD2     C11404   0.867   3.507   0.124  0.1622  0.0230 -0.2336
  773MPD2    C111405   0.762   3.419   0.106  0.2110  0.3256  0.0970
  773MPD2    C211406   0.793   3.281   0.109  0.5356 -0.1749 -0.5378
  773MPD2    C311407   0.920   3.242   0.147  0.4037  0.3373  0.1595
  773MPD2    C411408   1.017   3.339   0.165  0.3887  0.4483 -0.0925
  773MPD2    C511409   0.988   3.470   0.158 -0.0826 -0.3942 -0.7795
  773MPD2     H11410   0.718   3.207   0.084 -0.3508  0.9114 -1.0797
  773MPD2    H111411   1.118   3.302   0.185  0.9178  1.7191 -0.4225
  773MPD2    H211412   0.854   3.614   0.117 -1.6129 -0.1441  0.2985
  773MPD2    H311413   1.069   3.536   0.187 -0.3579 -0.5789  0.3948
  773MPD2     N11414   0.944   3.103   0.165  0.1450 -0.2324  0.0408
  773MPD2    H511415   0.865   3.042   0.146 -0.9176  0.9065  0.9076
  773MPD2    N111416   0.633   3.457   0.058 -0.8700  0.3831 -0.4107
  773MPD2    H711417   0.583   3.384   0.010 -0.9010  0.8166 -1.0309
  774MPD2     C11418   4.691   2.548  13.284  0.8039  0.1058 -0.4356
  774MPD2    C111419   0.036   2.645  13.363  0.2632 -0.4135  0.3559
  774MPD2    C211420   0.106   2.751  13.305 -0.1105  0.1094  0.2754
  774MPD2    C311421   0.142   2.749  13.174  0.4245  0.0532 -0.4711
  774MPD2    C411422   0.080   2.658  13.090  0.0984 -0.1616 -0.0327
  774MPD2    C511423   4.718   2.558  13.152 -0.3346  0.0522  0.1220
  774MPD2     H11424   0.151   2.831  13.363 -1.2307  0.2158  1.0050
  774MPD2    H111425   0.095   2.635  12.985  1.0671 -2.0805  0.5191
  774MPD2    H211426   4.629   2.469  13.326 -0.9279  0.1810 -2.8560
  774MPD2    H311427   4.683   2.478  13.087  1.5759 -0.0766 -0.7493
  774MPD2     N11428   0.219   2.857  13.117 -0.1513  0.3325 -0.1985
  774MPD2    H511429   0.255   2.917  13.191  1.5687  0.4862 -1.1659
  774MPD2    N111430   0.036   2.639  13.505  0.0412 -0.1562  0.1409
  774MPD2    H711431   0.109   2.696  13.546  0.6321  0.3346 -1.6005
  775MPD2     C11432   1.752   4.083  16.118  0.1865 -0.4693 -0.0161
  775MPD2    C111433   1.675   4.197  16.120 -0.5691 -0.3008  0.6335
  775MPD2    C211434   1.736   4.324  16.112  0.4327  0.3281  0.3736
  775MPD2    C311435   1.875   4.329  16.097 -0.0434 -0.0255  0.0884
  775MPD2    C411436   1.947   4.215  16.098 -0.0837  0.0281  0.6813
  775MPD2    C511437   1.893   4.090  16.114  0.1293 -0.0608  0.1233
  775MPD2     H11438   1.687   4.419  16.127 -1.0967 -0.1019 -1.9559
  775MPD2    H111439   2.055   4.213  16.089 -0.1369  1.9913 -0.3998
  775MPD2    H211440   1.707   3.984  16.111  2.5060 -1.5303  0.3365
  775MPD2    H311441   1.951   3.999  16.108 -1.7085 -1.3048  1.1585
  775MPD2     N11442   1.945   4.456  16.077  0.4137 -0.3556 -0.1117
  775MPD2    H511443   2.043   4.453  16.050  0.5845  4.1378  0.1316
  775MPD2    N111444   1.531   4.182  16.131 -0.0490  0.2732 -0.4903
  775MPD2    H711445   1.502   4.085  16.142  1.1983  0.2509  2.5350
  776MPD2     C11446   0.479   4.271  11.792  0.5576 -0.4658 -0.5178
  776MPD2    C111447   0.587   4.268  11.710 -0.1168  1.0759  0.3981
  776MPD2    C211448   0.642   4.385  11.663  0.1850  0.1417 -0.4074
  776MPD2    C311449   0.579   4.506  11.686 -0.0089  1.2506  1.0979
  776MPD2    C411450   0.471   4.502  11.773  1.1351 -0.1175 -0.4650
  776MPD2    C511451   0.429   4.388  11.837  0.6153 -0.2053  0.0642
  776MPD2     H11452   0.724   4.388  11.592 -0.3364  0.2723 -1.0060
  776MPD2    H111453   0.436   4.600  11.803 -0.5704 -0.7346 -0.4408
  776MPD2    H211454   0.441   4.186  11.848 -0.2894 -0.4330 -1.0475
  776MPD2    H311455   0.371   4.401  11.927  2.2210  0.8905  0.9366
  776MPD2     N11456   0.618   4.629  11.640  0.1274 -0.2658  0.0047
  776MPD2    H511457   0.538   4.692  11.637 -0.0932 -0.5428  0.1087
  776MPD2    N111458   0.644   4.138  11.692 -0.6167 -0.1836  0.0264
  776MPD2    H711459   0.590   4.056  11.721  2.2398 -1.6874  1.1046
  777MPD2     C11460   0.491   2.606   1.027  0.2386 -0.0348 -0.3756
  777MPD2    C111461   0.386   2.568   1.116 -0.3278  0.2673 -0.2973
  777MPD2    C211462   0.310   2.456   1.075  0.0596  0.3343  0.1696
  777MPD2    C311463   0.347   2.373   0.962  0.9039 -0.0527  0.2540
  777MPD2    C411464   0.463   2.406   0.894  0.2250 -0.7583 -0.0192
  777MPD2    C511465   0.527   2.523   0.924 -0.7733 -0.9519 -0.2585
  777MPD2     H11466   0.231   2.418   1.139 -0.3465 -0.0565 -0.5636
  777MPD2    H111467   0.502   2.352   0.808  0.8284  0.4305 -0.4824
  777MPD2    H211468   0.543   2.700   1.040  1.6504 -0.6342 -1.8622
  777MPD2    H311469   0.611   2.549   0.861 -3.3999  1.3251 -2.7811
  777MPD2     N11470   0.264   2.260   0.926  0.2179 -0.8086 -0.0794
  777MPD2    H511471   0.187   2.246   0.991  0.6795 -1.3251  0.3658
  777MPD2    N111472   0.367   2.645   1.227  0.1360 -0.3290  0.4129
  777MPD2    H711473   0.431   2.718   1.256  0.0393  1.0789 -2.8673
  778MPD2     C11474   1.745   1.913  14.961  0.4592 -0.0135  0.1891
  778MPD2    C111475   1.759   1.808  14.878 -0.2137  0.2133  0.7351
  778MPD2    C211476   1.866   1.805  14.785  0.8132 -0.0033 -0.8476
  778MPD2    C311477   1.947   1.914  14.771 -0.0167  0.1155  0.1401
  778MPD2    C411478   1.928   2.022  14.856  0.0996 -0.0757 -0.0147
  778MPD2    C511479   1.819   2.023  14.943 -0.2461 -0.0202 -0.2323
  778MPD2     H11480   1.878   1.722  14.717  0.7768  0.8159 -1.8576
  778MPD2    H111481   1.981   2.116  14.848 -1.2565  0.7446  0.5573
  778MPD2    H211482   1.663   1.936  15.028  2.8040  1.3483  2.5710
  778MPD2    H311483   1.810   2.119  14.994 -0.0283 -0.3577  0.4371
  778MPD2     N11484   2.062   1.914  14.683  1.1078 -0.4087 -0.1835
  778MPD2    H511485   2.084   1.828  14.634 -0.3114 -1.0553  0.2897
  778MPD2    N111486   1.680   1.697  14.882  0.4649 -0.1635 -0.5486
  778MPD2    H711487   1.690   1.625  14.812  0.0850 -1.4954  0.7734
  779MPD2     C11488   1.504   0.961  13.716  0.1887 -0.5406 -0.6473
  779MPD2    C111489   1.565   1.003  13.832  0.8422  0.4006 -0.9393
  779MPD2    C211490   1.620   1.126  13.840  0.2208 -0.0796  0.3913
  779MPD2    C311491   1.614   1.206  13.734  0.7385  0.2759  0.4924
  779MPD2    C411492   1.546   1.163  13.622  0.3309 -0.4692  0.5502
  779MPD2    C511493   1.489   1.041  13.612 -0.2334  0.2536 -0.0102
  779MPD2     H11494   1.657   1.166  13.933  0.1836 -0.8680  0.7497
  779MPD2    H111495   1.533   1.226  13.535 -1.4610 -0.9598  0.4537
  779MPD2    H211496   1.459   0.862  13.712 -0.6433 -0.2615  2.5498
  779MPD2    H311497   1.447   1.012  13.517  1.9478  1.2393 -1.2760
  779MPD2     N11498   1.675   1.330  13.756 -1.0766 -0.3894  0.0022
  779MPD2    H511499   1.734   1.336  13.839  0.7313  0.8307 -1.3550
  779MPD2    N111500   1.555   0.927  13.958 -0.1180  0.2284  0.5351
  779MPD2    H711501   1.607   0.965  14.036 -1.4663 -0.8603  1.9558
  780MPD2     C11502   4.702   0.865   0.528  0.4817  0.5418 -0.5094
  780MPD2    C111503   0.043   0.771   0.449  0.0036  0.0512  0.2811
  780MPD2    C211504   0.152   0.807   0.373  1.0261  0.0719  0.4069
  780MPD2    C311505   0.201   0.943   0.379  0.2721 -0.2934  0.2422
  780MPD2    C411506   0.148   1.033   0.477  0.0122  0.2197  0.2260
  780MPD2    C511507   0.034   0.986   0.539  0.3513  0.5259  0.0914
  780MPD2     H11508   0.189   0.726   0.310 -1.7572  1.8180 -3.4553
  780MPD2    H111509   0.173   1.138   0.487  1.6269 -0.3446  2.1770
  780MPD2    H211510   4.616   0.851   0.592  0.1816  3.3116 -0.3231
  780MPD2    H311511   4.713   1.065   0.602 -0.0591  0.4256 -0.0443
  780MPD2     N11512   0.303   0.975   0.293 -0.2202  0.5379 -0.2332
  780MPD2    H511513   0.334   0.891   0.246  1.3186  2.4112 -2.5796
  780MPD2    N111514   4.714   0.636   0.466  0.0059 -0.8915 -0.4265
  780MPD2    H711515   4.624   0.621   0.510  0.5274 -2.3332  0.1203
  781MPD2     C11516   2.932   3.212  11.993 -0.5825 -0.1281  0.6243
  781MPD2    C111517   3.010   3.104  11.983 -0.6402  0.8793  0.3219
  781MPD2    C211518   3.120   3.100  11.892  0.1818  0.3428 -0.1476
  781MPD2    C311519   3.141   3.206  11.801  0.5871  0.8952  0.4914
  781MPD2    C411520   3.069   3.323  11.823  0.5114 -0.0525  0.4630
  781MPD2    C511521   2.968   3.324  11.918  0.5766 -0.6108  0.6464
  781MPD2     H11522   3.183   3.012  11.895 -1.4196 -0.8525 -1.5318
  781MPD2    H111523   3.104   3.415  11.778  0.1881  0.0055  0.3232
  781MPD2    H211524   2.837   3.216  12.046 -1.4725  0.4972 -0.9967
  781MPD2    H311525   2.905   3.411  11.913 -0.1229 -1.1216  0.6056
  781MPD2     N11526   3.279   3.218  11.765 -0.1955  0.0193  0.4872
  781MPD2    H511527   3.319   3.309  11.746  1.3947 -0.7104  0.3678
  781MPD2    N111528   2.994   2.990  12.067 -0.1711  0.3172  0.2070
  781MPD2    H711529   3.070   2.924  12.063 -0.6568 -0.1275 -1.7816
  782MPD2     C11530   1.590   3.777   9.858  0.5679 -0.0855  0.5539
  782MPD2    C111531   1.631   3.696   9.962  0.1299 -0.0887 -0.3642
  782MPD2    C211532   1.694   3.750  10.068  0.0037 -0.2102 -0.4039
  782MPD2    C311533   1.720   3.885  10.073  0.2268  0.9185  0.3519
  782MPD2    C411534   1.679   3.970   9.970 -0.2115 -0.1887 -0.2198
  782MPD2    C511535   1.605   3.912   9.870  0.8625 -0.5319  0.4461
  782MPD2     H11536   1.720   3.688  10.153 -0.5491 -0.0100 -0.0935
  782MPD2    H111537   1.702   4.076   9.967 -0.0093 -0.1736  1.8355
  782MPD2    H211538   1.545   3.735   9.769 -1.2985  0.6771  1.1355
  782MPD2    H311539   1.560   3.983   9.800  1.6502 -2.9939 -2.5361
  782MPD2     N11540   1.770   3.939  10.196 -0.0999  0.5923  0.3462
  782MPD2    H511541   1.777   3.876  10.276  0.0561 -0.3811 -0.4330
  782MPD2    N111542   1.610   3.558   9.969 -0.7109 -0.1387 -0.1907
  782MPD2    H711543   1.636   3.503  10.050  1.2877  1.0536 -0.0256
  783MPD2     C11544   0.960   2.946  10.323  0.8770  0.0718 -0.1180
  783MPD2    C111545   1.030   3.029  10.392 -0.4408 -0.2191 -0.5302
  783MPD2    C211546   1.152   3.071  10.354  0.4403  0.0025  0.4692
  783MPD2    C311547   1.191   3.041  10.221 -0.6699  1.0366  0.6421
  783MPD2    C411548   1.112   2.957  10.141 -0.3512  0.4495 -0.2076
  783MPD2    C511549   1.000   2.911  10.201 -0.3308 -0.2728  0.5392
  783MPD2     H11550   1.220   3.134  10.410  0.8658  0.6425 -0.7669
  783MPD2    H111551   1.143   2.930  10.041 -0.6525 -0.4496 -0.0526
  783MPD2    H211552   0.857   2.922  10.348  1.0140 -2.0355 -1.5438
  783MPD2    H311553   0.929   2.848  10.148 -0.0543 -0.0782 -0.0607
  783MPD2     N11554   1.307   3.103  10.170 -0.1451 -0.2022 -0.0395
  783MPD2    H511555   1.365   3.153  10.236  0.1088  0.2784 -0.6299
  783MPD2    N111556   0.978   3.077  10.517  0.6235 -0.6799  0.0471
  783MPD2    H711557   0.887   3.042  10.545 -0.2101  0.5939 -1.0493
  784MPD2     C11558   3.659   3.933   1.122  0.2807  0.1384 -0.2638
  784MPD2    C111559   3.614   4.058   1.165 -0.3042  0.2766  0.0053
  784MPD2    C211560   3.528   4.128   1.083  0.1505  0.3078 -0.0882
  784MPD2    C311561   3.475   4.073   0.966  0.2267  0.3838 -0.5300
  784MPD2    C411562   3.510   3.948   0.925 -0.0977 -0.0575 -0.0105
  784MPD2    C511563   3.601   3.883   1.006 -0.3657 -0.0005  0.2947
  784MPD2     H11564   3.510   4.234   1.101 -1.5069  0.0279 -0.0783
  784MPD2    H111565   3.473   3.898   0.836 -1.3224  2.5631 -0.9612
  784MPD2    H211566   3.724   3.867   1.178 -0.7706  1.0997  2.0837
  784MPD2    H311567   3.632   3.786   0.968  0.3154  0.6092 -0.6999
  784MPD2     N11568   3.367   4.142   0.905  0.4393  0.0451 -0.5482
  784MPD2    H511569   3.323   4.215   0.961  2.1350 -0.5461  1.5340
  784MPD2    N111570   3.659   4.119   1.287  0.6794  0.1617 -0.3242
  784MPD2    H711571   3.625   4.212   1.308  2.7101  0.0188  3.6495
  785MPD2     C11572   4.153   3.914  11.462  0.7677 -0.2564  0.4169
  785MPD2    C111573   4.055   3.982  11.387  0.4495  0.4155  0.4715
  785MPD2    C211574   3.925   3.937  11.376  0.3634 -0.2942 -0.1953
  785MPD2    C311575   3.899   3.808  11.413  0.7767 -0.1223  0.4102
  785MPD2    C411576   3.995   3.739  11.486 -0.6194 -0.3436  0.0882
  785MPD2    C511577   4.119   3.794  11.513  0.3159 -0.9269  0.1304
  785MPD2     H11578   3.854   3.989  11.311 -0.9123 -1.2081  0.4595
  785MPD2    H111579   3.972   3.648  11.540 -3.1908  1.1905  1.5693
  785MPD2    H211580   4.255   3.942  11.485 -0.0169  1.2592  2.1123
  785MPD2    H311581   4.195   3.735  11.564 -0.0133 -0.6403  0.9557
  785MPD2     N11582   3.768   3.765  11.392  0.0109 -0.3944 -0.4092
  785MPD2    H511583   3.711   3.831  11.341 -0.9262  0.4526  1.7547
  785MPD2    N111584   4.076   4.109  11.340 -0.0571  0.2314  0.2578
  785MPD2    H711585   3.989   4.154  11.312  0.6980  0.0246 -2.4613
  786MPD2     C11586   1.796   0.072  14.900  0.3152  0.3039  0.3127
  786MPD2    C111587   1.934   0.057  14.890  0.2504 -0.6154  0.4954
  786MPD2    C211588   2.018   0.088  15.000  0.0587  0.0751  0.8586
  786MPD2    C311589   1.965   0.148  15.112 -0.2158  0.6412  0.2649
  786MPD2    C411590   1.825   0.162  15.117 -1.1659 -1.1836 -0.1039
  786MPD2    C511591   1.746   0.124  15.015  0.3881 -0.1547 -1.0431
  786MPD2     H11592   2.125   0.075  14.984 -0.2010 -2.6335  1.3636
  786MPD2    H111593   1.779   0.188  15.212 -2.5687  0.1665 -1.1599
  786MPD2    H211594   1.728   0.052  14.819  1.8544  2.7454 -1.5554
  786MPD2    H311595   1.640   0.144  15.016  0.5551  0.7573  1.5288
  786MPD2     N11596   2.041   0.181  15.228 -0.4483  0.5753  0.1251
  786MPD2    H511597   1.989   0.235  15.296 -0.9766 -0.7756  0.7822
  786MPD2    N111598   1.992   0.029  14.768 -0.3899  0.1685  0.2485
  786MPD2    H711599   2.093   0.037  14.769 -0.3352 -0.5314  0.4563
  787MPD2     C11600   2.544   4.631  14.812 -0.4226  0.1244 -0.4571
  787MPD2    C111601   2.506   4.539  14.714 -0.1988  0.1306  0.0740
  787MPD2    C211602   2.574   4.420  14.710 -0.4686  0.8944  0.2459
  787MPD2    C311603   2.663   4.382  14.812  0.5810  0.7108 -0.1855
  787MPD2    C411604   2.685   4.473  14.912  0.4468 -0.2549  0.9351
  787MPD2    C511605   2.633   4.597  14.907 -0.0030  0.4595  0.6733
  787MPD2     H11606   2.560   4.358  14.623 -0.6440  1.6893 -0.2911
  787MPD2    H111607   2.750   4.458  14.998  0.2191  1.8798  1.4771
  787MPD2    H211608   2.498   0.010  14.812 -1.4359 -0.3444 -0.6218
  787MPD2    H311609   2.649   4.667  14.989 -1.3067  0.7670  0.6597
  787MPD2     N11610   2.724   4.256  14.815  0.5507  0.3808 -0.3036
  787MPD2    H511611   2.729   4.207  14.726  2.8625 -0.2962  0.1947
  787MPD2    N111612   2.404   4.574  14.624 -0.6873  0.2517  0.6440
  787MPD2    H711613   2.356   4.660  14.649 -1.4200  0.2408 -0.7117
  788MPD2     C11614   3.884   2.630   0.859 -0.0413 -0.1034  0.1860
  788MPD2    C111615   3.774   2.615   0.772 -0.0079  0.2595 -0.4701
  788MPD2    C211616   3.754   2.714   0.682 -0.1062 -0.8111 -0.1316
  788MPD2    C311617   3.837   2.825   0.677  0.3949  0.6061  0.4474
  788MPD2    C411618   3.950   2.825   0.757 -0.6212  0.3414  0.2618
  788MPD2    C511619   3.973   2.729   0.852 -0.1738  0.3560  0.3636
  788MPD2     H11620   3.669   2.702   0.616  0.2408  1.1008 -0.9130
  788MPD2    H111621   4.025   2.901   0.737 -1.6478  1.7033  1.5897
  788MPD2    H211622   3.914   2.553   0.930 -2.1268 -2.4308 -1.4584
  788MPD2    H311623   4.063   2.734   0.911 -1.0055  0.8032  1.5837
  788MPD2     N11624   3.812   2.939   0.588 -0.3174 -0.7732  0.0841
  788MPD2    H511625   3.878   3.015   0.596  0.6885 -1.5835 -0.4384
  788MPD2    N111626   3.702   2.495   0.766  0.0541  0.2516  0.5716
  788MPD2    H711627   3.632   2.484   0.693  0.7017 -0.4408  0.0476
  789MPD2     C11628   4.409   2.650  16.841  0.5666 -0.7554  0.5751
  789MPD2    C111629   4.401   2.752  16.754  0.5789  0.7779 -0.2214
  789MPD2    C211630   4.304   2.851  16.777 -0.5424  0.0910  0.0228
  789MPD2    C311631   4.214   2.836  16.876 -0.0233 -0.5143  0.3845
  789MPD2    C411632   4.228   2.736  16.962 -0.3032  0.7133 -0.3252
  789MPD2    C511633   4.318   2.642  16.943  0.3450  0.5398  0.3911
  789MPD2     H11634   4.290   2.925  16.699 -0.4221  0.8221  0.6992
  789MPD2    H111635   4.148   2.728  17.035 -0.2342  2.3316 -0.0553
  789MPD2    H211636   4.476   2.565  16.833  0.4680 -0.6214 -1.7562
  789MPD2    H311637   4.331   2.558  17.009 -1.5109  0.8065  1.0688
  789MPD2     N11638   4.105   2.924  16.895  0.5275 -0.8556  0.5942
  789MPD2    H511639   4.054   2.917  16.983 -0.4089 -1.8443 -0.0369
  789MPD2    N111640   4.470   2.761  16.628 -0.2444  0.5709  0.2040
  789MPD2    H711641   4.454   2.843  16.571  1.9248  0.9966  0.1898
  790MPD2     C11642   0.772   4.607  13.826  1.1812 -0.7298  0.2692
  790MPD2    C111643   0.706   4.484  13.818  0.1253 -0.2156 -0.2611
  790MPD2    C211644   0.642   4.454  13.700  0.5047 -0.5550  0.0999
  790MPD2    C311645   0.641   4.548  13.594 -0.4597  0.2187 -0.0853
  790MPD2    C411646   0.705   4.668  13.605 -0.5830 -0.6177  0.1354
  790MPD2    C511647   0.780   4.693  13.717  0.1733  0.0689  0.2872
  790MPD2     H11648   0.588   4.361  13.685 -1.7649  0.7003  0.6232
  790MPD2    H111649   0.699   0.018  13.521  1.0238  1.5410  1.8060
  790MPD2    H211650   0.831   4.617  13.917 -1.3487  0.0236  1.8314
  790MPD2    H311651   0.849   0.058  13.713  0.8301 -0.3580  2.4528
  790MPD2     N11652   0.568   4.517  13.477 -0.1401 -0.3057 -0.2464
  790MPD2    H511653   0.539   4.421  13.461  3.6335 -1.0872 -2.3791
  790MPD2    N111654   0.703   4.395  13.929  0.3205  0.0986  0.4083
  790MPD2    H711655   0.734   4.429  14.020 -0.9522 -0.7253  1.1436
  791MPD2     C11656   4.633   4.486  13.276 -0.2337 -0.2311 -0.2333
  791MPD2    C111657   4.692   4.444  13.161  0.1103  0.1488  0.2196
  791MPD2    C211658   4.630   4.377  13.065 -0.2539  0.0197 -0.0267
  791MPD2    C311659   4.496   4.355  13.084 -0.1086  0.8727 -0.0216
  791MPD2    C411660   4.437   4.395  13.192  0.3258  0.1701 -0.0968
  791MPD2    C511661   4.500   4.469  13.291 -0.0870 -0.3878  0.3230
  791MPD2     H11662   4.676   4.353  12.970 -1.0808  2.1112 -0.9360
  791MPD2    H111663   4.332   4.382  13.213  0.1468 -0.3889 -1.3186
  791MPD2    H211664   4.692   4.532  13.354 -1.3713  0.3357  0.2951
  791MPD2    H311665   4.449   4.514  13.375 -0.3017  0.4410 -0.2563
  791MPD2     N11666   4.435   4.289  12.971  0.0867  0.3269 -0.1815
  791MPD2    H511667   4.500   4.265  12.897  2.0234  0.7245  1.4198
  791MPD2    N111668   0.114   4.475  13.158 -0.1634  0.1599  0.0843
  791MPD2    H711669   0.150   4.527  13.238  0.6502  0.9620 -0.8035
  792MPD2     C11670   1.080   4.640  11.350 -0.2296  0.8261  0.2690
  792MPD2    C111671   1.010   4.715  11.251  0.3507 -0.9863 -0.5105
  792MPD2    C211672   0.939   4.646  11.159 -0.3537  0.7699  0.4256
  792MPD2    C311673   0.941   4.504  11.161 -0.2102 -0.4118  0.0542
  792MPD2    C411674   0.999   4.431  11.260 -0.7688  0.3695  0.2420
  792MPD2    C511675   1.064   4.502  11.361  0.1299 -0.1548  0.2612
  792MPD2     H11676   0.884   4.693  11.079  0.0103 -1.1119 -0.9289
  792MPD2    H111677   1.001   4.324  11.279  1.9911  0.1595 -1.1951
  792MPD2    H211678   1.134   4.678  11.435  0.3049  4.0126 -1.4842
  792MPD2    H311679   1.099   4.445  11.446 -0.6969 -1.1211 -0.0508
  792MPD2     N11680   0.880   4.427  11.057 -0.3909  0.5043  0.0332
  792MPD2    H511681   0.898   4.328  11.067 -2.5241  0.1356  0.4387
  792MPD2    N111682   1.044   0.130  11.231 -0.1540 -0.4607 -0.4721
  792MPD2    H711683   1.124   0.158  11.287 -0.5335 -0.9227  0.3114
  793MPD2     C11684   0.594   4.542  10.011 -0.0475  0.2522  0.4229
  793MPD2    C111685   0.732   4.542  10.042  0.1083  0.1578 -0.1315
  793MPD2    C211686   0.770   4.523  10.172  0.0947  0.0748  0.5239
  793MPD2    C311687   0.679   4.495  10.268  0.0776  0.8333 -0.6463
  793MPD2    C411688   0.545   4.478  10.234  0.5439  0.8025  0.2022
  793MPD2    C511689   0.507   4.506  10.107  0.0685 -0.1573 -0.3743
  793MPD2     H11690   0.873   4.516  10.205  0.4400  0.6420 -0.4142
  793MPD2    H111691   0.470   4.452  10.308 -1.4290  1.1434 -1.6684
  793MPD2    H211692   0.558   4.560   9.910  1.1596 -0.2901 -0.1090
  793MPD2    H311693   0.404   4.498  10.074  0.2108  1.5368 -1.2413
  793MPD2     N11694   0.729   4.454  10.394  0.3790  0.0606 -0.4851
  793MPD2    H511695   0.831   4.455  10.399  0.4302 -0.0683 -1.5869
  793MPD2    N111696   0.833   4.548   9.944 -0.4890  0.4746  0.1495
  793MPD2    H711697   0.930   4.542   9.971 -0.0840  0.6130 -1.3008
  794MPD2     C11698   0.078   4.082  17.417  0.2649 -0.2864  0.5713
  794MPD2    C111699   0.087   3.951  17.365 -0.5074  0.6076 -0.3413
  794MPD2    C211700   0.018   3.928  17.248  0.1484  0.4752 -0.5925
  794MPD2    C311701   4.656   4.025  17.194  0.4448  0.4463  0.2047
  794MPD2    C411702   4.636   4.146  17.256 -0.4606 -0.2999 -0.0636
  794MPD2    C511703   4.712   4.176  17.359 -0.1278 -0.0661  0.4441
  794MPD2     H11704   0.033   3.831  17.202  0.6033 -1.2032  3.1671
  794MPD2    H111705   4.549   4.207  17.235  1.3090  2.3183  0.2708
  794MPD2    H211706   0.135   4.106  17.506  1.6090 -0.5947 -0.2085
  794MPD2    H311707   4.692   4.270  17.409  1.4185 -0.0775  1.0950
  794MPD2     N11708   4.571   4.004  17.080  0.3120  0.2059  0.2245
  794MPD2    H511709   4.511   4.084  17.062 -1.1503 -0.9916 -0.1761
  794MPD2    N111710   0.175   3.853  17.409  0.8431 -0.5993  0.0278
  794MPD2    H711711   0.172   3.760  17.366 -2.3074 -0.2197 -0.6233
  795MPD2     C11712   2.906   1.270  14.099 -0.5267  0.5407  0.1195
  795MPD2    C111713   2.883   1.164  14.012  0.2058  0.1814 -0.4067
  795MPD2    C211714   2.931   1.031  14.047 -0.6402 -0.1506 -0.1858
  795MPD2    C311715   2.996   1.008  14.161 -0.6323 -0.3394  0.8729
  795MPD2    C411716   3.015   1.118  14.247 -0.4903 -0.4473 -0.0702
  795MPD2    C511717   2.965   1.243  14.218 -0.4918  0.6395 -0.4100
  795MPD2     H11718   2.929   0.948  13.977  0.8110 -0.1148 -0.2748
  795MPD2    H111719   3.064   1.115  14.344  0.7978  0.1301 -0.7046
  795MPD2    H211720   2.894   1.377  14.083 -1.9742  0.3452 -0.1197
  795MPD2    H311721   2.971   1.327  14.287 -0.3245  0.3650 -0.0906
  795MPD2     N11722   3.060   0.891  14.198 -0.3368 -0.1479  0.0763
  795MPD2    H511723   3.106   0.884  14.288 -0.7812  1.2019  0.4145
  795MPD2    N111724   2.806   1.192  13.894  0.4458  0.5675 -0.0823
  795MPD2    H711725   2.783   1.120  13.826  0.9716  1.5074 -1.2725
  796MPD2     C11726   2.341   2.767  15.920 -0.0493  0.5346 -0.3577
  796MPD2    C111727   2.451   2.822  15.985 -0.2625 -0.5762  0.6474
  796MPD2    C211728   2.480   2.954  15.962 -0.4728  1.0072 -0.4833
  796MPD2    C311729   2.401   3.032  15.873  0.1373  0.1710  0.0380
  796MPD2    C411730   2.297   2.973  15.804  0.0156  0.1511  0.0964
  796MPD2    C511731   2.272   2.839  15.822 -0.2220  0.0769 -0.6129
  796MPD2     H11732   2.566   3.000  16.010  0.1089 -1.3350  0.6958
  796MPD2    H111733   2.230   3.029  15.740 -0.0260 -0.2310 -0.1914
  796MPD2    H211734   2.321   2.662  15.938  0.6547  0.4403 -0.1077
  796MPD2    H311735   2.196   2.788  15.765 -0.4120 -0.1062 -0.1930
  796MPD2     N11736   2.436   3.162  15.879  0.3379  0.1432 -0.8526
  796MPD2    H511737   2.516   3.187  15.936 -0.6900  1.7962 -0.1563
  796MPD2    N111738   2.528   2.732  16.068  0.0364 -0.3520 -0.2681
  796MPD2    H711739   2.497   2.636  16.078 -0.8551  0.1946  2.4150
  797MPD2     C11740   3.135   2.252  17.424 -0.9117  0.0237 -0.0098
  797MPD2    C111741   3.268   2.283  17.439  0.7824  0.1096 -0.3231
  797MPD2    C211742   3.320   2.395  17.390  0.4468 -0.0137 -0.2734
  797MPD2    C311743   3.237   2.482  17.318  0.0755 -0.2455 -0.2192
  797MPD2    C411744   3.103   2.451  17.304  0.0320  0.3011 -0.2983
  797MPD2    C511745   3.058   2.332  17.356 -0.0862 -0.8847  0.0894
  797MPD2     H11746   3.425   2.414  17.404  0.3317 -0.3323  1.0363
  797MPD2    H111747   3.035   2.499  17.235 -1.7322 -0.0959  1.1505
  797MPD2    H211748   3.087   2.168  17.472  1.3670 -2.3410 -1.9426
  797MPD2    H311749   2.951   2.317  17.344 -0.4748  2.4027 -0.5375
  797MPD2     N11750   3.295   2.592  17.251  0.3570  0.2802 -0.0190
  797MPD2    H511751   3.232   2.647  17.193  1.5217  3.0010  1.2826
  797MPD2    N111752   3.365   2.200  17.503  0.0061 -0.3150  0.5288
  797MPD2    H711753   3.458   2.242  17.502 -0.5274  0.8758  0.6343
  798MPD2     C11754   3.975   2.485  17.187  0.0338  0.0316 -0.6125
  798MPD2    C111755   3.857   2.517  17.251  0.0775  0.9821  0.3214
  798MPD2    C211756   3.801   2.428  17.343 -0.8576 -0.4678 -0.1989
  798MPD2    C311757   3.861   2.307  17.366  0.0241 -0.3194  0.1605
  798MPD2    C411758   3.978   2.275  17.294 -0.6256 -0.1252  0.6303
  798MPD2    C511759   4.034   2.364  17.210 -0.4080  0.6558 -0.7634
  798MPD2     H11760   3.712   2.462  17.394 -1.7289 -0.6560 -1.6186
  798MPD2    H111761   4.033   2.187  17.323 -1.7059 -0.9032  0.3404
  798MPD2    H211762   4.031   2.558  17.129  1.0085  0.1585  0.4868
  798MPD2    H311763   4.125   2.334  17.159 -0.2660 -1.2174  0.6043
  798MPD2     N11764   3.795   2.213  17.439  0.1007 -0.2379  0.2533
  798MPD2    H511765   3.717   2.248  17.493  0.8653  0.8972  0.6241
  798MPD2    N111766   3.790   2.639  17.237  0.0100  0.6127  0.1563
  798MPD2    H711767   3.698   2.644  17.279 -0.4448 -0.1734 -0.7363
  799MPD2     C11768   2.414   3.914  14.764 -0.6074  0.3409  0.4458
  799MPD2    C111769   2.338   3.842  14.676 -0.4710  0.6215 -0.4582
  799MPD2    C211770   2.274   3.909  14.571  1.2177  0.1269  0.3510
  799MPD2    C311771   2.293   4.047  14.546  0.0688  0.8044 -1.0830
  799MPD2    C411772   2.366   4.121  14.636  0.0481 -0.2751 -0.2818
  799MPD2    C511773   2.425   4.054  14.749 -0.0749 -0.0837  0.5308
  799MPD2     H11774   2.212   3.842  14.512  0.7648  2.3328 -1.6737
  799MPD2    H111775   2.375   4.229  14.629 -1.1551 -0.1286  0.3565
  799MPD2    H211776   2.469   3.867  14.844  2.9364  0.3718 -1.9519
  799MPD2    H311777   2.481   4.103  14.828  0.6659  0.9869 -0.6613
  799MPD2     N11778   2.231   4.121  14.444 -0.9312 -0.0614  0.6925
  799MPD2    H511779   2.270   4.215  14.438 -1.1380 -0.1654 -2.2291
  799MPD2    N111780   2.309   3.707  14.687  0.6306 -0.8746  0.1299
  799MPD2    H711781   2.239   3.667  14.626 -1.2973  0.3561  1.5655
  800MPD2     C11782   2.602   0.048  14.075 -0.1700  0.1793 -0.0469
  800MPD2    C111783   2.737   0.066  14.057 -0.4373 -0.3442 -0.1398
  800MPD2    C211784   2.775   0.087  13.926  0.3669  0.0219  0.6149
  800MPD2    C311785   2.689   0.077  13.820 -0.0931 -0.0328 -0.3117
  800MPD2    C411786   2.567   0.029  13.841 -0.4790 -0.3046 -0.4509
  800MPD2    C511787   2.517   0.034  13.966  0.7074 -0.6802 -0.1618
  800MPD2     H11788   2.868   0.135  13.896 -1.6703  2.7275 -1.4642
  800MPD2    H111789   2.501   0.004  13.759  0.4644  0.8303 -1.5523
  800MPD2    H211790   2.561   0.027  14.173  1.9707 -0.8881  0.6367
  800MPD2    H311791   2.421   4.706  13.982  0.5049  0.3850  1.7648
  800MPD2     N11792   2.741   0.099  13.690 -0.0441  0.4309  0.5807
  800MPD2    H511793   2.830   0.147  13.687 -0.3174  1.0122  1.4911
  800MPD2    N111794   2.817   0.100  14.172  0.2042 -0.2945 -0.3339
  800MPD2    H711795   2.773   0.104  14.264 -3.2005 -0.5093 -1.9665
  801MPD2     C11796   2.732   0.692  14.527 -0.5305  0.5216 -0.0472
  801MPD2    C111797   2.712   0.555  14.537 -0.1186 -0.2132 -0.4323
  801MPD2    C211798   2.594   0.505  14.593  0.1476 -0.1489 -0.0737
  801MPD2    C311799   2.508   0.594  14.660 -0.3281 -0.2852 -0.5379
  801MPD2    C411800   2.536   0.729  14.651  0.0953 -0.5672  0.3027
  801MPD2    C511801   2.638   0.769  14.577  0.1182 -0.4203  0.3197
  801MPD2     H11802   2.584   0.397  14.587 -1.0815 -0.2281  3.1587
  801MPD2    H111803   2.478   0.800  14.708  0.1193  1.3902 -2.1224
  801MPD2    H211804   2.816   0.733  14.472  0.3924 -0.2505  0.7705
  801MPD2    H311805   2.655   0.876  14.564  1.0466 -0.5409  0.5740
  801MPD2     N11806   2.390   0.552  14.714 -0.7883 -0.4245 -0.2740
  801MPD2    H511807   2.335   0.619  14.767  0.3232 -0.1734  0.5574
  801MPD2    N111808   2.802   0.463  14.473 -0.1607 -0.1064 -0.5020
  801MPD2    H711809   2.779   0.368  14.443 -1.0637  0.3019 -1.0946
  802MPD2     C11810   1.556   0.415  17.174 -0.6077 -0.4572 -0.4703
  802MPD2    C111811   1.675   0.467  17.222 -0.2741  0.0571  0.1053
  802MPD2    C211812   1.784   0.446  17.146 -0.0698 -0.5887  0.3067
  802MPD2    C311813   1.779   0.373  17.026  0.3474  0.4773  0.0021
  802MPD2    C411814   1.658   0.328  16.976  0.3664 -0.0072 -0.2486
  802MPD2    C511815   1.553   0.332  17.064  0.6925 -0.6768 -1.2069
  802MPD2     H11816   1.882   0.477  17.180 -1.7646 -0.1148  4.7260
  802MPD2    H111817   1.646   0.294  16.874 -0.1118  0.2968 -0.2925
  802MPD2    H211818   1.460   0.407  17.223 -0.7615 -0.0356 -0.7067
  802MPD2    H311819   1.460   0.282  17.039 -0.2904 -0.8281  2.7231
  802MPD2     N11820   1.901   0.338  16.973 -0.0960 -0.3474  0.1908
  802MPD2    H511821   1.979   0.389  17.013 -0.2145  1.3781 -1.7550
  802MPD2    N111822   1.683   0.551  17.336 -0.2921 -0.4182 -0.4109
  802MPD2    H711823   1.777   0.587  17.348 -0.7424  0.4129  0.5826
  803MPD2     C11824   3.407   0.135  11.709 -0.5098 -0.1315 -0.2231
  803MPD2    C111825   3.456   0.137  11.832  0.0454  0.4559  0.1010
  803MPD2    C211826   3.403   0.054  11.928  0.4618 -0.0709 -0.5470
  803MPD2    C311827   3.305   4.682  11.891  0.4447 -0.3779 -0.1152
  803MPD2    C411828   3.248   4.691  11.764 -0.6490  1.1499  0.2329
  803MPD2    C511829   3.303   0.057  11.673  0.3153 -0.5009 -0.4060
  803MPD2     H11830   3.455   0.044  12.023  1.4060 -2.7319 -1.3416
  803MPD2    H111831   3.164   4.636  11.723  2.0098 -1.0553 -2.2170
  803MPD2    H211832   3.444   0.200  11.630  1.6639  0.7328  1.5117
  803MPD2    H311833   3.278   0.052  11.568  1.0286 -0.2550 -0.5875
  803MPD2     N11834   3.259   4.580  11.972 -0.0858  0.3814 -0.0080
  803MPD2    H511835   3.182   4.521  11.940  0.8807 -0.5097 -0.6803
  803MPD2    N111836   3.553   0.230  11.874 -0.1526 -0.3356  0.3166
  803MPD2    H711837   3.568   0.234  11.975  0.1180  1.1764  0.2224
  804MPD2     C11838   2.902   0.882  16.650  0.5062 -0.2758  0.4415
  804MPD2    C111839   2.843   0.886  16.779 -0.0239 -0.2753  0.9253
  804MPD2    C211840   2.845   0.998  16.852 -0.8329 -0.8101 -0.3289
  804MPD2    C311841   2.929   1.098  16.809 -0.3650 -0.0042 -0.3737
  804MPD2    C411842   2.987   1.090  16.680  0.0006 -0.0824  0.4049
  804MPD2    C511843   2.968   0.988  16.596  0.3443  0.2889  0.1399
  804MPD2     H11844   2.791   1.008  16.945  0.3345 -1.1710  0.3969
  804MPD2    H111845   3.060   1.161  16.644 -0.6262  1.2364  1.7094
  804MPD2    H211846   2.902   0.793  16.589  3.1492 -0.8225  1.2615
  804MPD2    H311847   3.018   0.992  16.500  0.0110 -1.3253 -0.0960
  804MPD2     N11848   2.963   1.199  16.904 -1.0601 -0.2755 -0.6973
  804MPD2    H511849   2.907   1.207  16.988  0.4363  0.2003  0.2452
  804MPD2    N111850   2.774   0.783  16.838  0.4239 -0.0415 -0.3496
  804MPD2    H711851   2.734   0.796  16.930 -0.8405 -0.7163 -0.8130
  805MPD2     C11852   1.939   4.068  15.603 -0.8172 -0.1256 -0.4743
  805MPD2    C111853   2.038   4.144  15.535  0.1279  0.2320 -0.1605
  805MPD2    C211854   2.142   4.196  15.603 -0.7163  0.0717  0.2362
  805MPD2    C311855   2.160   4.164  15.742 -0.2094  0.0252 -0.1504
  805MPD2    C411856   2.061   4.100  15.810  0.5767  0.1260  0.1557
  805MPD2    C511857   1.962   4.043  15.741  0.4125  0.9652 -0.9831
  805MPD2     H11858   2.216   4.253  15.548 -1.0994  0.3602  0.0112
  805MPD2    H111859   2.068   4.079  15.916  1.0950 -0.7873 -0.0593
  805MPD2    H211860   1.848   4.028  15.560 -2.6331 -0.3126  3.6233
  805MPD2    H311861   1.893   3.972  15.784  2.1376  0.3820  0.8094
  805MPD2     N11862   2.280   4.205  15.800 -0.0872  0.0506  0.9856
  805MPD2    H511863   2.344   4.255  15.738 -0.5800 -1.8420 -1.0558
  805MPD2    N111864   2.034   4.155  15.397 -0.5535  0.0630  0.5008
  805MPD2    H711865   2.109   4.200  15.346 -0.6918 -0.6627 -0.3415
  806MPD2     C11866   2.635   4.060   0.721 -0.7875  0.4008 -0.4155
  806MPD2    C111867   2.762   4.028   0.670 -0.1350 -0.6694  0.0481
  806MPD2    C211868   2.792   4.066   0.544  0.3521  0.3736 -0.1981
  806MPD2    C311869   2.707   4.145   0.471  0.1965  0.1180 -0.2898
  806MPD2    C411870   2.588   4.178   0.524  0.1441  0.2687 -0.1720
  806MPD2    C511871   2.548   4.138   0.649  0.3076  0.4906  0.3391
  806MPD2     H11872   2.886   4.038   0.498  0.5075 -1.1000  1.0191
  806MPD2    H111873   2.524   4.244   0.466  0.6410  2.2800  1.5542
  806MPD2    H211874   2.611   4.035   0.824  1.1350  0.1824 -0.0116
  806MPD2    H311875   2.453   4.165   0.693 -0.7616 -2.8926  0.1038
  806MPD2     N11876   2.746   4.207   0.347  0.5696  0.1500 -0.4421
  806MPD2    H511877   2.820   4.160   0.296  1.4738 -0.0908  1.1050
  806MPD2    N111878   2.840   3.941   0.751 -0.2473 -0.1863 -0.6000
  806MPD2    H711879   2.811   3.928   0.847 -1.4734 -0.0608 -0.9416
  807MPD2     C11880   2.950   3.938   1.409  0.1934  0.2076 -0.1559
  807MPD2    C111881   2.885   3.873   1.308  0.6961  0.1639  0.2160
  807MPD2    C211882   2.754   3.832   1.323 -0.1312 -0.6898 -0.3890
  807MPD2    C311883   2.677   3.889   1.422 -0.1091  0.2751  0.1002
  807MPD2    C411884   2.734   3.968   1.515 -0.3957 -0.5217 -0.0881
  807MPD2    C511885   2.875   3.986   1.516 -0.1424  0.0455  0.3889
  807MPD2     H11886   2.708   3.772   1.246 -1.4154  0.9570 -0.9119
  807MPD2    H111887   2.663   3.997   1.591 -0.3321  0.1314 -0.2719
  807MPD2    H211888   3.056   3.960   1.411 -0.0042  0.9033  2.3442
  807MPD2    H311889   2.923   4.040   1.597  0.0193  1.5283 -0.7066
  807MPD2     N11890   2.535   3.860   1.445  0.1301 -0.1774  0.2285
  807MPD2    H511891   2.503   3.899   1.533  0.5855  0.2908  0.1857
  807MPD2    N111892   2.960   3.811   1.201 -0.1001  0.4871 -0.0121
  807MPD2    H711893   2.903   3.761   1.133  0.5723 -1.1917  0.6731
  808MPD2     C11894   3.565   1.008  10.281 -1.2964 -0.1139 -0.3942
  808MPD2    C111895   3.525   1.106  10.185 -0.4942 -0.3027  0.2727
  808MPD2    C211896   3.623   1.197  10.142 -0.0286 -0.2778  0.1724
  808MPD2    C311897   3.760   1.178  10.171 -0.9892 -0.7408  0.0146
  808MPD2    C411898   3.788   1.095  10.279  0.0758  0.0193  0.2860
  808MPD2    C511899   3.690   1.017  10.329  0.6033 -0.0661  0.8936
  808MPD2     H11900   3.587   1.270  10.071  0.9806 -0.1425 -0.1949
  808MPD2    H111901   3.887   1.078  10.320 -0.1833  0.1444  0.9700
  808MPD2    H211902   3.498   0.929  10.314  0.6276 -0.5055  2.5512
  808MPD2    H311903   3.725   0.948  10.405  1.1929 -1.6496 -0.8290
  808MPD2     N11904   3.869   1.255  10.122 -0.3277  0.2348  0.3354
  808MPD2    H511905   3.958   1.248  10.170 -0.8653 -2.4455  0.9691
  808MPD2    N111906   3.401   1.124  10.125  0.0868 -0.8343 -0.0749
  808MPD2    H711907   3.381   1.208  10.071  0.3967 -1.6144 -1.3892
  809MPD2     C11908   4.053   1.776   9.297 -0.6692 -0.2123  0.3046
  809MPD2    C111909   4.104   1.654   9.322 -0.2676  0.0213 -0.0532
  809MPD2    C211910   4.115   1.615   9.452  0.2461 -0.2139  0.2910
  809MPD2    C311911   4.077   1.698   9.560 -0.3358  0.1297 -0.0665
  809MPD2    C411912   4.023   1.822   9.536 -0.2661  0.5268 -0.2678
  809MPD2    C511913   4.019   1.858   9.401  0.7385  0.6727  0.1025
  809MPD2     H11914   4.144   1.513   9.473  0.1742 -0.0843  1.0491
  809MPD2    H111915   3.981   1.893   9.605 -2.1638 -0.6473 -0.2172
  809MPD2    H211916   4.040   1.817   9.197  3.4071 -1.9086 -0.9341
  809MPD2    H311917   3.991   1.955   9.360  1.7303  0.2857 -1.5039
  809MPD2     N11918   4.081   1.654   9.691  0.1794  0.0025 -0.6698
  809MPD2    H511919   4.038   1.708   9.765 -0.8749  0.3198 -1.5010
  809MPD2    N111920   4.143   1.559   9.223  0.4790  0.3377  0.3830
  809MPD2    H711921   4.151   1.461   9.248 -0.7140 -0.0976 -0.8746
  810MPD2     C11922   3.368   4.297  10.423 -0.7034  0.4281 -0.0198
  810MPD2    C111923   3.272   4.397  10.409  0.0621 -0.4513 -0.3185
  810MPD2    C211924   3.312   4.527  10.401 -0.2876  0.5146 -0.4538
  810MPD2    C311925   3.452   4.562  10.409  0.8767  0.3131 -0.4378
  810MPD2    C411926   3.537   4.456  10.437  0.0481 -0.4563 -0.5661
  810MPD2    C511927   3.500   4.326  10.449  0.3447  0.1768 -0.7799
  810MPD2     H11928   3.241   4.608  10.384 -2.1425 -1.1925 -0.7754
  810MPD2    H111929   3.640   4.478  10.463  0.2215 -1.2067 -0.6313
  810MPD2    H211930   3.340   4.192  10.418 -0.2630  0.3076  0.0647
  810MPD2    H311931   3.566   4.245  10.477 -1.3165 -0.4693  1.2887
  810MPD2     N11932   3.506   4.692  10.398  0.4856 -1.1075  0.0839
  810MPD2    H511933   3.606   4.702  10.410  0.3521 -0.6278  0.8099
  810MPD2    N111934   3.139   4.351  10.382 -0.1747 -0.0301  0.0331
  810MPD2    H711935   3.120   4.252  10.384  2.1723 -0.4649  0.4969
  811MPD2     C11936   2.268   4.431  10.060 -0.1907 -0.0282  0.3544
  811MPD2    C111937   2.363   4.503  10.128 -0.1161  0.2495 -0.0771
  811MPD2    C211938   2.351   4.642  10.130 -0.0243 -0.3368 -0.7935
  811MPD2    C311939   2.245   4.706  10.072  0.5548  0.4479 -0.5145
  811MPD2    C411940   2.148   4.631  10.007 -0.6032 -0.8322  0.0058
  811MPD2    C511941   2.163   4.492  10.005 -0.6649 -0.2890 -0.3911
  811MPD2     H11942   2.422   4.705  10.181 -1.5243 -0.7962  1.8643
  811MPD2    H111943   2.064   4.680   9.958  2.5211  3.3624 -1.1320
  811MPD2    H211944   2.283   4.326  10.037 -0.2135 -0.0902  0.6186
  811MPD2    H311945   2.095   4.436   9.941 -1.9737 -0.5529  1.2116
  811MPD2     N11946   2.252   0.127  10.080 -0.3440 -0.7645  0.0966
  811MPD2    H511947   2.326   0.167  10.138  0.0603 -0.3153 -0.7226
  811MPD2    N111948   2.467   4.427  10.189  0.3090  0.5779  0.0156
  811MPD2    H711949   2.465   4.327  10.170  3.5677  1.0397 -2.6900
  812MPD2     C11950   1.359   4.661  12.024  0.4160 -1.1072 -0.0953
  812MPD2    C111951   1.365   4.717  12.148  0.0500  0.0323 -0.0017
  812MPD2    C211952   1.360   4.630  12.256 -0.0726 -0.6393  0.2912
  812MPD2    C311953   1.331   4.494  12.238 -0.0387 -0.4020 -0.0300
  812MPD2    C411954   1.329   4.442  12.108 -0.7576  0.2801  0.1352
  812MPD2    C511955   1.340   4.523  12.002  1.1357  0.2930  0.0501
  812MPD2     H11956   1.383   4.674  12.352 -0.1612 -0.9062  0.4335
  812MPD2    H111957   1.315   4.337  12.086  1.5865 -0.4274  1.9780
  812MPD2    H211958   1.359   4.718  11.932  1.0665  2.5621  2.1724
  812MPD2    H311959   1.330   4.480  11.903  1.0732 -0.9644  0.6132
  812MPD2     N11960   1.315   4.419  12.359 -0.4238  0.6872 -0.3056
  812MPD2    H511961   1.335   4.468  12.446  1.3682  0.2920 -0.4924
  812MPD2    N111962   1.386   0.139  12.162  0.3975 -0.4358  0.2117
  812MPD2    H711963   1.407   0.192  12.078 -0.2562 -1.1087 -0.3789
  813MPD2     C11964   0.284   1.852  12.681 -0.2916  0.0755 -0.5300
  813MPD2    C111965   0.376   1.828  12.786  0.0521 -0.0425 -0.1277
  813MPD2    C211966   0.322   1.799  12.915  0.3515  0.3214  0.6769
  813MPD2    C311967   0.182   1.794  12.934  0.2281  0.1687 -0.4565
  813MPD2    C411968   0.094   1.827  12.828 -0.4778  0.0927 -0.2769
  813MPD2    C511969   0.149   1.851  12.703  0.3356  0.2444  0.1859
  813MPD2     H11970   0.389   1.772  12.995  1.2748  0.4226 -0.0642
  813MPD2    H111971   4.705   1.819  12.834 -0.5497  1.3366  0.1135
  813MPD2    H211972   0.324   1.889  12.587  0.2522 -0.5828 -0.5591
  813MPD2    H311973   0.078   1.861  12.621 -0.9706 -0.7313  1.2103
  813MPD2     N11974   0.136   1.761  13.067  0.4670 -0.4628  0.2089
  813MPD2    H511975   0.207   1.756  13.140 -2.0425 -2.9423  2.4818
  813MPD2    N111976   0.513   1.861  12.769  0.3133 -0.1904  0.0502
  813MPD2    H711977   0.536   1.888  12.673  1.6519 -1.2946  0.0672
  814MPD2     C11978   1.386   2.936  12.209 -0.0984  0.2442  0.9095
  814MPD2    C111979   1.375   2.973  12.072  0.1889 -0.7598  0.3036
  814MPD2    C211980   1.407   3.108  12.032  0.4929  0.6185 -0.3065
  814MPD2    C311981   1.436   3.204  12.130 -0.4386 -0.0956 -0.4202
  814MPD2    C411982   1.449   3.163  12.264 -0.4397 -0.0883  0.4980
  814MPD2    C511983   1.427   3.028  12.295  0.2404 -0.6755  0.2463
  814MPD2     H11984   1.406   3.130  11.926  2.4437  0.8946 -0.2643
  814MPD2    H111985   1.476   3.239  12.336 -0.5635  0.3063  0.1279
  814MPD2    H211986   1.380   2.838  12.256 -0.8312 -0.2947 -0.2961
  814MPD2    H311987   1.450   2.993  12.395  0.8748  3.8872  1.7017
  814MPD2     N11988   1.458   3.338  12.092 -0.2235  0.0476 -0.1260
  814MPD2    H511989   1.493   3.387  12.173 -1.8228  1.2707 -0.1811
  814MPD2    N111990   1.336   2.887  11.973 -0.4146  0.1088  0.1915
  814MPD2    H711991   1.324   2.927  11.881  1.3577  0.1378 -0.0130
  815MPD2     C11992   1.924   1.737  11.920 -0.4798  0.9616 -0.7236
  815MPD2    C111993   1.887   1.602  11.904 -0.0811 -0.2198 -0.8558
  815MPD2    C211994   1.789   1.556  11.993 -0.6465  0.1859  0.0153
  815MPD2    C311995   1.724   1.631  12.085 -0.4079 -0.4898 -0.4392
  815MPD2    C411996   1.768   1.753  12.110 -0.0457 -0.4662 -0.1916
  815MPD2    C511997   1.865   1.806  12.027 -0.6505 -0.4073 -0.3702
  815MPD2     H11998   1.759   1.453  11.978  1.8310 -0.3067 -1.5945
  815MPD2    H111999   1.733   1.821  12.187 -2.2724 -0.0741 -1.5513
  815MPD2    H212000   1.981   1.796  11.849  1.1618  0.4354  0.1464
  815MPD2    H312001   1.887   1.911  12.041 -1.1684 -0.1161 -1.7285
  815MPD2     N12002   1.625   1.564  12.161 -0.1494 -0.3907 -0.0989
  815MPD2    H512003   1.598   1.468  12.146 -0.8658 -0.5309  1.9976
  815MPD2    N112004   1.935   1.529  11.791 -0.0421 -0.4514 -0.4019
  815MPD2    H712005   1.986   1.573  11.716  0.2695  0.0563  0.1090
  816MPD2     C12006   0.663   0.295  16.928  0.5551 -0.2941  0.0572
  816MPD2    C112007   0.745   0.404  16.965  0.2477 -0.0595 -0.4494
  816MPD2    C212008   0.888   0.388  16.956 -0.0467  0.1001 -0.3164
  816MPD2    C312009   0.935   0.267  16.913 -0.2312 -0.4669 -0.7095
  816MPD2    C412010   0.852   0.171  16.868  0.0720  0.8137 -0.0801
  816MPD2    C512011   0.715   0.183  16.884  0.2197 -0.2587  0.4474
  816MPD2     H12012   0.957   0.461  16.997 -0.6340 -0.5791  1.8589
  816MPD2    H112013   0.885   0.074  16.833 -0.1449 -0.3965  3.0074
  816MPD2    H212014   0.555   0.296  16.932  0.6138  0.8979  1.4072
  816MPD2    H312015   0.661   0.104  16.834 -0.3573 -0.9331  2.1186
  816MPD2     N12016   1.070   0.251  16.890  0.1412 -0.0617  0.5410
  816MPD2    H512017   1.132   0.332  16.887 -1.2376  0.9128 -1.8582
  816MPD2    N112018   0.689   0.521  17.018  0.1463 -0.3269  0.1071
  816MPD2    H712019   0.588   0.534  17.017 -0.2036 -3.1246 -0.7401
  817MPD2     C12020   1.125   2.616   9.916  0.0213 -0.9089  0.5914
  817MPD2    C112021   1.216   2.679   9.833  0.2459 -0.1499 -0.1341
  817MPD2    C212022   1.182   2.784   9.758 -0.6176 -0.2449  0.2663
  817MPD2    C312023   1.048   2.832   9.767  0.9222  0.4727 -0.2227
  817MPD2    C412024   0.960   2.773   9.857  0.7687 -1.0065  0.9060
  817MPD2    C512025   0.998   2.661   9.925  0.5170  0.7559  0.2546
  817MPD2     H12026   1.248   2.829   9.684 -2.0078  2.2246  0.5318
  817MPD2    H112027   0.856   2.801   9.866  1.0393  0.7380 -1.2672
  817MPD2    H212028   1.148   2.537   9.987  0.5239 -0.5060  0.8803
  817MPD2    H312029   0.935   2.617  10.001 -0.5853 -1.3042 -1.8353
  817MPD2     N12030   1.002   2.936   9.678 -0.4709 -0.3498  0.4174
  817MPD2    H512031   1.074   2.983   9.623 -1.7875 -0.5068 -1.4097
  817MPD2    N112032   1.357   2.635   9.832 -1.1412  0.2815 -0.2509
  817MPD2    H712033   1.418   2.689   9.772 -0.8443 -0.6700 -0.8204
  818MPD2     C12034   0.101   2.804   9.909  0.2658  0.2365  0.0515
  818MPD2    C112035   0.108   2.700  10.004 -0.3410 -0.0460  0.0216
  818MPD2    C212036   0.175   2.581   9.972  0.0352 -0.0341 -0.2204
  818MPD2    C312037   0.227   2.562   9.845  0.9145  0.2342  0.3938
  818MPD2    C412038   0.198   2.665   9.754 -0.9417 -0.0310 -0.4873
  818MPD2    C512039   0.139   2.780   9.784  0.2542 -0.2842  0.1522
  818MPD2     H12040   0.177   2.509  10.052 -3.4213  1.7069  1.4393
  818MPD2    H112041   0.225   2.662   9.649 -1.3906  3.1910 -0.6872
  818MPD2    H212042   0.076   2.904   9.942 -1.3494 -0.1191 -0.0615
  818MPD2    H312043   0.117   2.859   9.712  0.7642 -0.9067 -0.6788
  818MPD2     N12044   0.285   2.446   9.794  0.2167  0.3585 -0.3240
  818MPD2    H512045   0.293   2.439   9.693  0.1549 -0.6120 -0.2625
  818MPD2    N112046   0.045   2.703  10.133 -0.3105  0.0927  0.4223
  818MPD2    H712047   0.055   2.625  10.197  0.0764 -0.3090 -0.1293
  819MPD2     C12048   2.654   3.605  15.669  0.6548  0.1434 -0.2367
  819MPD2    C112049   2.679   3.477  15.638 -0.0084 -0.3718 -0.3526
  819MPD2    C212050   2.800   3.415  15.664 -1.0993 -0.6838 -0.0408
  819MPD2    C312051   2.887   3.484  15.747  0.1826 -0.4570 -0.4977
  819MPD2    C412052   2.854   3.617  15.784  0.3223  0.5340  0.0455
  819MPD2    C512053   2.746   3.682  15.735  0.5862 -0.0842 -0.0474
  819MPD2     H12054   2.814   3.311  15.636  0.0553  0.3154 -3.2258
  819MPD2    H112055   2.921   3.676  15.846  2.9698  0.0974 -2.4222
  819MPD2    H212056   2.561   3.656  15.647 -0.4938 -0.7407  2.5130
  819MPD2    H312057   2.743   3.788  15.758  1.5926  0.6411 -3.2676
  819MPD2     N12058   3.012   3.429  15.786  0.0255  0.1692  0.0722
  819MPD2    H512059   3.026   3.336  15.749  0.5030  0.3210 -0.1301
  819MPD2    N112060   2.567   3.418  15.579  0.0518 -1.0648 -0.3326
  819MPD2    H712061   2.488   3.475  15.550  1.3884  0.4151 -1.0281
  820MPD2     C12062   1.924   3.625  14.889  0.2525 -0.0902  0.0227
  820MPD2    C112063   2.041   3.679  14.940  0.0173 -0.1397 -0.2749
  820MPD2    C212064   2.130   3.597  15.008  0.0603 -1.1474  0.1706
  820MPD2    C312065   2.106   3.462  15.034 -0.0090 -0.3872 -0.5176
  820MPD2    C412066   1.983   3.422  14.988 -0.0048  0.2482 -0.0127
  820MPD2    C512067   1.896   3.495  14.913  0.9686  0.1435  0.2176
  820MPD2     H12068   2.222   3.641  15.045 -0.0316  1.9502 -3.2585
  820MPD2    H112069   1.955   3.323  15.023 -2.2104  0.6694 -0.5667
  820MPD2    H212070   1.847   3.687  14.844 -0.5449 -1.7595 -0.9394
  820MPD2    H312071   1.798   3.456  14.889  2.0590 -1.6085 -1.3433
  820MPD2     N12072   2.187   3.379  15.111  0.1535 -0.4934  0.5881
  820MPD2    H512073   2.163   3.280  15.115 -0.5833 -0.2138  3.5667
  820MPD2    N112074   2.041   3.819  14.923  0.3850 -0.3241 -0.0145
  820MPD2    H712075   1.965   3.855  14.866 -0.9486  1.3042  2.7532
  821MPD2     C12076   2.683   0.596  13.016  0.2322  0.5716 -0.9475
  821MPD2    C112077   2.790   0.566  13.099  0.3469 -0.5323  0.6604
  821MPD2    C212078   2.890   0.654  13.113 -0.2703  0.1995 -0.4245
  821MPD2    C312079   2.883   0.784  13.059 -0.2122  0.2008  0.7701
  821MPD2    C412080   2.783   0.810  12.963  0.2982 -0.0776  0.8849
  821MPD2    C512081   2.678   0.719  12.942  1.0480 -0.2409 -0.3191
  821MPD2     H12082   2.971   0.620  13.176 -0.5039  0.4553  0.0120
  821MPD2    H112083   2.782   0.906  12.912 -0.1760 -0.5017  0.0836
  821MPD2    H212084   2.616   0.519  12.979 -1.1257  2.0604 -1.6142
  821MPD2    H312085   2.602   0.736  12.867  1.1714 -0.8090 -0.5734
  821MPD2     N12086   2.979   0.884  13.084  0.1783  0.4376 -0.1773
  821MPD2    H512087   2.981   0.968  13.026 -0.8995  0.6293  0.0630
  821MPD2    N112088   2.809   0.439  13.166 -0.0148 -0.5997  0.1232
  821MPD2    H712089   2.895   0.428  13.219  0.7187 -0.9630 -1.1556
  822MPD2     C12090   3.425   0.252  15.666 -0.2872 -0.3846  0.1618
  822MPD2    C112091   3.387   0.179  15.773  0.2924 -0.5634  0.1993
  822MPD2    C212092   3.305   0.229  15.875  0.0256  0.4478  0.0265
  822MPD2    C312093   3.288   0.362  15.872  0.5018 -0.3952 -0.1860
  822MPD2    C412094   3.328   0.443  15.764  0.2626  0.1528 -0.1104
  822MPD2    C512095   3.384   0.379  15.659  0.3809  0.0087  0.1429
  822MPD2     H12096   3.274   0.168  15.959  2.0371 -1.1549 -0.3638
  822MPD2    H112097   3.307   0.549  15.754  1.6355  0.1945 -2.5826
  822MPD2    H212098   3.482   0.211  15.583 -1.2561  0.8425 -1.1106
  822MPD2    H312099   3.410   0.439  15.573 -0.6052  1.2430  0.7093
  822MPD2     N12100   3.213   0.410  15.984  0.5840  0.1023 -0.1025
  822MPD2    H512101   3.191   0.351  16.064 -1.2696  0.2940 -0.4771
  822MPD2    N112102   3.429   0.043  15.791  0.4144 -0.3944 -0.3508
  822MPD2    H712103   3.392   0.008  15.879  0.4078  0.7597  0.1097
  823MPD2     C12104   3.039   0.408  16.777  0.0565 -0.6281  0.3641
  823MPD2    C112105   3.034   0.338  16.660 -0.1102  0.1547 -0.5160
  823MPD2    C212106   3.057   0.201  16.673 -0.6610 -0.6606 -0.0916
  823MPD2    C312107   3.057   0.135  16.796  0.7711 -0.1551 -0.4206
  823MPD2    C412108   3.025   0.209  16.908 -0.3826 -0.0999  0.3918
  823MPD2    C512109   3.023   0.343  16.898  0.1750 -0.8836 -0.0383
  823MPD2     H12110   3.065   0.140  16.583 -0.8477  1.6073 -1.6437
  823MPD2    H112111   3.021   0.164  17.006  1.8279 -3.4392 -1.0397
  823MPD2    H212112   3.055   0.515  16.785  2.8439 -0.8906 -1.5244
  823MPD2    H312113   3.012   0.403  16.988  1.8537 -0.5404 -0.0638
  823MPD2     N12114   3.069   4.717  16.821  0.4316  0.5674 -0.0723
  823MPD2    H512115   3.039   4.680  16.911  3.1515  0.5334  0.8076
  823MPD2    N112116   3.010   0.411  16.545  0.0634 -0.2235  0.0467
  823MPD2    H712117   2.997   0.510  16.567 -0.5564 -0.6969  1.7740
  824MPD2     C12118   3.665   4.056  15.497  0.1655  0.3728 -0.0987
  824MPD2    C112119   3.754   4.156  15.532  0.4425  0.4806 -0.0768
  824MPD2    C212120   3.884   4.159  15.487 -0.5652 -0.0817  0.5927
  824MPD2    C312121   3.931   4.048  15.420  0.2401  0.5240 -0.5261
  824MPD2    C412122   3.844   3.940  15.396 -0.6798 -0.0067 -0.6749
  824MPD2    C512123   3.713   3.949  15.427 -0.3975  0.7234 -0.8960
  824MPD2     H12124   3.943   4.250  15.492 -2.0698  0.9440 -0.3740
  824MPD2    H112125   3.882   3.851  15.346  0.3389  0.8770 -1.4690
  824MPD2    H212126   3.559   4.057  15.521  0.3934 -3.0745  1.0929
  824MPD2    H312127   3.652   3.862  15.405 -2.1845  2.1377 -1.5868
  824MPD2     N12128   4.071   4.050  15.376 -0.2078 -0.3632  0.0063
  824MPD2    H512129   4.124   4.129  15.412  0.8745 -1.9487  1.8444
  824MPD2    N112130   3.716   4.252  15.620 -0.5129 -0.3451 -0.0355
  824MPD2    H712131   3.759   4.343  15.631  1.6604 -1.3738 -0.0870
  825MPD2     C12132   0.087   4.318  15.425 -0.4137  0.1927 -0.2545
  825MPD2    C112133   4.689   4.331  15.355 -0.1675  0.4933  0.4133
  825MPD2    C212134   4.642   4.460  15.325 -0.1395 -0.2951 -0.1148
  825MPD2    C312135   4.712   4.563  15.370 -0.4202 -0.3104  0.3206
  825MPD2    C412136   0.103   4.544  15.450 -0.0604  0.1446 -0.8940
  825MPD2    C512137   0.152   4.421  15.477  0.7932 -0.2696  0.8531
  825MPD2     H12138   4.554   4.464  15.261 -2.2506  0.0311  2.8386
  825MPD2    H112139   0.158   4.624  15.499  3.0158 -2.0757 -0.7126
  825MPD2    H212140   0.111   4.215  15.451 -1.5590 -0.2113 -0.7838
  825MPD2    H312141   0.246   4.418  15.532  1.4089 -0.2774 -0.1996
  825MPD2     N12142   4.655   4.683  15.352  0.1879 -0.3168 -0.3708
  825MPD2    H512143   4.684   0.031  15.422  0.1088 -0.6342 -0.0344
  825MPD2    N112144   4.619   4.211  15.309  0.4370 -0.2290 -0.2439
  825MPD2    H712145   4.656   4.123  15.344 -0.2077 -0.5251 -0.2938
  826MPD2     C12146   4.479   4.111  13.529  0.3868 -0.3070 -0.3626
  826MPD2    C112147   4.402   4.092  13.420  0.1700 -0.1681 -0.4161
  826MPD2    C212148   4.306   4.184  13.389 -0.8600  0.2119  0.6185
  826MPD2    C312149   4.275   4.276  13.485 -0.8789  0.5491  0.1483
  826MPD2    C412150   4.352   4.300  13.598  0.2442 -0.2584 -0.0050
  826MPD2    C512151   4.463   4.218  13.619 -0.1576 -0.2496  0.5257
  826MPD2     H12152   4.247   4.181  13.298 -0.6908  5.0991  0.3569
  826MPD2    H112153   4.327   4.380  13.667  0.5890  0.8144 -1.1422
  826MPD2    H212154   4.549   4.032  13.553  0.3605 -0.1000  0.3803
  826MPD2    H312155   4.523   4.229  13.708 -0.0951 -0.0151  0.4538
  826MPD2     N12156   4.154   4.340  13.482 -0.6664 -0.0340  0.5708
  826MPD2    H512157   4.142   4.419  13.544 -0.0236 -0.0220  0.6815
  826MPD2    N112158   4.431   3.980  13.335 -0.6253  0.5041 -0.3724
  826MPD2    H712159   4.515   3.925  13.355  0.5286  2.2490 -0.4615
  827MPD2     C12160   0.677   0.683   9.658 -0.3101 -0.2027 -0.5267
  827MPD2    C112161   0.687   0.566   9.738  0.5394 -1.0938 -0.2510
  827MPD2    C212162   0.600   0.463   9.716 -0.2865  0.2265 -0.1610
  827MPD2    C312163   0.507   0.462   9.612 -0.0727  0.0566 -0.5188
  827MPD2    C412164   0.497   0.572   9.528  0.7315  0.7121  0.3720
  827MPD2    C512165   0.583   0.674   9.554 -0.0399  0.9335  0.4179
  827MPD2     H12166   0.603   0.378   9.782  2.0691 -0.3560 -1.0088
  827MPD2    H112167   0.431   0.579   9.443  0.7794  0.9731  0.3570
  827MPD2    H212168   0.739   0.767   9.687  2.7116 -2.5415 -0.0904
  827MPD2    H312169   0.576   0.765   9.494 -2.3865  0.6152  0.2305
  827MPD2     N12170   0.422   0.351   9.610  0.2259  0.1304 -0.1587
  827MPD2    H512171   0.455   0.268   9.658  0.5858  1.5116  1.9697
  827MPD2    N112172   0.771   0.571   9.856  0.2474 -0.1858 -0.2443
  827MPD2    H712173   0.823   0.657   9.870 -0.3046  0.1788 -0.4309
  828MPD2     C12174   3.535   0.766  12.784  0.2534  0.4000  0.1349
  828MPD2    C112175   3.512   0.861  12.684  0.2748  0.3695  0.6676
  828MPD2    C212176   3.603   0.859  12.584 -0.2435  0.1888  0.3231
  828MPD2    C312177   3.714   0.772  12.586 -0.2018  0.8756 -0.1570
  828MPD2    C412178   3.733   0.694  12.696  0.2207  0.6786  0.3254
  828MPD2    C512179   3.647   0.696  12.797 -0.9443  0.6893 -0.3796
  828MPD2     H12180   3.580   0.917  12.495 -1.2031 -0.2993  0.2564
  828MPD2    H112181   3.811   0.618  12.702 -0.5764 -0.3413 -2.0126
  828MPD2    H212182   3.458   0.759  12.860  0.9603 -0.5105  0.7586
  828MPD2    H312183   3.653   0.632  12.884  0.2411  1.8091  0.3532
  828MPD2     N12184   3.809   0.762  12.483 -0.6494  0.0730 -0.6319
  828MPD2    H512185   3.889   0.702  12.503 -1.5566 -0.4039  1.5650
  828MPD2    N112186   3.400   0.943  12.678  0.0872  0.2512  0.1231
  828MPD2    H712187   3.401   1.017  12.608  1.3368 -0.7467 -0.9282
  829MPD2     C12188   3.427   0.997  11.977  0.1613 -0.0985  0.8216
  829MPD2    C112189   3.304   1.062  11.973  0.9313 -0.0838 -0.3395
  829MPD2    C212190   3.234   1.084  12.091 -0.7588 -0.6557 -0.0696
  829MPD2    C312191   3.298   1.063  12.211 -0.2650 -0.1903  0.1598
  829MPD2    C412192   3.428   1.015  12.213  0.0380 -1.0720 -0.2418
  829MPD2    C512193   3.492   0.974  12.098 -0.1281  0.4275  0.3299
  829MPD2     H12194   3.138   1.133  12.091 -0.6258 -0.3859 -2.4360
  829MPD2    H112195   3.486   0.989  12.301  1.2465 -1.0546 -1.0278
  829MPD2    H212196   3.484   0.972  11.888  2.3887  3.8956  1.1400
  829MPD2    H312197   3.596   0.949  12.113 -0.4673  0.1808  2.2570
  829MPD2     N12198   3.245   1.098  12.335  0.0469  0.6147  0.1094
  829MPD2    H512199   3.307   1.099  12.415  0.0253  0.7678  0.1227
  829MPD2    N112200   3.263   1.115  11.850  0.0742 -0.6494 -0.1850
  829MPD2    H712201   3.322   1.094  11.770 -3.5435 -0.8393 -2.8364
  830MPD2     C12202   3.818   3.426  15.575  0.1940 -0.7591  0.1341
  830MPD2    C112203   3.691   3.458  15.543 -0.0954  0.3674 -0.1428
  830MPD2    C212204   3.667   3.528  15.429 -0.5101 -1.2478  0.2492
  830MPD2    C312205   3.776   3.575  15.355 -0.2639 -0.1822 -0.8704
  830MPD2    C412206   3.909   3.536  15.386  0.5376  0.5803 -0.4967
  830MPD2    C512207   3.926   3.464  15.501 -0.7212  0.4441  0.0354
  830MPD2     H12208   3.564   3.552  15.405 -1.0198 -2.3685  1.3364
  830MPD2    H112209   3.988   3.570  15.321  3.1370 -2.6340  0.9914
  830MPD2    H212210   3.834   3.367  15.665 -0.0048  3.2612  2.7764
  830MPD2    H312211   4.020   3.422  15.534 -1.5458 -1.0170  0.5579
  830MPD2     N12212   3.761   3.655  15.242  0.3511 -0.8342  0.0543
  830MPD2    H512213   3.842   3.690  15.190 -0.7922  0.3054 -0.9567
  830MPD2    N112214   3.598   3.408  15.637 -0.1798 -0.0464 -0.0554
  830MPD2    H712215   3.644   3.365  15.717  0.1741 -1.3289 -0.9448
  831MPD2     C12216   3.485   0.428  16.300 -0.5608  0.1392  0.0012
  831MPD2    C112217   3.515   0.335  16.202  0.2668  0.9169  0.3251
  831MPD2    C212218   3.443   0.215  16.201 -0.8633 -0.3125  0.1365
  831MPD2    C312219   3.364   0.175  16.302  0.4428 -0.4134  0.2491
  831MPD2    C412220   3.355   0.257  16.411  0.0135  0.3015  0.3395
  831MPD2    C512221   3.398   0.390  16.401  0.3556  0.1338 -0.2180
  831MPD2     H12222   3.452   0.151  16.114  0.3804 -0.5387  0.4244
  831MPD2    H112223   3.290   0.234  16.494 -1.1805 -1.1277 -0.9902
  831MPD2    H212224   3.515   0.532  16.298 -0.5455  0.0852 -2.7474
  831MPD2    H312225   3.377   0.456  16.484 -0.6614  2.0189 -1.9668
  831MPD2     N12226   3.277   0.064  16.295  0.1229 -0.1503  0.2638
  831MPD2    H512227   3.226   0.039  16.380 -1.0239 -0.3519 -0.4906
  831MPD2    N112228   3.619   0.371  16.113 -0.1444 -0.2409  0.4572
  831MPD2    H712229   3.637   0.469  16.091 -0.0033 -0.4146 -0.2058
  832MPD2     C12230   1.794   1.148  16.964  0.7294  0.0973  0.1258
  832MPD2    C112231   1.769   1.275  17.007  0.3745 -0.0104  0.0589
  832MPD2    C212232   1.670   1.349  16.939 -1.1092 -0.2714  0.6355
  832MPD2    C312233   1.587   1.287  16.852  0.5776  0.5032 -0.2494
  832MPD2    C412234   1.607   1.157  16.815 -0.7915  0.5069  0.8421
  832MPD2    C512235   1.714   1.085  16.867  0.2089  0.6484  0.6307
  832MPD2     H12236   1.632   1.442  16.979 -2.5265 -0.5531 -0.0720
  832MPD2    H112237   1.540   1.108  16.745  0.7760  1.5298 -1.3991
  832MPD2    H212238   1.867   1.083  17.011  1.2150  0.7319  0.2543
  832MPD2    H312239   1.737   0.985  16.832  1.8147  0.6058  1.8322
  832MPD2     N12240   1.466   1.345  16.806  0.3115 -0.3864  0.1075
  832MPD2    H512241   1.403   1.277  16.764 -0.1311  0.4486 -0.5801
  832MPD2    N112242   1.855   1.331  17.105 -0.0739 -0.5485 -0.6070
  832MPD2    H712243   1.922   1.268  17.147 -0.7198 -1.1269 -0.4471
  833MPD2     C12244   3.878   3.443  12.638  0.4342  0.1678 -0.0282
  833MPD2    C112245   4.001   3.487  12.628 -0.2919  0.1546  0.1374
  833MPD2    C212246   4.096   3.404  12.571  0.2842  0.3465  0.0281
  833MPD2    C312247   4.060   3.278  12.526  0.0225  0.4348  1.0081
  833MPD2    C412248   3.933   3.238  12.538  0.3364 -0.4726  0.2386
  833MPD2    C512249   3.843   3.318  12.594 -0.0337  0.5665  0.5337
  833MPD2     H12250   4.201   3.430  12.557  0.8375 -1.5573  0.5824
  833MPD2    H112251   3.894   3.142  12.504 -0.0749 -0.0737 -0.4259
  833MPD2    H212252   3.801   3.503  12.686 -0.1396  1.8130 -3.0145
  833MPD2    H312253   3.740   3.284  12.602  0.3354 -0.9919 -1.5166
  833MPD2     N12254   4.149   3.191  12.463  0.3455 -0.0720 -0.2699
  833MPD2    H512255   4.109   3.106  12.424 -1.2996  1.1268 -1.2094
  833MPD2    N112256   4.017   3.619  12.666 -0.1176 -0.0829 -0.1135
  833MPD2    H712257   3.929   3.668  12.679 -0.6748 -0.2582 -3.0212
  834MPD2     C12258   4.111   2.532  11.745 -0.1629 -0.8871  0.9354
  834MPD2    C112259   4.093   2.659  11.686  0.4178  0.2111  0.1036
  834MPD2    C212260   4.116   2.770  11.769  0.5563 -0.3428 -0.2660
  834MPD2    C312261   4.144   2.759  11.902  0.1717  0.1470 -0.4930
  834MPD2    C412262   4.168   2.636  11.956 -0.6261  0.2770 -0.4823
  834MPD2    C512263   4.154   2.530  11.871 -0.6598 -0.5282 -0.4984
  834MPD2     H12264   4.125   2.869  11.725 -0.2641  0.5455  1.5638
  834MPD2    H112265   4.194   2.607  12.057 -1.0403  0.9017 -0.1969
  834MPD2    H212266   4.083   2.434  11.707  0.7311  0.0895 -2.2680
  834MPD2    H312267   4.158   2.437  11.926  2.9744  0.4564  0.9311
  834MPD2     N12268   4.171   2.876  11.977 -0.0074 -0.1791 -0.5355
  834MPD2    H512269   4.159   2.960  11.920 -0.6313  1.3342  1.8418
  834MPD2    N112270   4.045   2.663  11.551 -0.5005  0.0915  0.1161
  834MPD2    H712271   4.017   2.575  11.509 -1.7498  0.0356  1.0640
  835MPD2     C12272   0.083   1.275  11.408  0.0714 -0.2581 -0.3581
  835MPD2    C112273   4.665   1.253  11.415 -0.7804 -0.0171 -0.6094
  835MPD2    C212274   4.604   1.247  11.537  0.0095 -0.3967 -0.0237
  835MPD2    C312275   4.668   1.266  11.653  0.0946 -0.7572 -0.5657
  835MPD2    C412276   0.081   1.298  11.648  0.0515 -0.0216 -0.1097
  835MPD2    C512277   0.148   1.305  11.525 -0.4224  0.9451 -0.0474
  835MPD2     H12278   4.496   1.238  11.530  0.2252  0.3517 -4.1613
  835MPD2    H112279   0.151   1.310  11.729  0.9226 -0.0378 -0.8565
  835MPD2    H212280   0.137   1.287  11.315  0.3065 -0.1453 -0.2076
  835MPD2    H312281   0.255   1.321  11.526 -0.6653  2.7021 -0.7619
  835MPD2     N12282   4.600   1.256  11.779  0.2752 -0.0922  0.0892
  835MPD2    H512283   4.643   1.277  11.868  1.2775  1.6230 -0.7924
  835MPD2    N112284   4.585   1.242  11.308 -0.1239  0.7855  0.6528
  835MPD2    H712285   4.485   1.240  11.326 -0.6352  0.1288 -2.3712
  836MPD2     C12286   3.874   1.146  11.722  0.0545  0.0398 -0.1021
  836MPD2    C112287   3.898   1.162  11.855  0.1120  0.0667 -0.0648
  836MPD2    C212288   3.791   1.202  11.940 -0.0379 -0.2494 -0.0614
  836MPD2    C312289   3.673   1.245  11.883  0.3909 -0.9647 -0.1827
  836MPD2    C412290   3.659   1.232  11.748  0.7501 -0.0520 -0.1933
  836MPD2    C512291   3.751   1.172  11.666  0.2196  0.9570 -0.6174
  836MPD2     H12292   3.798   1.214  12.047  0.4013 -0.8207 -0.0235
  836MPD2    H112293   3.571   1.272  11.700 -0.1939 -1.6703  0.1987
  836MPD2    H212294   3.961   1.120  11.662  0.0626  2.7099 -1.2558
  836MPD2    H312295   3.727   1.150  11.563  0.9737  1.0766 -0.8215
  836MPD2     N12296   3.576   1.311  11.956 -0.0036  0.0045 -0.1268
  836MPD2    H512297   3.486   1.326  11.912  0.5588  0.7866 -1.0436
  836MPD2    N112298   4.028   1.131  11.897 -0.2987 -0.0614 -0.3613
  836MPD2    H712299   4.102   1.122  11.828  1.1427  0.3363  1.1544
  837MPD2     C12300   2.704   0.797  10.126 -0.1444  0.3283  0.0594
  837MPD2    C112301   2.570   0.819  10.142 -0.7492  0.3218 -0.4052
  837MPD2    C212302   2.526   0.953  10.156 -0.0826  0.0853 -0.2112
  837MPD2    C312303   2.611   1.058  10.151  0.1903  0.1871  0.1977
  837MPD2    C412304   2.743   1.037  10.142  0.3050 -0.6834  0.1397
  837MPD2    C512305   2.790   0.906  10.130 -0.1504 -0.0968  0.0644
  837MPD2     H12306   2.419   0.975  10.156 -0.1400 -0.2070 -0.6148
  837MPD2    H112307   2.810   1.120  10.126 -0.6307 -0.1439 -0.9576
  837MPD2    H212308   2.738   0.696  10.108 -2.5315 -0.6591  1.1428
  837MPD2    H312309   2.896   0.887  10.119 -0.4432 -2.2675  0.9310
  837MPD2     N12310   2.555   1.189  10.156 -0.3037  0.1494  0.1085
  837MPD2    H512311   2.456   1.193  10.179  0.2444  1.2852  2.2332
  837MPD2    N112312   2.464   0.728  10.137  0.5381 -0.5755  0.3986
  837MPD2    H712313   2.374   0.769  10.160  1.5368  1.7172  0.2977
  838MPD2     C12314   1.083   3.088  11.005  0.2128  0.5866 -0.1347
  838MPD2    C112315   1.003   3.188  11.051 -0.5977  0.0805  0.3642
  838MPD2    C212316   0.888   3.151  11.123  0.9394  0.0587  0.1771
  838MPD2    C312317   0.835   3.027  11.138  0.8062  0.2032  0.8289
  838MPD2    C412318   0.921   2.932  11.098 -1.1009  0.2144  0.1255
  838MPD2    C512319   1.037   2.963  11.036  0.1401 -0.2203 -0.3949
  838MPD2     H12320   0.816   3.226  11.153  0.1626 -1.6817  2.6461
  838MPD2    H112321   0.903   2.825  11.093 -3.5990  0.6569 -0.5793
  838MPD2    H212322   1.182   3.105  10.964  0.0732 -2.1362 -1.5613
  838MPD2    H312323   1.095   2.875  11.009  0.6383 -0.0576  0.1423
  838MPD2     N12324   0.707   3.001  11.186  0.3828 -0.8115 -0.4391
  838MPD2    H512325   0.649   3.078  11.218 -1.7701 -1.9409 -1.6984
  838MPD2    N112326   1.028   3.323  11.023  0.1284 -0.1460  0.5711
  838MPD2    H712327   0.976   3.395  11.071  2.1790  1.9142 -0.2858
  839MPD2     C12328   0.974   3.154  11.644  0.2298 -0.4703 -0.1990
  839MPD2    C112329   1.013   3.100  11.527  0.1240 -0.4845 -0.2229
  839MPD2    C212330   1.072   3.184  11.434 -0.0902 -0.3442  0.2144
  839MPD2    C312331   1.078   3.322  11.457 -0.6239 -0.3324  0.6210
  839MPD2    C412332   1.040   3.373  11.580  0.5124  0.5901  0.1687
  839MPD2    C512333   0.975   3.291  11.668  0.6630 -0.5454  0.1623
  839MPD2     H12334   1.096   3.146  11.335  2.1880 -0.1697  0.6964
  839MPD2    H112335   1.057   3.477  11.606  2.4646 -0.1880  1.9909
  839MPD2    H212336   0.927   3.093  11.720 -0.3954 -1.8536 -1.7194
  839MPD2    H312337   0.949   3.321  11.769 -0.4685 -0.0368 -0.2755
  839MPD2     N12338   1.128   3.406  11.354  0.5538  0.1514  0.0193
  839MPD2    H512339   1.144   3.367  11.261  0.4895 -0.4717  0.2711
  839MPD2    N112340   1.008   2.965  11.490  0.8385 -0.1371 -0.1519
  839MPD2    H712341   1.063   2.931  11.412  2.0060 -0.7163  0.9191
  840MPD2     C12342   1.007   1.124  10.017 -0.2398 -0.0349  0.2324
  840MPD2    C112343   1.051   1.040  10.113  0.6513  0.1700  0.2891
  840MPD2    C212344   1.112   1.097  10.222  0.0820  0.8912  0.4626
  840MPD2    C312345   1.162   1.235  10.220 -0.5877  0.0694  0.4800
  840MPD2    C412346   1.130   1.313  10.112 -0.3574  0.8756  0.7579
  840MPD2    C512347   1.059   1.249  10.014 -0.7052 -0.6083 -0.6398
  840MPD2     H12348   1.124   1.042  10.315 -1.8313 -0.9845 -0.4033
  840MPD2    H112349   1.134   1.420  10.103 -1.1169  0.8187 -0.2790
  840MPD2    H212350   0.963   1.094   9.923  0.2902 -2.5707  0.8014
  840MPD2    H312351   1.027   1.318   9.938 -0.5073 -1.4481 -1.4872
  840MPD2     N12352   1.224   1.302  10.327  0.0891 -0.1571  0.1299
  840MPD2    H512353   1.255   1.396  10.305 -0.2738  0.2120  1.2115
  840MPD2    N112354   0.996   0.908  10.096 -0.1241 -0.2160  0.2113
  840MPD2    H712355   0.946   0.872  10.016 -0.9973  0.5231  0.4145
  841MPD2     C12356   0.109   0.551  14.863 -0.0756 -0.9307 -0.1167
  841MPD2    C112357   0.172   0.474  14.773 -0.3514 -0.4529  0.1781
  841MPD2    C212358   0.288   0.517  14.708 -0.7145  0.2723 -0.6516
  841MPD2    C312359   0.326   0.649  14.720 -0.0663 -0.7365  0.0820
  841MPD2    C412360   0.262   0.727  14.818 -0.1463  0.4015 -0.6578
  841MPD2    C512361   0.156   0.678  14.890  0.0761  0.2625  0.0512
  841MPD2     H12362   0.337   0.453  14.636 -1.5046  0.7255 -1.5857
  841MPD2    H112363   0.289   0.830  14.837 -0.1262  0.4700 -1.0705
  841MPD2    H212364   0.019   0.529  14.919  1.1030 -2.4819  1.1673
  841MPD2    H312365   0.113   0.733  14.973 -0.5555  1.1790 -0.8825
  841MPD2     N12366   0.425   0.709  14.636  0.0037  0.4081  0.0055
  841MPD2    H512367   0.431   0.809  14.650  1.1505  0.4385 -0.7074
  841MPD2    N112368   0.123   0.344  14.733  0.0728  0.0076  0.0807
  841MPD2    H712369   0.181   0.301  14.662 -1.4075  2.2407 -2.5003
  842MPD2     C12370   1.327   2.143  17.010 -0.4143 -0.3042  0.1032
  842MPD2    C112371   1.226   2.056  17.051  0.4535  0.4396  0.0713
  842MPD2    C212372   1.198   2.047  17.186  0.1290 -0.3002 -0.2416
  842MPD2    C312373   1.248   2.142  17.278  0.5498 -0.0910 -0.1752
  842MPD2    C412374   1.341   2.237  17.234 -0.4152 -0.8763  0.7898
  842MPD2    C512375   1.383   2.231  17.102 -0.5317 -0.5186  0.2874
  842MPD2     H12376   1.115   1.983  17.216  1.6172 -1.7352  0.8383
  842MPD2    H112377   1.389   2.301  17.307  0.3738 -1.6565  0.9432
  842MPD2    H212378   1.364   2.144  16.908  1.5478  1.5814  0.8467
  842MPD2    H312379   1.459   2.299  17.066  1.5440 -3.2117 -0.3700
  842MPD2     N12380   1.202   2.151  17.410  0.1631 -0.2597  0.3066
  842MPD2    H512381   1.245   2.222  17.468 -0.2894  0.7678 -0.5987
  842MPD2    N112382   1.150   1.987  16.955 -0.3398  0.4734 -0.0138
  842MPD2    H712383   1.180   2.001  16.859  0.1358  0.3607  0.1210
  843MPD2     C12384   2.341   2.276   0.259 -0.1574  0.4283  0.7712
  843MPD2    C112385   2.386   2.187   0.168  0.1116 -0.2277 -0.0433
  843MPD2    C212386   2.514   2.215   0.114 -0.1767 -0.4748 -0.4078
  843MPD2    C312387   2.593   2.322   0.151 -0.1985 -0.3396 -0.3297
  843MPD2    C412388   2.542   2.415   0.237  0.0197  0.0631  0.0355
  843MPD2    C512389   2.415   2.387   0.289 -0.8211  0.9826 -0.2062
  843MPD2     H12390   2.542   2.146   0.035  1.9994  1.0036 -0.9250
  843MPD2    H112391   2.588   2.512   0.254 -0.1241  0.0133  0.6908
  843MPD2    H212392   2.244   2.262   0.305 -0.6126  1.0360 -0.0280
  843MPD2    H312393   2.384   2.463   0.359 -0.2695  1.0516 -0.0439
  843MPD2     N12394   2.723   2.351   0.096 -0.0224 -0.0743 -0.5425
  843MPD2    H512395   2.755   2.446   0.112  0.8134 -0.5218  0.4575
  843MPD2    N112396   2.304   2.077   0.137  0.3839 -0.4792 -0.0619
  843MPD2    H712397   2.211   2.073   0.176  0.0463 -1.1193 -0.9388
  844MPD2     C12398   1.536   1.499  16.323 -0.3515  0.8746 -0.3580
  844MPD2    C112399   1.577   1.372  16.350  0.2026  0.0706 -0.2036
  844MPD2    C212400   1.669   1.348  16.453 -0.4131 -0.1820  0.6849
  844MPD2    C312401   1.713   1.450  16.535 -0.1941  0.3238 -1.0500
  844MPD2    C412402   1.660   1.573  16.511 -0.4338  0.7454 -0.0417
  844MPD2    C512403   1.575   1.599  16.404 -0.1858  0.1483  0.1654
  844MPD2     H12404   1.715   1.251  16.469  0.1507 -0.6003 -3.4184
  844MPD2    H112405   1.686   1.661  16.569 -0.1866 -0.5181  1.7425
  844MPD2    H212406   1.469   1.525  16.242 -1.1159 -0.9054 -0.3094
  844MPD2    H312407   1.546   1.701  16.380  0.2723  0.5858  1.4654
  844MPD2     N12408   1.820   1.426  16.635  0.0516 -0.4075 -0.3937
  844MPD2    H512409   1.839   1.328  16.656  1.1073  0.6734  3.5058
  844MPD2    N112410   1.539   1.268  16.259  0.4573 -1.0023 -0.1307
  844MPD2    H712411   1.489   1.298  16.176  1.4329  1.3208  0.1313
  845MPD2     C12412   2.328   2.106  17.067  0.5937  0.3113  0.4786
  845MPD2    C112413   2.204   2.059  17.097 -0.0034  0.9443 -0.5568
  845MPD2    C212414   2.191   1.920  17.087 -0.2417 -0.8134  0.1726
  845MPD2    C312415   2.282   1.840  17.026  1.2775 -0.3056  0.3884
  845MPD2    C412416   2.399   1.900  16.986 -0.6996 -0.4837  0.0714
  845MPD2    C512417   2.426   2.029  17.011 -0.6407  0.8236 -0.5370
  845MPD2     H12418   2.097   1.873  17.113 -1.8328  1.9135 -0.6120
  845MPD2    H112419   2.476   1.845  16.932 -0.8184  0.6710 -1.2661
  845MPD2    H212420   2.349   2.211  17.083 -2.6080  1.1142 -0.5010
  845MPD2    H312421   2.519   2.067  16.971  0.1335  0.9877  1.4301
  845MPD2     N12422   2.237   1.714  16.988 -0.1012  0.2943  0.1580
  845MPD2    H512423   2.136   1.699  16.996  0.2547 -1.2916  1.8036
  845MPD2    N112424   2.108   2.151  17.142 -0.0148  0.7903 -0.2034
  845MPD2    H712425   2.146   2.245  17.148 -2.4484  1.7858 -0.4803
  846MPD2     C12426   3.681   2.459  13.398 -0.1876  0.5898  0.1412
  846MPD2    C112427   3.604   2.567  13.430 -0.8060 -0.8055 -0.2658
  846MPD2    C212428   3.576   2.584  13.561  0.3147  0.4567 -0.4323
  846MPD2    C312429   3.607   2.500  13.657  0.6381 -0.6597  0.3467
  846MPD2    C412430   3.684   2.388  13.630  0.1939  0.1634 -0.7496
  846MPD2    C512431   3.722   2.377  13.499 -0.1812 -0.1853  0.5391
  846MPD2     H12432   3.527   2.678  13.583  1.8884  1.4236 -1.0355
  846MPD2    H112433   3.723   2.321  13.706 -1.0805  1.0578  0.6920
  846MPD2    H212434   3.713   2.428  13.299  0.3211 -1.2876  0.9089
  846MPD2    H312435   3.799   2.307  13.471 -0.1705  0.3759 -0.8388
  846MPD2     N12436   3.574   2.524  13.790  0.0382 -0.0677 -0.2100
  846MPD2    H512437   3.520   2.609  13.805 -1.7069 -1.1943 -0.0657
  846MPD2    N112438   3.573   2.672  13.335  0.3589 -0.0646  0.2477
  846MPD2    H712439   3.526   2.752  13.378 -1.1477  0.1128 -1.7536
  847MPD2     C12440   3.765   3.244  13.823 -0.2243  0.2456  0.7828
  847MPD2    C112441   3.731   3.285  13.954 -0.5664  0.7538 -0.0184
  847MPD2    C212442   3.790   3.230  14.063 -0.2321  0.3849 -0.3543
  847MPD2    C312443   3.887   3.131  14.051 -0.1047 -0.3982  0.3646
  847MPD2    C412444   3.922   3.090  13.921 -0.1867 -0.3293 -0.2981
  847MPD2    C512445   3.864   3.148  13.810 -0.2940  0.3080  0.4550
  847MPD2     H12446   3.768   3.263  14.164  0.5328 -0.8438  0.2181
  847MPD2    H112447   4.001   3.018  13.905  0.3029  0.5983 -2.0292
  847MPD2    H212448   3.731   3.292  13.732  0.4993  2.0132  1.4506
  847MPD2    H312449   3.896   3.111  13.713  0.7131 -0.0567  0.9208
  847MPD2     N12450   3.958   3.075  14.162  0.5743  0.8521 -0.1390
  847MPD2    H512451   4.045   3.027  14.141 -0.7328 -0.8846 -1.5885
  847MPD2    N112452   3.644   3.391  13.976 -0.8596 -0.1947  0.2267
  847MPD2    H712453   3.634   3.427  14.070 -0.2813  0.0103  0.2102
  848MPD2     C12454   1.265   1.858  16.239 -0.1828  0.1516 -0.1290
  848MPD2    C112455   1.316   1.891  16.363  0.2729  0.1264  0.6603
  848MPD2    C212456   1.395   2.005  16.381 -0.2200  0.6632 -0.1743
  848MPD2    C312457   1.412   2.081  16.263 -0.3486 -0.6780 -0.2563
  848MPD2    C412458   1.361   2.045  16.142  0.1467 -0.0161 -0.2060
  848MPD2    C512459   1.287   1.930  16.132  0.2950  0.4604 -0.2031
  848MPD2     H12460   1.447   2.033  16.472 -0.3599  0.9645 -0.1860
  848MPD2    H112461   1.371   2.108  16.055  1.8051  0.6394  0.4644
  848MPD2    H212462   1.202   1.770  16.233  2.2292 -1.7681  2.4031
  848MPD2    H312463   1.235   1.907  16.041 -3.6724  2.1287  1.6515
  848MPD2     N12464   1.495   2.196  16.266  0.3711 -0.2292  0.2000
  848MPD2    H512465   1.500   2.249  16.179 -1.6131 -0.4602 -0.0472
  848MPD2    N112466   1.283   1.816  16.480 -0.6149 -0.7130 -0.0897
  848MPD2    H712467   1.339   1.825  16.564 -0.9299  0.2822  0.0105
  849MPD2     C12468   0.654   1.333  14.124  0.2251 -0.2037 -0.4238
  849MPD2    C112469   0.730   1.426  14.190  1.1082  0.2346  0.0716
  849MPD2    C212470   0.840   1.383  14.255  0.2279 -0.2197 -0.4612
  849MPD2    C312471   0.881   1.248  14.245  0.1989  0.3855  0.2835
  849MPD2    C412472   0.805   1.156  14.179 -0.1822 -0.7729  0.5802
  849MPD2    C512473   0.687   1.204  14.117  0.2826  0.4329  0.3812
  849MPD2     H12474   0.896   1.463  14.305  0.0562 -1.0569  1.0717
  849MPD2    H112475   0.840   1.055  14.160  0.7435 -0.0850 -1.3660
  849MPD2    H212476   0.576   1.368  14.058 -0.3563  0.5658  0.6768
  849MPD2    H312477   0.623   1.152  14.048 -0.1948  1.0924  0.3268
  849MPD2     N12478   1.005   1.205  14.295 -0.8384  0.2435  0.1045
  849MPD2    H512479   1.023   1.111  14.260 -0.9792  0.1366  0.3215
  849MPD2    N112480   0.691   1.560  14.165 -0.1988  0.5649  0.5323
  849MPD2    H712481   0.639   1.570  14.079 -0.3040  1.8872  0.7417
  850MPD2     C12482   3.339   4.708  14.909  0.1112 -0.5172 -0.4491
  850MPD2    C112483   3.423   0.080  14.970  0.3073 -0.2110  0.0270
  850MPD2    C212484   3.560   0.077  14.941  0.4471 -0.2995  0.8137
  850MPD2    C312485   3.606   4.710  14.837 -0.0427 -0.8272  0.4586
  850MPD2    C412486   3.515   4.622  14.779 -0.1912 -0.5190  0.4290
  850MPD2    C512487   3.382   4.619  14.815  0.8876 -0.2937  0.5409
  850MPD2     H12488   3.625   0.144  14.995 -0.5433  1.3690 -0.0746
  850MPD2    H112489   3.556   4.553  14.707 -0.3200  0.9881 -1.0709
  850MPD2    H212490   3.233   4.700  14.926  0.2537  1.3781  1.3145
  850MPD2    H312491   3.309   4.553  14.772  1.3878 -0.3358 -0.2454
  850MPD2     N12492   3.744   4.693  14.806  0.0206  0.7530  0.1498
  850MPD2    H512493   3.772   4.621  14.741  2.0328  1.8249 -0.1845
  850MPD2    N112494   3.369   0.156  15.075  0.1794  0.1896  0.0266
  850MPD2    H712495   3.276   0.139  15.112 -0.2403  0.6650 -0.8045
  851MPD2     C12496   3.840   4.519  15.277  0.0126 -0.1314  0.4160
  851MPD2    C112497   3.710   4.472  15.294  0.8592 -0.3556  0.2171
  851MPD2    C212498   3.667   4.353  15.237 -0.3853 -0.5368 -0.5658
  851MPD2    C312499   3.756   4.269  15.169  0.1229 -0.1806 -0.0026
  851MPD2    C412500   3.883   4.321  15.152 -0.0023  0.0533 -0.0785
  851MPD2    C512501   3.923   4.439  15.211  0.0655 -0.3572  0.1625
  851MPD2     H12502   3.565   4.318  15.252 -0.4169 -0.0213  0.4286
  851MPD2    H112503   3.961   4.256  15.114  0.6346 -0.3590  1.9349
  851MPD2    H212504   3.873   4.615  15.316  0.5221 -0.3179  0.4445
  851MPD2    H312505   4.026   4.469  15.199  0.1191 -0.2985  0.7890
  851MPD2     N12506   3.707   4.153  15.098 -0.4602 -0.0651  0.1090
  851MPD2    H512507   3.614   4.119  15.119  0.0214 -2.7918 -2.2375
  851MPD2    N112508   3.618   4.570  15.331  0.6892 -0.4319  0.1589
  851MPD2    H712509   3.667   4.657  15.349  0.4320 -0.5707  1.5893
  852MPD2     C12510   3.760   3.386  10.731  0.0843 -0.2300 -0.4026
  852MPD2    C112511   3.771   3.520  10.762  0.3705  0.6838 -0.4912
  852MPD2    C212512   3.839   3.598  10.672 -0.2125  0.5011  0.1438
  852MPD2    C312513   3.916   3.547  10.561 -0.5016 -0.2531 -0.1127
  852MPD2    C412514   3.922   3.410  10.550  0.3159  0.2984 -0.1112
  852MPD2    C512515   3.840   3.333  10.631 -0.6761 -0.5595 -0.4017
  852MPD2     H12516   3.839   3.705  10.691  1.2195  0.8753 -1.9276
  852MPD2    H112517   3.980   3.360  10.473 -4.2824 -1.6355 -2.3693
  852MPD2    H212518   3.695   3.320  10.787 -0.0950 -0.3565 -0.7607
  852MPD2    H312519   3.816   3.228  10.613  0.8457 -1.1148  0.8111
  852MPD2     N12520   3.995   3.634  10.485 -0.0923  0.2471 -1.2196
  852MPD2    H512521   3.997   3.728  10.522  1.8865 -0.2732 -0.0028
  852MPD2    N112522   3.713   3.574  10.877 -0.3658  0.0093  0.2571
  852MPD2    H712523   3.724   3.674  10.892 -0.5021  0.1399 -0.4924
  853MPD2     C12524   0.801   2.140  12.412  0.2387  0.1196 -0.4278
  853MPD2    C112525   0.693   2.187  12.349 -0.3178 -0.4580  0.2137
  853MPD2    C212526   0.671   2.163  12.212 -0.0778  0.6157 -0.4217
  853MPD2    C312527   0.764   2.093  12.144 -0.4692 -0.7082  0.2113
  853MPD2    C412528   0.868   2.036  12.212 -0.5709  0.7322  0.4114
  853MPD2    C512529   0.892   2.065  12.343 -0.5588  0.1884  0.6549
  853MPD2     H12530   0.581   2.191  12.158  0.5097  2.0114 -0.6819
  853MPD2    H112531   0.950   1.986  12.162  0.0859  0.6171  1.6038
  853MPD2    H212532   0.825   2.143  12.518  0.4319 -0.6311 -0.4535
  853MPD2    H312533   0.977   2.014  12.388 -0.6037 -0.2887  0.1968
  853MPD2     N12534   0.763   2.064  12.004  0.4142  0.0029  0.2797
  853MPD2    H512535   0.842   2.018  11.960  1.2960  2.1460 -0.3773
  853MPD2    N112536   0.598   2.251  12.430  0.7165 -0.0491 -0.4668
  853MPD2    H712537   0.624   2.274  12.525 -1.3536 -0.0914  0.1284
  854MPD2     C12538   2.945   2.518  12.744  0.0471  0.2976 -0.0704
  854MPD2    C112539   2.841   2.456  12.805  0.0978 -0.2191  0.0092
  854MPD2    C212540   2.854   2.371  12.914 -0.5870 -0.2735  0.0937
  854MPD2    C312541   2.987   2.339  12.955 -0.2772 -0.1841 -0.1587
  854MPD2    C412542   3.097   2.394  12.886 -0.8425  0.2607  0.0112
  854MPD2    C512543   3.070   2.478  12.785  0.0913  0.2368  0.4019
  854MPD2     H12544   2.769   2.333  12.971 -0.2605 -1.3786 -0.1519
  854MPD2    H112545   3.197   2.357  12.904 -1.0256 -0.6021 -0.7991
  854MPD2    H212546   2.934   2.570  12.650 -0.2584  0.3136 -0.0271
  854MPD2    H312547   3.150   2.507  12.718 -0.3113 -1.0817 -0.6457
  854MPD2     N12548   3.018   2.271  13.073  0.0107  0.7979  0.6596
  854MPD2    H512549   3.113   2.242  13.091  0.5443  1.2815 -1.4364
  854MPD2    N112550   2.718   2.489  12.753  0.1192  0.1847  0.5045
  854MPD2    H712551   2.715   2.543  12.667  1.0518 -1.1648 -0.3913
  855MPD2     C12552   2.362   1.982  13.635 -0.2008  1.2363 -0.0373
  855MPD2    C112553   2.477   1.920  13.692  0.0657  0.3913  0.2451
  855MPD2    C212554   2.601   1.973  13.669 -0.1871 -0.7744  0.2983
  855MPD2    C312555   2.625   2.086  13.591 -0.1546 -0.0547  0.3748
  855MPD2    C412556   2.516   2.151  13.544 -0.0747  0.5541 -0.1772
  855MPD2    C512557   2.385   2.100  13.564  0.3220  0.5490  0.6913
  855MPD2     H12558   2.680   1.907  13.706  1.2008 -1.5638 -4.0296
  855MPD2    H112559   2.519   2.243  13.486  3.8069  0.5943  0.0910
  855MPD2    H212560   2.262   1.949  13.659  0.4800 -0.0279  1.0680
  855MPD2    H312561   2.301   2.157  13.527 -1.2250 -1.5368  0.9844
  855MPD2     N12562   2.752   2.138  13.560  0.3921 -0.5197 -0.0952
  855MPD2    H512563   2.758   2.220  13.500  2.2008  0.5288  1.5001
  855MPD2    N112564   2.465   1.807  13.775 -0.3352  0.3203 -0.3898
  855MPD2    H712565   2.546   1.777  13.828 -0.5077  0.5327 -0.0062
  856MPD2     C12566   4.480   2.823  13.859 -0.5896 -0.6360  0.3794
  856MPD2    C112567   4.553   2.932  13.910  0.0405 -0.0217 -0.3311
  856MPD2    C212568   4.501   3.062  13.912  0.4453 -0.0605  0.0085
  856MPD2    C312569   4.364   3.076  13.869  0.0159 -0.6799  0.6270
  856MPD2    C412570   4.299   2.971  13.809  0.4870 -0.0570 -0.0940
  856MPD2    C512571   4.362   2.845  13.797 -0.1746 -0.1139  0.2335
  856MPD2     H12572   4.564   3.132  13.965  0.8546  0.7486 -1.5386
  856MPD2    H112573   4.196   2.983  13.776  0.1728 -1.7739  0.2873
  856MPD2    H212574   4.501   2.717  13.875 -3.4069 -1.2201  0.3077
  856MPD2    H312575   4.297   2.760  13.776  0.3641 -1.2051  2.9682
  856MPD2     N12576   4.292   3.199  13.873 -0.2653  0.1494 -0.2223
  856MPD2    H512577   4.198   3.203  13.835 -0.1564  0.9749 -0.4039
  856MPD2    N112578   4.682   2.909  13.960  0.4800  0.3637 -0.2342
  856MPD2    H712579   0.022   2.989  13.981  1.9263 -1.0798  1.1665
  857MPD2     C12580   1.293   0.587  12.604  0.2123  0.0045 -0.0684
  857MPD2    C112581   1.417   0.536  12.660 -0.5911 -0.4174  0.6501
  857MPD2    C212582   1.498   0.629  12.719 -0.1613 -0.1995 -0.2873
  857MPD2    C312583   1.468   0.763  12.726  0.0228 -0.3139  0.4571
  857MPD2    C412584   1.351   0.812  12.666 -0.0670  0.6476  0.6047
  857MPD2    C512585   1.269   0.722  12.605  0.2816 -0.0609  0.1413
  857MPD2     H12586   1.592   0.596  12.761 -0.1728  1.0115  0.6818
  857MPD2    H112587   1.334   0.915  12.640  3.4323  1.5338  1.7857
  857MPD2    H212588   1.220   0.522  12.557  0.4011  0.4996 -1.0477
  857MPD2    H312589   1.178   0.757  12.557  0.3865 -1.3203 -0.9446
  857MPD2     N12590   1.555   0.846  12.794 -0.2416  0.1846  0.1098
  857MPD2    H512591   1.640   0.802  12.828 -0.0304  1.8572  1.7644
  857MPD2    N112592   1.441   0.397  12.650 -0.6163 -0.3912  0.0182
  857MPD2    H712593   1.362   0.343  12.617 -0.4971  0.2968 -1.4009
  858MPD2     C12594   1.497   3.712  16.710 -0.2031  0.0522 -0.7403
  858MPD2    C112595   1.631   3.731  16.728  0.0024  0.0208  0.2980
  858MPD2    C212596   1.670   3.840  16.805 -0.2475 -0.5922  0.1023
  858MPD2    C312597   1.579   3.926  16.873 -0.0207  0.3393  0.4069
  858MPD2    C412598   1.446   3.896  16.854  0.4114  0.4145  0.3455
  858MPD2    C512599   1.407   3.799  16.766  0.5142 -0.7237  0.2921
  858MPD2     H12600   1.777   3.856  16.804 -0.5334  1.3014  0.4909
  858MPD2    H112601   1.367   3.949  16.905  0.9269  1.3631  0.1532
  858MPD2    H212602   1.466   3.631  16.645 -1.5632  0.8637 -1.0947
  858MPD2    H312603   1.302   3.772  16.767 -0.0935  1.6179 -0.2571
  858MPD2     N12604   1.606   4.043  16.941 -0.2777 -0.1448 -0.6627
  858MPD2    H512605   1.527   4.094  16.980  2.6180  2.8818  1.2093
  858MPD2    N112606   1.714   3.668  16.635 -0.0040 -0.0376 -0.3315
  858MPD2    H712607   1.664   3.624  16.558 -2.6431  1.7686  0.3533
  859MPD2     C12608   0.508   1.015  15.029 -0.4123  0.1281  0.4649
  859MPD2    C112609   0.608   0.988  14.939  0.1178 -0.5354 -0.0667
  859MPD2    C212610   0.659   0.861  14.924 -0.5364  0.0754  0.0912
  859MPD2    C312611   0.589   0.757  14.988  0.3041  0.3540  0.1927
  859MPD2    C412612   0.477   0.782  15.072  0.1604  0.4481 -0.2507
  859MPD2    C512613   0.440   0.912  15.096 -0.2486  0.0146 -0.6123
  859MPD2     H12614   0.745   0.851  14.858  0.4671  1.7454  1.1353
  859MPD2    H112615   0.433   0.698  15.124  0.6813 -0.4789 -1.3200
  859MPD2    H212616   0.463   1.112  15.050  2.1716  0.6846  3.4577
  859MPD2    H312617   0.362   0.928  15.170  1.6965  0.8687  1.2737
  859MPD2     N12618   0.615   0.620  14.955 -0.1799  0.2115  0.0335
  859MPD2    H512619   0.563   0.548  15.005 -0.3897  1.3144  1.4198
  859MPD2    N112620   0.664   1.091  14.858 -0.1653  0.6681 -0.2847
  859MPD2    H712621   0.753   1.070  14.813  1.2563  0.2667  2.6276
  860MPD2     C12622   2.369   1.663  11.785 -0.5114  0.3247  0.2217
  860MPD2    C112623   2.490   1.699  11.833  0.2075 -0.2629  0.3116
  860MPD2    C212624   2.506   1.702  11.972 -0.3968 -0.6593 -0.1962
  860MPD2    C312625   2.403   1.679  12.066  0.1930  0.9311  0.6699
  860MPD2    C412626   2.285   1.635  12.009  1.2813  0.4797 -0.2842
  860MPD2    C512627   2.271   1.636  11.878 -0.6813  0.1931  0.4996
  860MPD2     H12628   2.596   1.734  12.022 -1.0664 -0.4185  0.8428
  860MPD2    H112629   2.198   1.611  12.069  2.8001  0.1394  1.7799
  860MPD2    H212630   2.353   1.647  11.679 -0.0615  1.0013  0.0507
  860MPD2    H312631   2.178   1.608  11.830 -1.4789  0.3664  1.9716
  860MPD2     N12632   2.425   1.711  12.204 -0.1632  0.3685  0.1212
  860MPD2    H512633   2.512   1.758  12.228 -0.3551  0.9767 -0.3672
  860MPD2    N112634   2.599   1.746  11.757  0.0597 -0.3188  0.6008
  860MPD2    H712635   2.674   1.788  11.811 -0.9637 -1.3611  2.8399
  861MPD2     C12636   2.021   4.717  11.065 -0.3343 -0.4482  0.8820
  861MPD2    C112637   2.041   0.118  11.120  0.2655 -0.4117  1.0021
  861MPD2    C212638   2.008   0.227  11.046  0.1555  0.2584  0.2367
  861MPD2    C312639   1.947   0.215  10.923 -0.0486 -0.3801 -0.8506
  861MPD2    C412640   1.920   0.086  10.867  0.0908 -0.2641 -0.6306
  861MPD2    C512641   1.960   4.698  10.943 -0.2252  0.6702 -0.5873
  861MPD2     H12642   2.017   0.328  11.084  2.1849  0.3943 -0.6047
  861MPD2    H112643   1.872   0.083  10.770 -0.3366 -2.2989 -0.3563
  861MPD2    H212644   2.041   4.627  11.121  0.6693 -0.9539 -0.2846
  861MPD2    H312645   1.946   4.598  10.903  0.1065  0.1789  0.5155
  861MPD2     N12646   1.925   0.324  10.837 -0.0250 -0.3859  0.2203
  861MPD2    H512647   1.888   0.307  10.744  0.7967 -1.5580  0.1095
  861MPD2    N112648   2.111   0.138  11.241 -0.1063 -0.3686  0.9318
  861MPD2    H712649   2.134   0.235  11.261 -2.3978  0.3584  0.0072
  862MPD2     C12650   1.425   0.485  10.348  0.3422  0.2617  0.2029
  862MPD2    C112651   1.530   0.430  10.422 -0.3788 -0.6132 -0.3628
  862MPD2    C212652   1.601   0.325  10.373 -0.4402 -0.1898 -0.4042
  862MPD2    C312653   1.584   0.263  10.251  0.2730  0.7450  0.5325
  862MPD2    C412654   1.480   0.310  10.182  0.1214  0.0588 -0.5486
  862MPD2    C512655   1.408   0.420  10.224 -0.3335  0.1492 -0.0044
  862MPD2     H12656   1.678   0.274  10.430  0.9162  1.1407 -1.0565
  862MPD2    H112657   1.469   0.258  10.087 -0.4618 -0.5039 -0.1745
  862MPD2    H212658   1.362   0.564  10.388  0.9843 -0.5322  2.8122
  862MPD2    H312659   1.326   0.440  10.156  0.3201 -0.0120 -0.8389
  862MPD2     N12660   1.660   0.158  10.200 -0.3996 -0.4492 -0.7034
  862MPD2    H512661   1.615   0.095  10.134  0.3789  0.0310 -1.6978
  862MPD2    N112662   1.579   0.474  10.546 -0.0247  0.0640 -0.4837
  862MPD2    H712663   1.655   0.418  10.583 -2.1015 -0.6328  2.6869
  863MPD2     C12664   0.510   3.604  16.622 -0.2193  0.0087  0.4389
  863MPD2    C112665   0.408   3.548  16.691  0.0934  0.3190 -0.5272
  863MPD2    C212666   0.435   3.482  16.815 -0.2798 -0.6258  0.2150
  863MPD2    C312667   0.566   3.483  16.863 -0.2885  0.6811  0.6303
  863MPD2    C412668   0.662   3.549  16.797  0.5179  0.1080 -0.7243
  863MPD2    C512669   0.640   3.605  16.674 -0.6199 -0.7458 -0.1699
  863MPD2     H12670   0.351   3.440  16.871 -2.5300 -0.0291 -2.7094
  863MPD2    H112671   0.765   3.558  16.829 -0.1724  0.0481  1.5421
  863MPD2    H212672   0.486   3.649  16.526 -0.5559 -0.6948  0.1933
  863MPD2    H312673   0.713   3.651  16.608 -0.2850 -0.4632  0.4043
  863MPD2     N12674   0.613   3.400  16.979 -0.6466 -0.0452  0.1449
  863MPD2    H512675   0.712   3.409  16.997 -0.9115  1.6854  0.7266
  863MPD2    N112676   0.279   3.545  16.629 -0.3889  0.4234  0.4394
  863MPD2    H712677   0.271   3.587  16.537  1.1720 -2.2402 -0.9254
  864MPD2     C12678   0.365   4.292  16.951 -0.7130  0.0732 -0.5190
  864MPD2    C112679   0.500   4.271  16.960  0.2333 -0.3365  0.9474
  864MPD2    C212680   0.591   4.350  16.896 -0.3006  0.1904  0.0996
  864MPD2    C312681   0.547   4.449  16.819 -0.2745  0.9103  0.1303
  864MPD2    C412682   0.417   4.474  16.811  0.4684  0.1021  0.3514
  864MPD2    C512683   0.319   4.400  16.874 -0.2489 -0.0425 -0.0307
  864MPD2     H12684   0.698   4.333  16.906 -0.8561 -2.1604  1.9725
  864MPD2    H112685   0.372   4.552  16.750  1.4490  0.4343  0.0534
  864MPD2    H212686   0.294   4.224  16.996  0.9465  0.5128  2.7266
  864MPD2    H312687   0.215   4.417  16.851 -0.4355 -0.4339  0.5385
  864MPD2     N12688   0.625   4.539  16.756 -0.0122 -0.1031  0.6652
  864MPD2    H512689   0.575   4.611  16.704  1.3113  1.5221  1.6700
  864MPD2    N112690   0.559   4.155  17.019  0.4989  0.1190  0.3559
  864MPD2    H712691   0.657   4.169  17.042  0.6691  0.7881 -0.7464
  865MPD2     C12692   1.013   0.052  16.011 -0.4751 -0.1462  0.0047
  865MPD2    C112693   0.971   4.684  16.113 -0.1584  0.2234 -0.8824
  865MPD2    C212694   0.877   0.009  16.201 -0.0793 -0.6096 -0.2918
  865MPD2    C312695   0.829   0.145  16.202 -0.4030 -0.3743 -0.0929
  865MPD2    C412696   0.861   0.217  16.089  0.2366 -0.4146  0.3189
  865MPD2    C512697   0.951   0.174  15.994  0.1085 -0.4668 -0.0531
  865MPD2     H12698   0.837   4.662  16.277  0.0755  1.7405  1.8117
  865MPD2    H112699   0.825   0.317  16.065  0.0357 -0.5257  0.1578
  865MPD2    H212700   1.090   0.030  15.938  0.0220  0.6258  0.2924
  865MPD2    H312701   0.991   0.238  15.916 -0.7446  0.8291  0.5746
  865MPD2     N12702   0.744   0.213  16.296 -0.1582 -0.3164  0.0052
  865MPD2    H512703   0.711   0.302  16.259 -2.7140 -1.0107  0.6339
  865MPD2    N112704   1.032   4.557  16.132  0.2824  0.3434 -0.3646
  865MPD2    H712705   1.120   4.538  16.085 -0.2891  0.1549 -1.3670
  866MPD2     C12706   2.917   0.611  11.510 -0.2285 -0.7960 -0.0349
  866MPD2    C112707   2.912   0.617  11.373  0.2563  0.2117  0.3236
  866MPD2    C212708   2.796   0.660  11.313 -0.2873  1.1741 -0.2494
  866MPD2    C312709   2.680   0.679  11.391  0.6119 -0.6227  0.4178
  866MPD2    C412710   2.687   0.661  11.525  0.5136  0.6509 -0.3059
  866MPD2    C512711   2.802   0.626  11.585  0.5324  0.0505 -0.0444
  866MPD2     H12712   2.790   0.667  11.205  5.4489  1.6751 -0.5330
  866MPD2    H112713   2.599   0.655  11.589 -0.4084 -0.9170 -1.7254
  866MPD2    H212714   3.009   0.578  11.558  0.2049 -2.7849 -2.2126
  866MPD2    H312715   2.800   0.600  11.690  0.9759 -0.0952 -0.0693
  866MPD2     N12716   2.562   0.734  11.338 -0.2075 -0.4034  0.0466
  866MPD2    H512717   2.497   0.772  11.407  1.6150  1.2316  0.8503
  866MPD2    N112718   3.036   0.590  11.300 -0.3466  0.1573  0.2712
  866MPD2    H712719   3.117   0.560  11.354 -0.6188  1.0160  1.1622
  867MPD2     C12720   4.293   4.591  16.746 -0.0503 -0.1259 -0.1255
  867MPD2    C112721   4.326   4.496  16.839 -0.0700  0.1738 -0.5001
  867MPD2    C212722   4.350   4.543  16.969 -0.3819 -0.1211  0.3162
  867MPD2    C312723   4.349   4.679  17.006 -0.4003  0.2408 -0.6477
  867MPD2    C412724   4.323   0.049  16.906  0.3634 -0.6811 -0.1382
  867MPD2    C512725   4.303   0.002  16.780  0.2140 -0.1011  0.4988
  867MPD2     H12726   4.363   4.463  17.041  1.3317  0.9291  1.1624
  867MPD2    H112727   4.328   0.156  16.923 -1.5240 -0.6473  0.2485
  867MPD2    H212728   4.255   4.563  16.649  0.3091 -1.2620  0.0648
  867MPD2    H312729   4.263   0.061  16.698  1.5408 -1.6424 -1.2524
  867MPD2     N12730   4.374   0.008  17.140 -0.1775 -0.8581 -0.3476
  867MPD2    H512731   4.360   0.108  17.155 -1.1742 -1.5011  3.1446
  867MPD2    N112732   4.320   4.362  16.803  0.1155  0.3725  0.2350
  867MPD2    H712733   4.293   4.342  16.708  0.6201 -0.9983  0.3772
  868MPD2     C12734   1.577   3.383  12.963 -0.2591  0.1886 -0.6957
  868MPD2    C112735   1.652   3.375  13.074 -0.0399  0.1890 -0.0123
  868MPD2    C212736   1.612   3.424  13.190  0.4137 -0.1337 -0.1444
  868MPD2    C312737   1.499   3.495  13.197  0.4139  0.7611 -0.2561
  868MPD2    C412738   1.419   3.513  13.086 -0.3600  0.0838  0.0404
  868MPD2    C512739   1.463   3.454  12.970  0.1323  0.2400  0.0585
  868MPD2     H12740   1.684   3.437  13.270 -2.1661  2.9264  1.6869
  868MPD2    H112741   1.320   3.557  13.085  0.7697  2.6354  3.2858
  868MPD2    H212742   1.604   3.334  12.870 -0.6512 -1.4046  0.0315
  868MPD2    H312743   1.397   3.485  12.890 -1.1345  0.8237  1.3140
  868MPD2     N12744   1.470   3.558  13.325 -0.6311 -0.4843 -0.5515
  868MPD2    H512745   1.519   3.525  13.408  0.9850  0.1120 -1.2611
  868MPD2    N112746   1.779   3.320  13.057 -0.0135  0.1572  0.5428
  868MPD2    H712747   1.805   3.318  12.959  0.5607 -3.3075  0.7911
  869MPD2     C12748   2.597   1.930   1.045  0.5257  0.2419  0.2637
  869MPD2    C112749   2.547   2.048   1.101  0.5111  0.2848  0.5064
  869MPD2    C212750   2.437   2.110   1.048  0.0338 -0.2994 -1.0067
  869MPD2    C312751   2.369   2.047   0.941  0.1022  0.5841  0.4625
  869MPD2    C412752   2.433   1.935   0.883 -0.2711  0.1233 -0.0917
  869MPD2    C512753   2.540   1.877   0.937 -0.3486 -0.4999  0.0109
  869MPD2     H12754   2.390   2.184   1.111  0.2172 -1.4276  0.4651
  869MPD2    H112755   2.379   1.888   0.802 -1.4478  0.0731  0.7221
  869MPD2    H212756   2.686   1.881   1.083  0.2127  0.3489  1.1175
  869MPD2    H312757   2.579   1.794   0.880  2.2339  1.1588 -0.6246
  869MPD2     N12758   2.242   2.086   0.891 -0.1868 -0.0581  0.0842
  869MPD2    H512759   2.198   2.028   0.819  1.3325 -1.0713 -0.0327
  869MPD2    N112760   2.617   2.096   1.215  0.5427 -0.1973 -0.1091
  869MPD2    H712761   2.683   2.029   1.254 -0.2107 -1.1545 -0.4872
  870MPD2     C12762   2.591   0.459   1.845 -0.2698 -0.9042  1.0910
  870MPD2    C112763   2.563   0.370   1.742  0.6920 -0.4075 -0.5273
  870MPD2    C212764   2.498   0.428   1.634  0.0565 -0.2353 -1.2481
  870MPD2    C312765   2.461   0.562   1.625  0.0392  0.5748 -0.4258
  870MPD2    C412766   2.480   0.639   1.734 -0.6222 -0.5076  0.1863
  870MPD2    C512767   2.554   0.588   1.837 -0.6224 -0.0740  0.5560
  870MPD2     H12768   2.495   0.366   1.545 -0.8368 -3.2813  0.9139
  870MPD2    H112769   2.459   0.744   1.749  0.5765 -0.1003 -1.0125
  870MPD2    H212770   2.652   0.433   1.932 -1.0761 -1.0281  1.6174
  870MPD2    H312771   2.587   0.652   1.918  0.3312 -0.2784  0.3235
  870MPD2     N12772   2.398   0.607   1.506 -0.2262  0.2203 -0.2326
  870MPD2    H512773   2.397   0.548   1.424  0.9626  1.6681 -1.2637
  870MPD2    N112774   2.632   0.245   1.753 -0.7169 -0.1705  0.1015
  870MPD2    H712775   2.690   0.218   1.831 -2.2661 -0.3831  1.1958
  871MPD2     C12776   3.096   4.013  16.404 -0.3415 -0.1444 -0.5684
  871MPD2    C112777   3.168   4.039  16.515  0.2135 -0.1592  0.2943
  871MPD2    C212778   3.289   3.988  16.539 -0.1282  0.2788 -0.3472
  871MPD2    C312779   3.347   3.914  16.445 -0.2508 -0.1157 -0.1257
  871MPD2    C412780   3.274   3.889  16.327  0.5715 -0.0372 -0.6293
  871MPD2    C512781   3.146   3.925  16.315 -0.6023 -0.4352  0.3643
  871MPD2     H12782   3.353   4.020  16.619  0.2272 -1.7961  0.2050
  871MPD2    H112783   3.308   3.819  16.252 -1.7706 -1.2658 -0.5350
  871MPD2    H212784   2.994   4.051  16.402  0.1403  1.0983 -1.7704
  871MPD2    H312785   3.094   3.895  16.225 -1.2745 -1.0197  0.9455
  871MPD2     N12786   3.486   3.881  16.460  0.3503  0.2014  0.0125
  871MPD2    H512787   3.527   3.891  16.552 -2.3265 -2.5175  1.4709
  871MPD2    N112788   3.109   4.139  16.602 -0.0163  0.2950 -0.4935
  871MPD2    H712789   3.043   4.203  16.559  0.3587  1.5519  0.7958
  872MPD2     C12790   4.553   2.219  14.234  0.3001  0.6972 -0.3036
  872MPD2    C112791   4.509   2.253  14.106 -0.4073 -0.4286 -0.7477
  872MPD2    C212792   4.380   2.212  14.065 -0.1628 -0.3230 -0.2824
  872MPD2    C312793   4.302   2.146  14.151  0.4423 -0.0293  0.0700
  872MPD2    C412794   4.340   2.125  14.280  0.7665 -0.3421 -0.8764
  872MPD2    C512795   4.464   2.155  14.315 -0.4275 -0.0389  0.2149
  872MPD2     H12796   4.365   2.203  13.958  1.4592  0.9191 -0.6267
  872MPD2    H112797   4.268   2.076  14.345  0.7636 -0.1205 -0.7137
  872MPD2    H212798   4.655   2.230  14.269 -0.3106  1.9412  1.0731
  872MPD2    H312799   4.490   2.138  14.419  0.0113  0.0596  0.1192
  872MPD2     N12800   4.176   2.094  14.114  1.0050 -0.1122 -0.2211
  872MPD2    H512801   4.124   2.062  14.195 -2.2161  1.4481 -1.6544
  872MPD2    N112802   4.589   2.316  14.008  0.7406 -0.7272  0.3587
  872MPD2    H712803   4.551   2.334  13.915 -1.1411  1.7897  1.6120
  873MPD2     C12804   1.008   2.713   1.164 -0.0744  0.4275  0.2183
  873MPD2    C112805   0.879   2.717   1.206 -0.3844  0.9468 -0.0871
  873MPD2    C212806   0.802   2.602   1.199  0.3686 -0.6573  0.1723
  873MPD2    C312807   0.859   2.483   1.172 -0.0911  0.3285 -0.2833
  873MPD2    C412808   0.993   2.478   1.135  0.7408  0.0272 -0.7957
  873MPD2    C512809   1.069   2.590   1.129 -0.4210 -0.4727  0.1170
  873MPD2     H12810   0.698   2.607   1.230 -0.2323 -0.0248 -1.9471
  873MPD2    H112811   1.034   2.378   1.121  0.9853 -0.0306  0.3535
  873MPD2    H212812   1.065   2.805   1.153 -0.4777  0.8321  1.5183
  873MPD2    H312813   1.170   2.586   1.090 -1.2735 -0.1758 -2.1043
  873MPD2     N12814   0.791   2.356   1.186 -0.2976 -0.0450  0.4433
  873MPD2    H512815   0.834   2.282   1.132  0.5165  0.8063 -0.0922
  873MPD2    N112816   0.831   2.841   1.246  0.6475  0.2282 -0.2342
  873MPD2    H712817   0.890   2.923   1.239  0.4642  0.4059  0.2994
  874MPD2     C12818   0.902   2.258  16.262  0.6822 -0.7391 -0.0536
  874MPD2    C112819   0.987   2.231  16.369 -0.0661  0.9333  0.2151
  874MPD2    C212820   1.110   2.296  16.358  0.1643 -0.1122 -0.2107
  874MPD2    C312821   1.140   2.394  16.264  0.0511  0.4396 -0.2715
  874MPD2    C412822   1.052   2.433  16.170  0.1340  0.0513 -0.0860
  874MPD2    C512823   0.938   2.357  16.169 -0.0684  0.7628 -0.1570
  874MPD2     H12824   1.185   2.280  16.434 -2.7399 -0.8728  2.5024
  874MPD2    H112825   1.078   2.506  16.095 -0.7556  1.2697  0.7833
  874MPD2    H212826   0.807   2.206  16.253  0.0370  0.3495  0.4618
  874MPD2    H312827   0.864   2.375  16.091 -0.4392 -2.3783 -0.5255
  874MPD2     N12828   1.267   2.449  16.285 -0.1462  0.2002  0.3233
  874MPD2    H512829   1.331   2.402  16.348 -0.2127 -0.4664 -0.0967
  874MPD2    N112830   0.948   2.143  16.469 -0.2335 -0.1652 -0.1697
  874MPD2    H712831   0.858   2.098  16.456 -0.7318  0.6985  0.3113
  875MPD2     C12832   2.019   0.721  14.515  0.2885 -0.3045 -0.5518
  875MPD2    C112833   1.886   0.711  14.557 -0.4415  0.0744 -0.2329
  875MPD2    C212834   1.857   0.741  14.687 -0.3629  0.3321  0.2160
  875MPD2    C312835   1.955   0.781  14.775 -0.3773 -0.0045 -0.4545
  875MPD2    C412836   2.084   0.797  14.727 -0.1508 -0.7018  0.2724
  875MPD2    C512837   2.119   0.753  14.604  0.1944  0.4929 -0.8194
  875MPD2     H12838   1.754   0.730  14.718  0.1308 -1.0775  1.3796
  875MPD2    H112839   2.155   0.833  14.801 -0.2554 -0.6926  0.3679
  875MPD2    H212840   2.049   0.697  14.414 -1.3221 -1.4791 -0.7648
  875MPD2    H312841   2.217   0.778  14.564 -0.2043  2.4345 -0.5785
  875MPD2     N12842   1.939   0.818  14.920 -0.1439 -0.3043 -0.2014
  875MPD2    H512843   2.012   0.863  14.974 -0.4022 -1.1034  0.8085
  875MPD2    N112844   1.784   0.681  14.465 -0.2698 -0.0004  0.5769
  875MPD2    H712845   1.695   0.663  14.511 -0.0287 -1.0854  0.6111
  876MPD2     C12846   0.965   1.929  15.991 -0.1189  0.3860 -0.8032
  876MPD2    C112847   0.977   1.830  15.898 -0.0756 -0.3995  0.3803
  876MPD2    C212848   0.964   1.693  15.935  0.6488 -0.0767  0.5498
  876MPD2    C312849   0.916   1.657  16.061 -0.0844 -0.1205  0.0687
  876MPD2    C412850   0.899   1.757  16.157  0.0784 -0.1178  0.0717
  876MPD2    C512851   0.923   1.888  16.117  0.6404 -0.5180 -0.0755
  876MPD2     H12852   0.985   1.610  15.868  1.2044  1.9807 -1.8087
  876MPD2    H112853   0.873   1.742  16.261  0.2180  1.9801  0.4073
  876MPD2    H212854   0.979   2.036  15.977  1.8068  0.2415  0.1152
  876MPD2    H312855   0.918   1.970  16.188  0.4333 -2.0825  1.6789
  876MPD2     N12856   0.902   1.520  16.082  0.6447  0.0873  0.8131
  876MPD2    H512857   0.939   1.458  16.010  0.3121 -0.3501  1.0199
  876MPD2    N112858   1.011   1.873  15.766  0.2663 -0.1052 -0.3171
  876MPD2    H712859   1.006   1.973  15.752 -2.6097  0.0937  1.9769
  877MPD2     C12860   1.458   2.223  15.256 -0.0170  0.0866 -0.7146
  877MPD2    C112861   1.339   2.195  15.192  0.1536  0.7260 -0.1391
  877MPD2    C212862   1.326   2.210  15.049 -0.0683 -0.2629  0.9360
  877MPD2    C312863   1.433   2.238  14.968 -0.1603 -0.1710  0.2656
  877MPD2    C412864   1.552   2.257  15.027 -0.4950  0.0586 -0.2717
  877MPD2    C512865   1.560   2.253  15.172  1.0980  0.4661  0.4695
  877MPD2     H12866   1.224   2.204  15.011 -0.2721 -0.7764  1.5678
  877MPD2    H112867   1.643   2.286  14.975 -0.7882  0.5534 -0.5200
  877MPD2    H212868   1.471   2.229  15.364  0.5326 -2.0749 -0.6599
  877MPD2    H312869   1.655   2.274  15.221  0.4115  1.0291  1.5685
  877MPD2     N12870   1.421   2.257  14.824 -1.0131 -0.2974 -0.0679
  877MPD2    H512871   1.498   2.302  14.775 -1.9736  0.3638 -0.9725
  877MPD2    N112872   1.222   2.160  15.261 -0.1476 -0.6652 -0.1985
  877MPD2    H712873   1.137   2.143  15.207  0.7633 -1.2666 -1.4350
  878MPD2     C12874   0.541   2.090  13.361 -0.5406 -0.0877  0.0210
  878MPD2    C112875   0.660   2.026  13.335 -0.3987 -0.4565 -0.5062
  878MPD2    C212876   0.733   1.986  13.449  0.3136 -0.7154  0.5168
  878MPD2    C312877   0.665   1.982  13.572  1.0998 -0.2960  0.5055
  878MPD2    C412878   0.536   2.029  13.585 -0.2112 -0.4025 -0.2619
  878MPD2    C512879   0.476   2.088  13.482  0.2056 -0.2289  0.3563
  878MPD2     H12880   0.834   1.948  13.442  1.0109  1.3135 -0.6249
  878MPD2    H112881   0.484   2.054  13.678 -0.7939  2.2647 -1.3033
  878MPD2    H212882   0.496   2.146  13.280 -2.1423 -1.5668 -0.1146
  878MPD2    H312883   0.396   2.161  13.496 -0.8556 -1.4277  0.4980
  878MPD2     N12884   0.741   1.924  13.680  0.1668  0.0099  0.5032
  878MPD2    H512885   0.831   1.882  13.658  0.2737  0.3727  0.2374
  878MPD2    N112886   0.714   2.033  13.207  0.4307 -0.3705  0.1839
  878MPD2    H712887   0.649   2.079  13.145 -0.4626 -2.0977 -0.1445
  879MPD2     C12888   1.088   3.305  16.699 -0.4218  0.6151 -0.4522
  879MPD2    C112889   1.117   3.192  16.769 -0.5357 -0.1974 -0.1403
  879MPD2    C212890   1.020   3.097  16.786  0.4625 -0.3142 -0.7708
  879MPD2    C312891   0.895   3.117  16.725  0.5545 -0.5188  0.1634
  879MPD2    C412892   0.872   3.231  16.646  0.2790 -0.2353 -0.4449
  879MPD2    C512893   0.971   3.327  16.642  0.1942  0.2798 -0.1411
  879MPD2     H12894   1.032   3.012  16.852  1.2210 -0.3823 -0.9983
  879MPD2    H112895   0.778   3.250  16.596  0.0184  0.6058  0.3640
  879MPD2    H212896   1.169   3.376  16.690  1.1549 -1.0845  0.2311
  879MPD2    H312897   0.948   3.417  16.586  1.3433  2.5616  3.0951
  879MPD2     N12898   0.790   3.023  16.728  0.1919  0.5457 -0.1280
  879MPD2    H512899   0.700   3.045  16.686 -0.3265  0.3035  0.8473
  879MPD2    N112900   1.248   3.188  16.830  0.3913  0.6204  0.2110
  879MPD2    H712901   1.299   3.275  16.835  1.8343 -0.2773  1.0523
  880MPD2     C12902   2.920   4.716   0.156  0.4936 -0.1831 -0.0353
  880MPD2    C112903   2.858   0.032   0.275 -0.2419  0.8679 -0.0265
  880MPD2    C212904   2.872   4.670   0.386  0.3025 -0.1001 -0.4053
  880MPD2    C312905   2.940   4.553   0.370  0.5454  0.1976 -0.3824
  880MPD2    C412906   2.990   4.513   0.250  0.0571 -0.2406 -0.0317
  880MPD2    C512907   2.985   4.597   0.146 -0.6009  0.2884  0.5566
  880MPD2     H12908   2.828   4.695   0.482 -0.8827 -1.2521 -0.6573
  880MPD2    H112909   3.052   4.425   0.235 -0.6370 -0.7395  0.0762
  880MPD2    H212910   2.915   0.065   0.072  1.8231 -0.5842 -0.4458
  880MPD2    H312911   3.036   4.569   0.055 -0.2631 -0.0267  0.8443
  880MPD2     N12912   2.969   4.478   0.494  0.3420  0.0174 -0.1288
  880MPD2    H512913   2.951   4.520   0.585  0.7685 -1.8866  0.8382
  880MPD2    N112914   2.798   0.153   0.284 -0.2900 -0.6872 -0.9709
  880MPD2    H712915   2.791   0.210   0.201 -2.7889  1.3901  0.6217
  881MPD2     C12916   2.522   0.864  17.371  0.0557  0.2942  0.2923
  881MPD2    C112917   2.553   0.729  17.366 -0.5956  0.7076  0.2606
  881MPD2    C212918   2.523   0.653  17.479  0.3521  0.1652  0.4923
  881MPD2    C312919   2.520   0.710  17.601  0.1792 -0.7121 -0.0157
  881MPD2    C412920   2.507   0.845  17.606 -0.1617  0.4859 -0.6283
  881MPD2    C512921   2.496   0.923  17.492  0.7531  0.1827 -0.0868
  881MPD2     H12922   2.502   0.547  17.475  2.1030 -0.1377 -0.6367
  881MPD2    H112923   2.491   0.889   0.025  1.3601  3.1801 -1.5831
  881MPD2    H212924   2.546   0.932  17.290 -1.8869  1.2990  0.5541
  881MPD2    H312925   2.485   1.030  17.495  2.8996  0.4894 -2.5753
  881MPD2     N12926   2.524   0.635   0.040 -0.3593  0.2934 -0.3466
  881MPD2    H512927   2.530   0.685   0.128 -1.7944 -0.9130  0.4282
  881MPD2    N112928   2.555   0.674  17.236  0.2076  0.2948  0.1988
  881MPD2    H712929   2.552   0.736  17.156  0.8201  0.6074  0.4191
  882MPD2     C12930   1.027   2.233  13.981  0.0276  0.7811  0.3002
  882MPD2    C112931   0.993   2.264  14.112  0.1758  0.5648  0.6433
  882MPD2    C212932   0.862   2.281  14.146  0.3691 -0.1444  0.7769
  882MPD2    C312933   0.766   2.268  14.049  0.1576  0.0298 -0.6119
  882MPD2    C412934   0.799   2.251  13.917  0.1124 -0.6448 -0.4737
  882MPD2    C512935   0.933   2.241  13.884  0.3746  0.3395 -0.2231
  882MPD2     H12936   0.836   2.295  14.250 -0.6115 -0.1243  0.5321
  882MPD2    H112937   0.722   2.249  13.841 -1.2540  1.2707  0.8548
  882MPD2    H212938   1.131   2.209  13.962 -0.5717  0.1391 -2.1807
  882MPD2    H312939   0.954   2.220  13.780  2.5022  1.3189  0.0200
  882MPD2     N12940   0.630   2.258  14.081 -0.4927  0.1750  0.4465
  882MPD2    H512941   0.563   2.225  14.011  0.5682  1.1463 -1.0346
  882MPD2    N112942   1.104   2.264  14.204  0.3094  0.1185 -0.0251
  882MPD2    H712943   1.194   2.234  14.169  0.6451 -2.8378  3.3313
  883MPD2     C12944   2.971   1.958  16.187 -0.6030  0.5358 -0.6019
  883MPD2    C112945   3.053   2.001  16.088 -0.4422  0.2583 -0.0047
  883MPD2    C212946   3.178   2.069  16.122  0.4362 -0.1322  0.9070
  883MPD2    C312947   3.207   2.104  16.251  0.2206 -0.0253 -0.2238
  883MPD2    C412948   3.118   2.070  16.347 -0.0355 -0.5478  0.1370
  883MPD2    C512949   3.013   1.985  16.316  0.5190 -0.0614 -0.3055
  883MPD2     H12950   3.243   2.105  16.043  0.4478  1.0714  1.4732
  883MPD2    H112951   3.129   2.097  16.451 -1.2654 -0.3404  0.2171
  883MPD2    H212952   2.887   1.891  16.173  0.0437 -0.2245 -0.8918
  883MPD2    H312953   2.961   1.960  16.408  0.2613  0.0618 -0.4180
  883MPD2     N12954   3.330   2.166  16.279 -0.1029  0.2666  0.0677
  883MPD2    H512955   3.404   2.169  16.210 -0.5381  2.1906 -0.3102
  883MPD2    N112956   3.023   1.979  15.955 -0.4676  0.7236 -0.6156
  883MPD2    H712957   3.096   1.996  15.887 -1.5454  2.0067 -1.4588
  884MPD2     C12958   4.671   2.895  15.174 -1.1482 -0.3333  0.5664
  884MPD2    C112959   4.668   2.970  15.057 -0.1715  0.8434  1.1387
  884MPD2    C212960   4.567   3.064  15.044  0.4209  0.3883 -0.2996
  884MPD2    C312961   4.469   3.071  15.143 -0.7689 -0.2312 -0.2244
  884MPD2    C412962   4.483   2.997  15.261 -0.0736  0.2731 -0.0159
  884MPD2    C512963   4.584   2.911  15.275 -0.1618 -0.6549 -0.3710
  884MPD2     H12964   4.560   3.115  14.949 -1.1395 -0.5415 -0.6703
  884MPD2    H112965   4.410   2.989  15.341 -0.4178  0.5667 -0.3016
  884MPD2    H212966   0.032   2.825  15.198 -1.3743 -1.1024 -0.9354
  884MPD2    H312967   4.590   2.850  15.364 -0.6804  0.9129  0.7473
  884MPD2     N12968   4.358   3.162  15.125 -0.8619  0.0014 -0.2968
  884MPD2    H512969   4.362   3.234  15.054  0.8185 -0.9646 -1.1719
  884MPD2    N112970   0.051   2.957  14.959  0.5738  0.8280 -0.3900
  884MPD2    H712971   0.047   3.014  14.876 -0.4547  2.5483  0.8447
  885MPD2     C12972   2.764   3.406   0.138  0.2219  0.2023 -0.0750
  885MPD2    C112973   2.776   3.281   0.090  0.0506 -0.1868 -1.0135
  885MPD2    C212974   2.772   3.268  17.630 -1.1549  0.3162 -0.6628
  885MPD2    C312975   2.741   3.376  17.546 -0.4531  0.9863  0.2877
  885MPD2    C412976   2.732   3.499  17.604  0.3862  0.4601 -0.0449
  885MPD2    C512977   2.749   3.514   0.055 -0.4739  0.0833 -0.7331
  885MPD2     H12978   2.783   3.167  17.591  1.0078  0.1153  0.4286
  885MPD2    H112979   2.706   3.594  17.559  1.1824  1.7696  2.2419
  885MPD2    H212980   2.774   3.427   0.243  0.0941  0.0255 -0.0270
  885MPD2    H312981   2.732   3.610   0.102  0.1067 -0.7852  1.2380
  885MPD2     N12982   2.738   3.361  17.406 -0.0662  0.2183  0.4543
  885MPD2    H512983   2.766   3.270  17.371  3.0748  0.8739  1.1847
  885MPD2    N112984   2.800   3.182   0.179 -0.2086  0.0368  0.3112
  885MPD2    H712985   2.820   3.210   0.274  0.5500  0.8899 -0.1008
  886MPD2     C12986   3.918   1.284  15.005  0.3802 -0.0818 -0.2635
  886MPD2    C112987   4.036   1.323  15.059 -0.2302  0.4669  0.3062
  886MPD2    C212988   4.112   1.421  14.998  0.5480  0.1529 -0.2460
  886MPD2    C312989   4.069   1.475  14.871  0.3872 -0.3487 -0.3776
  886MPD2    C412990   3.957   1.426  14.813 -0.7471  0.0550 -0.1337
  886MPD2    C512991   3.880   1.330  14.879 -0.1664 -1.0586 -0.3698
  886MPD2     H12992   4.195   1.466  15.052 -1.2247 -0.6253  3.0902
  886MPD2    H112993   3.924   1.460  14.715 -0.1645 -0.1603 -0.4053
  886MPD2    H212994   3.871   1.196  15.048  1.0393 -0.7272 -0.8488
  886MPD2    H312995   3.794   1.284  14.831 -1.1100 -0.6295  0.9005
  886MPD2     N12996   4.142   1.555  14.789  0.5467  0.5991  0.3148
  886MPD2    H512997   4.106   1.587  14.700  1.1602 -0.1285 -0.1835
  886MPD2    N112998   4.094   1.263  15.167  0.3655  0.1908 -0.8793
  886MPD2    H712999   4.178   1.308  15.202 -0.8456  2.0665 -0.4160
  887MPD2     C13000   0.031   1.316  15.473 -0.0998  0.3868 -0.0819
  887MPD2    C113001   4.648   1.370  15.405 -0.6620  0.1245  0.5150
  887MPD2    C213002   4.667   1.488  15.336  0.5760  0.1649 -0.2079
  887MPD2    C313003   0.068   1.559  15.352 -0.0659  0.2086 -0.3553
  887MPD2    C413004   0.161   1.506  15.439  0.3211  0.2551  0.6885
  887MPD2    C513005   0.147   1.376  15.489 -0.1111  0.5531 -0.6067
  887MPD2     H13006   4.594   1.536  15.271 -0.9347 -1.1192  0.5320
  887MPD2    H113007   0.254   1.554  15.465 -0.3275  1.2834  1.0927
  887MPD2    H213008   0.024   1.216  15.514  2.0825  1.4471  2.8729
  887MPD2    H313009   0.237   1.328  15.526  0.2202  1.9058  0.3238
  887MPD2     N13010   0.075   1.693  15.300  0.6597 -0.4351 -0.3444
  887MPD2    H513011   0.017   1.721  15.222  1.8243 -1.4722 -1.5972
  887MPD2    N113012   4.526   1.293  15.393  0.5407 -0.2628  0.2506
  887MPD2    H713013   4.458   1.329  15.327  0.2702  1.4935  1.4791
  888MPD2     C13014   2.358   1.703  14.879  0.2103 -0.1532 -0.3151
  888MPD2    C113015   2.273   1.785  14.949 -0.1450 -0.4781 -0.7931
  888MPD2    C213016   2.315   1.917  14.958 -0.2932 -0.5692  0.4028
  888MPD2    C313017   2.445   1.967  14.940 -1.0220 -0.6903  0.0922
  888MPD2    C413018   2.542   1.865  14.909 -0.0530  0.2077  0.7184
  888MPD2    C513019   2.495   1.745  14.869  0.0783 -0.5481 -0.1779
  888MPD2     H13020   2.239   1.984  14.996 -0.0489 -0.5823  0.9119
  888MPD2    H113021   2.647   1.877  14.888 -0.0190  0.7679  1.2254
  888MPD2    H213022   2.352   1.595  14.873 -0.2964 -0.1342 -0.1919
  888MPD2    H313023   2.575   1.680  14.835  1.8864  1.4370  0.3371
  888MPD2     N13024   2.457   2.105  14.924 -0.3385  0.0101 -0.7256
  888MPD2    H513025   2.373   2.161  14.932  0.3171  1.0500 -1.1132
  888MPD2    N113026   2.147   1.741  14.996 -0.2025 -0.1827 -0.0089
  888MPD2    H713027   2.096   1.800  15.061  0.9086  0.6321  0.1154
  889MPD2     C13028   1.603   1.640  12.716  0.0255 -0.9787 -0.1542
  889MPD2    C113029   1.647   1.595  12.837 -0.5672  0.6069 -0.5656
  889MPD2    C213030   1.635   1.680  12.951  0.4646 -0.3945 -0.7072
  889MPD2    C313031   1.591   1.815  12.935 -0.3872  0.7503  0.6020
  889MPD2    C413032   1.559   1.858  12.807 -0.2528 -0.1213 -0.6254
  889MPD2    C513033   1.565   1.774  12.698  0.1279  0.4266 -0.6488
  889MPD2     H13034   1.656   1.638  13.048  1.6239  2.2872  0.2267
  889MPD2    H113035   1.524   1.957  12.780 -0.1887  0.3553  1.0579
  889MPD2    H213036   1.587   1.568  12.636  0.4280 -0.9874 -0.2276
  889MPD2    H313037   1.525   1.818  12.607 -1.0258  1.2699  0.2712
  889MPD2     N13038   1.605   1.907  13.047 -0.4893  0.3940  0.0188
  889MPD2    H513039   1.629   1.868  13.137  0.6006  1.6869  0.2940
  889MPD2    N113040   1.670   1.454  12.841 -0.0073  0.0069 -0.0103
  889MPD2    H713041   1.642   1.394  12.764 -0.6790  1.4348 -0.8667
  890MPD2     C13042   1.206   2.780  14.434  0.9628  0.2358 -0.1236
  890MPD2    C113043   1.268   2.867  14.524 -0.1358  0.4324 -0.7739
  890MPD2    C213044   1.262   2.834  14.662 -0.2669 -0.3125  0.4517
  890MPD2    C313045   1.189   2.721  14.706  0.9183 -0.6549 -0.4502
  890MPD2    C413046   1.131   2.636  14.612  0.3725 -0.6759  0.1081
  890MPD2    C513047   1.134   2.672  14.480 -0.1394  0.1480  0.5479
  890MPD2     H13048   1.302   2.901  14.738  0.7909 -0.9715  0.4727
  890MPD2    H113049   1.075   2.547  14.633  0.2316 -0.6442 -0.1281
  890MPD2    H213050   1.211   2.792  14.326 -2.1952  0.8096 -0.2211
  890MPD2    H313051   1.084   2.609  14.407  1.2755  0.2991 -0.5474
  890MPD2     N13052   1.194   2.695  14.842 -0.1276 -0.0721  0.0455
  890MPD2    H513053   1.259   2.750  14.897 -0.4049  0.4817 -0.1826
  890MPD2    N113054   1.321   2.993  14.485  0.5219  0.1503  0.3684
  890MPD2    H713055   1.304   3.023  14.390 -1.2759 -0.0001  0.6392
  891MPD2     C13056   4.036   1.951  16.798 -0.8605 -1.0074  0.0076
  891MPD2    C113057   3.931   1.876  16.833 -0.4920  0.6510 -0.5026
  891MPD2    C213058   3.959   1.762  16.907 -0.1810  0.1834  0.1227
  891MPD2    C313059   4.089   1.723  16.943  0.2572  0.8025  0.8068
  891MPD2    C413060   4.187   1.802  16.907 -0.3293  0.2957  0.4385
  891MPD2    C513061   4.161   1.915  16.830 -0.1390  0.1544 -0.0130
  891MPD2     H13062   3.882   1.699  16.949  0.0960 -0.2382 -0.0028
  891MPD2    H113063   4.293   1.777  16.911 -0.1646  0.8129 -0.7001
  891MPD2    H213064   4.026   2.034  16.729 -0.4112 -1.4393 -0.5714
  891MPD2    H313065   4.249   1.970  16.799 -0.4260  0.6486  0.0471
  891MPD2     N13066   4.107   1.605  17.020  0.4685  0.0321  0.5292
  891MPD2    H513067   4.022   1.558  17.050 -0.1803  1.0682  0.3057
  891MPD2    N113068   3.801   1.900  16.780  0.2774  0.0813  0.1845
  891MPD2    H713069   3.793   1.976  16.713 -0.7628 -0.7978 -0.6950
  892MPD2     C13070   0.110   2.408  14.962 -0.0112 -0.2066 -0.3083
  892MPD2    C113071   0.031   2.438  14.851 -0.3039 -0.5282  0.8490
  892MPD2    C213072   0.066   2.390  14.730  0.5986  0.1518  0.0129
  892MPD2    C313073   0.195   2.352  14.705 -0.5544  0.3154  0.7007
  892MPD2    C413074   0.277   2.328  14.814  0.1937 -0.1562 -0.0920
  892MPD2    C513075   0.234   2.352  14.940  0.4239 -0.8952  0.0670
  892MPD2     H13076   0.008   2.430  14.647  0.0000  0.2371  0.4654
  892MPD2    H113077   0.373   2.282  14.793 -0.0736 -0.3132 -0.9936
  892MPD2    H213078   0.082   2.431  15.064  0.7921  0.4045 -0.2259
  892MPD2    H313079   0.299   2.342  15.026  0.3117  0.2274  0.2840
  892MPD2     N13080   0.253   2.327  14.578  0.0416  0.1753 -0.0346
  892MPD2    H513081   0.354   2.319  14.572  0.0832  1.0641 -0.5489
  892MPD2    N113082   4.641   2.533  14.865  0.2845  0.0285 -0.5043
  892MPD2    H713083   4.604   2.567  14.777  2.5392 -1.1478 -1.9034
  893MPD2     C13084   2.756   0.901   1.719  0.0526 -0.0413  0.5049
  893MPD2    C113085   2.726   0.930   1.856  0.3761 -0.0106 -0.2540
  893MPD2    C213086   2.802   0.872   1.955  0.5427  0.2124 -0.2169
  893MPD2    C313087   2.880   0.761   1.924 -0.3989  0.2612  0.9489
  893MPD2    C413088   2.905   0.730   1.793  0.2339  0.0938 -0.0553
  893MPD2    C513089   2.851   0.808   1.693 -0.2100  0.0192 -0.0191
  893MPD2     H13090   2.794   0.910   2.056  0.7951 -1.6396  0.5001
  893MPD2    H113091   2.968   0.650   1.755 -0.3237  0.4482 -1.7192
  893MPD2    H213092   2.707   0.950   1.635  0.2677  0.8003  0.8709
  893MPD2    H313093   2.877   0.780   1.592  1.7500 -0.7515  0.6951
  893MPD2     N13094   2.954   0.683   2.017  0.2851  0.2368 -0.6127
  893MPD2    H513095   3.010   0.606   1.981 -0.3193 -1.3233  1.8003
  893MPD2    N113096   2.636   1.041   1.877  0.1081  0.0162  0.7485
  893MPD2    H713097   2.603   1.070   1.786  0.0438  0.6509  0.9774
  894MPD2     C13098   4.338   3.540   2.404  0.7233 -0.2080 -0.2888
  894MPD2    C113099   4.247   3.619   2.333  0.2325 -0.0725  0.0009
  894MPD2    C213100   4.290   3.684   2.219  0.4070  0.2707 -0.3760
  894MPD2    C313101   4.412   3.670   2.164  0.1919 -0.7300  0.3083
  894MPD2    C413102   4.498   3.581   2.223 -0.0747 -0.5464  0.1552
  894MPD2    C513103   4.456   3.515   2.339  0.1393 -0.0762  0.2592
  894MPD2     H13104   4.218   3.752   2.175  0.3795  1.5536  1.6343
  894MPD2    H113105   4.601   3.567   2.192 -0.6944  0.2142 -2.2449
  894MPD2    H213106   4.328   3.487   2.498  0.1896  1.0136  0.3399
  894MPD2    H313107   4.533   3.452   2.383  0.5172  0.6878  0.7081
  894MPD2     N13108   4.437   3.741   2.044 -0.2067 -0.1137 -0.0962
  894MPD2    H513109   4.372   3.817   2.027 -0.8807 -0.9776 -1.3607
  894MPD2    N113110   4.108   3.645   2.382 -0.4271 -0.8962 -0.8152
  894MPD2    H713111   4.056   3.717   2.333  1.4651  0.6533 -0.5695
  895MPD2     C13112   3.554   1.503  13.297  0.4130 -0.2278 -0.7841
  895MPD2    C113113   3.686   1.534  13.315 -0.7615  0.2176  0.1547
  895MPD2    C213114   3.772   1.433  13.358  0.0273  0.3633 -0.6069
  895MPD2    C313115   3.729   1.305  13.379 -1.0710  0.7405  0.3154
  895MPD2    C413116   3.590   1.282  13.373  0.2957  0.2312 -0.3197
  895MPD2    C513117   3.507   1.375  13.326 -0.4383 -0.6063  0.9158
  895MPD2     H13118   3.879   1.446  13.346  0.1599 -0.7618 -0.6480
  895MPD2    H113119   3.542   1.186  13.386 -0.1065  0.4330 -0.3193
  895MPD2    H213120   3.490   1.584  13.262  0.7320 -0.4896 -1.9837
  895MPD2    H313121   3.401   1.355  13.325 -0.1989 -1.8818  1.2607
  895MPD2     N13122   3.804   1.194  13.417  0.2971  0.1195  0.4644
  895MPD2    H513123   3.757   1.105  13.424  0.3628  0.1451  1.1775
  895MPD2    N113124   3.751   1.653  13.269  0.7524 -0.3233 -0.0841
  895MPD2    H713125   3.852   1.662  13.269  0.6628  0.6106 -0.8630
  896MPD2     C13126   1.507   4.345   2.017 -0.2399  0.7768 -0.4311
  896MPD2    C113127   1.484   4.305   1.887  0.0956 -0.0112  0.0490
  896MPD2    C213128   1.359   4.264   1.843  0.5529 -0.2308  0.3879
  896MPD2    C313129   1.254   4.256   1.933 -0.2989 -0.5488  0.3780
  896MPD2    C413130   1.279   4.285   2.064 -0.1106  0.1015 -1.3910
  896MPD2    C513131   1.404   4.330   2.105 -0.0497 -0.3784 -0.8996
  896MPD2     H13132   1.341   4.250   1.737 -0.9897 -0.0416  0.6243
  896MPD2    H113133   1.199   4.278   2.137  1.6774 -1.2507  0.4309
  896MPD2    H213134   1.602   4.394   2.035 -0.4481  1.2106 -0.5036
  896MPD2    H313135   1.418   4.355   2.209 -2.3135 -1.7396 -0.2641
  896MPD2     N13136   1.135   4.214   1.879  0.9415  0.4678  0.8881
  896MPD2    H513137   1.138   4.210   1.778  1.2191  1.3767  0.8592
  896MPD2    N113138   1.588   4.327   1.793 -0.0489 -0.4576 -0.3348
  896MPD2    H713139   1.665   4.377   1.836  0.1983  1.0475 -2.5137
  897MPD2     C13140   2.876   1.312  10.325 -0.1808  0.8477  0.2776
  897MPD2    C113141   2.828   1.441  10.334  0.2037  0.4573 -0.1812
  897MPD2    C213142   2.743   1.478  10.431 -0.1219 -0.4746  0.3933
  897MPD2    C313143   2.690   1.383  10.522  0.7426 -0.5251 -0.3276
  897MPD2    C413144   2.736   1.256  10.509  1.0484 -0.6217 -0.2932
  897MPD2    C513145   2.831   1.217  10.413  0.2070  0.4468  0.0592
  897MPD2     H13146   2.695   1.575  10.442  0.1191 -0.2496 -0.5574
  897MPD2    H113147   2.682   1.174  10.556 -1.6620  0.4225 -1.5776
  897MPD2    H213148   2.956   1.285  10.257  0.2409  1.0923  0.6717
  897MPD2    H313149   2.865   1.114  10.411 -1.6855 -0.1795 -0.1137
  897MPD2     N13150   2.593   1.411  10.621  0.0709  0.1285 -0.5687
  897MPD2    H513151   2.547   1.499  10.601  1.0862  0.9580  0.7922
  897MPD2    N113152   2.887   1.538  10.250 -0.2799 -0.4816  0.2331
  897MPD2    H713153   2.959   1.511  10.184  0.8417  1.9971  0.4182
  898MPD2     C13154   4.509   2.103   0.581 -0.3863 -0.8651 -0.1437
  898MPD2    C113155   4.590   2.205   0.547 -0.5409 -0.2887  0.8298
  898MPD2    C213156   4.646   2.199   0.420  0.1586 -0.0487 -0.6658
  898MPD2    C313157   4.641   2.091   0.337 -0.4632  0.3010 -0.7449
  898MPD2    C413158   4.571   1.983   0.378 -0.1495 -0.0581  0.6097
  898MPD2    C513159   4.501   1.996   0.499  0.2825  0.5462  0.2704
  898MPD2     H13160   4.703   2.288   0.394 -0.9710  0.0563 -2.7881
  898MPD2    H113161   4.558   1.894   0.317 -2.1249 -0.0065  0.9581
  898MPD2    H213162   4.458   2.105   0.677  0.5310  0.4525  0.3312
  898MPD2    H313163   4.446   1.914   0.544  2.2281 -0.9619 -0.0758
  898MPD2     N13164   4.691   2.099   0.208  0.0319 -0.4945  0.5027
  898MPD2    H513165   4.718   2.188   0.169  0.1531 -1.6748 -2.1017
  898MPD2    N113166   4.617   2.306   0.644  0.6852  0.1793  0.5398
  898MPD2    H713167   4.558   2.315   0.726 -0.9748  1.2532 -0.7766
  899MPD2     C13168   0.217   2.834  17.357 -0.0974 -0.1419  0.1134
  899MPD2    C113169   0.350   2.831  17.384 -0.2682 -0.0154 -0.1786
  899MPD2    C213170   0.384   2.782  17.514  0.1659  0.1385 -0.0603
  899MPD2    C313171   0.284   2.738  17.600 -0.5516  0.4390 -0.0043
  899MPD2    C413172   0.152   2.757  17.570 -0.6135  0.2409  0.5129
  899MPD2    C513173   0.118   2.796  17.442 -0.2642 -0.2969  0.7759
  899MPD2     H13174   0.486   2.789  17.548 -0.9864  0.1722  3.3881
  899MPD2    H113175   0.074   2.719  17.634 -1.4921 -0.0754 -0.7463
  899MPD2    H213176   0.188   2.879  17.263 -0.2332 -0.8596 -0.1816
  899MPD2    H313177   0.015   2.814  17.413 -0.2656 -1.0499  0.3190
  899MPD2     N13178   0.311   2.687   0.055 -0.0724 -0.4288  0.4460
  899MPD2    H513179   0.228   2.681   0.113  0.1409  2.0051  1.0169
  899MPD2    N113180   0.449   2.885  17.297  0.0002 -0.1956 -0.7604
  899MPD2    H713181   0.413   2.937  17.217 -1.4072 -1.4844 -0.9615
  900MPD2     C13182   0.447   4.491  12.499 -0.0649  0.4499 -0.1637
  900MPD2    C113183   0.376   4.470  12.375 -0.4586  0.2047  0.3979
  900MPD2    C213184   0.267   4.555  12.349  0.3360 -0.2407 -0.0972
  900MPD2    C313185   0.209   4.639  12.449 -0.1586 -0.8100  0.2028
  900MPD2    C413186   0.279   4.649  12.571  0.1278  0.9498  0.0171
  900MPD2    C513187   0.400   4.582  12.586 -0.0261 -0.7835 -0.4038
  900MPD2     H13188   0.215   4.544  12.254  0.8099  0.0586 -0.3909
  900MPD2    H113189   0.242   4.710  12.652  0.0093 -1.7975  2.0303
  900MPD2    H213190   0.533   4.428  12.522 -0.4032 -0.1984 -0.6671
  900MPD2    H313191   0.446   4.592  12.683  1.2144 -1.8965 -0.8845
  900MPD2     N13192   0.094   0.005  12.434  0.2174  0.3483 -0.2489
  900MPD2    H513193   0.046   0.007  12.345 -0.6635 -2.9597  0.1306
  900MPD2    N113194   0.422   4.358  12.298 -0.9575  0.2550 -0.2063
  900MPD2    H713195   0.518   4.329  12.315 -1.2147  0.6570  1.9718
  901MPD2     C13196   0.249   3.318  12.273  0.0129  0.3959 -0.0970
  901MPD2    C113197   0.383   3.337  12.254 -0.2399 -0.6820 -0.1335
  901MPD2    C213198   0.434   3.462  12.215 -0.4055  0.5133 -0.6124
  901MPD2    C313199   0.351   3.574  12.205 -0.7105 -0.6259  0.2297
  901MPD2    C413200   0.215   3.553  12.228  0.1036  0.1702 -0.1696
  901MPD2    C513201   0.172   3.427  12.257  0.2125  0.0871 -0.7295
  901MPD2     H13202   0.536   3.473  12.178  0.0071 -0.8839  0.0820
  901MPD2    H113203   0.136   3.626  12.214  1.7215  2.0081  0.3952
  901MPD2    H213204   0.206   3.224  12.305 -1.5638  1.6390  1.3676
  901MPD2    H313205   0.065   3.419  12.273  0.6008  0.7867  2.2853
  901MPD2     N13206   0.402   3.706  12.175 -0.2728  0.2448 -0.2604
  901MPD2    H513207   0.502   3.720  12.166 -0.4091  0.5674 -1.2932
  901MPD2    N113208   0.461   3.221  12.280  0.0749  0.3629 -0.0066
  901MPD2    H713209   0.417   3.144  12.328 -1.0220  0.0939 -1.4629
  902MPD2     C13210   4.210   2.251  12.155  0.5011  0.8259  0.4180
  902MPD2    C113211   4.082   2.268  12.114  0.0573 -0.5330 -0.4217
  902MPD2    C213212   4.036   2.183  12.009  0.4717  0.4122 -1.3421
  902MPD2    C313213   4.112   2.075  11.963 -0.2026 -0.1679  0.1970
  902MPD2    C413214   4.243   2.060  12.004  0.0777 -0.4458  0.0084
  902MPD2    C513215   4.291   2.149  12.101 -0.9532 -0.3540  0.3704
  902MPD2     H13216   3.942   2.195  11.958 -0.4690  1.2976  0.6031
  902MPD2    H113217   4.302   1.982  11.956  1.9728  1.2200 -0.3735
  902MPD2    H213218   4.259   2.320  12.223  0.5523  1.5100 -0.3157
  902MPD2    H313219   4.397   2.160  12.124 -1.5995 -1.6046  3.9759
  902MPD2     N13220   4.082   1.982  11.864  0.0865  0.5060  0.0368
  902MPD2    H513221   4.149   1.920  11.822  0.2152  0.3153  0.5253
  902MPD2    N113222   4.016   2.388  12.158 -0.2362 -0.0992 -0.5572
  902MPD2    H713223   4.064   2.454  12.218  1.0333 -2.1715  0.6963
  903MPD2     C13224   3.484   1.729  11.195  0.5625  0.6653  0.2767
  903MPD2    C113225   3.493   1.749  11.331 -0.2694 -0.4873 -1.0670
  903MPD2    C213226   3.378   1.746  11.412  0.3204  0.4783  0.3933
  903MPD2    C313227   3.258   1.730  11.351 -0.0693  0.2203 -0.3895
  903MPD2    C413228   3.247   1.715  11.213 -0.6138 -0.1101  0.2310
  903MPD2    C513229   3.359   1.720  11.136  0.1113  0.3407  0.3196
  903MPD2     H13230   3.377   1.752  11.520 -1.5055  0.3088  0.3831
  903MPD2    H113231   3.148   1.702  11.171 -0.8869  0.0943  0.8118
  903MPD2    H213232   3.568   1.731  11.126  1.5650  1.4568  1.5156
  903MPD2    H313233   3.348   1.740  11.031 -0.9971 -1.3670  0.0974
  903MPD2     N13234   3.150   1.719  11.439  0.4385  0.6345 -0.3293
  903MPD2    H513235   3.169   1.740  11.537 -1.9358 -0.1943  0.3096
  903MPD2    N113236   3.625   1.765  11.382  0.3452  0.4357 -0.8333
  903MPD2    H713237   3.699   1.766  11.312  0.2471 -0.9143 -0.9624
  904MPD2     C13238   3.580   1.105  13.827  0.1868  0.2133  0.6445
  904MPD2    C113239   3.603   1.138  13.966  0.6611  0.4642  1.2210
  904MPD2    C213240   3.732   1.178  14.002 -0.2394 -0.3200  0.3572
  904MPD2    C313241   3.839   1.195  13.915  0.0935 -0.1533  0.1575
  904MPD2    C413242   3.811   1.171  13.784 -0.3399 -0.2056  0.3624
  904MPD2    C513243   3.686   1.131  13.745  0.0273  0.0729 -0.0243
  904MPD2     H13244   3.748   1.194  14.108 -0.7273 -0.0940  0.3971
  904MPD2    H113245   3.889   1.187  13.710  0.4756 -0.7967  1.1092
  904MPD2    H213246   3.484   1.082  13.783  0.9810  0.3686 -1.1728
  904MPD2    H313247   3.679   1.114  13.638 -2.5843 -1.0096  0.3287
  904MPD2     N13248   3.961   1.226  13.964  0.6702 -0.5693  0.3413
  904MPD2    H513249   3.955   1.237  14.065  0.9048  1.4664  0.1330
  904MPD2    N113250   3.508   1.126  14.069  0.3251  0.0166 -0.1750
  904MPD2    H713251   3.549   1.126  14.162 -0.2929  0.4457  0.0993
  905MPD2     C13252   3.286   0.660  13.593 -0.6173 -0.1015 -0.1442
  905MPD2    C113253   3.330   0.791  13.585  0.2220  0.1068 -0.0671
  905MPD2    C213254   3.461   0.816  13.546 -0.2208  0.3442  0.2508
  905MPD2    C313255   3.544   0.712  13.516 -0.4458  0.4794 -0.6036
  905MPD2    C413256   3.501   0.576  13.520 -1.0624 -0.4808  0.9884
  905MPD2    C513257   3.370   0.552  13.556  0.5778  0.2927  0.4096
  905MPD2     H13258   3.503   0.914  13.568 -0.0559  0.4481 -0.4984
  905MPD2    H113259   3.559   0.492  13.484 -0.6873  0.4109 -0.4819
  905MPD2    H213260   3.181   0.641  13.614 -0.0871 -0.9271  1.7744
  905MPD2    H313261   3.343   0.448  13.544  0.8877  0.3932 -1.0714
  905MPD2     N13262   3.680   0.733  13.480 -0.2116  0.3715  0.5083
  905MPD2    H513263   3.739   0.651  13.483 -0.1614  0.2899 -2.2592
  905MPD2    N113264   3.245   0.898  13.627  0.8262 -0.6141  0.3168
  905MPD2    H713265   3.162   0.866  13.675  0.6101 -2.2970 -1.1950
  906MPD2     C13266   1.443   1.360  11.138 -0.1933 -0.6425 -0.3965
  906MPD2    C113267   1.346   1.299  11.063 -0.5554  0.2979 -0.7461
  906MPD2    C213268   1.278   1.190  11.115  0.1172 -0.4083 -0.9216
  906MPD2    C313269   1.313   1.137  11.240 -0.0709 -0.0810 -0.7487
  906MPD2    C413270   1.407   1.196  11.317 -0.4697 -0.0537  0.1214
  906MPD2    C513271   1.479   1.304  11.263  0.2971 -0.3606  0.9845
  906MPD2     H13272   1.204   1.149  11.048  0.1760 -1.1911 -0.5096
  906MPD2    H113273   1.428   1.159  11.417 -2.2170 -0.0083  0.5084
  906MPD2    H213274   1.502   1.443  11.102  1.3710 -0.8380  1.7436
  906MPD2    H313275   1.556   1.352  11.322  1.5061 -0.5026 -0.4636
  906MPD2     N13276   1.241   1.030  11.293 -0.4523  0.0995 -0.2677
  906MPD2    H513277   1.277   0.995  11.381  2.7308  2.1762 -0.7259
  906MPD2    N113278   1.305   1.339  10.932  0.2185 -0.5770  0.1935
  906MPD2    H713279   1.266   1.268  10.871 -1.1749 -0.2047  0.6630
  907MPD2     C13280   4.585   0.599  15.737 -0.1850 -0.1830  1.2345
  907MPD2    C113281   4.626   0.460  15.720 -0.1431 -0.3079 -0.6331
  907MPD2    C213282   4.705   0.405  15.818  0.7674  0.6318  0.0313
  907MPD2    C313283   0.004   0.471  15.933 -0.3999  0.0809  0.4976
  907MPD2    C413284   4.680   0.599  15.952 -0.3901 -0.5544  0.7820
  907MPD2    C513285   4.605   0.658  15.853 -0.1294  0.4380 -0.1879
  907MPD2     H13286   0.022   0.303  15.809  1.9143  1.0156  0.3527
  907MPD2    H113287   4.686   0.658  16.043 -3.3082 -0.0128  0.6303
  907MPD2    H213288   4.530   0.658  15.664  0.1983 -1.6432 -0.2455
  907MPD2    H313289   4.579   0.763  15.863 -0.3133  0.2574  1.2810
  907MPD2     N13290   0.073   0.405  16.039 -0.0107 -0.2170  0.2008
  907MPD2    H513291   0.079   0.303  16.035 -1.9822 -0.3058 -0.4952
  907MPD2    N113292   4.598   0.384  15.600  0.4329 -0.7886  0.0455
  907MPD2    H713293   4.642   0.294  15.586  2.5826  0.1075  0.8622
  908MPD2     C13294   2.584   1.447   9.472  0.4092  0.3796  0.0390
  908MPD2    C113295   2.686   1.379   9.538 -0.2041  0.3853  0.1406
  908MPD2    C213296   2.766   1.442   9.628  0.2066 -0.0686  0.1142
  908MPD2    C313297   2.739   1.571   9.669 -0.1916  0.2919  0.2046
  908MPD2    C413298   2.637   1.640   9.612  0.4011 -0.1793 -0.0664
  908MPD2    C513299   2.566   1.579   9.505  0.1146 -0.5836  0.4493
  908MPD2     H13300   2.842   1.388   9.684  1.2699  1.0493 -0.2293
  908MPD2    H113301   2.614   1.742   9.642  1.3121 -0.0245  0.1159
  908MPD2    H213302   2.513   1.409   9.399  0.1610 -1.8619  1.4416
  908MPD2    H313303   2.477   1.628   9.466 -0.0809 -1.8120 -0.6716
  908MPD2     N13304   2.820   1.616   9.777 -0.1390 -0.2532 -0.7445
  908MPD2    H513305   2.888   1.552   9.816 -0.7875  1.1003  2.5852
  908MPD2    N113306   2.707   1.240   9.502 -0.2794  0.3896  0.0757
  908MPD2    H713307   2.779   1.189   9.552  0.7389 -0.9761 -2.7935
  909MPD2     C13308   3.208   3.979  11.885  0.2719 -0.3401 -0.1143
  909MPD2    C113309   3.199   4.109  11.844 -0.5171 -1.0771 -0.1604
  909MPD2    C213310   3.094   4.192  11.888 -0.0628 -0.0814  0.4099
  909MPD2    C313311   3.004   4.154  11.992  0.3616 -0.1580  0.3037
  909MPD2    C413312   3.013   4.024  12.036 -0.1527  0.0491  0.2488
  909MPD2    C513313   3.108   3.938  11.980 -0.2565 -0.4143  0.4994
  909MPD2     H13314   3.086   4.294  11.852 -2.5199 -0.7969 -1.0661
  909MPD2    H113315   2.943   3.970  12.099 -0.6639  1.3309  0.7773
  909MPD2    H213316   3.273   3.903  11.843 -1.6029 -0.1471 -3.4152
  909MPD2    H313317   3.101   3.833  12.006  0.9076 -1.0267 -1.6716
  909MPD2     N13318   2.898   4.242  12.023 -0.7929 -0.0898  0.3469
  909MPD2    H513319   2.899   4.336  11.985  4.2715 -1.0724 -1.9279
  909MPD2    N113320   3.299   4.173  11.763  0.8268  0.3705  0.1307
  909MPD2    H713321   3.290   4.272  11.744 -0.7509  0.4178  1.1058
  910MPD2     C13322   3.978   0.719  15.703  0.2262 -0.1525 -0.3718
  910MPD2    C113323   4.081   0.665  15.635  0.2451 -0.3438  0.4247
  910MPD2    C213324   4.084   0.678  15.494  0.6263 -0.6271 -0.1966
  910MPD2    C313325   3.979   0.738  15.424 -0.3076 -0.1211 -0.1452
  910MPD2    C413326   3.870   0.769  15.499  0.0763  0.4878 -0.4707
  910MPD2    C513327   3.870   0.764  15.640 -0.1191 -0.7474 -0.6810
  910MPD2     H13328   4.173   0.650  15.439  0.9195  0.3947 -0.2490
  910MPD2    H113329   3.783   0.821  15.460 -1.7297 -3.0884 -1.1938
  910MPD2    H213330   3.967   0.709  15.810 -0.3804 -2.6216 -0.6747
  910MPD2    H313331   3.793   0.814  15.697 -1.0528 -2.5548 -0.3504
  910MPD2     N13332   3.982   0.775  15.286  0.3226 -0.3552 -0.1421
  910MPD2    H513333   3.902   0.800  15.229  0.1402  0.0656  0.2960
  910MPD2    N113334   4.187   0.597  15.694 -0.1536  0.3044 -0.5704
  910MPD2    H713335   4.265   0.577  15.632  0.0772  0.5333 -0.3590
  911MPD2     C13336   2.046   1.323  16.313  0.7061  0.1032 -0.5139
  911MPD2    C113337   2.114   1.429  16.369  0.1579 -0.1280 -0.5902
  911MPD2    C213338   2.055   1.556  16.359  0.1795  0.3557  0.0868
  911MPD2    C313339   1.938   1.572  16.290 -0.4344 -0.0898  0.2274
  911MPD2    C413340   1.868   1.465  16.242  0.1446  0.1165 -0.1389
  911MPD2    C513341   1.919   1.345  16.261 -0.6179  0.5328  0.4689
  911MPD2     H13342   2.117   1.641  16.384  2.3669 -1.2845  0.2659
  911MPD2    H113343   1.775   1.481  16.188 -0.6547 -3.4877  0.1494
  911MPD2    H213344   2.078   1.220  16.323 -1.7623 -0.5865  0.2040
  911MPD2    H313345   1.854   1.261  16.238 -0.7329  1.3175 -2.0212
  911MPD2     N13346   1.872   1.689  16.253  0.0193  0.0113 -0.0343
  911MPD2    H513347   1.794   1.680  16.189  1.1578 -0.0504 -1.4217
  911MPD2    N113348   2.246   1.408  16.417 -0.4881  0.5141  0.1555
  911MPD2    H713349   2.275   1.310  16.420  0.5716  0.8661  1.6234
  912MPD2     C13350   1.393   1.660  15.709 -0.4514 -0.1660 -0.5538
  912MPD2    C113351   1.501   1.647  15.792  0.1314 -0.1197 -0.6289
  912MPD2    C213352   1.549   1.516  15.826 -0.7691 -0.3059 -0.1463
  912MPD2    C313353   1.483   1.406  15.776  0.6558 -0.2443  0.2956
  912MPD2    C413354   1.376   1.417  15.690 -0.2743 -0.4090  0.2285
  912MPD2    C513355   1.335   1.546  15.659 -0.0824  0.1679  0.2122
  912MPD2     H13356   1.616   1.493  15.908  2.5175 -0.0775 -2.7642
  912MPD2    H113357   1.334   1.327  15.647 -2.6773  1.2077 -0.8297
  912MPD2    H213358   1.353   1.759  15.691 -1.9945 -0.6450  0.3161
  912MPD2    H313359   1.254   1.553  15.588  0.0660  0.3289  0.0589
  912MPD2     N13360   1.518   1.293  15.843  0.0700  0.5147  0.3096
  912MPD2    H513361   1.606   1.299  15.893  0.8872 -1.4609 -0.9067
  912MPD2    N113362   1.558   1.761  15.864  0.1496 -0.4916 -0.2148
  912MPD2    H713363   1.531   1.858  15.849 -0.3311 -0.3445  1.6011
  913MPD2     C13364   3.140   2.916  10.943  0.6652  0.5367 -0.0684
  913MPD2    C113365   3.059   3.028  10.976  0.3086 -0.9687  0.5073
  913MPD2    C213366   3.019   3.120  10.876 -0.7768 -0.5972  0.4842
  913MPD2    C313367   3.052   3.094  10.741 -0.2225 -0.1233  0.9627
  913MPD2    C413368   3.130   2.985  10.709 -0.0380 -0.0052  0.0341
  913MPD2    C513369   3.166   2.894  10.810 -0.0454 -0.0979 -0.3894
  913MPD2     H13370   2.957   3.204  10.906  0.4055  0.5626 -0.2819
  913MPD2    H113371   3.174   2.963  10.612  1.1054  0.0648  0.5365
  913MPD2    H213372   3.178   2.847  11.017 -3.3943  0.8076  2.2735
  913MPD2    H313373   3.231   2.810  10.786 -1.2772 -0.2518 -3.1865
  913MPD2     N13374   3.008   3.170  10.628  0.0549  1.0901  0.1124
  913MPD2    H513375   3.036   3.125  10.541  0.6439  1.8289 -0.0833
  913MPD2    N113376   3.039   3.049  11.115  0.7744 -0.0529 -0.2484
  913MPD2    H713377   3.100   2.991  11.173  1.4925  1.4470  0.5004
  914MPD2     C13378   0.142   2.705  11.846  0.2214  0.1087  0.0950
  914MPD2    C113379   0.266   2.739  11.805 -0.5967  0.9528  0.1749
  914MPD2    C213380   0.374   2.724  11.890  0.2924  0.9711  0.2780
  914MPD2    C313381   0.362   2.696  12.027 -0.0672 -0.4345 -0.7062
  914MPD2    C413382   0.235   2.657  12.064 -0.4792 -0.2285  0.7970
  914MPD2    C513383   0.132   2.659  11.973 -0.2748  0.2126 -0.5020
  914MPD2     H13384   0.474   2.732  11.850  0.8557 -0.1034  1.4680
  914MPD2    H113385   0.221   2.639  12.170 -2.0417 -3.5508  0.0167
  914MPD2    H213386   0.052   2.718  11.786  0.4397  0.9189 -0.0640
  914MPD2    H313387   0.033   2.638  12.013 -1.2175  2.2203 -1.7281
  914MPD2     N13388   0.461   2.730  12.126 -0.4824  0.8069 -0.2449
  914MPD2    H513389   0.426   2.733  12.221  0.8825  2.6480  0.2083
  914MPD2    N113390   0.287   2.788  11.672  0.2630 -1.0522 -0.0034
  914MPD2    H713391   0.211   2.805  11.608  1.7625  0.1230 -1.4841
  915MPD2     C13392   3.312   2.959  15.906 -0.4652  0.0870  0.7416
  915MPD2    C113393   3.210   3.040  15.862  0.1942  0.1551 -0.4173
  915MPD2    C213394   3.129   3.109  15.964 -0.2791 -0.1549  0.4671
  915MPD2    C313395   3.159   3.103  16.099 -0.5530  0.0964 -0.2119
  915MPD2    C413396   3.277   3.036  16.135  0.1491  0.3243 -0.4180
  915MPD2    C513397   3.344   2.958  16.042 -0.2536 -0.1020 -0.6328
  915MPD2     H13398   3.040   3.163  15.934 -1.7510 -1.8241  1.8041
  915MPD2    H113399   3.309   3.022  16.237 -0.0609 -5.3154 -1.1382
  915MPD2    H213400   3.369   2.889  15.847 -0.2674 -0.5457  1.6804
  915MPD2    H313401   3.423   2.891  16.074 -1.0429  1.0284  3.6183
  915MPD2     N13402   3.070   3.160  16.189  0.7683  0.3007  0.1443
  915MPD2    H513403   2.990   3.201  16.143  1.4384  4.1190  2.3215
  915MPD2    N113404   3.186   3.024  15.720  0.3005 -0.6071 -0.0929
  915MPD2    H713405   3.251   2.976  15.660  1.6556  0.3404  0.6274
  916MPD2     C13406   1.070   1.171  15.637  0.2311  0.0009  0.8990
  916MPD2    C113407   1.020   1.072  15.718 -0.0851 -0.0004  0.0954
  916MPD2    C213408   1.035   0.940  15.689 -0.2748  0.0502 -0.4463
  916MPD2    C313409   1.113   0.900  15.581  0.1764 -0.7815 -0.0471
  916MPD2    C413410   1.155   1.000  15.488 -0.1160 -0.9027 -0.1947
  916MPD2    C513411   1.136   1.131  15.522  0.7009  0.2935 -0.5826
  916MPD2     H13412   1.009   0.864  15.762 -0.3165 -0.3267 -0.8567
  916MPD2    H113413   1.207   0.978  15.396  1.3298  0.4979  0.2996
  916MPD2    H213414   1.047   1.276  15.652 -0.5961 -0.1142  0.4400
  916MPD2    H313415   1.171   1.201  15.447  0.7053 -1.8135 -2.5363
  916MPD2     N13416   1.140   0.764  15.562 -0.7336 -0.0285  0.9287
  916MPD2    H513417   1.101   0.707  15.637 -1.2515  0.2146  0.8428
  916MPD2    N113418   0.949   1.117  15.835 -0.2002 -0.8883 -0.1768
  916MPD2    H713419   0.943   1.218  15.850 -3.4906 -1.0566 -0.3601
  917MPD2     C13420   1.867   3.576  10.918  0.6182  0.1031  0.1489
  917MPD2    C113421   1.930   3.596  11.040  0.6525  0.1708 -0.9760
  917MPD2    C213422   2.047   3.664  11.034  0.5262 -0.2918  0.5563
  917MPD2    C313423   2.084   3.733  10.920 -0.3767  0.0282  0.5109
  917MPD2    C413424   2.023   3.719  10.802 -0.7355 -0.1724  0.3529
  917MPD2    C513425   1.910   3.635  10.796 -0.6800  0.1372  0.0810
  917MPD2     H13426   2.098   3.690  11.127  3.7533  2.0182 -1.8595
  917MPD2    H113427   2.056   3.763  10.709  0.8694  1.6488  1.8089
  917MPD2    H213428   1.781   3.509  10.911  0.1585  0.5165  1.7582
  917MPD2    H313429   1.851   3.622  10.706 -1.4742 -0.6062  0.7160
  917MPD2     N13430   2.192   3.828  10.924 -0.1031  0.7565  0.4208
  917MPD2    H513431   2.199   3.889  10.843 -0.2871 -0.4802 -0.5297
  917MPD2    N113432   1.868   3.531  11.155 -0.7932 -0.1488  0.0286
  917MPD2    H713433   1.792   3.465  11.137 -0.5550  0.2194 -2.2857
  918MPD2     C13434   1.840   3.977  12.053  0.0963  0.7880  0.1900
  918MPD2    C113435   1.909   3.856  12.052  0.1645 -0.1121 -0.4403
  918MPD2    C213436   1.878   3.757  11.953  0.6796 -1.0859 -0.3903
  918MPD2    C313437   1.784   3.783  11.859 -0.3016  0.0341  0.3637
  918MPD2    C413438   1.714   3.904  11.867  0.4982  0.6112 -0.0228
  918MPD2    C513439   1.729   3.999  11.966 -0.1912  0.1889  0.2010
  918MPD2     H13440   1.950   3.676  11.949 -0.3273 -1.8999 -2.5911
  918MPD2    H113441   1.637   3.922  11.793  1.3054  0.4310 -0.9127
  918MPD2    H213442   1.867   4.064  12.111 -0.0090  0.0852  1.2864
  918MPD2    H313443   1.689   4.097  11.941  2.2853  1.3405  0.7608
  918MPD2     N13444   1.766   3.685  11.761 -0.2338  0.2268  0.5007
  918MPD2    H513445   1.825   3.603  11.764  0.9077  1.1604  3.7190
  918MPD2    N113446   2.023   3.831  12.130 -0.7271 -0.1411 -0.6254
  918MPD2    H713447   2.076   3.746  12.114  2.6192  1.5636  1.3233
  919MPD2     C13448   2.566   3.025  11.450  0.2567 -0.3713 -0.1633
  919MPD2    C113449   2.603   2.903  11.395  0.4888 -0.1997 -0.2378
  919MPD2    C213450   2.642   2.909  11.261  0.0402  0.7871  0.2159
  919MPD2    C313451   2.649   3.026  11.193  0.2222  0.0190  0.1988
  919MPD2    C413452   2.619   3.142  11.254  0.1039  0.1481  0.0159
  919MPD2    C513453   2.578   3.144  11.378  0.4027  0.4273 -0.0560
  919MPD2     H13454   2.657   2.811  11.219  1.1145 -0.7684  4.2784
  919MPD2    H113455   2.627   3.233  11.197  1.6679  1.2458  1.9788
  919MPD2    H213456   2.517   3.033  11.546  1.5145  0.7069  0.3850
  919MPD2    H313457   2.557   3.240  11.423  0.0638  1.3838 -2.2221
  919MPD2     N13458   2.686   3.033  11.054 -1.0181 -0.8779 -0.1961
  919MPD2    H513459   2.693   3.126  11.016 -0.7172 -0.4832  0.8343
  919MPD2    N113460   2.608   2.775  11.448  0.4220 -0.1187  0.5016
  919MPD2    H713461   2.655   2.705  11.391 -2.6786 -1.0624 -0.8531
  920MPD2     C13462   2.344   3.369  10.183  0.6045  0.0748 -0.0764
  920MPD2    C113463   2.299   3.237  10.183  0.4293  0.1846  0.2333
  920MPD2    C213464   2.346   3.165  10.289  0.3293  0.2414 -0.8018
  920MPD2    C313465   2.427   3.207  10.389  0.0294  0.1897  0.1939
  920MPD2    C413466   2.452   3.341  10.387 -0.1904 -0.0413 -0.1316
  920MPD2    C513467   2.418   3.422  10.285 -0.8256  0.7729 -0.3262
  920MPD2     H13468   2.328   3.059  10.300  1.7569  0.2827  1.8722
  920MPD2    H113469   2.514   3.386  10.464 -1.1604  0.3299  0.4247
  920MPD2    H213470   2.305   3.437  10.109  0.4586 -0.1590 -0.2148
  920MPD2    H313471   2.449   3.526  10.287  0.0237  0.5255 -0.1859
  920MPD2     N13472   2.473   3.115  10.488 -0.1520 -0.3218 -0.2077
  920MPD2    H513473   2.449   3.018  10.471  0.9271 -1.0978  2.6190
  920MPD2    N113474   2.212   3.176  10.088 -0.8479  0.3643  0.1318
  920MPD2    H713475   2.192   3.078  10.103  1.2808  0.1326  1.4087
  921MPD2     C13476   2.931   1.912  16.887 -0.5062  0.0387 -0.3650
  921MPD2    C113477   2.979   1.824  16.795  1.0132  0.2510  0.0147
  921MPD2    C213478   2.907   1.715  16.750  0.6504  0.1562 -0.2354
  921MPD2    C313479   2.785   1.685  16.814 -0.2630 -0.4490 -0.0724
  921MPD2    C413480   2.744   1.764  16.910  0.0824  0.1416 -0.1505
  921MPD2    C513481   2.809   1.880  16.943  0.1587 -0.1749 -0.1931
  921MPD2     H13482   2.949   1.657  16.669 -0.0174 -0.2125 -0.3186
  921MPD2    H113483   2.646   1.752  16.956  0.5507 -0.4569  0.6855
  921MPD2    H213484   2.987   1.993  16.931  0.8238 -0.4044 -1.2233
  921MPD2    H313485   2.771   1.941  17.024 -2.0030  0.7331 -1.8751
  921MPD2     N13486   2.703   1.574  16.780  0.3775 -0.0282 -0.4087
  921MPD2    H513487   2.616   1.575  16.832  1.9406 -1.9160  2.2870
  921MPD2    N113488   3.111   1.836  16.740 -0.5377 -0.1706  0.0801
  921MPD2    H713489   3.146   1.775  16.667  1.1587  1.0819 -0.1628
  922MPD2     C13490   3.691   4.716  17.527 -0.8637  0.1410  0.1647
  922MPD2    C113491   3.664   4.662  17.646  0.8040  0.0108  0.7191
  922MPD2    C213492   3.686   4.524  17.672  0.3026 -0.6044  0.2419
  922MPD2    C313493   3.729   4.447  17.567 -0.0849  0.2441 -0.6183
  922MPD2    C413494   3.749   4.508  17.438  0.0649 -0.1995  0.3701
  922MPD2    C513495   3.723   4.639  17.422  0.4051  0.5270 -0.1372
  922MPD2     H13496   3.660   4.491   0.093 -0.0995 -0.9671  0.0181
  922MPD2    H113497   3.775   4.450  17.350  1.9005  2.5098 -0.8733
  922MPD2    H213498   3.686   0.105  17.519  0.6399  0.1413 -0.7206
  922MPD2    H313499   3.754   4.682  17.328  0.1805 -1.5348 -1.1535
  922MPD2     N13500   3.748   4.310  17.585 -0.2830  0.7133 -0.1887
  922MPD2    H513501   3.715   4.267  17.671  2.3561  1.7076  1.3204
  922MPD2    N113502   3.614   0.025   0.079 -0.0488  0.3373 -0.2728
  922MPD2    H713503   3.624   4.700   0.170 -2.2773 -0.1978 -0.2928
  923MPD2     C13504   0.699   2.422   8.685 -0.4011 -0.1691 -0.0307
  923MPD2    C113505   0.664   2.433   8.819  0.1256 -0.8331  0.5729
  923MPD2    C213506   0.719   2.341   8.914  0.4222  0.2619 -0.3013
  923MPD2    C313507   0.792   2.234   8.870  0.0680  0.7718  0.1489
  923MPD2    C413508   0.826   2.223   8.738  0.4692 -0.3376  0.5237
  923MPD2    C513509   0.777   2.315   8.650  0.4404 -0.3863  0.4020
  923MPD2     H13510   0.694   2.351   9.020  0.5319 -0.0362 -0.2462
  923MPD2    H113511   0.890   2.138   8.713 -1.1289 -1.1650 -0.7412
  923MPD2    H213512   0.673   2.491   8.606  0.5169  0.3854  0.1488
  923MPD2    H313513   0.824   2.308   8.553  2.2494 -0.1091  1.2688
  923MPD2     N13514   0.845   2.130   8.956  0.0151  0.0296  0.5264
  923MPD2    H513515   0.888   2.049   8.912 -0.2960  0.5340 -0.7077
  923MPD2    N113516   0.584   2.544   8.851  0.1360 -0.3329 -0.5351
  923MPD2    H713517   0.558   2.598   8.769  1.5198 -0.7509 -1.2632
  924MPD2     C13518   0.334   4.352  15.953  0.6338 -0.2099 -0.0148
  924MPD2    C113519   0.313   4.359  16.089  0.8112  0.2175  0.3910
  924MPD2    C213520   0.325   4.482  16.158  0.4287  0.0658 -0.2345
  924MPD2    C313521   0.355   4.596  16.088  0.2403  0.4354 -0.1790
  924MPD2    C413522   0.372   4.586  15.952 -0.7342 -0.2947 -0.5678
  924MPD2    C513523   0.365   4.467  15.886  0.8818  0.1999 -0.7132
  924MPD2     H13524   0.295   4.491  16.261 -0.4131 -0.2426 -0.4580
  924MPD2    H113525   0.401   4.671  15.891 -0.5849 -0.8827 -1.3132
  924MPD2    H213526   0.316   4.262  15.895  0.5008 -0.4070  0.3342
  924MPD2    H313527   0.385   4.466  15.779 -1.1096  2.7242 -1.1057
  924MPD2     N13528   0.357   0.011  16.140  0.4160 -0.3544  0.0636
  924MPD2    H513529   0.384   0.087  16.078  0.2219  0.2732  0.7406
  924MPD2    N113530   0.275   4.241  16.158 -0.1737  0.9016 -0.3335
  924MPD2    H713531   0.254   4.164  16.094  1.0654  0.5565 -0.3143
  925MPD2     C13532   3.575   2.153  14.495  0.4252  0.1977 -0.3201
  925MPD2    C113533   3.683   2.070  14.476  0.6234 -0.2083 -0.4037
  925MPD2    C213534   3.733   2.000  14.583 -0.6756 -0.1231 -0.3615
  925MPD2    C313535   3.662   2.007  14.703  1.0795 -0.5567 -0.2573
  925MPD2    C413536   3.548   2.086  14.721 -0.5736  0.0111  0.1817
  925MPD2    C513537   3.516   2.177  14.621 -0.2964 -0.4118 -0.2378
  925MPD2     H13538   3.824   1.942  14.571 -0.7819 -0.1728 -0.9344
  925MPD2    H113539   3.492   2.093  14.814  0.4292  0.8923  0.7190
  925MPD2    H213540   3.542   2.216  14.414  0.1081  1.2003  0.5830
  925MPD2    H313541   3.444   2.256  14.637 -1.5654 -1.0518 -2.8558
  925MPD2     N13542   3.690   1.920  14.811  0.3985  0.4391  0.2353
  925MPD2    H513543   3.632   1.943  14.891 -2.7048 -2.5575 -1.1228
  925MPD2    N113544   3.752   2.052  14.353 -0.0240  0.3227  0.6271
  925MPD2    H713545   3.843   2.007  14.346 -0.9863 -1.6808  0.8825
  926MPD2     C13546   2.471   0.426  13.693 -0.5115  0.0613  0.6245
  926MPD2    C113547   2.365   0.467  13.621 -1.0140 -0.1036 -0.1489
  926MPD2    C213548   2.380   0.510  13.494 -0.4450 -0.5088 -0.4120
  926MPD2    C313549   2.505   0.523  13.434 -0.7100  0.5099 -0.5080
  926MPD2    C413550   2.617   0.472  13.498  0.2423 -0.2489 -0.3972
  926MPD2    C513551   2.597   0.426  13.629 -0.3616  0.2018  0.2238
  926MPD2     H13552   2.293   0.556  13.446  0.0177  0.9097  0.1095
  926MPD2    H113553   2.713   0.474  13.449  0.9274 -0.3570  0.9437
  926MPD2    H213554   2.466   0.396  13.797  2.3909 -0.2176  0.6795
  926MPD2    H313555   2.681   0.392  13.688 -0.9552  1.1544  1.6127
  926MPD2     N13556   2.526   0.595  13.320  0.2368 -0.5966  0.1124
  926MPD2    H513557   2.621   0.627  13.305 -0.0613 -0.9227 -2.5034
  926MPD2    N113558   2.235   0.487  13.669 -0.2272  0.5896  0.0909
  926MPD2    H713559   2.166   0.517  13.600 -3.4169 -1.1573  2.5463
  927MPD2     C13560   1.723   3.182  17.593  0.6647  0.1155  0.5959
  927MPD2    C113561   1.857   3.202  17.632 -0.2553  0.0331  0.0172
  927MPD2    C213562   1.949   3.105  17.602 -1.2664 -0.0400 -0.3159
  927MPD2    C313563   1.915   2.983  17.546 -0.2414 -0.7461 -0.7299
  927MPD2    C413564   1.783   2.959  17.520  0.4705 -0.2822 -0.3396
  927MPD2    C513565   1.692   3.059  17.540  0.1643 -0.5434  0.0494
  927MPD2     H13566   2.055   3.121  17.621 -1.3559 -0.1623  0.2994
  927MPD2    H113567   1.748   2.864  17.483  1.3018 -0.4594 -0.6755
  927MPD2    H213568   1.646   3.259  17.601  1.1020  0.8921 -2.6550
  927MPD2    H313569   1.595   3.044  17.495  0.4687  3.0929 -1.8275
  927MPD2     N13570   2.015   2.873  17.542  0.0880 -0.6265  0.5784
  927MPD2    H513571   2.110   2.900  17.567 -0.4790  0.0699  1.9985
  927MPD2    N113572   1.889   3.326   0.013 -0.3292 -0.2381 -0.7040
  927MPD2    H713573   1.819   3.396   0.036  1.5250  1.3133  0.3201
  928MPD2     C13574   4.095   1.810   0.884 -0.1757 -0.3499 -0.0242
  928MPD2    C113575   4.165   1.916   0.945 -0.0842  0.6500 -0.4984
  928MPD2    C213576   4.300   1.920   0.926  0.1314 -0.5071  0.0430
  928MPD2    C313577   4.366   1.828   0.847  0.1489  0.7134 -0.3262
  928MPD2    C413578   4.298   1.723   0.797  0.2729 -0.3297  0.1100
  928MPD2    C513579   4.163   1.710   0.812 -0.3333 -0.2714 -0.1210
  928MPD2     H13580   4.356   2.003   0.966 -0.8457  0.3774 -0.4092
  928MPD2    H113581   4.349   1.656   0.729  0.1451 -0.1342 -0.1762
  928MPD2    H213582   3.989   1.794   0.900  0.3033 -3.3492  0.1907
  928MPD2    H313583   4.110   1.630   0.761  0.6922 -0.3113 -1.1013
  928MPD2     N13584   4.508   1.841   0.830 -0.0309 -0.3853 -0.5522
  928MPD2    H513585   4.553   1.768   0.775 -1.1797 -0.1398 -1.8257
  928MPD2    N113586   4.091   2.005   1.028 -0.1200  0.1150  0.3101
  928MPD2    H713587   3.993   1.983   1.047 -0.4575  1.9335  0.6829
  929MPD2     C13588   0.739   1.775  10.379 -0.0940 -0.2285  0.3759
  929MPD2    C113589   0.707   1.691  10.270  0.0239 -0.1663 -0.2906
  929MPD2    C213590   0.649   1.755  10.163  0.3379 -0.0762  0.3435
  929MPD2    C313591   0.630   1.892  10.155 -0.3148  0.3162  0.8478
  929MPD2    C413592   0.656   1.962  10.267  0.2504  0.4590  0.2064
  929MPD2    C513593   0.698   1.904  10.380  0.0798  0.2540 -0.3000
  929MPD2     H13594   0.646   1.701  10.069 -3.0015 -1.5533  1.2644
  929MPD2    H113595   0.643   2.070  10.266 -1.9561  0.2029  0.9593
  929MPD2    H213596   0.785   1.726  10.464 -0.3454 -0.9530  0.0956
  929MPD2    H313597   0.713   1.962  10.470  2.1422  0.3841 -0.7293
  929MPD2     N13598   0.587   1.963  10.041  0.4498 -0.1074 -0.0158
  929MPD2    H513599   0.578   2.064  10.052  0.4719 -0.2186  0.9754
  929MPD2    N113600   0.744   1.552  10.274  0.8024  0.1840 -0.3705
  929MPD2    H713601   0.808   1.525  10.348 -0.5621 -3.1737 -0.4020
  930MPD2     C13602   2.307   3.370  14.274  0.3850  0.7118  0.5072
  930MPD2    C113603   2.281   3.473  14.185  0.2761 -0.3334 -0.0411
  930MPD2    C213604   2.236   3.453  14.055  0.2018 -0.4690  0.3737
  930MPD2    C313605   2.224   3.329  14.006  0.4471  0.8034  1.2076
  930MPD2    C413606   2.266   3.225  14.090 -0.8530  0.3188  0.4613
  930MPD2    C513607   2.291   3.247  14.226 -0.5829 -0.5206  0.0812
  930MPD2     H13608   2.211   3.541  13.996 -2.6238 -0.6335  1.3561
  930MPD2    H113609   2.265   3.121  14.060 -2.8774  0.4829 -0.0445
  930MPD2    H213610   2.343   3.387  14.375 -2.2447  0.1739  1.5389
  930MPD2    H313611   2.308   3.160  14.290  2.9085  1.5668  2.0219
  930MPD2     N13612   2.178   3.306  13.876 -0.0281 -0.6865 -0.2259
  930MPD2    H513613   2.185   3.212  13.837  0.6858  0.2815 -2.4222
  930MPD2    N113614   2.314   3.609  14.214  0.3352  0.3875  0.2680
  930MPD2    H713615   2.306   3.675  14.137  0.8026 -1.1760 -1.1219
  931MPD2     C13616   2.060   3.768   0.777 -0.6185  0.1776  0.0738
  931MPD2    C113617   2.056   3.638   0.727  0.4019 -0.5035  0.0909
  931MPD2    C213618   2.031   3.533   0.815 -0.5427  0.3321 -0.7808
  931MPD2    C313619   2.005   3.565   0.948 -0.4067  0.2350  0.4477
  931MPD2    C413620   2.016   3.690   0.998 -0.3584  0.2365 -0.0466
  931MPD2    C513621   2.046   3.794   0.908 -0.2965 -0.0154  0.8611
  931MPD2     H13622   2.006   3.432   0.785  0.3332 -0.4525  1.1298
  931MPD2    H113623   1.988   3.707   1.102  2.2507 -1.6656  0.9390
  931MPD2    H213624   2.084   3.850   0.711  1.7610  0.1580  0.9054
  931MPD2    H313625   2.035   3.897   0.941 -2.9852  0.1170 -0.4474
  931MPD2     N13626   1.951   3.469   1.040  0.2178  0.2139 -0.0758
  931MPD2    H513627   1.912   3.512   1.124 -1.4972  0.4663 -1.0020
  931MPD2    N113628   2.070   3.630   0.585 -0.0355 -0.1590  0.2619
  931MPD2    H713629   2.070   3.717   0.532  0.7673 -0.3819 -0.1113
  932MPD2     C13630   3.570   2.298  11.143  0.9877  0.1669 -0.5096
  932MPD2    C113631   3.668   2.358  11.068 -0.1696 -0.3719  0.7199
  932MPD2    C213632   3.711   2.311  10.952  0.4346 -0.1101  1.1652
  932MPD2    C313633   3.659   2.194  10.905 -0.3880  0.2949  0.3672
  932MPD2    C413634   3.554   2.130  10.967 -0.3458 -0.3134 -0.2586
  932MPD2    C513635   3.510   2.184  11.090  0.0057 -0.5412 -0.8683
  932MPD2     H13636   3.794   2.359  10.902 -0.8945  0.1068 -0.8758
  932MPD2    H113637   3.515   2.034  10.934 -0.6002 -0.0675 -0.6679
  932MPD2    H213638   3.522   2.343  11.229 -0.7260  0.0289 -1.3935
  932MPD2    H313639   3.430   2.138  11.147 -0.5858  1.9433  0.3103
  932MPD2     N13640   3.725   2.134  10.793  0.4889 -0.2421 -0.1326
  932MPD2    H513641   3.701   2.037  10.772  0.4248 -0.0836 -0.7809
  932MPD2    N113642   3.732   2.470  11.106 -0.3295 -0.0728  0.6558
  932MPD2    H713643   3.820   2.498  11.065 -0.2689 -0.8440  0.2582
  933MPD2     C13644   3.526   1.881   1.054  0.5957 -0.1424  0.3757
  933MPD2    C113645   3.524   2.016   1.086  0.1152  0.0456 -0.8445
  933MPD2    C213646   3.399   2.075   1.079  0.6166 -0.0275  0.3762
  933MPD2    C313647   3.288   2.003   1.036 -0.4076  0.1664 -0.2547
  933MPD2    C413648   3.293   1.868   1.010  0.0197 -0.2521 -0.0390
  933MPD2    C513649   3.419   1.813   1.019  0.1859 -0.1905 -0.1487
  933MPD2     H13650   3.390   2.182   1.096  0.2452  0.2487 -1.5287
  933MPD2    H113651   3.214   1.803   0.974 -0.0654  0.2863 -0.8075
  933MPD2    H213652   3.614   1.819   1.070  0.1062 -0.8823  0.2085
  933MPD2    H313653   3.433   1.709   0.993  4.2773 -0.2681  2.3840
  933MPD2     N13654   3.171   2.081   1.017  0.2520  0.0329 -0.5903
  933MPD2    H513655   3.184   2.175   1.054 -4.6000 -0.0017  1.2235
  933MPD2    N113656   3.640   2.080   1.133  0.2427  0.0874  0.1610
  933MPD2    H713657   3.717   2.014   1.138  1.8592  1.9580 -0.2291
  934MPD2     C13658   0.991   3.858   2.094  0.2187 -0.2347  0.1905
  934MPD2    C113659   1.094   3.860   1.999  0.5342 -0.1607 -0.4825
  934MPD2    C213660   1.070   3.815   1.873  0.5032  0.2920 -0.4513
  934MPD2    C313661   0.952   3.748   1.836 -0.1097 -0.2755  0.8714
  934MPD2    C413662   0.855   3.733   1.933  0.3719 -0.3285  0.5752
  934MPD2    C513663   0.873   3.796   2.057  0.0322  0.1720  0.9612
  934MPD2     H13664   1.144   3.825   1.795  0.5169  4.0066  0.0443
  934MPD2    H113665   0.760   3.686   1.908  0.3918  0.4491 -0.9983
  934MPD2    H213666   1.003   3.895   2.195  1.4720 -0.3155  0.0802
  934MPD2    H313667   0.799   3.788   2.136  0.0231  0.5945  0.9949
  934MPD2     N13668   0.937   3.672   1.716  0.3500  0.1070  0.2087
  934MPD2    H513669   0.847   3.627   1.701 -0.0915  1.1079 -0.1122
  934MPD2    N113670   1.221   3.912   2.035  0.3060  0.2896  0.3133
  934MPD2    H713671   1.293   3.908   1.963 -0.6552 -2.7742 -0.4854
  935MPD2     C13672   1.520   3.411   0.953 -0.5267 -0.1566  0.0286
  935MPD2    C113673   1.412   3.326   0.969 -0.9130 -0.0380  0.0000
  935MPD2    C213674   1.303   3.357   1.050 -0.0353 -0.1864 -0.5459
  935MPD2    C313675   1.303   3.485   1.101  0.3179  0.1675  0.3363
  935MPD2    C413676   1.407   3.570   1.078 -0.1728 -0.1648 -0.2376
  935MPD2    C513677   1.517   3.531   1.012  0.3538  0.2658  0.5517
  935MPD2     H13678   1.225   3.284   1.062 -1.1879  1.2291  0.5863
  935MPD2    H113679   1.404   3.667   1.126  0.5315 -0.5012  0.4971
  935MPD2    H213680   1.612   3.388   0.900 -0.3589 -2.0130  1.1282
  935MPD2    H313681   1.599   3.601   1.002 -0.5454  1.0397 -1.4324
  935MPD2     N13682   1.196   3.529   1.178  0.3776  0.1123 -0.3924
  935MPD2    H513683   1.202   3.624   1.214  2.8982 -0.3485  0.3827
  935MPD2    N113684   1.410   3.195   0.906  0.1217 -0.7350  0.0998
  935MPD2    H713685   1.321   3.146   0.903  0.2909 -1.1241  1.1554
  936MPD2     C13686   4.316   1.284  12.360  0.2755  0.2039  0.7791
  936MPD2    C113687   4.370   1.256  12.481 -0.0998  0.0511 -0.5792
  936MPD2    C213688   4.494   1.309  12.517  0.9475 -0.0811  0.4782
  936MPD2    C313689   4.574   1.377  12.424 -0.1126 -0.7047 -0.3268
  936MPD2    C413690   4.513   1.407  12.306  0.2309  0.0456 -0.1767
  936MPD2    C513691   4.384   1.371  12.279  0.4680 -0.0002 -0.4393
  936MPD2     H13692   4.524   1.296  12.620  2.7353 -0.2399 -0.0773
  936MPD2    H113693   4.577   1.470  12.246  2.8978 -0.7227  1.8268
  936MPD2    H213694   4.225   1.234  12.327 -0.7278  3.0363 -0.7110
  936MPD2    H313695   4.340   1.401  12.184 -0.5595 -1.8397 -0.5408
  936MPD2     N13696   4.706   1.406  12.454  0.7805  0.4804 -0.2675
  936MPD2    H513697   0.016   1.389  12.550  0.3980  0.4221 -0.1606
  936MPD2    N113698   4.336   1.149  12.564 -0.3430 -0.1682 -0.2865
  936MPD2    H713699   4.392   1.150  12.649  2.7054 -2.3857 -2.2832
  937MPD2     C13700   2.866   2.114  11.383  1.0555 -0.6539 -0.4832
  937MPD2    C113701   2.902   2.248  11.401  1.0141  0.6348  0.0463
  937MPD2    C213702   2.985   2.307  11.306  0.6882  0.7441 -0.4966
  937MPD2    C313703   3.037   2.226  11.202  0.0933 -0.9667 -0.1384
  937MPD2    C413704   2.985   2.097  11.184  0.1195  0.6573 -0.5936
  937MPD2    C513705   2.912   2.037  11.274  0.5508 -0.8837 -0.3537
  937MPD2     H13706   3.017   2.411  11.306 -0.7918  1.1961  0.3446
  937MPD2    H113707   3.009   2.044  11.093  0.9916  2.3118 -1.3371
  937MPD2    H213708   2.793   2.076  11.453  0.3243 -1.7870 -1.8488
  937MPD2    H313709   2.883   1.935  11.250 -1.3657 -0.5455  0.4827
  937MPD2     N13710   3.128   2.297  11.117 -0.7314  0.2841 -0.4484
  937MPD2    H513711   3.147   2.388  11.157 -0.0476  0.1025 -0.3592
  937MPD2    N113712   2.842   2.338  11.497  0.2149  0.0761 -0.1602
  937MPD2    H713713   2.867   2.436  11.494 -1.9984  0.6219 -0.7555
  938MPD2     C13714   4.257   3.924   1.260 -0.7001 -0.1655 -0.6664
  938MPD2    C113715   4.373   3.863   1.295 -0.3367  0.1554  0.6243
  938MPD2    C213716   4.370   3.778   1.411 -0.5774  0.1747 -0.5302
  938MPD2    C313717   4.254   3.765   1.481 -0.1820 -0.1419 -0.0888
  938MPD2    C413718   4.137   3.829   1.440 -0.2332 -0.5936 -0.9943
  938MPD2    C513719   4.137   3.905   1.323 -0.4034 -0.3867 -0.0714
  938MPD2     H13720   4.457   3.724   1.444  0.3357  1.5170 -0.7159
  938MPD2    H113721   4.048   3.827   1.502  0.1849  3.8902 -0.2377
  938MPD2    H213722   4.254   3.988   1.172  1.1243 -0.7810 -1.1868
  938MPD2    H313723   4.048   3.967   1.311 -0.6843 -0.9956 -1.2062
  938MPD2     N13724   4.245   3.675   1.597 -0.1819 -0.6242  0.0594
  938MPD2    H513725   4.152   3.654   1.631 -0.1875 -0.4852  0.1325
  938MPD2    N113726   4.500   3.867   1.228  0.4860  0.0937 -0.8247
  938MPD2    H713727   4.582   3.837   1.280 -0.4115 -0.9602 -0.0050
  939MPD2     C13728   1.226   4.362   1.022  0.4173  0.0003 -0.1437
  939MPD2    C113729   1.152   4.396   0.916  0.6067  0.6655 -0.2995
  939MPD2    C213730   1.200   4.383   0.786 -0.0752  0.1985  0.9850
  939MPD2    C313731   1.326   4.320   0.762 -0.4417 -0.8377 -0.3094
  939MPD2    C413732   1.394   4.280   0.879 -0.2888 -0.6862 -0.3351
  939MPD2    C513733   1.343   4.295   1.006  0.0523  0.2320  0.3167
  939MPD2     H13734   1.145   4.420   0.701  1.0524  1.3055  0.7338
  939MPD2    H113735   1.491   4.231   0.873  0.0442 -0.0447 -0.2505
  939MPD2    H213736   1.200   4.377   1.126  3.4228 -2.5816  1.0014
  939MPD2    H313737   1.391   4.255   1.095 -1.1483 -2.1268 -0.1055
  939MPD2     N13738   1.374   4.305   0.628  0.4882  0.1916 -0.6042
  939MPD2    H513739   1.314   4.335   0.552  1.2931  1.2405 -0.8296
  939MPD2    N113740   1.031   4.451   0.949  0.1721 -0.3815 -0.8211
  939MPD2    H713741   1.018   4.479   1.046  1.4027 -1.6361 -0.3009
  940MPD2     C13742   0.200   0.132  13.015  0.5446 -0.2290  0.3278
  940MPD2    C113743   0.301   0.131  13.103 -0.5472  0.7067  0.6711
  940MPD2    C213744   0.433   0.156  13.054  0.0650  0.9031 -1.1498
  940MPD2    C313745   0.461   0.174  12.913 -1.0352 -0.4769  0.6682
  940MPD2    C413746   0.354   0.176  12.829 -0.3999  0.2552  0.2555
  940MPD2    C513747   0.223   0.164  12.889  0.1009 -0.5208  0.6302
  940MPD2     H13748   0.517   0.143  13.120 -0.8895  0.4123 -0.0334
  940MPD2    H113749   0.371   0.200  12.725  2.1507  0.5872  0.7560
  940MPD2    H213750   0.097   0.119  13.048 -0.1869 -2.5910 -2.9481
  940MPD2    H313751   0.146   0.163  12.812  1.0568  2.0757 -0.3633
  940MPD2     N13752   0.583   0.203  12.859  0.0757  0.0570 -0.0018
  940MPD2    H513753   0.584   0.254  12.771 -0.7334 -0.6863 -0.4489
  940MPD2    N113754   0.292   0.111  13.239 -0.1592  0.4216  0.2469
  940MPD2    H713755   0.375   0.107  13.298  0.4146  1.9583 -0.4651
  941MPD2     C13756   0.258   4.705   9.162  0.6027  0.1955  0.0783
  941MPD2    C113757   0.345   4.712   9.272  0.3363 -0.1357  0.3507
  941MPD2    C213758   0.326   4.623   9.372  0.6171 -0.8195 -0.5802
  941MPD2    C313759   0.221   4.536   9.379  0.7474 -0.4466 -0.3617
  941MPD2    C413760   0.132   4.536   9.277  0.1460 -0.5272 -0.2995
  941MPD2    C513761   0.154   4.614   9.172 -0.0383 -0.0006  0.3566
  941MPD2     H13762   0.384   4.637   9.463  0.1622 -0.2637 -0.3776
  941MPD2    H113763   0.037   4.484   9.282  0.7930 -1.6745 -0.1133
  941MPD2    H213764   0.268   0.042   9.070  2.6729 -1.9839 -1.0091
  941MPD2    H313765   0.081   4.628   9.093  1.1387  0.8981 -0.5744
  941MPD2     N13766   0.192   4.457   9.495  0.3355  0.4581 -0.1427
  941MPD2    H513767   0.119   4.387   9.498  1.1674 -0.4633 -1.6219
  941MPD2    N113768   0.460   0.077   9.274  0.0992  0.1715  0.1734
  941MPD2    H713769   0.519   0.062   9.355 -0.4777  0.0490  0.5795
  942MPD2     C13770   4.596   2.924   8.967 -0.2864 -0.4758  0.4029
  942MPD2    C113771   4.666   2.933   8.854 -0.0582  0.0455  0.2699
  942MPD2    C213772   4.717   2.811   8.798 -0.2564 -0.2492 -0.2341
  942MPD2    C313773   4.686   2.684   8.856  0.3198  0.6243 -0.1118
  942MPD2    C413774   4.608   2.690   8.973 -0.1001 -0.0266  0.4354
  942MPD2    C513775   4.577   2.806   9.027 -0.3060  0.4656 -0.1939
  942MPD2     H13776   0.061   2.823   8.710 -0.2695  2.0913  0.0679
  942MPD2    H113777   4.583   2.601   9.029  1.2497  0.7459  2.2737
  942MPD2    H213778   4.551   3.017   9.001 -0.2512 -0.1250 -0.5063
  942MPD2    H313779   4.528   2.803   9.124 -0.4277  0.9927 -0.2398
  942MPD2     N13780   0.018   2.555   8.818 -0.4399  0.3624 -0.6468
  942MPD2    H513781   4.713   2.478   8.879  2.1810 -0.9955 -1.3479
  942MPD2    N113782   4.683   3.054   8.784  0.0113  0.4409 -0.6943
  942MPD2    H713783   0.014   3.036   8.698 -1.2537 -0.4056 -1.2585
  943MPD2     C13784   2.108   3.893   9.713  0.0155  0.1916 -0.5436
  943MPD2    C113785   2.124   4.030   9.724  0.5313 -0.3815  0.5949
  943MPD2    C213786   2.010   4.113   9.723  0.1669 -0.2918 -0.2263
  943MPD2    C313787   1.892   4.060   9.677  0.9935 -0.1087 -0.2105
  943MPD2    C413788   1.887   3.925   9.648 -0.5309 -0.0689 -0.0526
  943MPD2    C513789   1.989   3.841   9.676  0.5867 -0.8779 -0.1699
  943MPD2     H13790   2.017   4.219   9.744  0.9950 -0.0792 -1.5416
  943MPD2    H113791   1.791   3.891   9.612 -1.0035 -0.4064  1.5088
  943MPD2    H213792   2.188   3.821   9.721  1.5854  2.2939  2.8099
  943MPD2    H313793   1.975   3.734   9.666  0.6949 -0.9759  0.6904
  943MPD2     N13794   1.779   4.138   9.645 -1.2844  0.3456 -0.7295
  943MPD2    H513795   1.707   4.096   9.588 -2.1947 -0.7381  1.2205
  943MPD2    N113796   2.253   4.076   9.744  0.0362  0.7505  0.1474
  943MPD2    H713797   2.326   4.007   9.759  0.3596  1.3156  1.1482
  944MPD2     C13798   3.335   3.157  11.202 -0.3193 -0.7317  0.0246
  944MPD2    C113799   3.335   3.270  11.119 -0.2778  0.4476 -0.1068
  944MPD2    C213800   3.286   3.392  11.164  0.2238  0.7173  1.0244
  944MPD2    C313801   3.244   3.406  11.293  0.3056 -0.6032  0.0591
  944MPD2    C413802   3.255   3.297  11.380  0.3379 -0.2739  0.1197
  944MPD2    C513803   3.297   3.175  11.332 -0.3268 -0.2072  0.2784
  944MPD2     H13804   3.278   3.471  11.091 -1.2738  0.5635  1.0155
  944MPD2    H113805   3.229   3.296  11.486 -1.8199 -1.2451 -0.4186
  944MPD2    H213806   3.379   3.063  11.171 -2.8997 -1.7545 -0.5518
  944MPD2    H313807   3.310   3.098  11.407  0.2398  0.3448  0.7487
  944MPD2     N13808   3.193   3.530  11.331  0.3239 -0.2045  0.5139
  944MPD2    H513809   3.190   3.596  11.254  1.0466 -0.9631 -0.1593
  944MPD2    N113810   3.372   3.237  10.983 -0.2442  0.6146  0.8667
  944MPD2    H713811   3.394   3.140  10.967 -0.3276  0.7910 -0.3284
    1TCq1    O113812   0.857   3.857  14.703  0.3505 -0.4174 -0.2351
    1TCq1    C113813   0.936   3.939  14.774 -0.6878 -0.6714 -0.2879
    1TCq1    O213814   1.002   3.902  14.870  0.5051  0.1241  0.3257
    1TCq1    C213815   0.888   4.070  14.754 -0.4173  0.3451 -0.0589
    1TCq1    C313816   0.934   4.157  14.847  0.0102  0.5618  0.5886
    1TCq1    C413817   0.926   4.296  14.826  0.0208 -0.5259 -0.3335
    1TCq1    C513818   0.879   4.346  14.711  0.2198  0.4107  0.1800
    1TCq1    C613819   0.819   4.256  14.624  0.3129  0.9214  0.3078
    1TCq1    C713820   0.834   4.121  14.638 -0.0349  0.4782 -0.3270
    1TCq1    C813821   0.756   4.307  14.499 -0.0485 -0.5157  0.5572
    1TCq1    O413822   0.659   4.244  14.463  0.2537  0.3141  0.7059
    1TCq1    C913823   0.999   4.377  14.914  0.1691  0.5984  0.8853
    1TCq1    O513824   1.041   4.330  15.024  0.4034  0.2027 -0.5342
    1TCq1    O613825   1.014   4.497  14.870  0.1120 -0.8260  0.3534
    1TCq1    H113826   0.793   3.903  14.644  0.5182  0.3013  0.1379
    1TCq1    H213827   0.989   4.129  14.937 -0.1119  2.8878  1.3940
    1TCq1    H313828   0.864   4.453  14.707  1.1578  0.5618  0.7573
    1TCq1    H413829   0.792   4.057  14.561 -1.0139  0.7642 -0.0396
    2MPD2     C13830   0.659   4.650  14.141 -0.3546  0.4375  0.0975
    2MPD2    C113831   0.774   4.692  14.201 -0.0794  0.1488  0.0433
    2MPD2    C213832   0.821   4.612  14.304  0.0439  0.5657  0.4362
    2MPD2    C313833   0.755   4.503  14.346 -0.4412  0.3931 -0.4939
    2MPD2    C413834   0.644   4.461  14.276  0.7445  0.6850  0.3755
    2MPD2    C513835   0.595   4.538  14.178 -0.0142  0.1814  0.7378
    2MPD2     H13836   0.912   4.636  14.358  0.0044  1.6789  0.0096
    2MPD2    H113837   0.590   4.371  14.304  0.2240  0.4862 -1.2837
    2MPD2    H213838   0.602   4.715  14.076  0.8296  1.0302 -0.3452
    2MPD2    H313839   0.508   4.500  14.126 -0.3825  1.3858  0.4578
    2MPD2     N13840   0.808   4.423  14.453 -0.0905  1.0433 -0.1117
    2MPD2    H513841   0.900   4.437  14.493 -0.0837 -0.0463  0.2606
    2MPD2    N113842   0.836   0.090  14.151  0.3854  0.8229 -0.4625
    2MPD2    H713843   0.789   0.128  14.069 -0.6498  0.1398 -0.1914
    3TMC2    C113844   0.974   0.279  14.152  0.4083 -0.1760  1.0914
    3TMC2    C213845   1.009   0.387  14.232  0.1503  0.4443 -0.2076
    3TMC2    C313846   1.023   0.509  14.175  0.6111 -0.1753 -0.4804
    3TMC2    C413847   0.968   0.302  14.017 -0.1980  0.6293 -0.1660
    3TMC2    C513848   0.976   0.423  13.960  0.2372  0.0627  0.1664
    3TMC2    C613849   1.010   0.529  14.044  0.6207  0.5428 -0.2500
    3TMC2     C13850   0.939   0.155  14.216 -0.3135 -0.3543 -0.4096
    3TMC2     O13851   0.969   0.135  14.331 -0.3081  0.1220  0.0021
    3TMC2     H13852   1.033   0.364  14.335 -0.9575  0.2851  0.0120
    3TMC2    H113853   0.958   0.208  13.964  0.9709 -0.6621  1.9299
    3TMC2    H213854   1.018   0.629  14.002  1.3495  1.2195  1.4770
    3TMC2    C713855   0.948   0.454  13.815 -0.3643  0.7177  0.2206
    3TMC2    C813856   1.092   0.606  14.251 -0.0110  0.3874  0.3729
    3TMC2    O113857   0.994   0.558  13.778  0.3735 -0.4886  0.3935
    3TMC2    O213858   1.138   0.707  14.201  0.3854  0.5317 -0.0411
    3TMC2    O513859   1.023   0.601  14.364  0.3721 -0.9451 -0.0601
    3TMC2    H513860   0.984   0.514  14.385  1.8833 -1.1998  1.7282
    4MPD2     C13861   4.525   1.158  13.350  0.3339  0.4160  0.0567
    4MPD2    C113862   4.603   1.242  13.269 -0.0878  0.0461  0.0045
    4MPD2    C213863   0.024   1.217  13.261  0.5062  0.2480  0.0842
    4MPD2    C313864   0.082   1.114  13.340  0.9556  0.2239 -0.2177
    4MPD2    C413865   0.005   1.033  13.424  0.1870 -0.6501 -0.0882
    4MPD2    C513866   4.585   1.051  13.425  0.5947 -0.3171  0.2601
    4MPD2     H13867   0.084   1.282  13.198  1.2550 -0.5064  0.0184
    4MPD2    H113868   0.043   0.954  13.487 -0.5463  0.3472  1.6063
    4MPD2    H213869   4.418   1.168  13.358  0.3602 -0.3515  1.4229
    4MPD2    H313870   4.530   0.996  13.501  0.3810 -2.6989 -1.6080
    4MPD2     N13871   0.222   1.098  13.334  0.4318  0.0599 -0.5601
    4MPD2    H513872   0.270   1.163  13.273  1.4874  1.0097  1.2644
    4MPD2    N113873   4.537   1.348  13.197  0.7358 -0.1747  1.0788
    4MPD2    H713874   4.442   1.375  13.222  0.5554 -0.8252  1.1062
    5TCq2    C113875   0.293   0.998  13.398  0.4694 -0.9220 -0.6497
    5TCq2    O213876   0.258   0.895  13.460 -0.3071 -0.0303 -0.1329
    5TCq2    C213877   0.440   1.020  13.389  0.1265 -0.0999  0.1731
    5TCq2    C313878   0.492   1.152  13.388  1.7753 -0.0456 -0.6350
    5TCq2    C413879   0.622   1.164  13.437  0.4666  0.6278  0.3562
    5TCq2    C513880   0.699   1.059  13.460  0.1386  0.1918  0.5906
    5TCq2    C613881   0.646   0.930  13.452  0.1108 -0.5848  0.7921
    5TCq2    C713882   0.520   0.908  13.406 -0.6208 -0.4768 -0.0739
    5TCq2    C813883   0.727   0.813  13.494  0.6029 -0.0847  0.0623
    5TCq2    O413884   0.825   0.837  13.569  0.4785 -0.2598 -0.1396
    5TCq2    C913885   0.677   1.297  13.435 -0.0004 -0.0915 -0.3836
    5TCq2    O513886   0.598   1.385  13.475 -0.4938  0.1593 -0.0575
    5TCq2    O613887   0.805   1.315  13.450 -0.2705 -0.0861  0.5981
    5TCq2    H213888   0.440   1.244  13.366  2.0655  0.1207 -0.6256
    5TCq2    H313889   0.803   1.071  13.486  0.1660 -0.5269  0.8061
    5TCq2    H413890   0.470   0.813  13.392  0.1982 -1.0900  1.1485
    6MPD1     C13891   4.512   3.075  13.361 -0.2454  0.5361  0.0619
    6MPD1    C113892   4.459   3.052  13.236 -0.5254 -0.4196 -0.0541
    6MPD1    C213893   4.404   2.932  13.213 -0.1488  0.6369 -0.8722
    6MPD1    C313894   4.418   2.825  13.299 -0.0908  1.0073  0.4057
    6MPD1    C413895   4.491   2.845  13.415 -0.0574  0.1268 -0.0497
    6MPD1    C513896   4.539   2.970  13.442  0.7270  0.2983  0.1378
    6MPD1     H13897   4.341   2.913  13.127 -1.1509  2.1741 -0.4792
    6MPD1    H113898   4.508   2.770  13.491  1.3632  0.3640 -0.1266
    6MPD1    H213899   4.553   3.172  13.389  1.5001 -0.3740  0.6792
    6MPD1    H313900   4.589   2.987  13.537 -3.5565  1.0874  2.3122
    6MPD1     N13901   4.360   2.700  13.277  0.3189  0.4890 -0.7455
    6MPD1    H513902   4.359   2.629  13.350 -1.6227  1.8578  0.5288
    6MPD1    N113903   4.421   3.163  13.152  0.0118 -0.2151 -0.0826
    6MPD1    H613904   4.430   3.149  13.051  1.0871  0.8846 -0.1479
    6MPD1    H713905   4.487   3.240  13.164 -0.3585  0.7843 -4.2608
    7MPD2     C13906   4.045   2.030  13.450 -0.0904 -0.4511 -0.1705
    7MPD2    C113907   4.072   2.045  13.315 -0.0924 -1.0494 -0.2497
    7MPD2    C213908   4.122   1.941  13.241 -0.6708  0.1987  0.1564
    7MPD2    C313909   4.142   1.817  13.289  0.4431  0.2306  0.1163
    7MPD2    C413910   4.104   1.796  13.422 -0.5247 -0.5889 -0.1559
    7MPD2    C513911   4.063   1.899  13.501 -0.1054  0.3073 -0.0279
    7MPD2     H13912   4.148   1.958  13.137  1.4206 -0.3892  0.5957
    7MPD2    H113913   4.125   1.695  13.455  0.9314  0.0241  0.7991
    7MPD2    H213914   4.021   2.105  13.524  1.0380 -0.1627 -0.0937
    7MPD2    H313915   4.046   1.882  13.607 -0.0037  1.9194  0.2463
    7MPD2     N13916   4.198   1.708  13.222  0.0323  0.1583 -0.4477
    7MPD2    H513917   4.222   1.632  13.285 -1.6785  1.0381  1.2594
    7MPD2    N113918   4.073   2.176  13.257 -0.3630 -0.5291 -0.1847
    7MPD2    H713919   4.098   2.174  13.159 -2.0256 -1.1497 -0.6049
    8TMC3    C113920   4.284   1.587  13.037 -0.1607  0.2203  0.0742
    8TMC3    C213921   4.389   1.556  13.115 -0.3931 -0.3179  0.8932
    8TMC3    C313922   4.508   1.526  13.054 -0.1499  0.1193  0.0291
    8TMC3    C413923   4.294   1.594  12.902  0.4212 -0.5333  0.0553
    8TMC3    C513924   4.417   1.580  12.847  0.2511  0.2767  0.9033
    8TMC3    C613925   4.527   1.533  12.919 -0.7035  0.2805 -0.6481
    8TMC3     C13926   4.215   1.706  13.085 -0.1383  0.6681  0.1495
    8TMC3     O13927   4.187   1.794  13.004  0.1796 -0.1125 -0.5626
    8TMC3     H13928   4.390   1.548  13.223 -2.1980 -2.0260  0.8069
    8TMC3    H113929   4.205   1.605  12.841  0.3257  0.4179  0.3647
    8TMC3    H213930   4.609   1.496  12.858  0.3744  0.9120  0.4243
    8TMC3    C713931   4.449   1.678  12.749 -0.3800 -0.4384  0.6032
    8TMC3    C813932   4.606   1.433  13.112 -0.1842 -0.2141 -0.6055
    8TMC3    O113933   4.552   1.663  12.682  0.1130  0.5999 -0.0976
    8TMC3    O213934   0.001   1.447  13.071 -0.4874  0.1897  0.2747
    9TMC3    C113935   4.249   2.532  13.141  0.0875 -0.3118  0.1758
    9TMC3    C213936   4.250   2.465  13.022 -0.2467  0.4751 -0.1640
    9TMC3    C313937   4.145   2.379  12.999  0.0836  0.0190  0.0962
    9TMC3    C413938   4.169   2.488  13.243  0.1460  0.0274  0.7056
    9TMC3    C513939   4.074   2.392  13.219 -0.1320  0.8786 -0.7199
    9TMC3    C613940   4.049   2.349  13.089  0.1226  0.0809 -1.0985
    9TMC3     C13941   4.314   2.658  13.150  0.1263  0.3045 -0.2534
    9TMC3     O13942   4.326   2.714  13.044  0.3309  0.4080 -0.1111
    9TMC3     H13943   4.330   2.484  12.951  0.4356  0.4868  0.6184
    9TMC3    H113944   4.170   2.539  13.339 -1.9515  1.2586  0.0555
    9TMC3    H213945   3.979   2.269  13.064  3.3352 -2.5625 -1.6971
    9TMC3    C713946   4.069   2.296  13.324 -0.0937  0.6866  0.1246
    9TMC3    C813947   4.178   2.259  12.924 -0.1382  0.5246  0.1926
    9TMC3    O113948   4.084   2.331  13.443  0.4111 -0.3563 -0.4609
    9TMC3    O213949   4.129   2.154  12.964  0.0529 -0.7202 -0.5642
   10MPD2     C13950   4.458   1.952  12.615 -0.1006  0.0034  0.1576
   10MPD2    C113951   4.397   1.924  12.733 -0.9055  0.0107  0.1225
   10MPD2    C213952   4.326   2.021  12.797  0.6712  0.3131  0.1557
   10MPD2    C313953   4.327   2.153  12.757 -0.5573 -0.3457 -0.4154
   10MPD2    C413954   4.395   2.181  12.644 -0.1403  0.2667 -0.2564
   10MPD2    C513955   4.458   2.083  12.568 -0.1378  0.8280  0.2867
   10MPD2     H13956   4.264   1.996  12.882  0.5524 -0.1606 -0.0728
   10MPD2    H113957   4.397   2.286  12.619 -1.2142  0.3751  0.0908
   10MPD2    H213958   4.509   1.882  12.550 -1.5407 -1.4211  0.5694
   10MPD2    H313959   4.503   2.111  12.474 -2.0662 -0.5901 -1.0779
   10MPD2     N13960   4.277   2.268  12.831 -0.8169  0.8677 -0.2109
   10MPD2    H513961   4.292   2.364  12.800 -1.0335  0.6845 -0.8961
   10MPD2    N113962   4.378   1.794  12.783  0.4746 -0.0197 -0.1523
   10MPD2    H713963   4.312   1.785  12.860 -2.0343 -1.3221 -2.4844
   11MPD2     C13964   0.718   0.306  13.564  0.0270 -0.0248  0.1550
   11MPD2    C113965   0.790   0.404  13.632  1.2771  0.3998 -0.0054
   11MPD2    C213966   0.780   0.532  13.583 -0.3851  0.7125  0.0537
   11MPD2    C313967   0.719   0.567  13.468 -0.0051  0.0530 -0.0075
   11MPD2    C413968   0.658   0.468  13.397 -0.1927 -0.2357  0.3000
   11MPD2    C513969   0.654   0.338  13.447 -0.7949  0.2431  0.6730
   11MPD2     H13970   0.811   0.603  13.659 -3.2027  1.1388  0.8251
   11MPD2    H113971   0.614   0.488  13.301  1.1323  0.2488 -0.2028
   11MPD2    H213972   0.707   0.205  13.603 -1.5217 -0.1554 -0.6260
   11MPD2    H313973   0.602   0.264  13.387  1.1833 -0.6831  0.1014
   11MPD2     N13974   0.689   0.699  13.422 -0.0799  0.6994  0.4815
   11MPD2    H513975   0.627   0.707  13.342 -0.3571  0.6454  0.6925
   11MPD2    N113976   0.859   0.366  13.754 -0.0886 -0.1642 -0.2102
   11MPD2    H713977   0.821   0.295  13.815  0.1215 -0.4492 -0.4108
    1MPD1     C13978   2.601   2.263  17.237 -0.4814  0.2993 -0.2757
    1MPD1    C113979   2.692   2.244  17.135 -0.1663  0.5747  0.1385
    1MPD1    C213980   2.793   2.157  17.170 -0.2397 -0.2597  0.2411
    1MPD1    C313981   2.793   2.075  17.281 -0.4654 -0.2959  0.5174
    1MPD1    C413982   2.688   2.081  17.366 -0.4060  0.1759  0.2899
    1MPD1    C513983   2.603   2.182  17.347 -0.4531  0.3471  0.1279
    1MPD1     H13984   2.878   2.158  17.102  0.2074 -0.1864  0.8056
    1MPD1    H113985   2.687   2.018  17.454 -0.8749  1.8498  1.4817
    1MPD1    H213986   2.525   2.339  17.221 -0.7275  0.5026  1.8943
    1MPD1    H313987   2.538   2.214  17.428 -3.8987 -1.1352 -2.0705
    1MPD1     N13988   2.898   1.974  17.305  0.1124  0.9644  0.4763
    1MPD1    H513989   2.885   1.909  17.381  0.1705  0.6337  0.2044
    1MPD1    N113990   2.704   2.332  17.027 -0.0716 -0.2672 -0.3269
    1MPD1    H613991   2.755   2.298  16.946 -1.1377 -1.0003 -0.6883
    1MPD1    H713992   2.610   2.354  16.992 -0.3315 -1.0405 -0.1094
    2MPD1     C13993   2.971   1.600   0.388 -0.6439 -0.0427  0.2180
    2MPD1    C113994   2.905   1.701   0.327  0.0307  0.1387  0.7162
    2MPD1    C213995   2.958   1.743   0.205  0.0090  0.9141  0.3777
    2MPD1    C313996   3.048   1.667   0.135  0.1252 -1.3908 -0.0489
    2MPD1    C413997   3.103   1.563   0.192 -0.6576  0.0031 -0.0173
    2MPD1    C513998   3.072   1.533   0.320  0.0825  0.2557 -0.1397
    2MPD1     H13999   2.922   1.837   0.164  0.5880  0.1991 -1.7824
    2MPD1    H114000   3.176   1.505   0.137  0.3341 -0.4050  1.7259
    2MPD1    H214001   2.940   1.579   0.490  0.3044  0.5946  0.6423
    2MPD1    H314002   3.136   1.460   0.367 -2.3073 -1.6314  0.1812
    2MPD1     N14003   3.082   1.710   0.001 -0.0641  0.1775  0.5386
    2MPD1    H514004   3.017   1.775  17.636  1.4382  0.0777 -1.8289
    2MPD1    N114005   2.820   1.781   0.405  0.5043  0.5037  0.2634
    2MPD1    H614006   2.755   1.722   0.456  0.0714 -0.5477 -1.5401
    2MPD1    H714007   2.773   1.845   0.342 -1.1392 -1.5959 -0.6584
    3TMC3    C114008   3.186   1.703  17.464  0.0376  0.1671 -0.6816
    3TMC3    C214009   3.301   1.696  17.395  0.4542 -0.2500 -0.1351
    3TMC3    C314010   3.311   1.745  17.266  0.4695 -0.4617 -0.2995
    3TMC3    C414011   3.078   1.771  17.401 -0.5905 -0.4699  0.7783
    3TMC3    C514012   3.094   1.834  17.279  0.6179 -0.6013  0.4644
    3TMC3    C614013   3.209   1.814  17.211  0.5151 -0.1057  0.6642
    3TMC3     C14014   3.189   1.672  17.608  0.7718  0.6422  0.0695
    3TMC3     O14015   3.291   1.615  17.648 -0.2507  0.4489 -0.8013
    3TMC3     H14016   3.395   1.663  17.438  2.1446  1.8625 -2.2147
    3TMC3    H114017   2.982   1.783  17.449 -0.9924 -4.0568  0.8943
    3TMC3    H214018   3.219   1.851  17.110 -1.9587 -0.4401  0.3153
    3TMC3    C714019   3.016   1.952  17.238  0.1547 -0.0723  0.2915
    3TMC3    C814020   3.438   1.797  17.223 -0.1890  0.1336 -0.0389
    3TMC3    O114021   3.079   2.027  17.164  0.3792 -0.1840  0.5020
    3TMC3    O214022   3.539   1.725  17.238  0.1135 -0.2590 -0.6856
    4MPD1     C14023   3.721   2.197  17.061 -0.2881  0.3414 -0.1566
    4MPD1    C114024   3.592   2.241  17.111  0.6307  0.6076  0.5172
    4MPD1    C214025   3.497   2.150  17.143 -0.4736  0.0653  0.1631
    4MPD1    C314026   3.533   2.013  17.154 -0.0772 -0.0758 -0.2455
    4MPD1    C414027   3.660   1.975  17.125  0.4195 -0.2170 -0.4860
    4MPD1    C514028   3.750   2.064  17.074 -0.3645 -0.0326 -0.6798
    4MPD1     H14029   3.392   2.172  17.154 -0.2532  0.1408  2.0931
    4MPD1    H114030   3.693   1.871  17.126 -1.5219 -0.8371 -1.5939
    4MPD1    H214031   3.795   2.260  17.011 -0.5766  1.2654  0.5676
    4MPD1    H314032   3.850   2.038  17.043  0.9392  3.0911  0.8716
    4MPD1     N14033   3.434   1.934  17.193 -0.6723  0.9215  0.0017
    4MPD1    H514034   3.342   1.976  17.201 -0.3830  1.4392  0.5477
    4MPD1    N114035   3.552   2.378  17.095 -0.5123 -0.4306 -0.7785
    4MPD1    H614036   3.483   2.410  17.161 -0.4122 -0.3524 -0.7117
    4MPD1    H714037   3.636   2.436  17.101 -1.8904  1.3658  0.9133
    1TCq1    O114038   0.508   2.527  11.159  0.3362 -0.3624 -0.2266
    1TCq1    C114039   0.387   2.578  11.125  0.1836  0.4313 -0.3789
    1TCq1    O214040   0.353   2.619  11.014  0.4368 -0.2622  0.1181
    1TCq1    C214041   0.304   2.590  11.238  0.9015  0.5736  0.1958
    1TCq1    C314042   0.206   2.684  11.245 -0.2439  0.0540 -0.0160
    1TCq1    C414043   0.116   2.667  11.349  0.2003 -0.0318  0.1454
    1TCq1    C514044   0.133   2.581  11.456 -0.0489 -0.3140  0.1350
    1TCq1    C614045   0.237   2.488  11.440  0.9845  1.2289  0.9396
    1TCq1    C714046   0.323   2.491  11.329  0.2192 -0.1914  0.1776
    1TCq1    C814047   0.249   2.399  11.551  0.4101  0.5015 -0.3322
    1TCq1    O414048   0.363   2.376  11.589  0.9484 -0.5193  0.1129
    1TCq1    C914049   0.034   2.781  11.380  0.1183  0.2239  0.1820
    1TCq1    O514050   0.046   2.814  11.502 -0.1945 -0.3833  0.1846
    1TCq1    O614051   4.708   2.858  11.287 -0.1158 -0.0401  0.0600
    1TCq1    H114052   0.518   2.500  11.253 -1.1163 -1.5880 -0.4242
    1TCq1    H214053   0.189   2.751  11.161  0.2163 -1.3241 -1.2047
    1TCq1    H314054   0.070   2.586  11.544 -1.0396  0.2313 -0.5983
    1TCq1    H414055   0.391   2.407  11.314 -0.5306 -0.4440 -1.7608
    2MPD1     C14056   0.063   2.042  11.866 -0.0057 -0.7516 -0.3466
    2MPD1    C114057   4.669   2.087  11.791  0.1503 -0.8314  0.4208
    2MPD1    C214058   4.692   2.190  11.705  0.6325  0.0079  0.4972
    2MPD1    C314059   0.101   2.250  11.680 -0.6117 -0.1946 -0.1230
    2MPD1    C414060   0.202   2.197  11.753  0.2098 -0.2129  0.1359
    2MPD1    C514061   0.187   2.099  11.843 -0.0969  0.4413  0.7933
    2MPD1     H14062   4.619   2.211  11.627  5.3172 -1.6153 -4.2799
    2MPD1    H114063   0.302   2.237  11.759  0.2528  0.0252 -2.2517
    2MPD1    H214064   0.058   1.960  11.937  0.3545  1.3348  2.0960
    2MPD1    H314065   0.270   2.065  11.903  0.8814  1.0549 -0.2144
    2MPD1     N14066   0.125   2.345  11.581 -0.2761  0.1700  0.3491
    2MPD1    H514067   0.052   2.382  11.521  0.7772 -0.0352 -1.0477
    2MPD1    N114068   4.553   2.009  11.793  0.2734 -0.5251 -0.0510
    2MPD1    H614069   4.472   2.056  11.753 -0.1760 -0.0748  1.3687
    2MPD1    H714070   4.533   1.979  11.889  0.9837 -2.2448 -0.4446
    1TCq1    O114071   2.227   1.609   0.642  0.0115 -0.0949  0.2797
    1TCq1    C114072   2.173   1.495   0.686  0.8147  0.2212  0.4073
    1TCq1    O214073   2.098   1.416   0.627 -0.0731 -0.7270 -0.0070
    1TCq1    C214074   2.178   1.491   0.826  0.3371  0.2790  0.7902
    1TCq1    C314075   2.187   1.367   0.880 -0.1766 -0.3798 -0.0002
    1TCq1    C414076   2.220   1.357   1.013 -0.3915  0.1824  0.7108
    1TCq1    C514077   2.221   1.471   1.095 -0.4407  0.4671 -0.1741
    1TCq1    C614078   2.197   1.596   1.042  0.5063 -0.5297  0.4761
    1TCq1    C714079   2.181   1.604   0.904 -0.2222  0.2238 -0.2758
    1TCq1    C814080   2.227   1.716   1.119  0.0451  0.3749  0.5540
    1TCq1    O414081   2.212   1.821   1.067 -0.0183 -0.4063  0.0418
    1TCq1    C914082   2.219   1.231   1.075 -0.8212 -1.2599 -1.2262
    1TCq1    O514083   2.208   1.126   1.008  0.4095  0.2315  0.8246
    1TCq1    O614084   2.237   1.223   1.198  0.5870 -0.9794 -0.2191
    1TCq1    H114085   2.284   1.652   0.708 -1.1180  1.6224  0.1349
    1TCq1    H214086   2.185   1.272   0.828  0.3348  0.2840 -1.2264
    1TCq1    H314087   2.255   1.464   1.198 -2.4589  2.3728  0.6288
    1TCq1    H414088   2.169   1.704   0.862 -2.2806  0.5605  1.1052
    2MPD1     C14089   2.270   1.958   1.564  1.0870  0.2665 -0.4899
    2MPD1    C114090   2.224   1.829   1.587 -0.2332 -0.0599  0.6757
    2MPD1    C214091   2.214   1.744   1.484 -0.2780 -0.1514  0.2797
    2MPD1    C314092   2.244   1.786   1.356 -0.6866 -0.3080 -0.4535
    2MPD1    C414093   2.306   1.907   1.330  0.0570  0.4600 -0.4165
    2MPD1    C514094   2.311   1.992   1.438 -0.0673  0.7044 -0.0107
    2MPD1     H14095   2.173   1.645   1.502 -2.2331  0.8837  1.5430
    2MPD1    H114096   2.341   1.945   1.236  2.9233 -0.5273  0.2540
    2MPD1    H214097   2.283   2.033   1.641  2.6959 -0.7740  0.2518
    2MPD1    H314098   2.349   2.094   1.431  0.8010  0.3565 -0.4748
    2MPD1     N14099   2.229   1.687   1.256  0.3714  0.3347  0.6568
    2MPD1    H514100   2.202   1.592   1.279 -0.1369  0.1128 -0.8914
    2MPD1    N114101   2.161   1.791   1.708 -0.0576  1.2745 -0.3001
    2MPD1    H614102   2.170   1.690   1.712  0.9905  1.4912  2.8595
    2MPD1    H714103   2.203   1.836   1.790 -1.8295 -0.6898  1.6958
    1MPD1     C14104   1.587   2.426  11.103 -1.0636 -0.2663 -0.2682
    1MPD1    C114105   1.712   2.383  11.078  0.5470  0.1283  0.0675
    1MPD1    C214106   1.811   2.480  11.065  0.3653 -1.4171 -0.6417
    1MPD1    C314107   1.782   2.615  11.061  0.2024  0.1344  0.2759
    1MPD1    C414108   1.646   2.655  11.061 -0.5470  0.5427  0.3307
    1MPD1    C514109   1.554   2.559  11.085  0.2044  0.7603  0.0864
    1MPD1     H14110   1.910   2.438  11.071  1.1198  0.4481 -0.2144
    1MPD1    H114111   1.619   2.760  11.060 -2.3863  0.0772  0.8993
    1MPD1    H214112   1.507   2.362  11.137  0.9117 -1.2842  2.5417
    1MPD1    H314113   1.447   2.576  11.074 -0.6641 -2.7437  2.7396
    1MPD1     N14114   1.889   2.706  11.074  0.4923 -0.3500  0.3418
    1MPD1    H514115   1.980   2.663  11.088  0.1242 -0.9142  0.9931
    1MPD1    N114116   1.750   2.250  11.103  0.3134 -0.1001 -0.4044
    1MPD1    H614117   1.829   2.225  11.044 -0.0340  0.1389 -0.9781
    1MPD1    H714118   1.677   2.181  11.085  1.0308 -1.5252  2.2098
    2MPD1     C14119   1.517   2.869  10.676 -0.5613  0.0608 -0.5226
    2MPD1    C114120   1.406   2.800  10.630 -0.1515 -0.6141 -0.9648
    2MPD1    C214121   1.424   2.657  10.623  0.1274 -0.0337  0.9719
    2MPD1    C314122   1.539   2.598  10.674 -0.6323 -0.5896  0.2112
    2MPD1    C414123   1.636   2.676  10.734  0.5688 -0.6886 -0.4088
    2MPD1    C514124   1.622   2.813  10.737 -0.5595 -0.1137 -0.4742
    2MPD1     H14125   1.337   2.601  10.590 -0.4637  0.9076  0.9380
    2MPD1    H114126   1.724   2.631  10.777 -0.1959  2.0937  4.1097
    2MPD1    H214127   1.523   2.977  10.672 -0.8194  0.1523  1.2843
    2MPD1    H314128   1.706   2.875  10.767 -0.6317 -0.5755  0.6886
    2MPD1     N14129   1.567   2.461  10.665  0.7474  0.2877  0.3259
    2MPD1    H514130   1.655   2.423  10.697 -0.4060 -2.7592 -0.1137
    2MPD1    N114131   1.316   2.878  10.557  0.7722  0.2432  0.4373
    2MPD1    H614132   1.224   2.836  10.552  1.2192 -0.5634 -1.0649
    2MPD1    H714133   1.300   2.972  10.592 -2.7051 -0.6819  1.3509
    3MPD1     C14134   1.555   1.704  10.057 -0.0949  0.4378  0.2339
    3MPD1    C114135   1.594   1.834  10.049  0.1229  0.4774  0.0666
    3MPD1    C214136   1.557   1.907  10.157  0.2093 -0.2650  0.3149
    3MPD1    C314137   1.496   1.851  10.267 -0.3171  0.5469  0.3012
    3MPD1    C414138   1.474   1.717  10.282  0.5953  0.1766  0.3040
    3MPD1    C514139   1.503   1.644  10.172  0.3002 -0.0257 -0.1042
    3MPD1     H14140   1.584   2.011  10.164  0.4473 -0.5930  4.2270
    3MPD1    H114141   1.423   1.664  10.362 -0.8218 -0.7891 -1.2287
    3MPD1    H214142   1.568   1.645   9.968  1.5880 -0.5172  1.1075
    3MPD1    H314143   1.495   1.536  10.177 -0.5986 -0.0567 -2.2633
    3MPD1     N14144   1.483   1.940  10.375  0.3146 -0.2334  0.4731
    3MPD1    H514145   1.494   2.040  10.362  2.1681 -0.6960 -1.5415
    3MPD1    N114146   1.633   1.892   9.925  0.7398 -0.4523 -0.0763
    3MPD1    H614147   1.679   1.832   9.857 -0.5397  0.5017 -1.7487
    3MPD1    H714148   1.692   1.975   9.938  0.5293 -0.3377  0.1592
    4MPD2     C14149   2.421   2.782  10.701 -0.6286 -0.6095  0.6370
    4MPD2    C114150   2.433   2.764  10.839  0.3000 -0.2997  0.6114
    4MPD2    C214151   2.485   2.648  10.890  0.3473 -1.1456  0.2650
    4MPD2    C314152   2.519   2.546  10.797 -0.5871  0.3443  0.4139
    4MPD2    C414153   2.513   2.562  10.665 -0.3405 -0.2950  0.7653
    4MPD2    C514154   2.465   2.679  10.617 -0.3177 -0.6932 -0.3926
    4MPD2     H14155   2.486   2.641  10.998 -0.7035 -1.0560  0.2879
    4MPD2    H114156   2.535   2.486  10.592 -1.7653 -2.2614  2.3870
    4MPD2    H214157   2.387   2.871  10.648  1.7818 -1.5074 -2.3710
    4MPD2    H314158   2.457   2.680  10.509  1.7309 -0.5669 -0.5396
    4MPD2     N14159   2.568   2.419  10.838 -0.7431  0.4528  0.5988
    4MPD2    H514160   2.583   2.344  10.771 -0.5578  1.0663 -0.0430
    4MPD2    N114161   2.389   2.861  10.930  0.3575  0.1078  0.2367
    4MPD2    H714162   2.395   2.834  11.027  0.9909 -1.0277 -0.1162
    5TMC3    C114163   2.211   2.989  11.016 -0.3739 -0.5246  0.2168
    5TMC3    C214164   2.078   2.965  11.004 -0.0915  0.6192 -1.2173
    5TMC3    C314165   2.009   2.900  11.097 -0.4450 -0.4915 -0.5129
    5TMC3    C414166   2.277   2.949  11.126  0.7454 -0.3785  0.2449
    5TMC3    C514167   2.216   2.871  11.220  0.0533  0.0453  0.3328
    5TMC3    C614168   2.079   2.848  11.210  0.4150 -0.1067  0.4074
    5TMC3     C14169   2.301   2.968  10.897 -0.4285  0.3884 -0.5691
    5TMC3     O14170   2.262   3.017  10.792  0.1992  0.3297 -0.0284
    5TMC3     H14171   2.029   2.992  10.911 -1.3765 -1.4658 -1.1437
    5TMC3    H114172   2.380   2.977  11.145  0.1952  0.4434  2.0308
    5TMC3    H214173   2.028   2.777  11.274  0.3926  0.2011  0.7350
    5TMC3    C714174   2.297   2.755  11.267  0.2162  0.2115 -0.0163
    5TMC3    C814175   1.883   2.843  11.061  0.3655  0.7702  0.4143
    5TMC3    O114176   2.395   2.735  11.199 -0.0554  0.3907 -0.1931
    5TMC3    O214177   1.792   2.919  11.030  0.4476  0.1202  0.5768
    6TMC3    C114178   1.529   2.227  10.644  0.5789 -0.2863 -0.3699
    6TMC3    C214179   1.460   2.126  10.584 -0.3802  0.5955 -0.5266
    6TMC3    C314180   1.508   2.001  10.597  0.4672  0.7338  0.2489
    6TMC3    C414181   1.625   2.203  10.738 -0.6003 -0.4344  0.0459
    6TMC3    C514182   1.665   2.067  10.750  0.0889  0.5111  0.8937
    6TMC3    C614183   1.614   1.971  10.672 -0.9782 -0.8437 -0.0528
    6TMC3     C14184   1.473   2.362  10.634 -0.5814  0.9799 -0.2067
    6TMC3     O14185   1.367   2.367  10.569  0.4542  0.1211  0.2725
    6TMC3     H14186   1.379   2.150  10.516 -0.4897  0.0857 -0.5746
    6TMC3    H114187   1.669   2.276  10.804  0.0813  0.6334 -1.5927
    6TMC3    H214188   1.643   1.867  10.673 -2.2337 -1.1980 -1.1092
    6TMC3    C714189   1.797   2.045  10.809 -0.1115  0.3041  0.3652
    6TMC3    C814190   1.472   1.901  10.506  0.3250  0.0735 -0.2610
    6TMC3    O114191   1.866   2.141  10.844 -0.2104  0.1737  0.1296
    6TMC3    O214192   1.478   1.791  10.558 -0.7726 -0.2660  0.3598
    7MPD2     C14193   2.330   2.292  11.494 -0.0863 -0.5076  0.2358
    7MPD2    C114194   2.411   2.354  11.398 -0.2467 -0.8193 -0.1267
    7MPD2    C214195   2.385   2.483  11.356 -0.0870 -0.0667 -0.0594
    7MPD2    C314196   2.277   2.547  11.411 -0.2356  0.5437  0.1965
    7MPD2    C414197   2.203   2.481  11.510  0.0921 -0.4125 -0.1412
    7MPD2    C514198   2.223   2.352  11.543  0.0022  0.7425  0.0123
    7MPD2     H14199   2.447   2.534  11.282  0.1164 -1.1952 -0.6580
    7MPD2    H114200   2.117   2.524  11.560 -0.8883 -2.4072 -0.1398
    7MPD2    H214201   2.353   2.189  11.521  0.7179  0.6659  3.9899
    7MPD2    H314202   2.148   2.298  11.601 -0.7579  1.3172 -0.4244
    7MPD2     N14203   2.239   2.676  11.375 -0.1597 -0.3480 -0.3801
    7MPD2    H514204   2.164   2.724  11.422 -0.3897  0.1112 -1.2145
    7MPD2    N114205   2.508   2.285  11.327 -0.0941 -0.3962  0.2883
    7MPD2    H714206   2.563   2.341  11.263 -1.5885  0.0068 -0.6252
    8TMC3    C114207   2.580   2.111  11.192  0.0678  0.2795 -0.4382
    8TMC3    C214208   2.508   2.015  11.128  0.4327  0.1531 -0.3384
    8TMC3    C314209   2.475   2.048  10.994  0.2185 -0.1062  0.7395
    8TMC3    C414210   2.642   2.212  11.126  0.6216  0.3565  0.0710
    8TMC3    C514211   2.613   2.234  10.994 -0.1606  0.1338  0.7185
    8TMC3    C614212   2.529   2.152  10.926 -0.6812  0.2634 -0.0442
    8TMC3     C14213   2.520   2.143  11.319  0.1604  0.7381 -0.5957
    8TMC3     O14214   2.469   2.056  11.386 -0.0249  0.2558  0.1599
    8TMC3     H14215   2.440   1.947  11.179 -0.3146  2.9500  2.3899
    8TMC3    H114216   2.711   2.287  11.163 -0.3890  0.2406  2.1747
    8TMC3    H214217   2.484   2.172  10.830 -0.5249  1.0594  0.0484
    8TMC3    C714218   2.591   2.376  10.970  0.2750 -0.7926  1.0707
    8TMC3    C814219   2.334   2.025  10.958 -0.3039 -0.5749 -0.7334
    8TMC3    O114220   2.597   2.447  11.069  0.4217  0.4175  0.2607
    8TMC3    O214221   2.273   2.115  10.903  0.1704 -0.2400 -0.3616
    9MPD2     C14222   2.153   1.723  11.005  0.6397 -0.6090 -0.5172
    9MPD2    C114223   2.164   1.858  10.969  0.4023  0.0956 -0.4462
    9MPD2    C214224   2.056   1.928  10.920 -0.1502 -0.1009 -0.5683
    9MPD2    C314225   1.930   1.865  10.910 -0.1505  0.0996 -0.1727
    9MPD2    C414226   1.920   1.735  10.953 -0.1036  0.9261  0.1718
    9MPD2    C514227   2.027   1.659  10.990  1.0592  0.6126  0.6494
    9MPD2     H14228   2.060   2.033  10.895 -2.1992  0.3347  0.9130
    9MPD2    H114229   1.827   1.681  10.944  0.6799 -0.0884 -1.6824
    9MPD2    H214230   2.229   1.668  11.058  0.3329  0.9449  1.5367
    9MPD2    H314231   2.004   1.562  11.031  1.2234  0.9826  1.6300
    9MPD2     N14232   1.814   1.920  10.851 -0.7863 -0.8639  0.8073
    9MPD2    H514233   1.733   1.859  10.864 -0.3178 -2.0735 -2.1811
    9MPD2    N114234   2.290   1.900  10.987  0.5499  0.1301  0.0755
    9MPD2    H714235   2.357   1.828  11.012  0.2577  0.6041  2.2359
    1MPD1     C14236   1.215   1.456  16.128  0.0659 -0.5935  0.5844
    1MPD1    C114237   1.206   1.342  16.046 -0.5303 -0.4029 -0.1840
    1MPD1    C214238   1.197   1.219  16.119  1.1168  0.1257 -0.3671
    1MPD1    C314239   1.200   1.219  16.259  0.0362  0.2097 -0.4838
    1MPD1    C414240   1.223   1.330  16.330 -0.1308 -0.2441 -0.0035
    1MPD1    C514241   1.223   1.445  16.264 -0.0774  0.8022  0.6549
    1MPD1     H14242   1.195   1.129  16.060 -1.2589  0.2707 -0.4924
    1MPD1    H114243   1.231   1.322  16.438  1.1316 -0.8428 -0.1405
    1MPD1    H214244   1.220   1.559  16.095 -0.4645 -0.7150  0.1278
    1MPD1    H314245   1.235   1.538  16.317 -0.7770  2.0665 -1.4178
    1MPD1     N14246   1.196   1.095  16.329 -0.1271 -0.2791  0.0023
    1MPD1    H514247   1.208   1.097  16.429  0.2448 -1.4740 -0.0199
    1MPD1    N114248   1.169   1.346  15.913 -0.0640 -0.0920 -0.3637
    1MPD1    H614249   1.174   1.258  15.861  0.0450 -0.1379 -0.2744
    1MPD1    H714250   1.226   1.410  15.858 -0.9670 -1.6597 -3.1181
    2MPD1     C14251   0.487   0.504  16.163  0.6631 -0.3912 -0.7051
    2MPD1    C114252   0.591   0.523  16.078 -0.2097 -0.6088  0.4815
    2MPD1    C214253   0.721   0.537  16.125 -0.0766  0.1038 -0.0750
    2MPD1    C314254   0.737   0.554  16.258 -0.7327  0.3664 -0.1299
    2MPD1    C414255   0.623   0.541  16.349  0.4085  0.1418  1.0567
    2MPD1    C514256   0.498   0.515  16.296 -0.1948  0.6504 -0.5494
    2MPD1     H14257   0.806   0.547  16.059 -0.6889 -1.0420 -1.0327
    2MPD1    H114258   0.649   0.542  16.454  0.8017 -1.9720  0.9694
    2MPD1    H214259   0.385   0.494  16.126  0.7843 -3.0321 -0.3487
    2MPD1    H314260   0.410   0.509  16.358  0.3798 -1.1593  0.0889
    2MPD1     N14261   0.864   0.590  16.298 -0.4949 -0.0363 -0.5308
    2MPD1    H514262   0.932   0.604  16.225 -0.1576 -0.7630 -0.3581
    2MPD1    N114263   0.567   0.475  15.950 -0.2746  0.7233 -0.3880
    2MPD1    H614264   0.488   0.522  15.906 -2.0560 -0.4016  1.5705
    2MPD1    H714265   0.641   0.488  15.882 -0.8478  0.6599 -1.0178
    3TCq2    C114266   0.908   0.611  16.430  0.4989 -0.2424 -0.1100
    3TCq2    O214267   0.855   0.571  16.531 -0.1926  0.2169 -0.0967
    3TCq2    C214268   1.040   0.666  16.429 -0.6024 -0.0288  0.2074
    3TCq2    C314269   1.122   0.657  16.544 -0.7486 -0.7312  0.1182
    3TCq2    C414270   1.222   0.749  16.560  0.4230 -0.1737 -0.0220
    3TCq2    C514271   1.237   0.853  16.472 -0.3388 -0.5104  0.4204
    3TCq2    C614272   1.156   0.859  16.364 -0.1654 -0.2709 -0.0962
    3TCq2    C714273   1.057   0.767  16.340 -0.3124 -0.1594  0.1234
    3TCq2    C814274   1.160   0.973  16.271 -1.2342  0.2958  0.7790
    3TCq2    O414275   1.104   0.948  16.165 -0.2144 -0.3149 -0.0543
    3TCq2    C914276   1.303   0.752  16.676  0.3276  0.0472  0.2688
    3TCq2    O514277   1.247   0.708  16.775 -0.1655  0.0261  0.0170
    3TCq2    O614278   1.397   0.834  16.676 -0.1775 -0.4908  0.7520
    3TCq2    H214279   1.105   0.577  16.615 -0.0215 -0.0733  1.0171
    3TCq2    H314280   1.308   0.933  16.485 -2.3998  1.1988  1.1554
    3TCq2    H414281   0.984   0.783  16.262 -0.7114  0.2479  0.5777
    1TCq1    O114282   3.657   4.245  13.434  0.3074 -0.6100  0.1666
    1TCq1    C114283   3.533   4.261  13.474 -0.6484 -0.3224 -0.1239
    1TCq1    O214284   3.505   4.343  13.557 -0.3471  0.4689  0.4145
    1TCq1    C214285   3.472   4.250  13.343  0.3559  0.1300 -0.9258
    1TCq1    C314286   3.351   4.174  13.335  0.2910  0.4975 -0.6387
    1TCq1    C414287   3.293   4.161  13.209 -0.2889  0.3710  0.1069
    1TCq1    C514288   3.350   4.228  13.105  0.3593 -0.2383 -0.2754
    1TCq1    C614289   3.461   4.302  13.124 -0.0456 -0.8365  0.5564
    1TCq1    C714290   3.540   4.305  13.240  0.4349 -0.3978 -0.0696
    1TCq1    C814291   3.509   4.365  12.996  0.1074  0.3451  0.4562
    1TCq1    O414292   3.417   4.405  12.921  0.3573  0.3708 -0.2461
    1TCq1    C914293   3.171   4.087  13.184  0.0448 -0.3230 -0.3084
    1TCq1    O514294   3.131   4.064  13.066  0.4790  0.4976  0.3773
    1TCq1    O614295   3.111   4.066  13.291  0.1272  0.2668 -0.4319
    1TCq1    H114296   3.664   4.185  13.357 -0.4590 -2.1732  1.3220
    1TCq1    H214297   3.302   4.130  13.421 -1.0746 -0.2700 -1.8030
    1TCq1    H314298   3.300   4.222  13.009  0.9209 -1.1937 -0.5096
    1TCq1    H414299   3.619   4.378  13.256  0.1182 -0.0466 -0.1067
    2MPD2     C14300   3.642   4.503  12.767  0.6766 -0.0541  0.6379
    2MPD2    C114301   3.708   4.467  12.882  0.1663  0.2496  0.3663
    2MPD2    C214302   3.841   4.498  12.880  0.5163 -0.2067 -0.3067
    2MPD2    C314303   3.918   4.549  12.773 -0.0531  0.2854  0.1036
    2MPD2    C414304   3.847   4.569  12.655 -0.3362 -0.0366  0.2918
    2MPD2    C514305   3.711   4.545  12.656  0.2569  0.6507  0.2380
    2MPD2     H14306   3.895   4.469  12.970 -0.7081 -0.6395  0.2961
    2MPD2    H114307   3.899   4.596  12.564  1.0415  1.4973  1.5393
    2MPD2    H214308   3.539   4.477  12.742  1.3970 -2.4940  0.2147
    2MPD2    H314309   3.656   4.569  12.566 -2.8307  0.6617  2.1341
    2MPD2     N14310   4.063   4.566  12.780  0.9666 -0.2932 -0.7557
    2MPD2    H514311   4.106   4.528  12.864 -1.3258  0.7474  0.8802
    2MPD2    N114312   3.644   4.401  12.987 -0.1582  0.0149 -0.7264
    2MPD2    H714313   3.710   4.363  13.054 -0.5311 -0.1602 -0.4548
    3TCq1    O114314   4.616   0.082  12.900  0.2356 -0.4023 -0.5399
    3TCq1    C114315   4.504   0.021  12.951 -0.1178 -0.3311  0.3096
    3TCq1    O214316   4.432   0.085  13.032 -0.3559 -0.0236  0.0431
    3TCq1    C214317   4.454   4.646  12.854  0.1297  0.2890 -0.5963
    3TCq1    C314318   4.546   4.573  12.781 -0.8445  0.3388 -0.3434
    3TCq1    C414319   4.498   4.517  12.668  0.2447  0.0448  0.6583
    3TCq1    C514320   4.368   4.514  12.637  1.2354 -0.8276  0.1490
    3TCq1    C614321   4.280   4.586  12.721 -0.4165 -0.5913  0.0841
    3TCq1    C714322   4.319   4.654  12.826  0.0382  0.2410  0.1333
    3TCq1    C814323   4.142   4.597  12.677 -0.4895  0.2567 -0.4611
    3TCq1    O414324   4.125   4.588  12.557  0.3770 -0.2893  0.1933
    3TCq1    C914325   4.599   4.450  12.577  0.2861  0.3412 -0.6859
    3TCq1    O514326   4.551   4.405  12.470  0.0459  0.1782  0.3057
    3TCq1    O614327   4.694   4.394  12.634  0.0858 -0.1231  0.4801
    3TCq1    H114328   4.657   0.030  12.828  0.7538 -2.3661  1.1646
    3TCq1    H214329   4.651   4.567  12.807 -1.1265  0.1632  0.7413
    3TCq1    H314330   4.341   4.460  12.547 -0.8594 -1.9839  1.4735
    3TCq1    H414331   4.253   4.706  12.893 -0.4039  0.6844 -0.6493
    1MPD2     C14332   3.629   0.360  14.656 -0.0963 -0.1112  0.2608
    1MPD2    C114333   3.506   0.299  14.643  0.1814 -0.2863 -0.2774
    1MPD2    C214334   3.504   0.174  14.574 -0.6080  0.3586  0.6466
    1MPD2    C314335   3.623   0.127  14.515  0.5323  0.2561  0.2031
    1MPD2    C414336   3.740   0.196  14.523  0.5965 -0.4703  0.2431
    1MPD2    C514337   3.744   0.309  14.604 -0.0581  0.0991  0.3986
    1MPD2     H14338   3.414   0.117  14.558  0.7278 -0.7564 -2.8712
    1MPD2    H114339   3.829   0.162  14.472  1.5785  2.8815 -0.2532
    1MPD2    H214340   3.634   0.455  14.708 -1.3434 -0.7039  1.4476
    1MPD2    H314341   3.835   0.366  14.617 -1.2659  1.2526  3.7291
    1MPD2     N14342   3.604   0.015  14.430  0.3467  0.3043  0.9960
    1MPD2    H514343   3.506   4.711  14.417  0.4985  0.8331 -1.0390
    1MPD2    N114344   3.385   0.347  14.709  0.5661 -0.1521  0.2587
    1MPD2    H714345   3.401   0.401  14.793 -0.2310  3.9325 -2.2345
    2TMC3    C114346   3.170   0.340  14.791 -0.1070 -0.0493 -0.1710
    2TMC3    C214347   3.081   0.234  14.806  0.3067 -0.8684 -0.0693
    2TMC3    C314348   2.950   0.261  14.794  0.0372  0.4906  0.0302
    2TMC3    C414349   3.130   0.467  14.786 -0.1812  0.3524  0.0071
    2TMC3    C514350   3.000   0.486  14.820 -0.2288  0.0633 -0.1095
    2TMC3    C614351   2.903   0.389  14.808 -0.2760 -0.0796  0.3289
    2TMC3     C14352   3.263   0.296  14.689  0.5684 -0.1440  0.7237
    2TMC3     O14353   3.219   0.220  14.606  0.6561 -0.5072  0.6507
    2TMC3     H14354   3.119   0.133  14.810  1.3861 -0.4262  0.8646
    2TMC3    H114355   3.193   0.549  14.753  0.2599  0.1945  0.4455
    2TMC3    H214356   2.798   0.412  14.794 -0.0015 -0.4596 -2.3675
    2TMC3    C714357   2.946   0.620  14.835 -0.0410 -0.4407 -0.1455
    2TMC3    C814358   2.884   0.160  14.713 -0.6019  0.1622 -0.1951
    2TMC3    O114359   2.826   0.631  14.848  1.1365  0.0454 -0.3569
    2TMC3    O214360   2.761   0.149  14.729 -0.2966  0.1016 -0.1410
    3TCq1    O114361   3.648   1.667  14.570 -0.1785 -0.1000  0.5452
    3TCq1    C114362   3.518   1.648  14.606  0.5419  0.3508  0.4544
    3TCq1    O214363   3.453   1.722  14.670 -0.3946  0.2170 -0.3223
    3TCq1    C214364   3.498   1.502  14.619  0.3445  0.1853 -0.1551
    3TCq1    C314365   3.606   1.414  14.604  0.4728 -0.4069  0.6207
    3TCq1    C414366   3.580   1.278  14.626  0.1060  0.4187 -0.5953
    3TCq1    C514367   3.464   1.235  14.690 -1.3383  0.0738 -0.6639
    3TCq1    C614368   3.363   1.322  14.706 -0.1694 -0.3762  0.2629
    3TCq1    C714369   3.381   1.454  14.660  0.8825  0.8919  0.1065
    3TCq1    C814370   3.222   1.278  14.714  0.0473  0.2594 -0.7146
    3TCq1    O414371   3.126   1.347  14.677 -0.8391 -0.4711 -0.5479
    3TCq1    C914372   3.688   1.186  14.596  0.3828  0.4177 -0.8538
    3TCq1    O514373   3.795   1.235  14.553 -0.2107 -0.4465  0.9267
    3TCq1    O614374   3.665   1.064  14.607  0.6262  0.0491  0.1125
    3TCq1    H114375   3.648   1.626  14.480  3.0548  1.2919 -0.1098
    3TCq1    H214376   3.703   1.441  14.565 -0.1306  1.6038  0.4971
    3TCq1    H314377   3.454   1.129  14.707 -0.2793  0.2948  1.3816
    3TCq1    H414378   3.308   1.531  14.684 -1.9672 -1.8382  0.2283
    4MPD2     C14379   2.962   1.122  14.726 -0.2218  0.4546  0.2329
    4MPD2    C114380   3.096   1.076  14.759  0.3785 -0.3629  0.8874
    4MPD2    C214381   3.113   0.945  14.793 -0.6853 -0.7094  0.4033
    4MPD2    C314382   3.009   0.860  14.801 -0.5145 -0.4498 -0.5574
    4MPD2    C414383   2.881   0.902  14.777  0.6794  0.2268  0.4330
    4MPD2    C514384   2.860   1.032  14.737 -0.3344  0.5886  0.6240
    4MPD2     H14385   3.215   0.910  14.803 -0.6845 -0.5803  0.8452
    4MPD2    H114386   2.791   0.841  14.775  0.2257  0.8886  0.8103
    4MPD2    H214387   2.939   1.222  14.691  1.9763 -0.0081 -2.6217
    4MPD2    H314388   2.758   1.064  14.720  0.0040  0.5382 -1.4889
    4MPD2     N14389   3.038   0.723  14.827  0.3244 -0.2304 -0.2478
    4MPD2    H514390   3.136   0.702  14.843 -0.2150 -0.8396  2.3384
    4MPD2    N114391   3.207   1.153  14.763  0.2624 -0.2009  0.1977
    4MPD2    H714392   3.292   1.103  14.789  0.1194 -0.4152  0.2528
    5TMC2    C114393   3.412   4.491  14.311  0.0222 -0.2883 -0.2475
    5TMC2    C214394   3.441   4.384  14.396 -0.0127 -0.5617  0.2750
    5TMC2    C314395   3.576   4.358  14.425  0.4636 -0.2167 -0.0413
    5TMC2    C414396   3.521   4.561  14.264  0.3741 -0.5285 -0.6016
    5TMC2    C514397   3.650   4.541  14.306  0.0882 -0.0642  0.8286
    5TMC2    C614398   3.675   4.426  14.372  0.2597  0.0847 -0.1228
    5TMC2     C14399   3.299   4.574  14.338 -0.3421 -0.8413  0.1110
    5TMC2     O14400   3.335   4.688  14.371 -0.4577  0.1184  0.5006
    5TMC2     H14401   3.362   4.326  14.442 -0.2012 -0.9081 -0.4792
    5TMC2    H114402   3.498   4.652  14.210  2.9254  1.2348  1.2859
    5TMC2    H214403   3.775   4.412  14.413  0.0517 -1.6933 -0.2632
    5TMC2    C714404   3.702   4.653  14.378 -0.4054  0.2214 -0.6644
    5TMC2    C814405   3.603   4.258  14.527 -1.1046 -0.1720 -0.0172
    5TMC2    O114406   3.826   4.663  14.386 -0.7184  0.0627  0.0667
    5TMC2    O214407   3.543   4.261  14.632  0.1188 -0.3365 -0.0624
    5TMC2    O514408   3.706   4.178  14.488 -0.5244  0.0003  0.5620
    5TMC2    H514409   3.727   4.191  14.393 -0.9898 -0.0415  0.4576
    6MPD2     C14410   2.824   4.629  14.543 -0.8967  0.2069 -0.3289
    6MPD2    C114411   2.947   4.701  14.549  0.1342 -0.0642  0.9127
    6MPD2    C214412   3.056   4.657  14.485  0.4162  0.4546  0.2890
    6MPD2    C314413   3.054   4.548  14.396  0.0003 -0.0815  0.7183
    6MPD2    C414414   2.933   4.483  14.371  0.3835  0.4067 -0.2124
    6MPD2    C514415   2.820   4.526  14.443  0.5339 -0.1006  0.2081
    6MPD2     H14416   3.150   4.701  14.514  0.4557 -0.5044  1.6145
    6MPD2    H114417   2.919   4.407  14.294 -1.6980  0.6778 -0.0981
    6MPD2    H214418   2.734   4.665  14.592 -0.2639  1.3940 -0.0458
    6MPD2    H314419   2.727   4.473  14.425  0.3208  0.3654 -0.0672
    6MPD2     N14420   3.179   4.502  14.333  0.0512 -0.8311 -0.1382
    6MPD2    H514421   3.172   4.410  14.289 -2.1412 -0.0606 -1.4027
    6MPD2    N114422   2.972   0.101  14.624  0.4433 -0.0899  0.1250
    6MPD2    H714423   3.067   0.138  14.625  0.7515 -0.8119 -1.6203
  945NH3     N114424   0.152   3.020  14.451 -1.3069 -0.4414  0.2565
  945NH3     H214425   0.083   3.040  14.380 -0.6100 -0.4716 -0.4266
  945NH3     H314426   0.139   3.074  14.536 -3.0520 -0.9907  0.3489
  945NH3     H414427   0.128   2.925  14.481  0.2160 -1.0155 -0.3515
  946SOD     NA14428   1.923   0.657   8.090 -0.1224 -0.2399 -0.4657
  947SOD     NA14429   0.409   3.239  15.937 -0.1756 -0.1339  1.0478
  948SOD     NA14430   3.411   2.154   9.730  0.2349  0.2362 -0.5301
  949SOD     NA14431   3.129   0.120  10.728  0.3892  0.3540  0.0529
  950SOD     NA14432   1.318   0.187  14.983 -0.8592 -0.4005  0.1007
  951SOD     NA14433   4.002   0.480   6.381  0.4902 -0.6015  0.1355
  952SOD     NA14434   0.839   3.475  12.525 -0.2709 -0.0185 -0.0636
  953SOD     NA14435   1.035   4.316   0.344  0.4186  0.2194  0.4395
  954SOD     NA14436   4.172   0.128  11.880  0.0406 -0.1733 -0.0825
  955SOD     NA14437   1.284   4.668  15.193  0.0226  0.1442 -0.1397
  956SOD     NA14438   4.361   4.281   9.970  0.1196 -0.0342 -0.1047
  957SOD     NA14439   4.538   0.827  13.959 -0.4921  0.1762 -0.0325
  958SOD     NA14440   4.474   4.444  15.040 -0.3137 -0.1583  0.0925
  959SOD     NA14441   3.202   2.126  14.461  0.0494 -0.4233  0.5061
  960SOD     NA14442   0.147   4.317  12.729  0.0619 -0.0198  0.1580
  961SOD     NA14443   0.670   1.478   0.587 -0.1813  0.1213 -0.1559
  962SOD     NA14444   0.329   4.411  10.666  0.5181  0.2166 -0.1168
  963SOD     NA14445   1.116   3.947   1.408  0.2651 -0.1816  0.0798
  964SOD     NA14446   0.378   0.026  11.216  0.0039  0.1410 -0.0661
  965SOD     NA14447   4.418   0.481  12.021 -0.2590 -0.5536 -0.3613
  966SOD     NA14448   3.024   3.624  15.284 -0.1454  0.1201  0.3821
  967SOD     NA14449   1.330   3.457   2.150 -0.6245  0.8617  0.2927
  968SOD     NA14450   3.954   2.410   4.412  0.2036 -0.3604  0.3493
  969SOD     NA14451   4.278   2.080  17.297  0.4169  0.2930 -0.0942
  970SOD     NA14452   4.540   0.677  12.286 -0.3968  0.3928 -0.4240
  971SOD     NA14453   1.884   0.128  12.334 -0.1137 -0.0978 -0.1783
  972SOD     NA14454   0.280   0.330  11.214 -0.0306  0.4119 -0.3021
  973SOD     NA14455   1.477   2.361   1.539 -0.3624  0.5585  0.2874
  974SOD     NA14456   2.019   4.157  12.472 -0.5091  0.0793 -0.1770
  975SOD     NA14457   3.149   0.063   9.746  0.2740 -0.0759 -0.0298
  976SOD     NA14458   4.667   4.228  12.438  0.1975  0.0946  0.2045
  977SOD     NA14459   4.490   1.129   9.836 -0.0548  0.2294  0.5282
  978SOD     NA14460   3.314   3.316   2.693  0.0994  0.3038  0.0909
  979SOD     NA14461   3.972   0.312  15.035 -0.2712 -0.2411  0.4137
  980SOD     NA14462   0.768   1.856  14.472 -0.5526 -0.3210 -0.1636
  981SOD     NA14463   0.266   0.064  11.463  0.1901 -0.2079 -0.0760
  982SOD     NA14464   4.693   1.187   5.293 -0.1686 -0.3065  0.3054
  983SOD     NA14465   4.504   0.605  11.223 -0.3652 -0.2551  0.2351
  984SOD     NA14466   0.058   0.584  12.074  0.5707  0.3068 -0.2962
  985SOD     NA14467   4.512   4.178  11.454  0.3564 -0.1621 -0.1978
  986SOD     NA14468   2.448   3.928  10.235 -0.0156  0.2061  0.7823
  987SOD     NA14469   3.042   2.436   8.711  0.0562  0.1749 -0.6418
  988SOD     NA14470   1.000   0.818   8.868  0.3019 -0.1077 -0.1746
  989SOD     NA14471   1.071   4.705  14.810  0.2192 -0.2543  0.4841
  990SOD     NA14472   1.062   0.983  17.399  0.3261  0.2069  0.6927
  991SOD     NA14473   1.760   3.981  14.607 -0.0230  0.5269  0.1049
  992SOD     NA14474   3.991   1.156  14.542  0.0093 -0.2554  0.0493
  993SOD     NA14475   1.878   2.804   0.488 -0.3237  0.3319 -0.3253
  994SOD     NA14476   3.981   0.624   1.292 -0.4140  0.4958  0.0917
  995SOD     NA14477   4.581   1.671  15.906 -0.6323 -0.0438 -0.2586
  996SOD     NA14478   1.117   1.763  11.864 -0.4103 -0.2857  0.1723
  997SOD     NA14479   4.311   3.954   9.507 -0.2636  0.1298 -0.3979
  998SOD     NA14480   1.222   4.275  17.557  0.2569  0.0485  0.1812
  999SOD     NA14481   4.630   1.451   8.632  0.1689 -0.0741 -0.1471
 1000SOD     NA14482   3.127   2.898   5.190 -0.5582 -0.5276 -0.3761
 1001SOD     NA14483   1.874   2.758   0.786  0.1323 -0.0060 -0.0947
 1002SOD     NA14484   0.925   1.409  13.592  0.2801  0.0919  0.0404
 1003SOD     NA14485   4.531   1.484   1.312  0.3356 -0.1930  0.0157
 1004SOD     NA14486   3.554   1.018   2.400  0.1334 -0.5342 -0.1645
 1005SOD     NA14487   3.055   3.750  13.777 -0.2175 -0.2341  0.2319
 1006SOD     NA14488   4.378   2.177  10.256  0.3067  0.1384 -0.3329
 1007SOD     NA14489   3.174   3.940   2.804 -0.3351  0.6989  0.3778
 1008SOD     NA14490   2.385   3.713  13.276 -0.1596  0.4121  0.6308
 1009SOD     NA14491   3.570   0.882  14.718 -0.1381 -0.2386  0.2066
 1010SOD     NA14492   1.673   4.388  10.853 -0.2909  0.0307  0.4292
 1011SOD     NA14493   4.683   3.626  11.599 -0.1866 -0.3127 -0.2526
 1012SOL     OW14494   0.799   3.645   7.971  0.6562 -0.2226 -0.0706
 1012SOL    HW114495   0.809   3.726   8.020 -0.9031  0.6818 -1.2243
 1012SOL    HW214496   0.802   3.589   8.049 -0.5121  0.9880  0.8259
 1013SOL     OW14497   3.501   2.738   3.558  0.2061 -0.2512 -0.0661
 1013SOL    HW114498   3.512   2.723   3.464 -0.2868 -1.1915  0.0311
 1013SOL    HW214499   3.485   2.651   3.594  0.7938 -0.3171  0.0430
 1014SOL     OW14500   2.738   2.352  15.316 -0.5504  0.5385 -0.1520
 1014SOL    HW114501   2.721   2.258  15.313 -2.5829  0.9679 -1.9348
 1014SOL    HW214502   2.768   2.375  15.228  2.7215 -0.8257  0.5790
 1015SOL     OW14503   3.547   1.547   7.553  0.1573 -0.0588 -0.1033
 1015SOL    HW114504   3.452   1.542   7.562  0.0152 -0.2008 -1.8756
 1015SOL    HW214505   3.550   1.587   7.466  1.3131 -2.1872 -1.0318
 1016SOL     OW14506   1.115   0.419   6.767 -0.2986 -0.5389  0.1135
 1016SOL    HW114507   1.133   0.416   6.673  0.3358  0.8671  0.1880
 1016SOL    HW214508   1.034   0.369   6.774 -1.2697  0.9988 -0.2981
 1017SOL     OW14509   3.343   0.287   3.966  0.2908  0.5487 -0.2567
 1017SOL    HW114510   3.252   0.260   3.953  0.8889 -1.8478  0.5432
 1017SOL    HW214511   3.395   0.235   3.906 -2.7500  0.8424 -3.1595
 1018SOL     OW14512   3.623   4.471   1.892  0.3372  0.6041 -0.3391
 1018SOL    HW114513   3.555   4.529   1.925  1.8324  2.8636 -1.2384
 1018SOL    HW214514   3.598   4.458   1.800  1.5717 -1.0157 -0.4406
 1019SOL     OW14515   0.191   4.230   7.094 -0.1087  0.2029  0.1700
 1019SOL    HW114516   0.270   4.179   7.072 -1.4584 -2.5553  1.6675
 1019SOL    HW214517   0.224   4.312   7.058 -1.5855 -0.1370 -1.9569
 1020SOL     OW14518   0.878   0.478   0.149  0.8448  0.3252  1.1553
 1020SOL    HW114519   0.943   0.499   0.082  0.1072  2.1486  0.9850
 1020SOL    HW214520   0.899   0.387   0.169 -0.0212 -0.1731 -0.1710
 1021SOL     OW14521   3.477   2.985   9.049  0.0137 -0.2905  0.0695
 1021SOL    HW114522   3.564   3.010   9.081 -0.3651 -2.0305  2.4688
 1021SOL    HW214523   3.468   3.061   8.991  0.6185 -0.2480  0.0300
 1022SOL     OW14524   2.915   4.225   7.943 -0.1444 -0.0908 -0.3997
 1022SOL    HW114525   2.871   4.153   7.897 -0.2265 -0.3778  0.1296
 1022SOL    HW214526   2.975   4.178   8.001 -1.2485 -2.0402 -0.8253
 1023SOL     OW14527   3.856   1.316   2.587  0.7138 -0.1195  0.5417
 1023SOL    HW114528   3.780   1.298   2.532  0.5457  0.3590  0.6121
 1023SOL    HW214529   3.921   1.275   2.530  2.0293  3.1421 -0.3085
 1024SOL     OW14530   4.067   0.063   7.044  0.2549 -0.1985  0.9244
 1024SOL    HW114531   4.060   0.056   7.139 -1.4046  0.8408  0.8711
 1024SOL    HW214532   4.105   4.697   7.020 -2.4844 -0.4212 -2.5453
 1025SOL     OW14533   4.421   4.480   7.942  0.2474  0.3266  0.5568
 1025SOL    HW114534   4.444   4.536   7.867 -2.9802  2.6502  1.3115
 1025SOL    HW214535   4.328   4.458   7.937  0.7426 -1.9224  0.9156
 1026SOL     OW14536   3.197   4.278   9.928 -0.1044 -0.0520  0.0630
 1026SOL    HW114537   3.256   4.266  10.003 -0.6081  1.1910  0.6435
 1026SOL    HW214538   3.255   4.312   9.859 -0.9755  1.1525 -0.0684
 1027SOL     OW14539   3.464   2.911  14.166  0.3721  0.0751  0.4528
 1027SOL    HW114540   3.424   2.955  14.091  1.1144 -0.3742 -0.2154
 1027SOL    HW214541   3.380   2.913  14.212  0.0703  0.7674 -0.1355
 1028SOL     OW14542   2.384   1.223   4.391  0.2211 -0.7670  0.0634
 1028SOL    HW114543   2.361   1.299   4.337  0.9633 -0.1620  0.5973
 1028SOL    HW214544   2.391   1.269   4.475 -1.1775 -1.0729  0.3562
 1029SOL     OW14545   2.429   4.316   2.487 -0.3317 -0.6828  0.6239
 1029SOL    HW114546   2.344   4.341   2.523 -0.1625 -3.1790  2.6952
 1029SOL    HW214547   2.433   4.223   2.511  1.9111 -0.1795  2.2223
 1030SOL     OW14548   2.551   1.608   3.081 -0.1068 -0.1220  0.6302
 1030SOL    HW114549   2.604   1.673   3.037 -2.2468  1.8682  0.9794
 1030SOL    HW214550   2.477   1.605   3.020 -0.7614  0.1610  1.3969
 1031SOL     OW14551   4.171   3.117  13.335  0.0447  0.0163 -0.1090
 1031SOL    HW114552   4.172   3.086  13.245 -2.7520 -2.9429  0.8789
 1031SOL    HW214553   4.265   3.112  13.351  0.2668  0.1021 -1.3589
 1032SOL     OW14554   4.716   0.787   9.672  0.0370 -0.4337  0.6841
 1032SOL    HW114555   0.058   0.807   9.744  0.7259 -0.7018  0.1788
 1032SOL    HW214556   4.672   0.870   9.657 -1.4946 -1.4728 -0.5536
 1033SOL     OW14557   2.833   2.720   9.118  0.1022  0.4551  0.2673
 1033SOL    HW114558   2.894   2.658   9.078 -0.5888 -1.3444  1.9874
 1033SOL    HW214559   2.868   2.799   9.077 -0.4031 -0.4056 -1.8374
 1034SOL     OW14560   3.051   3.433   5.235 -0.0376  0.5167  0.5131
 1034SOL    HW114561   3.121   3.499   5.240  0.8201 -0.5332  2.5566
 1034SOL    HW214562   3.043   3.422   5.141  1.6047 -2.7686  0.7666
 1035SOL     OW14563   1.860   0.213   7.456 -0.1547 -0.3397  0.3908
 1035SOL    HW114564   1.814   0.193   7.538 -0.5660  0.6580  0.4087
 1035SOL    HW214565   1.943   0.166   7.458  0.1475  0.1918  0.4605
 1036SOL     OW14566   2.376   1.745  10.680 -0.0287 -0.1394  0.3969
 1036SOL    HW114567   2.412   1.755  10.768 -0.7152 -1.3241  0.8167
 1036SOL    HW214568   2.396   1.832  10.647  0.3061  0.3203  1.7939
 1037SOL     OW14569   3.797   1.110  11.310 -0.1709 -0.2146 -0.0569
 1037SOL    HW114570   3.710   1.117  11.269  0.3596  1.2778 -0.9302
 1037SOL    HW214571   3.823   1.202  11.317 -1.4030  0.1943 -0.8987
 1038SOL     OW14572   3.499   0.549   5.252 -0.4068  0.1083 -0.0139
 1038SOL    HW114573   3.552   0.531   5.174  2.2200 -0.8688  1.9787
 1038SOL    HW214574   3.409   0.540   5.221  0.0642 -1.6375 -0.9249
 1039SOL     OW14575   3.145   0.731   9.733 -0.0333 -0.5769  0.2082
 1039SOL    HW114576   3.069   0.783   9.759  1.5042  2.2901 -1.1497
 1039SOL    HW214577   3.117   0.696   9.648  1.6069 -3.0113  0.6758
 1040SOL     OW14578   3.294   0.385   9.291 -0.1528 -0.2369 -0.2294
 1040SOL    HW114579   3.292   0.468   9.243  0.7695  0.8200  1.5486
 1040SOL    HW214580   3.219   0.344   9.248 -1.7937  2.4382  0.0626
 1041SOL     OW14581   2.149   2.645   6.246  0.4666  0.7849 -0.3494
 1041SOL    HW114582   2.218   2.706   6.221  0.6381  2.1689  3.4493
 1041SOL    HW214583   2.167   2.563   6.200  1.7723  0.5987  0.4968
 1042SOL     OW14584   3.511   3.463  12.102  0.6924  0.1577 -0.0937
 1042SOL    HW114585   3.560   3.461  12.184 -1.0602  2.1002  1.0061
 1042SOL    HW214586   3.577   3.492  12.040  1.6753 -0.6613  0.5803
 1043SOL     OW14587   0.114   4.448   3.423 -0.2909  0.0602 -0.5886
 1043SOL    HW114588   0.060   4.403   3.487 -0.1546 -0.4964 -0.8619
 1043SOL    HW214589   0.201   4.432   3.459 -0.6096 -0.6196 -0.1282
 1044SOL     OW14590   0.024   3.983   5.372  0.0032 -0.3605 -0.6913
 1044SOL    HW114591   0.092   4.045   5.398 -1.4021  0.1183  1.8879
 1044SOL    HW214592   0.056   3.900   5.406 -1.2204 -0.1332  1.0006
 1045SOL     OW14593   1.492   2.960  15.419 -0.0366 -0.1312  0.3042
 1045SOL    HW114594   1.505   2.944  15.325 -0.8018  0.6970  0.0453
 1045SOL    HW214595   1.578   2.963  15.461 -0.2066  3.8202  0.4249
 1046SOL     OW14596   3.084   2.708   2.428  0.5265  0.6067  0.3172
 1046SOL    HW114597   3.159   2.649   2.419  0.0636  0.6282 -3.5537
 1046SOL    HW214598   3.073   2.727   2.335 -0.4583  0.1980  0.3490
 1047SOL     OW14599   1.090   1.288   1.248 -0.1205  0.2993 -0.0568
 1047SOL    HW114600   1.124   1.198   1.251 -0.6915  0.1208  1.0733
 1047SOL    HW214601   1.123   1.327   1.328  3.5819  0.4768 -1.6659
 1048SOL     OW14602   2.823   0.376   4.009 -0.4690  0.0495 -0.1931
 1048SOL    HW114603   2.829   0.402   3.917 -1.6157 -1.4760 -0.7011
 1048SOL    HW214604   2.802   0.284   3.992  0.1461  0.2107 -1.8024
 1049SOL     OW14605   2.934   3.929  11.104 -0.1756  0.9625 -0.3355
 1049SOL    HW114606   2.933   4.018  11.068  1.2766  2.2813  2.9664
 1049SOL    HW214607   2.850   3.920  11.149 -0.6296 -1.1167 -1.5892
 1050SOL     OW14608   3.112   3.420   2.785  0.2476 -0.2775 -0.3947
 1050SOL    HW114609   3.037   3.400   2.727 -0.4818  1.6307 -0.1217
 1050SOL    HW214610   3.092   3.514   2.788  2.2599  0.1502 -0.8500
 1051SOL     OW14611   1.204   4.594  10.961  0.0875  0.0921  0.0406
 1051SOL    HW114612   1.204   4.500  10.978  0.0931 -0.4559 -3.0332
 1051SOL    HW214613   1.216   4.631  11.048  0.2364 -1.1761  0.5557
 1052SOL     OW14614   1.984   2.064   7.656  0.2629  0.1393  0.2834
 1052SOL    HW114615   2.041   2.105   7.721  0.2769 -1.0925  1.0471
 1052SOL    HW214616   2.046   2.051   7.585 -0.8166 -0.8013 -0.4872
 1053SOL     OW14617   3.393   4.294   8.408  0.0252 -0.5596 -0.1660
 1053SOL    HW114618   3.332   4.294   8.483  0.8310  0.9535  0.4900
 1053SOL    HW214619   3.481   4.291   8.445  0.3134 -2.8672 -1.0566
 1054SOL     OW14620   1.870   2.200  16.629  0.0888  0.1148 -0.3493
 1054SOL    HW114621   1.938   2.154  16.580 -0.2724  1.2340 -1.9050
 1054SOL    HW214622   1.795   2.192  16.570 -0.3106  0.3032  0.1275
 1055SOL     OW14623   1.547   4.651   5.449 -0.3465  0.2234  0.3253
 1055SOL    HW114624   1.582   4.575   5.402 -2.1066 -0.0535 -0.5157
 1055SOL    HW214625   1.601   4.641   5.528  2.1365  0.9532 -1.3027
 1056SOL     OW14626   2.540   0.763  15.481  0.0030 -0.0304 -0.1893
 1056SOL    HW114627   2.483   0.821  15.432  0.5818  0.0760 -0.7393
 1056SOL    HW214628   2.622   0.810  15.462 -0.4582  1.5665  1.8533
 1057SOL     OW14629   4.325   2.047  16.122  0.6638  0.8074  0.3130
 1057SOL    HW114630   4.260   1.993  16.078  1.5355 -1.4037  1.7494
 1057SOL    HW214631   4.398   2.060  16.061  0.2978 -0.6737 -0.4426
 1058SOL     OW14632   1.435   3.980   7.014  0.0870 -0.4712  0.0122
 1058SOL    HW114633   1.456   4.024   6.932  0.3449 -0.7203 -0.0545
 1058SOL    HW214634   1.370   3.915   6.984 -0.7479  0.6204 -0.5665
 1059SOL     OW14635   4.125   1.994   3.066  0.3891 -0.1938 -0.9274
 1059SOL    HW114636   4.110   1.993   3.161 -0.4993 -0.6017 -1.0695
 1059SOL    HW214637   4.069   2.069   3.046  0.5221  0.1607  0.0353
 1060SOL     OW14638   2.508   2.667   5.053  0.3237 -0.3817 -0.0546
 1060SOL    HW114639   2.452   2.661   4.976  1.8139  0.5388 -1.1977
 1060SOL    HW214640   2.543   2.579   5.065 -1.2486 -1.2240 -1.6637
 1061SOL     OW14641   0.765   3.593   5.825 -0.4336  0.0156 -0.5457
 1061SOL    HW114642   0.794   3.523   5.767  0.6507  1.4137 -1.6729
 1061SOL    HW214643   0.717   3.537   5.887  2.3446 -1.0817  0.5997
 1062SOL     OW14644   2.881   3.251   0.476  0.8814 -0.2755  0.7493
 1062SOL    HW114645   2.861   3.165   0.513  3.2185 -0.5429  1.3611
 1062SOL    HW214646   2.825   3.307   0.530  2.8501 -0.1918  2.6901
 1063SOL     OW14647   2.043   2.959   3.096 -0.8467  0.4408 -0.4321
 1063SOL    HW114648   2.134   2.936   3.116 -1.5128  0.0317  2.0631
 1063SOL    HW214649   2.025   2.882   3.043  3.7182 -0.6753 -0.3745
 1064SOL     OW14650   3.392   3.380   7.159 -0.4242 -0.0845  0.0333
 1064SOL    HW114651   3.303   3.386   7.124 -0.1998  3.3448  0.0985
 1064SOL    HW214652   3.372   3.371   7.252 -1.6100  0.9093 -0.1355
 1065SOL     OW14653   4.604   2.395  11.428  0.4888  0.1706  0.0610
 1065SOL    HW114654   4.519   2.350  11.427 -0.1745  1.4466 -0.2787
 1065SOL    HW214655   4.632   2.392  11.337 -4.2054  2.3656 -1.4306
 1066SOL     OW14656   3.552   0.083   8.535 -0.9491 -0.0868 -0.5402
 1066SOL    HW114657   3.647   0.092   8.540 -1.3365  2.0513  2.8732
 1066SOL    HW214658   3.547   0.005   8.479  0.8538 -1.2744  0.9723
 1067SOL     OW14659   0.549   0.005  12.150  0.4318  0.1474 -0.2333
 1067SOL    HW114660   0.488   4.695  12.082 -1.8817  1.3043  1.3437
 1067SOL    HW214661   0.599   0.075  12.108  0.5908  1.1396  1.5997
 1068SOL     OW14662   2.319   1.886  16.605  0.0972 -0.4711  0.3218
 1068SOL    HW114663   2.389   1.881  16.540 -0.1016  1.0574 -0.0233
 1068SOL    HW214664   2.283   1.798  16.601 -1.4634  0.2084 -1.0962
 1069SOL     OW14665   2.427   0.683   7.647 -0.1692 -0.0812 -0.0366
 1069SOL    HW114666   2.391   0.754   7.700 -2.7248 -2.9199  2.0466
 1069SOL    HW214667   2.362   0.663   7.580 -0.6378 -0.4926  0.5375
 1070SOL     OW14668   0.318   4.130   5.038 -0.5458  0.8831 -0.4329
 1070SOL    HW114669   0.242   4.127   5.096  1.4022 -0.8693  2.0538
 1070SOL    HW214670   0.371   4.175   5.103  0.4961  0.0983 -0.7424
 1071SOL     OW14671   3.249   3.896   9.500  0.0932  0.1222  0.3734
 1071SOL    HW114672   3.286   3.819   9.542  1.4778  0.4810 -0.1976
 1071SOL    HW214673   3.278   3.965   9.560 -3.0822  0.4835  1.4881
 1072SOL     OW14674   2.985   3.195   8.393 -0.1329  0.5697 -0.3123
 1072SOL    HW114675   3.070   3.219   8.354 -1.2014  3.2090 -1.0064
 1072SOL    HW214676   3.008   3.171   8.483  2.0249  2.5689 -0.3348
 1073SOL     OW14677   0.263   4.666  17.619  0.1095 -0.0314  0.2470
 1073SOL    HW114678   0.335   0.009  17.609  0.9666 -1.0030  0.3768
 1073SOL    HW214679   0.318   4.588  17.626  2.2543  1.3645 -1.1345
 1074SOL     OW14680   2.956   0.211  12.916 -0.7008  0.1618  0.0844
 1074SOL    HW114681   3.035   0.172  12.950 -0.5263 -0.4648 -1.0292
 1074SOL    HW214682   2.954   0.185  12.824  0.0488 -0.6423  0.2986
 1075SOL     OW14683   0.241   3.329   6.557  0.1714  0.2119  0.0322
 1075SOL    HW114684   0.176   3.378   6.607  0.3229  0.8669 -0.4209
 1075SOL    HW214685   0.275   3.398   6.500 -1.1957  0.8421 -0.0218
 1076SOL     OW14686   0.632   3.886   2.939 -0.1503 -0.1976  0.0654
 1076SOL    HW114687   0.577   3.811   2.961 -1.5545  1.2608  1.4770
 1076SOL    HW214688   0.704   3.847   2.890 -0.3310  0.5349 -0.7902
 1077SOL     OW14689   1.667   4.324   4.773 -0.1495  0.4259  0.3151
 1077SOL    HW114690   1.721   4.278   4.708 -0.3075  1.2823 -0.4200
 1077SOL    HW214691   1.585   4.277   4.759 -0.1495  0.2878  0.7720
 1078SOL     OW14692   1.209   2.016   7.538 -0.0467  0.8512 -0.2115
 1078SOL    HW114693   1.160   2.075   7.596  1.2306  0.3211  1.4025
 1078SOL    HW214694   1.135   1.971   7.498  0.1775  1.2505 -1.0706
 1079SOL     OW14695   1.890   1.581   1.066 -0.1208  0.5636 -0.3775
 1079SOL    HW114696   1.875   1.675   1.054 -1.3464  0.0660 -2.8002
 1079SOL    HW214697   1.897   1.582   1.161  2.4125  2.9164 -0.5979
 1080SOL     OW14698   0.347   4.553  13.794  0.0277  0.1455 -0.4405
 1080SOL    HW114699   0.303   4.536  13.877 -2.4234 -1.4209 -2.0609
 1080SOL    HW214700   0.342   4.468  13.751  3.4424 -1.1415  1.6448
 1081SOL     OW14701   0.747   4.564  12.366  0.2547 -0.0550  0.8074
 1081SOL    HW114702   0.739   4.469  12.356 -2.1360 -0.1234  3.3938
 1081SOL    HW214703   0.698   4.593  12.289  0.7919 -2.4097 -0.4201
 1082SOL     OW14704   3.366   2.428   5.031 -0.3015 -0.6219 -0.3399
 1082SOL    HW114705   3.323   2.348   5.000  0.5475 -1.6724  1.1785
 1082SOL    HW214706   3.338   2.482   4.958 -0.8664 -0.8039 -0.2614
 1083SOL     OW14707   2.087   2.824   0.357 -0.3585  0.3346  0.0988
 1083SOL    HW114708   2.169   2.774   0.347 -0.5689  0.1710 -0.8500
 1083SOL    HW214709   2.106   2.892   0.292  0.4275 -0.0046 -0.0251
 1084SOL     OW14710   0.369   2.886   2.343 -0.1816 -0.5157 -0.4065
 1084SOL    HW114711   0.274   2.876   2.347 -0.3145  1.7165  2.3311
 1084SOL    HW214712   0.397   2.978   2.346  0.2568 -0.5683 -3.1666
 1085SOL     OW14713   1.130   0.140   3.434 -0.3807 -0.3184 -0.4735
 1085SOL    HW114714   1.110   0.092   3.515  1.6483 -0.1065  0.1502
 1085SOL    HW214715   1.049   0.129   3.384 -1.8915  0.7711  1.7041
 1086SOL     OW14716   0.564   2.479   9.340 -0.2449  0.1097 -0.5377
 1086SOL    HW114717   0.544   2.508   9.251  4.4684 -0.9843 -1.9541
 1086SOL    HW214718   0.657   2.502   9.346 -0.9809  2.4925  1.9541
 1087SOL     OW14719   4.510   1.160   5.787 -0.2620 -0.1487  0.1664
 1087SOL    HW114720   4.505   1.159   5.883  2.0444 -1.0855  0.2789
 1087SOL    HW214721   4.585   1.219   5.776 -1.0223  0.6041 -0.8961
 1088SOL     OW14722   3.713   2.466   6.005  0.0581 -0.8451  0.2188
 1088SOL    HW114723   3.626   2.446   5.971  1.8516 -2.8692 -3.1737
 1088SOL    HW214724   3.692   2.488   6.096  2.6447 -0.3017  0.6947
 1089SOL     OW14725   0.807   0.982   4.698 -0.2520  0.5746  0.1708
 1089SOL    HW114726   0.726   0.977   4.647 -0.2939 -2.6488  0.6060
 1089SOL    HW214727   0.874   0.950   4.638  0.7950 -0.3435  1.8183
 1090SOL     OW14728   3.554   0.360   2.261 -0.5111  0.5899 -0.1979
 1090SOL    HW114729   3.580   0.344   2.352  0.1245  1.0725 -0.2952
 1090SOL    HW214730   3.568   0.453   2.250  1.4356  0.3596  0.2956
 1091SOL     OW14731   3.507   2.862   1.472 -0.0624 -0.4356  0.1390
 1091SOL    HW114732   3.476   2.822   1.553  1.2486 -0.9147  0.4094
 1091SOL    HW214733   3.506   2.955   1.491  0.2667  0.6376 -5.0391
 1092SOL     OW14734   1.874   1.660   5.039  0.1963 -0.3827  0.1427
 1092SOL    HW114735   1.783   1.647   5.065  0.3048  0.7740  1.1287
 1092SOL    HW214736   1.861   1.707   4.957  0.4370 -0.2338  0.1891
 1093SOL     OW14737   0.431   1.755   2.847  0.1278 -0.1430  0.4198
 1093SOL    HW114738   0.387   1.749   2.762  0.4289 -0.1879  0.2667
 1093SOL    HW214739   0.448   1.849   2.851 -0.3054 -0.1642  2.9317
 1094SOL     OW14740   0.510   0.745  12.134  0.4012  0.1551  0.1146
 1094SOL    HW114741   0.416   0.761  12.122  0.7553  1.3866 -1.0968
 1094SOL    HW214742   0.553   0.776  12.053  2.2737 -1.1602  0.6150
 1095SOL     OW14743   2.504   0.675   4.714 -0.0413  0.1142 -0.0452
 1095SOL    HW114744   2.468   0.644   4.797 -2.5222 -2.7850 -2.1762
 1095SOL    HW214745   2.524   0.765   4.739 -0.7492  0.6146 -1.2702
 1096SOL     OW14746   0.192   1.477   1.859 -0.2583 -0.2331  0.0280
 1096SOL    HW114747   0.236   1.392   1.859  1.4547  0.6716 -0.1584
 1096SOL    HW214748   0.116   1.437   1.902 -0.0542 -0.3105  0.3219
 1097SOL     OW14749   4.711   0.698   3.066  0.0650 -0.4646 -0.4414
 1097SOL    HW114750   4.695   0.621   3.011 -0.9548  1.1213 -2.3936
 1097SOL    HW214751   4.621   0.721   3.091 -0.0385 -0.5859 -0.6969
 1098SOL     OW14752   0.617   3.497   8.620  0.0716 -0.7305 -0.2562
 1098SOL    HW114753   0.676   3.422   8.616 -0.2145 -0.8776 -1.5931
 1098SOL    HW214754   0.532   3.466   8.589  0.3187 -0.0693 -1.5694
 1099SOL     OW14755   4.574   3.290   6.385 -0.0612 -0.4622 -0.3516
 1099SOL    HW114756   4.499   3.339   6.352 -0.0517  0.5685  1.1736
 1099SOL    HW214757   4.534   3.219   6.434 -1.3388 -1.0681 -2.2767
 1100SOL     OW14758   3.390   0.565   0.889 -0.1066  0.1135 -0.4637
 1100SOL    HW114759   3.304   0.525   0.901  0.0243 -0.5510 -1.6839
 1100SOL    HW214760   3.381   0.595   0.798  1.9553  0.5601 -0.5136
 1101SOL     OW14761   1.699   1.934   3.269  0.4230 -0.0253 -0.0291
 1101SOL    HW114762   1.666   1.867   3.210 -1.1643  1.0210 -0.3424
 1101SOL    HW214763   1.610   1.955   3.298  0.4571  1.3078 -0.8940
 1102SOL     OW14764   1.332   2.311  16.645 -0.1282  0.6596 -0.5976
 1102SOL    HW114765   1.301   2.231  16.603  0.0985 -0.2730  1.0488
 1102SOL    HW214766   1.250   2.361  16.649  0.5185  1.5735  1.0521
 1103SOL     OW14767   1.151   0.315   1.702  0.1022  0.0650 -0.4745
 1103SOL    HW114768   1.211   0.360   1.762 -0.8051  0.9063 -0.2024
 1103SOL    HW214769   1.072   0.357   1.735 -0.0133  1.3334 -2.4183
 1104SOL     OW14770   1.111   2.701   2.664 -0.2272 -0.3858 -0.2588
 1104SOL    HW114771   1.056   2.778   2.680 -1.0404 -1.4938  2.3490
 1104SOL    HW214772   1.062   2.646   2.603 -0.1296 -1.4964  0.6611
 1105SOL     OW14773   2.150   4.098   7.496 -0.5866  0.5064 -0.0084
 1105SOL    HW114774   2.108   4.172   7.541  0.1381  1.0227 -0.1755
 1105SOL    HW214775   2.222   4.134   7.445 -0.4067  0.5420  0.2684
 1106SOL     OW14776   1.577   1.497   3.356  0.2199  0.2372 -0.7800
 1106SOL    HW114777   1.594   1.453   3.273 -0.0952 -2.7368  0.7200
 1106SOL    HW214778   1.659   1.541   3.378  0.5908 -1.3708  1.0333
 1107SOL     OW14779   3.604   0.047   7.974 -0.4779  0.3290  0.0178
 1107SOL    HW114780   3.641   0.134   7.956  1.8143 -0.4042  1.2308
 1107SOL    HW214781   3.659   0.024   8.048  1.9240  1.3570 -1.4396
 1108SOL     OW14782   3.540   1.848   3.948 -0.4041 -0.4520 -0.0504
 1108SOL    HW114783   3.555   1.776   3.888 -0.6498 -0.2339 -0.3733
 1108SOL    HW214784   3.470   1.890   3.898 -0.4480  0.6622  0.9465
 1109SOL     OW14785   2.227   0.669   6.204  0.2480 -0.0686 -0.0491
 1109SOL    HW114786   2.212   0.725   6.128  0.4181  0.0709  0.0207
 1109SOL    HW214787   2.258   0.591   6.157  2.6752 -0.1531  1.7161
 1110SOL     OW14788   3.498   1.329   8.582 -0.2277  0.2827 -0.5739
 1110SOL    HW114789   3.465   1.342   8.671 -1.3706 -2.3205 -0.6078
 1110SOL    HW214790   3.565   1.397   8.578  0.6585 -0.5224  0.4693
 1111SOL     OW14791   3.742   0.288   7.964 -0.1335 -0.3398 -0.2364
 1111SOL    HW114792   3.718   0.332   8.046 -2.1392  0.1306 -1.0933
 1111SOL    HW214793   3.735   0.351   7.892 -1.4311 -0.1868  0.0345
 1112SOL     OW14794   2.230   2.335  17.446 -0.1577 -0.1510  0.0651
 1112SOL    HW114795   2.264   2.248  17.427  2.4774  0.7310  0.7332
 1112SOL    HW214796   2.242   2.370  17.358  1.5503 -0.0602  0.3419
 1113SOL     OW14797   1.297   2.146  12.562  0.4546  0.2235 -0.0261
 1113SOL    HW114798   1.257   2.233  12.570  0.6878  0.2267  1.0626
 1113SOL    HW214799   1.245   2.079  12.607  1.0616 -0.7658 -0.8056
 1114SOL     OW14800   3.225   3.506   3.331 -0.3992 -0.0806 -0.4285
 1114SOL    HW114801   3.244   3.456   3.410 -0.5001 -0.1565 -0.4534
 1114SOL    HW214802   3.132   3.517   3.348 -0.1534  1.0359  0.2704
 1115SOL     OW14803   0.859   1.939  10.727  0.1886 -0.2821 -0.1345
 1115SOL    HW114804   0.941   1.965  10.685 -0.8929  2.0375 -0.8404
 1115SOL    HW214805   0.858   2.018  10.782  1.4588 -0.5187  0.2269
 1116SOL     OW14806   3.063   2.813   8.960  0.5166 -0.2559 -0.2596
 1116SOL    HW114807   3.105   2.791   8.877 -0.3964  0.5194 -0.9298
 1116SOL    HW214808   3.130   2.874   8.991  0.0451  0.4733 -0.6793
 1117SOL     OW14809   1.967   0.403   4.184  0.4764 -0.0162 -0.4780
 1117SOL    HW114810   1.882   0.388   4.225  0.4465 -0.2917 -0.6441
 1117SOL    HW214811   2.017   0.345   4.241 -2.5060 -1.3779  0.7239
 1118SOL     OW14812   4.416   2.480   4.990 -0.5615  0.2862 -0.0076
 1118SOL    HW114813   4.481   2.510   4.927  1.0515 -1.9671  0.5945
 1118SOL    HW214814   4.429   2.390   5.019 -1.2925 -0.3411 -1.6303
 1119SOL     OW14815   4.002   3.894   7.175 -0.7632  0.2279  0.0067
 1119SOL    HW114816   3.988   3.941   7.257 -0.7130  0.4437 -0.1073
 1119SOL    HW214817   4.042   3.965   7.125  1.1007 -0.7574  0.0766
 1120SOL     OW14818   1.051   1.471   5.224  0.1967 -0.0425  0.1497
 1120SOL    HW114819   0.955   1.464   5.224  0.2794 -1.3190  1.7799
 1120SOL    HW214820   1.063   1.422   5.306 -0.1720 -0.4950 -0.0662
 1121SOL     OW14821   0.378   0.041   4.304  0.1010 -0.1204 -0.1691
 1121SOL    HW114822   0.370   0.064   4.211 -0.0337 -0.3577 -0.2165
 1121SOL    HW214823   0.295   0.078   4.335 -0.6563 -0.3704 -1.8941
 1122SOL     OW14824   2.881   4.450  15.772 -0.0847  0.0073  0.4802
 1122SOL    HW114825   2.969   4.422  15.799  0.9869  0.5802 -2.3878
 1122SOL    HW214826   2.845   4.378  15.721  0.7107  0.3116 -0.5209
 1123SOL     OW14827   3.482   4.509   6.014  0.2161  0.1468 -0.2539
 1123SOL    HW114828   3.473   4.603   5.997  1.2458  0.0129 -1.5606
 1123SOL    HW214829   3.423   4.467   5.951  0.3317  0.0124 -0.2729
 1124SOL     OW14830   2.511   4.311   5.426 -0.1694  0.1705 -0.3744
 1124SOL    HW114831   2.497   4.220   5.452 -1.0902  0.3670 -0.1864
 1124SOL    HW214832   2.459   4.314   5.346 -0.8387 -0.6018  0.0265
 1125SOL     OW14833   4.081   3.293   5.813  0.2866 -0.5795  0.0345
 1125SOL    HW114834   4.036   3.224   5.763 -1.3295 -1.8370  3.2017
 1125SOL    HW214835   4.115   3.239   5.884 -0.9991 -0.7538  0.5337
 1126SOL     OW14836   2.560   2.735   2.983 -0.5474  0.3089  0.6673
 1126SOL    HW114837   2.631   2.764   3.040 -0.5146 -1.8073  1.7326
 1126SOL    HW214838   2.617   2.672   2.938 -2.0241 -0.3357 -0.3099
 1127SOL     OW14839   0.206   1.820   8.444 -0.4174 -0.3187  0.3005
 1127SOL    HW114840   0.178   1.874   8.517 -0.3393 -0.7805  0.6697
 1127SOL    HW214841   0.269   1.765   8.492  0.4983  1.0900  0.6898
 1128SOL     OW14842   2.918   1.321   9.208  0.0940  0.6142  0.3135
 1128SOL    HW114843   2.968   1.346   9.285  1.5124  0.2065 -0.4704
 1128SOL    HW214844   2.895   1.398   9.156  0.0592  1.5445  1.7126
 1129SOL     OW14845   3.599   2.459   0.285  0.4879 -0.2708 -0.3062
 1129SOL    HW114846   3.685   2.497   0.271  0.9123 -1.0022  0.3037
 1129SOL    HW214847   3.604   2.402   0.208  1.6140  1.2223 -1.3380
 1130SOL     OW14848   4.056   2.937   9.990  0.2240  0.7972 -1.3253
 1130SOL    HW114849   4.047   2.844  10.013  2.9262  1.2025  1.3797
 1130SOL    HW214850   4.091   2.926   9.902  0.7291 -1.1822 -0.8876
 1131SOL     OW14851   0.578   2.026   5.207  0.0546 -0.0531 -0.4996
 1131SOL    HW114852   0.498   1.979   5.184  0.7917 -0.4596 -2.2043
 1131SOL    HW214853   0.536   2.102   5.248 -2.1888 -0.8723 -1.2497
 1132SOL     OW14854   2.463   2.096   4.188  0.0108  0.3922  0.1435
 1132SOL    HW114855   2.499   2.073   4.273 -1.5896  2.4146  1.3596
 1132SOL    HW214856   2.455   2.191   4.197 -0.0878  0.3463  0.5375
 1133SOL     OW14857   1.536   0.881   8.865  0.4716 -0.5143 -0.4114
 1133SOL    HW114858   1.453   0.915   8.898  0.0119 -1.5030 -0.5500
 1133SOL    HW214859   1.549   0.941   8.792  0.7905 -0.9217 -0.6921
 1134SOL     OW14860   3.879   0.484  13.492 -0.1087  0.0877 -0.1791
 1134SOL    HW114861   3.963   0.478  13.538 -0.0089  1.1743 -0.2312
 1134SOL    HW214862   3.893   0.415  13.427 -1.0282 -0.5001  0.2451
 1135SOL     OW14863   0.580   3.129   2.851 -0.2514 -0.6165 -0.2522
 1135SOL    HW114864   0.502   3.168   2.812  0.2989  1.2516  0.5399
 1135SOL    HW214865   0.565   3.036   2.832 -2.0548 -0.6132  1.2076
 1136SOL     OW14866   3.800   3.082   3.652  0.4142  0.3199  0.3136
 1136SOL    HW114867   3.851   3.048   3.726 -0.5806 -0.5043  0.6282
 1136SOL    HW214868   3.866   3.093   3.583 -0.0818 -0.1554 -0.2357
 1137SOL     OW14869   3.605   4.268   3.838 -0.3405 -0.2981 -0.0618
 1137SOL    HW114870   3.635   4.186   3.877  0.8947 -0.0395 -0.4648
 1137SOL    HW214871   3.684   4.320   3.821  0.4729 -1.2916  0.6937
 1138SOL     OW14872   0.819   1.413   8.417  0.5016 -0.1949  0.6283
 1138SOL    HW114873   0.745   1.392   8.359  1.9403 -3.0982 -0.1815
 1138SOL    HW214874   0.774   1.434   8.498 -0.6548 -1.5903  0.3515
 1139SOL     OW14875   3.929   1.643   3.167 -0.3517 -0.2505  0.7708
 1139SOL    HW114876   3.991   1.600   3.225 -0.5661  0.5940  1.6190
 1139SOL    HW214877   3.990   1.676   3.101 -0.0131 -3.8251 -0.7280
 1140SOL     OW14878   3.223   1.478   0.857  0.6157 -0.4968 -0.0360
 1140SOL    HW114879   3.158   1.479   0.927 -0.4444  1.2014 -1.0697
 1140SOL    HW214880   3.206   1.566   0.823 -1.0306 -1.1390 -0.8315
 1141SOL     OW14881   0.969   0.823  17.540  0.2454 -0.1411 -0.0608
 1141SOL    HW114882   0.875   0.831  17.524  0.4814 -1.6751 -2.3648
 1141SOL    HW214883   0.975   0.757  17.609 -2.6360 -0.9512 -0.5761
 1142SOL     OW14884   2.616   2.642   2.228  0.0699  0.4476 -0.4587
 1142SOL    HW114885   2.604   2.549   2.208  2.1630  0.0671  0.0824
 1142SOL    HW214886   2.567   2.639   2.310 -0.5406  0.1559 -0.8241
 1143SOL     OW14887   2.648   1.236   5.300 -0.1695 -0.6749  0.2555
 1143SOL    HW114888   2.687   1.181   5.367  0.8370  0.1177  0.3261
 1143SOL    HW214889   2.651   1.317   5.350  1.2807 -0.2667 -0.4849
 1144SOL     OW14890   4.318   3.855   7.015  0.3362  0.3700 -0.1161
 1144SOL    HW114891   4.240   3.805   7.038  0.7538 -0.1342  0.1746
 1144SOL    HW214892   4.376   3.852   7.091 -0.8870  0.1160  0.8012
 1145SOL     OW14893   0.830   2.128   7.528 -0.1709  0.0957 -0.7293
 1145SOL    HW114894   0.792   2.074   7.459 -1.7408  0.6449 -0.2808
 1145SOL    HW214895   0.830   2.211   7.481 -0.4141  0.1273 -0.6740
 1146SOL     OW14896   0.743   3.533   4.425 -0.1672  0.0254 -0.0505
 1146SOL    HW114897   0.663   3.522   4.477 -0.1131 -0.3909 -0.0496
 1146SOL    HW214898   0.778   3.444   4.415  2.2019  1.0376 -0.6847
 1147SOL     OW14899   1.621   1.706   2.236 -0.7386 -0.6803  0.3314
 1147SOL    HW114900   1.528   1.682   2.236 -0.8453 -0.2610 -1.1128
 1147SOL    HW214901   1.599   1.793   2.202 -1.2738 -0.6317  0.7984
 1148SOL     OW14902   1.203   2.338   8.206  0.1184  0.3333 -0.3808
 1148SOL    HW114903   1.175   2.420   8.247  1.8712  0.7602 -0.0558
 1148SOL    HW214904   1.258   2.330   8.284  1.5062 -0.9962 -1.4973
 1149SOL     OW14905   2.344   3.312   7.276  0.1596 -0.1520  0.2895
 1149SOL    HW114906   2.326   3.246   7.344  1.6105 -0.9646 -0.1077
 1149SOL    HW214907   2.261   3.359   7.273  0.0757 -0.2802  0.5304
 1150SOL     OW14908   1.393   0.418   7.459  0.1588 -0.7804 -0.2457
 1150SOL    HW114909   1.326   0.454   7.518 -0.8264 -1.0663 -1.1979
 1150SOL    HW214910   1.473   0.415   7.511 -0.2386 -3.2049  0.2090
 1151SOL     OW14911   4.396   1.823  15.798  0.7122 -0.0083 -0.2179
 1151SOL    HW114912   4.309   1.862  15.807  1.4406  1.3956  0.8363
 1151SOL    HW214913   4.395   1.787  15.709  0.2225 -0.7810  0.1016
 1152SOL     OW14914   1.659   0.980   4.399  0.2424  0.2787  0.2664
 1152SOL    HW114915   1.699   1.044   4.340  0.1503  0.6657  0.6222
 1152SOL    HW214916   1.624   0.906   4.350 -0.3391  0.2735  0.6844
 1153SOL     OW14917   0.674   1.939  16.461  0.2879 -0.1117 -0.0918
 1153SOL    HW114918   0.703   1.851  16.438  0.6249 -0.4834  1.8280
 1153SOL    HW214919   0.580   1.947  16.442  0.4329 -0.0511 -0.7848
 1154SOL     OW14920   1.054   2.188   4.976  0.4605 -0.3493  0.4704
 1154SOL    HW114921   1.007   2.177   4.893  2.4249 -3.0186 -0.2887
 1154SOL    HW214922   1.103   2.269   4.962 -0.3713 -0.2033 -1.6691
 1155SOL     OW14923   2.072   2.619   4.601 -0.0446 -0.0003 -0.3037
 1155SOL    HW114924   2.067   2.570   4.682 -1.8732 -1.6753 -1.4336
 1155SOL    HW214925   2.110   2.555   4.541  2.4524  1.2995 -0.1248
 1156SOL     OW14926   2.325   2.708   9.431 -0.2030 -0.3799  0.2319
 1156SOL    HW114927   2.393   2.641   9.441  0.2585 -0.2380 -1.9325
 1156SOL    HW214928   2.246   2.660   9.456  0.4115 -2.5549 -1.9651
 1157SOL     OW14929   4.636   2.063   3.406  0.3976  0.2441  0.1795
 1157SOL    HW114930   4.558   2.091   3.357 -0.2325 -1.0727  0.4423
 1157SOL    HW214931   4.621   1.969   3.396  1.5121 -0.0229  1.1190
 1158SOL     OW14932   1.092   1.952  12.704  0.4259 -0.1529 -0.3913
 1158SOL    HW114933   1.036   1.896  12.649  0.3204  1.4304 -1.8998
 1158SOL    HW214934   1.125   1.886  12.766 -0.1485  1.6296  1.7710
 1159SOL     OW14935   4.382   3.324  11.225  0.6265 -0.1929 -0.2894
 1159SOL    HW114936   4.433   3.256  11.181  0.0336  0.0968 -1.4228
 1159SOL    HW214937   4.404   3.297  11.315  1.1277 -2.2215 -1.0193
 1160SOL     OW14938   1.731   2.702   1.296 -0.6367 -0.2777 -0.2682
 1160SOL    HW114939   1.820   2.714   1.262  0.2040 -2.2495  1.2254
 1160SOL    HW214940   1.717   2.617   1.255 -0.0086  0.3878 -1.8572
 1161SOL     OW14941   2.169   3.921   5.026 -0.3917  0.5481  0.1821
 1161SOL    HW114942   2.217   4.003   5.015  0.4319  0.0938  0.3047
 1161SOL    HW214943   2.100   3.925   4.960  0.2572  2.1020 -0.3954
 1162SOL     OW14944   0.725   1.005  13.867  0.1132 -0.1656 -0.4109
 1162SOL    HW114945   0.769   0.942  13.810  0.1079 -0.7933  0.2840
 1162SOL    HW214946   0.741   0.965  13.952  1.7393  0.5392 -0.3866
 1163SOL     OW14947   3.966   2.676   2.803  0.5235  0.1315 -0.4228
 1163SOL    HW114948   4.007   2.730   2.735  1.9363  1.8493  1.8198
 1163SOL    HW214949   3.971   2.584   2.775 -0.7659  0.4988 -1.8968
 1164SOL     OW14950   0.283   1.383   7.868 -0.2923 -0.8250  0.3393
 1164SOL    HW114951   0.245   1.466   7.840  0.8613  0.1787  1.7496
 1164SOL    HW214952   0.372   1.391   7.835 -1.0758 -2.2678 -2.1509
 1165SOL     OW14953   1.879   1.229   0.649 -0.2539 -0.7959  0.0089
 1165SOL    HW114954   1.949   1.288   0.622  0.6740 -1.9444 -0.0964
 1165SOL    HW214955   1.927   1.194   0.724 -2.3882 -1.2561  1.1774
 1166SOL     OW14956   4.404   4.695   4.500 -0.0791  0.5429 -0.4292
 1166SOL    HW114957   4.399   4.705   4.405 -1.5520  1.8557 -0.2028
 1166SOL    HW214958   4.345   0.043   4.532 -0.2837  0.4425 -0.5971
 1167SOL     OW14959   3.632   3.186   9.349 -0.5031 -0.3338 -0.5178
 1167SOL    HW114960   3.585   3.247   9.293 -2.0749 -2.3556 -1.3823
 1167SOL    HW214961   3.563   3.134   9.389  0.4125  0.0471  1.5816
 1168SOL     OW14962   0.098   2.365   5.397 -0.2707  0.3905 -0.1819
 1168SOL    HW114963   0.027   2.358   5.334  0.0327  2.3338 -0.7330
 1168SOL    HW214964   0.050   2.342   5.477 -0.4306  4.4241  0.9059
 1169SOL     OW14965   1.237   2.765   7.063  0.0287  0.4050 -0.2324
 1169SOL    HW114966   1.167   2.825   7.087  0.0142  0.3158 -0.0475
 1169SOL    HW214967   1.229   2.702   7.135 -3.2736 -1.2777 -2.1085
 1170SOL     OW14968   0.127   3.880  16.670 -0.1115 -0.3145 -0.1810
 1170SOL    HW114969   0.130   3.931  16.750 -2.2017 -0.9273  0.2726
 1170SOL    HW214970   0.216   3.860  16.641 -0.6163 -2.0463 -0.5856
 1171SOL     OW14971   3.734   4.037   7.714  0.1834  0.0768  0.0697
 1171SOL    HW114972   3.725   3.944   7.738  1.9797 -0.1409 -0.0624
 1171SOL    HW214973   3.731   4.024   7.620 -0.1758 -2.0289  0.3662
 1172SOL     OW14974   1.430   1.813   0.972  0.6538 -0.0815  0.3662
 1172SOL    HW114975   1.365   1.881   0.990  0.2443 -0.7380  1.3945
 1172SOL    HW214976   1.393   1.738   1.020  1.0882 -1.4319 -1.4145
 1173SOL     OW14977   3.675   2.015   3.521  0.1482 -0.3106  0.0578
 1173SOL    HW114978   3.604   2.030   3.459  0.1200 -0.9627 -0.0664
 1173SOL    HW214979   3.743   1.963   3.478  2.0960  1.2015  1.3025
 1174SOL     OW14980   0.436   0.190   8.599 -0.2543  0.1938 -0.5523
 1174SOL    HW114981   0.478   0.256   8.655  1.0867  0.3224 -1.6968
 1174SOL    HW214982   0.351   0.184   8.641 -0.6274  1.4521 -1.1094
 1175SOL     OW14983   4.537   0.817   3.815 -0.0675 -0.2300 -0.4775
 1175SOL    HW114984   4.444   0.836   3.799  0.3146  0.4532 -1.8783
 1175SOL    HW214985   4.556   0.756   3.744 -1.2304  0.9631 -1.8203
 1176SOL     OW14986   2.510   2.449   9.365 -0.1911  0.2083  0.6635
 1176SOL    HW114987   2.548   2.529   9.330 -1.8966  0.7544  0.0715
 1176SOL    HW214988   2.487   2.408   9.282 -0.1348  2.7655 -0.5892
 1177SOL     OW14989   4.181   3.394   7.799  0.2009  0.0476 -0.1529
 1177SOL    HW114990   4.167   3.468   7.740 -0.7100 -0.0216 -0.0208
 1177SOL    HW214991   4.112   3.388   7.864  0.5505  0.3032  0.2448
 1178SOL     OW14992   2.284   2.984   5.642  0.7508 -0.7668  0.3048
 1178SOL    HW114993   2.301   2.948   5.729  0.3816  0.5013  0.8953
 1178SOL    HW214994   2.356   3.044   5.622  0.1200  0.2143  1.0236
 1179SOL     OW14995   0.814   0.070   5.765  1.0814  0.0297 -0.3105
 1179SOL    HW114996   0.804   0.055   5.859 -0.5851  2.3126 -0.1284
 1179SOL    HW214997   0.886   0.134   5.765 -1.4397  2.8618 -0.0505
 1180SOL     OW14998   3.200   0.150   0.973  0.0526 -0.2955 -0.1070
 1180SOL    HW114999   3.109   0.146   1.005 -0.0153 -2.4122 -0.5728
 1180SOL    HW215000   3.195   0.236   0.930 -0.1331 -0.5351 -0.5596
 1181SOL     OW15001   2.006   2.878   5.828 -0.6269  0.2278 -0.2564
 1181SOL    HW115002   2.040   2.891   5.739 -0.7039  1.9079 -0.0425
 1181SOL    HW215003   1.931   2.938   5.830 -0.7800  0.0944 -1.4890
 1182SOL     OW15004   1.658   4.408   4.076  0.2006  0.1905 -0.6137
 1182SOL    HW115005   1.702   4.365   4.003  3.2957 -0.9672  1.9057
 1182SOL    HW215006   1.588   4.348   4.101  1.8269 -1.8801 -1.0445
 1183SOL     OW15007   2.807   0.538  12.718 -0.4150 -0.2668  0.4954
 1183SOL    HW115008   2.716   0.553  12.693 -0.2164  1.5585  0.8971
 1183SOL    HW215009   2.827   0.630  12.734  0.2634 -0.2163 -0.6288
 1184SOL     OW15010   2.865   4.151  11.400 -0.2473  0.0123 -0.2351
 1184SOL    HW115011   2.807   4.093  11.351 -1.5715  2.3183 -1.3809
 1184SOL    HW215012   2.816   4.233  11.393 -2.8614 -1.5045  0.1703
 1185SOL     OW15013   1.402   4.194   2.475  0.3064 -0.0488  0.0698
 1185SOL    HW115014   1.370   4.104   2.482 -3.0793  1.2709  1.8220
 1185SOL    HW215015   1.319   4.241   2.470 -0.3282 -1.1382  0.2559
 1186SOL     OW15016   3.897   0.002   5.498 -0.1038 -0.0034 -0.2550
 1186SOL    HW115017   3.840   0.070   5.461 -1.4194 -1.3976 -0.7986
 1186SOL    HW215018   3.823   4.662   5.514  0.0764  0.0768  0.8452
 1187SOL     OW15019   2.408   2.664  17.165  0.3754 -0.1811 -0.2196
 1187SOL    HW115020   2.490   2.682  17.211 -0.1220  1.2251  0.1046
 1187SOL    HW215021   2.351   2.727  17.209 -0.9120 -2.1533  0.9568
 1188SOL     OW15022   4.087   0.362  10.009 -0.4870 -0.6081 -0.5316
 1188SOL    HW115023   4.059   0.320   9.928  0.0719 -2.4322  0.2180
 1188SOL    HW215024   4.000   0.372  10.047  0.4943  0.2913  1.4529
 1189SOL     OW15025   1.108   0.910   3.124 -0.6780  0.2476  0.1908
 1189SOL    HW115026   1.020   0.946   3.139 -1.5544 -1.7614 -0.1325
 1189SOL    HW215027   1.137   0.909   3.215  0.9670  3.6278 -0.2921
 1190SOL     OW15028   0.581   1.940   6.339  0.4490 -0.2868 -0.0810
 1190SOL    HW115029   0.552   2.000   6.409 -3.6314 -1.1510 -1.0393
 1190SOL    HW215030   0.496   1.899   6.326 -1.4184  2.7474  2.4683
 1191SOL     OW15031   3.767   1.642  10.980 -0.9636  0.3232 -0.1472
 1191SOL    HW115032   3.819   1.651  10.900  0.6549 -2.1192  0.6328
 1191SOL    HW215033   3.751   1.548  10.983  1.5820 -0.1057  0.2028
 1192SOL     OW15034   4.202   1.761   3.359 -0.4746 -0.4824  0.0618
 1192SOL    HW115035   4.193   1.671   3.329 -1.1228 -0.3031 -0.2836
 1192SOL    HW215036   4.283   1.760   3.410 -0.2394 -0.0062 -0.2946
 1193SOL     OW15037   4.203   1.110   0.032  0.3181  0.1427  0.2433
 1193SOL    HW115038   4.119   1.082  17.675  1.4415 -2.6278 -0.2170
 1193SOL    HW215039   4.248   1.032   0.064 -0.6183 -1.0618 -1.3907
 1194SOL     OW15040   4.172   1.720  15.631 -0.5496  0.1558 -1.0454
 1194SOL    HW115041   4.130   1.756  15.553 -1.4459  2.1490  0.3621
 1194SOL    HW215042   4.108   1.745  15.697  1.3968 -2.4851  1.8818
 1195SOL     OW15043   1.824   2.776   5.228 -0.0888 -0.1275  0.4950
 1195SOL    HW115044   1.792   2.687   5.243  1.4731 -0.7936 -0.1896
 1195SOL    HW215045   1.805   2.808   5.316  0.8484 -2.1086  1.4180
 1196SOL     OW15046   0.067   3.469   5.422 -0.3876  0.6899  0.2602
 1196SOL    HW115047   0.126   3.429   5.486  0.9074  0.9163 -0.7782
 1196SOL    HW215048   0.011   3.394   5.406  1.2760 -0.2777 -1.0546
 1197SOL     OW15049   2.984   3.518   1.427  0.4836  0.4601  0.1130
 1197SOL    HW115050   3.045   3.494   1.357 -0.8657 -0.8310 -0.5950
 1197SOL    HW215051   2.975   3.609   1.398  0.0358 -0.7138 -3.3438
 1198SOL     OW15052   3.854   0.810   2.342 -0.0294 -0.1425 -0.0690
 1198SOL    HW115053   3.815   0.773   2.262  0.8394  0.7190 -0.8840
 1198SOL    HW215054   3.775   0.803   2.396 -0.6018  0.0995 -0.8666
 1199SOL     OW15055   0.041   0.112  15.598  0.0458 -0.6084 -0.2543
 1199SOL    HW115056   0.029   0.035  15.654  1.2742 -1.5572 -1.2878
 1199SOL    HW215057   0.122   0.148  15.633  1.3318 -3.1721 -0.5431
 1200SOL     OW15058   1.743   2.970   4.494  0.1959 -0.4403  0.2336
 1200SOL    HW115059   1.690   3.007   4.424 -1.1804 -1.2486  0.8510
 1200SOL    HW215060   1.738   3.038   4.561 -2.5236 -0.5527  0.1275
 1201SOL     OW15061   1.861   0.106   7.731  0.3056 -0.2055  0.2727
 1201SOL    HW115062   1.787   0.047   7.745 -1.9542  2.2990 -1.2309
 1201SOL    HW215063   1.838   0.179   7.788  0.0957 -0.0990  0.0520
 1202SOL     OW15064   3.344   0.032   5.971 -0.0891  0.6427  0.0876
 1202SOL    HW115065   3.278   0.016   6.038  0.3220  1.3539  0.6549
 1202SOL    HW215066   3.305   0.097   5.912  0.1218  0.5834 -0.1190
 1203SOL     OW15067   0.415   2.016  16.425  0.0023  0.1286 -0.1805
 1203SOL    HW115068   0.392   2.077  16.495  1.1452  0.0071  0.3033
 1203SOL    HW215069   0.344   2.035  16.364  0.1734  0.6147 -0.2236
 1204SOL     OW15070   0.664   2.892   0.874  0.7263 -0.4540  0.2467
 1204SOL    HW115071   0.652   2.941   0.956  3.4105 -3.4121  2.4195
 1204SOL    HW215072   0.687   2.962   0.814  3.0447 -0.6363  0.9038
 1205SOL     OW15073   0.535   3.044  15.362 -0.2348 -0.4007 -0.2889
 1205SOL    HW115074   0.599   3.103  15.402 -1.5888  1.9017 -1.5457
 1205SOL    HW215075   0.532   2.984  15.437 -0.2761  2.0664  1.6808
 1206SOL     OW15076   1.343   0.639   3.537 -0.5010 -0.7333  0.2472
 1206SOL    HW115077   1.331   0.625   3.631  0.0775 -2.9446 -0.0229
 1206SOL    HW215078   1.344   0.548   3.509 -0.7443 -0.5144 -0.4728
 1207SOL     OW15079   4.171   0.755   1.309  0.4785 -0.1540 -0.1833
 1207SOL    HW115080   4.265   0.761   1.326  0.0401  2.9950  1.1767
 1207SOL    HW215081   4.161   0.807   1.229  2.1983 -0.5385 -0.6412
 1208SOL     OW15082   4.366   0.650  11.869 -0.7478  0.5217 -0.2216
 1208SOL    HW115083   4.386   0.705  11.793 -1.0998 -0.6992 -1.1917
 1208SOL    HW215084   4.271   0.643  11.866 -0.9434  3.2075 -0.5280
 1209SOL     OW15085   1.825   0.948   3.609 -0.2945  0.1323 -0.1921
 1209SOL    HW115086   1.750   0.890   3.615  0.7317 -1.1796 -0.1359
 1209SOL    HW215087   1.875   0.925   3.687  1.6925 -2.7013 -2.3071
 1210SOL     OW15088   1.398   0.132   5.342  0.1220  0.0356 -0.0669
 1210SOL    HW115089   1.458   0.111   5.270 -2.2881 -0.3912 -1.9296
 1210SOL    HW215090   1.451   0.094   5.412  0.2230 -0.3517 -0.3494
 1211SOL     OW15091   1.781   3.707  10.413  0.2844 -0.8417 -0.1447
 1211SOL    HW115092   1.695   3.701  10.454 -0.2578 -1.2621 -1.3573
 1211SOL    HW215093   1.813   3.617  10.416  2.1673 -0.1769 -0.1455
 1212SOL     OW15094   3.673   1.786   7.116 -0.3647  0.3943 -0.1496
 1212SOL    HW115095   3.619   1.730   7.061  0.5546 -2.3845  1.7908
 1212SOL    HW215096   3.642   1.755   7.201 -0.7964  2.3318  0.4163
 1213SOL     OW15097   4.470   2.188  17.228  0.5810 -0.0442 -0.1686
 1213SOL    HW115098   4.431   2.274  17.247  0.0384 -0.6006  1.2380
 1213SOL    HW215099   4.558   2.215  17.203  0.6773 -1.7306 -1.6175
 1214SOL     OW15100   4.096   1.748   8.291 -0.0262 -0.2549  0.3303
 1214SOL    HW115101   4.184   1.722   8.318 -1.4470 -4.6957  0.6783
 1214SOL    HW215102   4.105   1.729   8.197  1.2010  0.6123  0.2776
 1215SOL     OW15103   3.210   2.236   9.363  0.1663  0.3952  0.5393
 1215SOL    HW115104   3.278   2.203   9.421  0.4373 -1.0882 -0.6398
 1215SOL    HW215105   3.250   2.294   9.298  0.5692 -1.1125 -0.5573
 1216SOL     OW15106   1.261   0.530   1.388  0.3129  0.5420  0.4995
 1216SOL    HW115107   1.230   0.576   1.467 -1.9406  1.3611 -0.8607
 1216SOL    HW215108   1.291   0.454   1.438 -0.1257  0.1930  0.2357
 1217SOL     OW15109   2.249   0.443   8.284 -0.2344  0.3163  0.2693
 1217SOL    HW115110   2.196   0.522   8.293  0.6241  0.9902 -0.6607
 1217SOL    HW215111   2.210   0.396   8.211  1.0103  2.2935 -1.6681
 1218SOL     OW15112   0.405   0.793   3.580  0.7708 -0.3071  0.4046
 1218SOL    HW115113   0.387   0.824   3.491  0.9368  1.7253  1.0744
 1218SOL    HW215114   0.314   0.782   3.605  0.5126 -0.1082 -0.4465
 1219SOL     OW15115   0.930   4.471   0.483  0.2238  0.1251 -0.1686
 1219SOL    HW115116   0.984   4.550   0.486  3.4550 -2.1254  0.7148
 1219SOL    HW215117   0.926   4.427   0.569 -1.6631  0.4720 -0.0831
 1220SOL     OW15118   2.524   3.349   6.796  0.5762 -0.2168 -0.3089
 1220SOL    HW115119   2.553   3.258   6.800 -0.6599 -0.6330 -0.7877
 1220SOL    HW215120   2.429   3.337   6.788  0.3077  0.9125  1.2542
 1221SOL     OW15121   3.002   4.516  10.674  0.0249  0.7367  0.0283
 1221SOL    HW115122   2.941   4.589  10.668 -0.9844 -0.1370 -0.2838
 1221SOL    HW215123   3.086   4.561  10.683  1.2406 -1.6145  0.5122
 1222SOL     OW15124   0.894   3.060  15.922  0.3183  0.0355  0.7405
 1222SOL    HW115125   0.904   3.051  16.017 -0.7827 -0.6897  0.7818
 1222SOL    HW215126   0.953   3.133  15.902 -0.0548 -0.4113 -1.9084
 1223SOL     OW15127   1.941   2.981   8.523 -0.0145 -0.0874 -0.1547
 1223SOL    HW115128   1.936   3.074   8.505 -2.1431 -0.0876  0.3977
 1223SOL    HW215129   1.885   2.993   8.599  0.3290 -0.0627  0.0939
 1224SOL     OW15130   3.378   3.200   6.018 -0.3498  0.0347  0.2610
 1224SOL    HW115131   3.291   3.174   5.988 -0.8511  2.6416 -0.4834
 1224SOL    HW215132   3.355   3.222   6.109 -1.1158 -0.8461  0.2814
 1225SOL     OW15133   1.227   2.243   7.952 -0.3410  0.0702  0.0191
 1225SOL    HW115134   1.210   2.244   8.046 -0.6707 -1.0740 -0.0251
 1225SOL    HW215135   1.221   2.338   7.942 -1.0548  0.1280  0.9603
 1226SOL     OW15136   2.085   4.233  11.370  0.2309 -0.0938 -0.0052
 1226SOL    HW115137   2.149   4.200  11.433  1.5644 -0.2304 -1.4196
 1226SOL    HW215138   2.039   4.149  11.368 -0.0288  0.0913 -1.4446
 1227SOL     OW15139   1.890   1.817   9.819 -0.1751  0.1556  0.2249
 1227SOL    HW115140   1.974   1.862   9.827  1.0379 -1.8275 -1.3138
 1227SOL    HW215141   1.899   1.722   9.829 -3.7776 -0.2934 -0.7099
 1228SOL     OW15142   2.369   1.571   2.630  0.1949 -0.1124  0.1260
 1228SOL    HW115143   2.355   1.487   2.587 -2.1959  0.8424 -0.9550
 1228SOL    HW215144   2.362   1.632   2.556  1.4119  0.1733  0.2583
 1229SOL     OW15145   1.900   1.907  16.666 -0.0577  0.2226  0.0198
 1229SOL    HW115146   1.954   1.902  16.587 -0.7770 -0.7111 -0.3980
 1229SOL    HW215147   1.876   1.816  16.681  1.7992  0.1051  2.3156
 1230SOL     OW15148   4.709   4.532   1.002 -0.1831 -0.2922 -0.6441
 1230SOL    HW115149   0.048   4.587   0.949  0.6168 -0.4066  0.1036
 1230SOL    HW215150   4.670   4.472   0.939  1.0367 -0.1822 -1.5067
 1231SOL     OW15151   3.418   3.623   4.821 -0.1269 -0.5043  0.0257
 1231SOL    HW115152   3.417   3.643   4.727 -1.6259  0.7664  0.3140
 1231SOL    HW215153   3.496   3.567   4.819 -1.9347 -3.0717  0.9100
 1232SOL     OW15154   1.657   0.674  10.230  0.1533  0.0144 -0.0417
 1232SOL    HW115155   1.630   0.595  10.277 -0.4447 -0.6622 -1.5494
 1232SOL    HW215156   1.661   0.649  10.138  0.3983 -0.4554  0.0928
 1233SOL     OW15157   2.445   1.719  11.288  0.1097 -0.0711 -0.2794
 1233SOL    HW115158   2.472   1.684  11.373 -3.3969  0.0174  0.8547
 1233SOL    HW215159   2.530   1.731  11.244 -0.2930 -0.3294 -1.1313
 1234SOL     OW15160   4.454   2.552   0.499 -0.3394 -0.0077  0.1909
 1234SOL    HW115161   4.440   2.508   0.583 -1.2960 -0.5277 -0.2471
 1234SOL    HW215162   4.382   2.615   0.491 -0.7086 -0.9671 -3.8149
 1235SOL     OW15163   1.627   0.082  13.108  0.3217  0.0015 -0.5476
 1235SOL    HW115164   1.634   0.130  13.025 -3.7522 -0.1310 -0.9533
 1235SOL    HW215165   1.541   0.041  13.098  0.2082  0.2993 -0.7853
 1236SOL     OW15166   4.106   2.178   2.673 -0.0940  0.2816 -0.3697
 1236SOL    HW115167   4.117   2.165   2.579 -0.8915  0.8957 -0.5589
 1236SOL    HW215168   4.034   2.116   2.687  1.2723 -1.7889 -2.5319
 1237SOL     OW15169   3.528   3.831   3.622 -0.3740 -0.1789 -0.5978
 1237SOL    HW115170   3.502   3.924   3.624 -2.7716 -0.8531 -0.4694
 1237SOL    HW215171   3.622   3.835   3.638 -0.1768 -1.8836 -1.3777
 1238SOL     OW15172   1.887   2.320   7.220  0.1689  0.1200 -0.7744
 1238SOL    HW115173   1.803   2.365   7.223  0.4609  0.5042  1.5924
 1238SOL    HW215174   1.927   2.340   7.305 -0.1816  0.8351 -0.7751
 1239SOL     OW15175   1.319   1.191   6.305 -0.3255  0.2984  0.1781
 1239SOL    HW115176   1.302   1.153   6.219  1.7307 -0.1002 -0.0729
 1239SOL    HW215177   1.353   1.116   6.354 -1.1279  0.2720  0.6844
 1240SOL     OW15178   4.680   1.009   6.412  0.1436 -0.1949 -0.1118
 1240SOL    HW115179   0.015   0.938   6.378  0.0018  0.7118 -2.2509
 1240SOL    HW215180   4.640   0.969   6.490 -0.5901  0.1438 -0.3125
 1241SOL     OW15181   2.955   2.628   5.841 -0.1488  0.3252  0.2452
 1241SOL    HW115182   2.930   2.555   5.785  1.5804  0.5441 -0.8078
 1241SOL    HW215183   2.891   2.628   5.912  0.1517 -2.5279  0.4914
 1242SOL     OW15184   1.971   3.327   3.568 -0.2648  0.1935  0.0935
 1242SOL    HW115185   1.985   3.278   3.649 -0.1810  1.2437  0.7107
 1242SOL    HW215186   2.059   3.361   3.552 -0.6830  0.6074 -1.3233
 1243SOL     OW15187   3.259   2.082   3.447  0.6366 -0.0893 -0.0885
 1243SOL    HW115188   3.315   2.159   3.439 -0.7525  1.1094  1.5982
 1243SOL    HW215189   3.277   2.020   3.377  0.6087 -0.0154 -0.1609
 1244SOL     OW15190   0.802   0.358   4.981  0.5458 -0.1527 -0.0614
 1244SOL    HW115191   0.733   0.380   5.043 -0.8414 -0.5564 -1.4672
 1244SOL    HW215192   0.829   0.280   5.029  1.6767 -0.4887 -1.2252
 1245SOL     OW15193   1.338   3.077   7.061  0.4424  0.9636  0.3750
 1245SOL    HW115194   1.293   3.160   7.042 -1.5326 -0.1347  0.2918
 1245SOL    HW215195   1.337   3.061   7.155 -0.9151  1.4050  0.4310
 1246SOL     OW15196   2.828   3.255   3.092 -0.1710  0.2505  0.2813
 1246SOL    HW115197   2.802   3.173   3.134 -0.7797 -0.8844 -2.2625
 1246SOL    HW215198   2.918   3.234   3.069 -0.5440 -0.2931 -0.7084
 1247SOL     OW15199   0.022   4.684   4.790 -0.6691  0.0529 -0.1202
 1247SOL    HW115200   4.662   4.696   4.843 -0.2491 -0.0411  0.5294
 1247SOL    HW215201   0.083   4.719   4.856 -0.6670  1.2416 -0.7521
 1248SOL     OW15202   4.075   3.384   4.918 -0.4182 -0.0760 -0.1214
 1248SOL    HW115203   4.116   3.402   4.833  0.5733  3.1928  1.0298
 1248SOL    HW215204   4.141   3.421   4.977 -0.1728 -0.7264  0.0122
 1249SOL     OW15205   0.021   4.660   6.918  0.2704 -0.3955 -0.4467
 1249SOL    HW115206   0.028   0.004   6.990 -2.0733 -0.5456 -0.0817
 1249SOL    HW215207   0.100   4.606   6.921 -1.0385 -2.2260  1.3062
 1250SOL     OW15208   0.647   4.349   3.099  0.1273  0.1863  0.0783
 1250SOL    HW115209   0.735   4.384   3.087  0.0881  1.6836  4.2791
 1250SOL    HW215210   0.595   4.430   3.094  0.8715  0.6896  0.5647
 1251SOL     OW15211   3.089   2.068   4.178 -0.5823 -0.7225  0.5055
 1251SOL    HW115212   3.138   2.130   4.125 -0.1675 -1.4244  0.0695
 1251SOL    HW215213   3.075   2.126   4.253 -0.2982 -2.5034  1.9256
 1252SOL     OW15214   0.989   2.908   8.392 -0.2379  0.0126 -0.0285
 1252SOL    HW115215   1.069   2.924   8.341  0.2821  1.6681  1.3081
 1252SOL    HW215216   0.918   2.942   8.338 -0.7023 -0.2092  0.4437
 1253SOL     OW15217   0.964   3.932   7.061 -0.3270  0.5731  0.4998
 1253SOL    HW115218   0.878   3.923   7.019 -0.3750  1.1758  0.4744
 1253SOL    HW215219   0.994   3.842   7.053  0.7545  0.9982 -0.1830
 1254SOL     OW15220   4.209   4.391  10.388 -0.3248  0.5209  0.4832
 1254SOL    HW115221   4.275   4.326  10.413 -0.4487  0.4324  0.5828
 1254SOL    HW215222   4.139   4.392  10.453 -1.4955 -0.5067 -0.7480
 1255SOL     OW15223   1.117   2.295   9.039 -0.1020 -0.6571 -0.0720
 1255SOL    HW115224   1.123   2.302   8.943 -0.5700 -2.1553 -0.2110
 1255SOL    HW215225   1.059   2.371   9.049  1.0701 -0.0648  2.1387
 1256SOL     OW15226   4.275   1.904   2.807 -0.5045 -0.3899  0.1670
 1256SOL    HW115227   4.319   1.989   2.800  1.2348 -1.1640  1.6475
 1256SOL    HW215228   4.247   1.907   2.898  0.4783  0.4626  0.4430
 1257SOL     OW15229   3.437   0.736   4.256  0.1376 -0.3862 -0.1337
 1257SOL    HW115230   3.394   0.660   4.218  0.1528 -0.2541 -0.4126
 1257SOL    HW215231   3.360   0.787   4.280  1.0956  0.5127  1.0452
 1258SOL     OW15232   1.235   3.907   3.574  0.5351 -0.0159 -0.1130
 1258SOL    HW115233   1.220   4.000   3.558  0.3934 -0.2898 -1.5761
 1258SOL    HW215234   1.247   3.869   3.487 -1.1376  0.7472 -0.6725
 1259SOL     OW15235   1.622   2.503  13.723  0.2172 -0.0805  0.2267
 1259SOL    HW115236   1.571   2.584  13.730 -1.7381 -1.1152 -1.9154
 1259SOL    HW215237   1.560   2.440  13.686 -1.8870  2.3725 -0.4572
 1260SOL     OW15238   4.100   0.588   9.448  0.0971  0.3770 -0.8105
 1260SOL    HW115239   4.158   0.637   9.506  1.3351 -0.5926 -1.2377
 1260SOL    HW215240   4.153   0.557   9.374  1.6263 -0.2410  0.5374
 1261SOL     OW15241   3.801   2.141   5.466 -0.0235  0.1763  0.2022
 1261SOL    HW115242   3.712   2.118   5.439 -0.4536  0.9556  0.9585
 1261SOL    HW215243   3.785   2.200   5.540 -0.4916  0.7656 -0.3633
 1262SOL     OW15244   3.008   0.676   5.150 -0.3982  0.8194 -0.2061
 1262SOL    HW115245   2.989   0.696   5.058  1.5151  0.6796 -0.6191
 1262SOL    HW215246   2.922   0.651   5.183 -0.3385 -0.5202 -1.0832
 1263SOL     OW15247   1.982   1.900   6.022  0.1986 -0.4380 -0.2446
 1263SOL    HW115248   1.920   1.827   6.030 -0.2328  0.0655  1.0354
 1263SOL    HW215249   1.920   1.972   6.034  1.5666  0.1806  3.0533
 1264SOL     OW15250   2.157   0.216   7.820 -1.0032 -0.2775  0.2085
 1264SOL    HW115251   2.075   0.231   7.868 -0.0896  0.0073  1.6970
 1264SOL    HW215252   2.162   0.294   7.765 -1.0053 -0.2513  0.2455
 1265SOL     OW15253   1.894   1.349   1.841 -0.0504  0.0333  0.5716
 1265SOL    HW115254   1.857   1.382   1.922 -0.9100  1.5890 -0.4672
 1265SOL    HW215255   1.833   1.287   1.802  0.5345  1.9363 -3.3861
 1266SOL     OW15256   1.126   3.323   4.223  0.1929  1.1757  0.0761
 1266SOL    HW115257   1.164   3.327   4.311  1.5198 -1.0977 -0.3842
 1266SOL    HW215258   1.123   3.415   4.195 -0.2994  1.9987  2.8104
 1267SOL     OW15259   2.814   2.045  12.757 -0.1762  0.1635  0.0486
 1267SOL    HW115260   2.833   2.124  12.706 -0.0625 -0.1246 -0.3585
 1267SOL    HW215261   2.727   2.055  12.796 -0.5687  1.2927 -1.1175
 1268SOL     OW15262   3.947   2.520  15.680 -0.2565  0.6570 -0.0143
 1268SOL    HW115263   3.863   2.536  15.724  0.3599  0.2497  1.3220
 1268SOL    HW215264   3.924   2.469  15.603 -1.0380  0.3050  0.4455
 1269SOL     OW15265   4.363   2.395   1.703 -0.9942  0.5774 -0.1889
 1269SOL    HW115266   4.368   2.330   1.634 -0.4858 -1.3054  1.6418
 1269SOL    HW215267   4.403   2.339   1.770 -1.3679  0.1551 -0.3218
 1270SOL     OW15268   0.314   0.383  14.377 -0.1669 -0.2526 -0.4268
 1270SOL    HW115269   0.339   0.324  14.449  1.5891 -1.8416 -2.3327
 1270SOL    HW215270   0.379   0.451  14.399 -0.1751 -0.8026  1.3420
 1271SOL     OW15271   3.629   0.908  16.696  0.5142  0.2913 -0.5577
 1271SOL    HW115272   3.679   0.985  16.669  1.7510 -0.5324 -0.5873
 1271SOL    HW215273   3.631   0.907  16.792  1.2288 -2.4804 -0.6062
 1272SOL     OW15274   1.472   1.192   2.262 -0.5356  0.2443 -0.1227
 1272SOL    HW115275   1.497   1.197   2.354 -0.7186 -1.1095  0.0150
 1272SOL    HW215276   1.560   1.197   2.226 -0.2999  0.1097  0.4331
 1273SOL     OW15277   3.937   0.951   3.824 -0.8996  0.3833 -0.2757
 1273SOL    HW115278   3.961   0.930   3.734 -2.9608 -0.6538 -0.6121
 1273SOL    HW215279   3.889   0.869   3.841  1.2902 -1.1104 -1.3128
 1274SOL     OW15280   1.763   0.164   5.872  0.2935 -0.0623 -0.2456
 1274SOL    HW115281   1.732   0.248   5.838  0.1483 -0.0481 -0.0764
 1274SOL    HW215282   1.789   0.182   5.962 -0.8014 -2.3418  0.5064
 1275SOL     OW15283   4.649   1.468   2.310  0.0846  0.3648  0.4595
 1275SOL    HW115284   4.699   1.441   2.386  1.6242  0.2932 -0.5831
 1275SOL    HW215285   0.001   1.493   2.251  0.0352 -0.8206 -0.1158
 1276SOL     OW15286   4.089   2.913   4.081 -0.1933  0.0128 -0.1711
 1276SOL    HW115287   4.175   2.949   4.105 -0.9444  0.3836  1.9471
 1276SOL    HW215288   4.048   2.893   4.165  1.8495  1.1364  1.0864
 1277SOL     OW15289   3.638   2.857   6.469 -0.1424 -0.7455 -0.2747
 1277SOL    HW115290   3.672   2.833   6.383 -0.9096 -1.2417 -0.4349
 1277SOL    HW215291   3.570   2.916   6.437 -0.3427  0.1081  1.7639
 1278SOL     OW15292   2.783   3.633   8.261 -0.2515  0.6646  0.7289
 1278SOL    HW115293   2.840   3.648   8.337  0.9414 -0.1884  0.0119
 1278SOL    HW215294   2.700   3.632   8.309 -0.3438 -1.0609  0.5425
 1279SOL     OW15295   3.980   3.435   9.816 -0.3772 -0.1417 -0.2941
 1279SOL    HW115296   3.970   3.383   9.896 -0.8600 -0.3331 -0.4749
 1279SOL    HW215297   3.929   3.384   9.753 -1.1273  0.6802 -0.3431
 1280SOL     OW15298   3.436   1.882  12.209  0.4340 -0.1646 -0.0445
 1280SOL    HW115299   3.486   1.957  12.241 -0.5390  0.9219 -1.0772
 1280SOL    HW215300   3.504   1.836  12.161  1.7432  1.4944  0.2269
 1281SOL     OW15301   3.374   4.613   5.472  0.6933 -0.0070 -0.0333
 1281SOL    HW115302   3.299   4.672   5.467  0.8379  0.1944  0.1448
 1281SOL    HW215303   3.413   4.637   5.388  0.9948  2.2325  0.7495
 1282SOL     OW15304   4.089   2.343   5.562 -0.0071  0.4004  0.6477
 1282SOL    HW115305   4.001   2.380   5.566  0.0815  0.6804  0.1387
 1282SOL    HW215306   4.094   2.326   5.468  0.1589  0.1343  0.7055
 1283SOL     OW15307   4.373   1.078  13.083  0.7897 -0.1882 -0.2028
 1283SOL    HW115308   4.453   1.109  13.125 -0.4373  1.6461  0.8025
 1283SOL    HW215309   4.307   1.134  13.125  0.1117 -2.2593  1.4837
 1284SOL     OW15310   2.669   0.046   7.938  0.0046  0.7572  0.3787
 1284SOL    HW115311   2.589   0.007   7.974  0.8163 -0.4065  0.9215
 1284SOL    HW215312   2.633   0.099   7.867  1.1476 -0.4304 -1.0795
 1285SOL     OW15313   3.058   4.454   7.878  0.3651  0.2275  0.4330
 1285SOL    HW115314   3.083   4.416   7.793 -1.0027  0.5771 -0.1307
 1285SOL    HW215315   3.003   4.385   7.915  2.3550 -2.2603 -1.2716
 1286SOL     OW15316   4.437   4.125   3.835  0.1032  0.1139 -1.1884
 1286SOL    HW115317   4.420   4.132   3.741 -0.9450  0.3609 -0.9805
 1286SOL    HW215318   4.365   4.075   3.872 -0.1359  0.7533 -0.7927
 1287SOL     OW15319   0.827   3.134   4.180 -0.5674 -0.1523 -0.6094
 1287SOL    HW115320   0.888   3.111   4.110 -1.4815  2.4481 -2.2818
 1287SOL    HW215321   0.745   3.151   4.133 -0.2358  1.5458 -0.5804
 1288SOL     OW15322   1.219   0.911  11.576 -0.1123  0.8086  0.1760
 1288SOL    HW115323   1.308   0.879  11.567 -0.7958 -0.3459 -2.6450
 1288SOL    HW215324   1.225   0.990  11.629 -0.6789  0.1898  1.1487
 1289SOL     OW15325   4.046   3.430   9.313  0.5087 -0.1264 -0.4720
 1289SOL    HW115326   4.035   3.511   9.263  0.3787 -0.8669 -1.6501
 1289SOL    HW215327   3.960   3.413   9.351  0.4482 -1.4053 -1.1823
 1290SOL     OW15328   4.660   1.326   8.067 -0.6421 -0.3891 -0.1860
 1290SOL    HW115329   4.686   1.239   8.036  1.4686 -0.3538  1.4421
 1290SOL    HW215330   4.581   1.341   8.015 -0.7696 -2.9737 -0.7576
 1291SOL     OW15331   2.546   2.847  15.616 -0.0611 -0.1107 -0.0301
 1291SOL    HW115332   2.541   2.775  15.680  0.1784 -0.4672 -0.4122
 1291SOL    HW215333   2.591   2.915  15.666 -1.1013 -0.4831  1.3958
 1292SOL     OW15334   3.324   0.625  13.124  0.2099  0.5366 -0.0516
 1292SOL    HW115335   3.296   0.596  13.037  0.4548 -0.0978  0.0805
 1292SOL    HW215336   3.358   0.543  13.160  0.0701  0.4148 -0.1949
 1293SOL     OW15337   1.120   1.481   6.069  0.3505  0.4646 -0.1744
 1293SOL    HW115338   1.183   1.553   6.079  0.2479  0.3559  1.3779
 1293SOL    HW215339   1.061   1.487   6.145 -0.0483  1.4745 -0.5690
 1294SOL     OW15340   2.075   1.159   4.333 -0.0742 -0.3210  0.0275
 1294SOL    HW115341   2.098   1.174   4.241 -0.0788  0.8754  0.2224
 1294SOL    HW215342   2.156   1.179   4.380  0.2120  1.0157 -1.0456
 1295SOL     OW15343   0.737   2.469   2.757 -0.2513 -0.5107 -0.2983
 1295SOL    HW115344   0.780   2.427   2.683  0.8101  1.7560 -0.9573
 1295SOL    HW215345   0.743   2.561   2.734  0.0161  0.3454  3.1271
 1296SOL     OW15346   3.039   3.492   7.857  0.0665  0.1953 -0.2773
 1296SOL    HW115347   2.971   3.531   7.913  0.2848  0.6306 -0.3139
 1296SOL    HW215348   2.998   3.445   7.784  0.6532  0.6788 -0.9139
 1297SOL     OW15349   1.532   0.916   7.157  0.2585 -0.7012  0.1285
 1297SOL    HW115350   1.551   0.824   7.137  1.3393 -0.3091 -0.6356
 1297SOL    HW215351   1.472   0.935   7.084  0.7388 -0.2838 -0.1598
 1298SOL     OW15352   4.442   0.333   4.547 -0.2268  0.2832  0.1542
 1298SOL    HW115353   4.370   0.271   4.537 -1.1829  1.6470 -1.4185
 1298SOL    HW215354   4.497   0.285   4.485 -0.6299 -0.0977  0.0923
 1299SOL     OW15355   1.255   3.902   5.011  0.7266 -0.0983  0.6536
 1299SOL    HW115356   1.304   3.964   5.065  0.5130  0.6545 -0.0091
 1299SOL    HW215357   1.239   3.976   4.952 -1.3747 -0.8554  0.2696
 1300SOL     OW15358   0.570   3.959   3.231 -0.2963  0.7156  0.2625
 1300SOL    HW115359   0.550   3.945   3.139  0.3884  1.8680 -0.0549
 1300SOL    HW215360   0.626   4.036   3.225  0.9211 -0.1566  0.5476
 1301SOL     OW15361   2.814   0.460   2.374 -0.0099 -0.0144 -0.1599
 1301SOL    HW115362   2.791   0.456   2.467 -0.2505  0.3981 -0.2002
 1301SOL    HW215363   2.871   0.383   2.379  0.7561  0.6254  1.0536
 1302SOL     OW15364   3.279   1.616  10.255  0.5342 -0.4796  0.0787
 1302SOL    HW115365   3.257   1.574  10.338  2.4875  0.6975  1.2099
 1302SOL    HW215366   3.231   1.571  10.186  0.4282 -0.5392  0.1919
 1303SOL     OW15367   0.901   2.963  15.686 -0.2898 -0.0323 -0.0585
 1303SOL    HW115368   0.938   3.045  15.654 -0.2496 -0.1869 -0.4056
 1303SOL    HW215369   0.897   2.986  15.779  0.0926  0.5448 -0.1818
 1304SOL     OW15370   1.863   3.235   6.208  0.7618 -0.0204  0.0327
 1304SOL    HW115371   1.829   3.182   6.280 -2.2956  1.3737 -0.3683
 1304SOL    HW215372   1.909   3.165   6.161  2.0792 -0.0389  1.3526
 1305SOL     OW15373   0.419   1.139   5.152 -0.2604 -0.4245  0.0111
 1305SOL    HW115374   0.437   1.208   5.089 -3.6098 -0.0821 -0.5981
 1305SOL    HW215375   0.505   1.106   5.180 -0.6835 -1.6455 -0.1284
 1306SOL     OW15376   2.628   1.026  10.934  0.1533 -0.1974 -0.2376
 1306SOL    HW115377   2.691   1.056  10.999 -2.0357 -0.5627  2.0192
 1306SOL    HW215378   2.633   1.096  10.868 -0.4228 -0.0060 -0.0742
 1307SOL     OW15379   3.457   3.416   8.623 -0.3641  0.4215 -0.3278
 1307SOL    HW115380   3.504   3.464   8.556  2.4259 -1.5753  0.2150
 1307SOL    HW215381   3.394   3.486   8.642  0.2259  1.2695 -1.5119
 1308SOL     OW15382   2.579   2.549   9.796  0.4191 -0.5362 -0.5863
 1308SOL    HW115383   2.519   2.492   9.747 -0.9707 -1.3773  2.1005
 1308SOL    HW215384   2.643   2.559   9.726 -0.8305 -1.2310 -1.8542
 1309SOL     OW15385   3.342   4.311  15.139 -0.1550  0.8178 -0.1452
 1309SOL    HW115386   3.376   4.330  15.051 -1.0160  1.3521 -0.3631
 1309SOL    HW215387   3.384   4.377  15.194 -1.4312 -0.1936  2.0115
 1310SOL     OW15388   2.456   1.063   9.005 -0.3127 -0.4094  0.2627
 1310SOL    HW115389   2.533   1.109   9.038 -0.7275  0.6985 -0.3367
 1310SOL    HW215390   2.473   0.971   9.028 -0.6530 -0.8227 -1.1484
 1311SOL     OW15391   4.592   4.326  14.229  0.4349  0.0007 -0.0820
 1311SOL    HW115392   4.537   4.316  14.307  0.5125  0.3873  0.0184
 1311SOL    HW215393   4.525   4.318  14.160  0.6404 -1.2990 -0.1253
 1312SOL     OW15394   2.884   2.141   8.488 -0.2677 -0.2148 -0.2945
 1312SOL    HW115395   2.953   2.155   8.423  0.0901  1.7847  0.5160
 1312SOL    HW215396   2.880   2.225   8.533 -0.2926 -0.4938  0.2184
 1313SOL     OW15397   2.995   3.455   6.452 -0.0027  0.6171 -0.0513
 1313SOL    HW115398   2.937   3.530   6.469  1.0791  1.0150  1.8646
 1313SOL    HW215399   2.949   3.386   6.500 -1.5440  1.3058 -0.5337
 1314SOL     OW15400   2.937   0.818  15.940 -0.6252 -0.3058  0.2506
 1314SOL    HW115401   2.884   0.866  15.875 -0.0935 -2.0507 -1.4609
 1314SOL    HW215402   2.881   0.810  16.016  0.4240 -0.6989  0.9814
 1315SOL     OW15403   2.871   2.896  16.905  0.9008 -0.3047 -0.4315
 1315SOL    HW115404   2.939   2.834  16.881  0.1936 -1.9216  1.7193
 1315SOL    HW215405   2.840   2.941  16.826  1.4415 -0.6694 -0.8488
 1316SOL     OW15406   3.484   2.081   6.622 -0.2371  0.4886 -0.1337
 1316SOL    HW115407   3.481   2.101   6.715  0.2359 -0.4040  0.0678
 1316SOL    HW215408   3.395   2.048   6.611 -0.0065 -0.0646 -0.3353
 1317SOL     OW15409   0.655   4.123  12.945 -0.2882  0.1980 -0.5085
 1317SOL    HW115410   0.596   4.049  12.955  0.5752 -0.5849 -1.1876
 1317SOL    HW215411   0.644   4.119  12.850  0.5391  1.2065 -0.6537
 1318SOL     OW15412   0.538   0.395   7.466 -0.2332 -0.1644 -0.8246
 1318SOL    HW115413   0.625   0.433   7.477 -1.1544  1.1708  2.2062
 1318SOL    HW215414   0.499   0.449   7.397 -0.5026  1.5596  0.6476
 1319SOL     OW15415   3.491   0.957   3.795 -0.6840 -0.2644 -0.5839
 1319SOL    HW115416   3.564   0.907   3.831 -1.6008 -1.4230 -0.3178
 1319SOL    HW215417   3.502   0.920   3.707  0.2205  2.7241 -1.7444
 1320SOL     OW15418   4.081   3.215   7.386 -0.0289  0.1528  0.5162
 1320SOL    HW115419   4.034   3.132   7.377 -1.0210  0.4672  2.7152
 1320SOL    HW215420   4.168   3.177   7.371  0.1310  0.7124  0.0231
 1321SOL     OW15421   3.104   3.074  10.360  0.6346 -0.1690 -0.3162
 1321SOL    HW115422   3.185   3.085  10.310  1.5025  0.9768  1.3335
 1321SOL    HW215423   3.102   2.978  10.368 -1.2207  0.0131  1.4447
 1322SOL     OW15424   2.099   1.202   0.174 -0.7054  0.2348 -0.1423
 1322SOL    HW115425   2.117   1.281   0.123  1.5992 -0.6193 -0.6508
 1322SOL    HW215426   2.149   1.133   0.131  0.5882 -0.2928  2.2523
 1323SOL     OW15427   4.528   2.371   4.059  0.3127 -0.3023 -0.3500
 1323SOL    HW115428   4.594   2.318   4.014 -0.1350 -1.3381  0.2226
 1323SOL    HW215429   4.566   2.369   4.147 -0.7128  0.0509  0.0949
 1324SOL     OW15430   3.421   4.670   7.797  0.1509  0.4356 -0.3932
 1324SOL    HW115431   3.468   0.006   7.859  0.4358 -0.0636 -0.1705
 1324SOL    HW215432   3.354   4.638   7.857 -0.0256 -1.4406 -1.5850
 1325SOL     OW15433   1.872   1.370   4.126 -0.4085 -0.0481  0.1355
 1325SOL    HW115434   1.846   1.411   4.208  0.8232 -0.5811  0.7974
 1325SOL    HW215435   1.874   1.436   4.056 -0.7477  0.3162  0.4783
 1326SOL     OW15436   4.042   0.570   6.137 -0.4879  0.0794 -0.0441
 1326SOL    HW115437   4.077   0.539   6.054 -2.4164 -0.6197 -0.5972
 1326SOL    HW215438   4.078   0.658   6.138  1.4432 -0.7181  1.7302
 1327SOL     OW15439   2.066   2.797  13.502  0.8468  0.7850 -0.3177
 1327SOL    HW115440   2.115   2.858  13.447 -0.3854  1.2957 -0.8425
 1327SOL    HW215441   1.996   2.851  13.538  0.2003  0.9674 -1.8554
 1328SOL     OW15442   1.319   1.658   4.530  0.4667 -0.5451  0.0995
 1328SOL    HW115443   1.331   1.569   4.496 -1.2768 -1.0077  0.6852
 1328SOL    HW215444   1.381   1.658   4.604 -2.1956 -2.6676  2.3560
 1329SOL     OW15445   4.211   0.000   7.948  0.6532  0.1635 -0.1128
 1329SOL    HW115446   4.257   0.049   8.017 -0.7014  1.2091  0.0601
 1329SOL    HW215447   4.124   0.040   7.955  0.8769  0.7543 -0.7327
 1330SOL     OW15448   3.014   1.079   7.029  0.0878 -0.1892 -0.3344
 1330SOL    HW115449   2.947   1.135   7.068  0.2924 -1.4511  1.8482
 1330SOL    HW215450   2.967   0.995   7.033 -0.9084  0.4079  0.7302
 1331SOL     OW15451   2.545   3.047   6.171  0.2118  0.2150 -0.3546
 1331SOL    HW115452   2.582   3.133   6.149 -0.5327  0.1603 -1.8392
 1331SOL    HW215453   2.475   3.081   6.227 -0.6095  2.7990 -2.9315
 1332SOL     OW15454   1.420   1.383  13.071  0.1458 -0.0729 -0.0538
 1332SOL    HW115455   1.424   1.385  12.975  1.7777 -2.0993 -0.0199
 1332SOL    HW215456   1.330   1.403  13.094  0.2607 -0.8221  1.0215
 1333SOL     OW15457   3.204   1.790   6.774  0.3930 -0.6006  0.2399
 1333SOL    HW115458   3.147   1.764   6.702  1.3894  2.3670 -1.6395
 1333SOL    HW215459   3.246   1.710   6.806 -1.6619 -2.0327 -0.6801
 1334SOL     OW15460   1.689   2.531  15.990  0.4044 -0.7396  0.0815
 1334SOL    HW115461   1.747   2.589  16.039 -2.1525  1.6292  0.2409
 1334SOL    HW215462   1.632   2.595  15.948 -0.2473 -1.4376 -0.1048
 1335SOL     OW15463   4.264   2.265   2.881  0.2336 -0.2976 -0.3642
 1335SOL    HW115464   4.221   2.243   2.798 -0.4160  0.3111 -0.1922
 1335SOL    HW215465   4.346   2.222   2.856  1.8072  2.3831  0.1666
 1336SOL     OW15466   0.916   4.394   7.321  0.3327  0.2232 -0.1458
 1336SOL    HW115467   0.943   4.327   7.384 -0.3291 -0.5730 -0.7088
 1336SOL    HW215468   0.829   4.412   7.358  0.3585  1.5717 -0.7503
 1337SOL     OW15469   4.626   2.623   2.506  0.5080 -0.1226 -0.7927
 1337SOL    HW115470   4.580   2.619   2.422 -0.6645 -1.9997 -0.0483
 1337SOL    HW215471   4.552   2.642   2.564 -0.5688 -2.6729 -1.3255
 1338SOL     OW15472   2.921   2.330   9.836  0.0553 -0.4337 -0.3407
 1338SOL    HW115473   2.899   2.271   9.764 -0.4205 -0.7293  0.0464
 1338SOL    HW215474   2.956   2.278   9.908  0.9212 -0.4141 -0.7523
 1339SOL     OW15475   2.212   2.851   3.977 -0.2217  0.3353  0.1714
 1339SOL    HW115476   2.129   2.854   4.025 -0.0830 -0.3056  0.4628
 1339SOL    HW215477   2.188   2.853   3.884  3.0083  1.6131 -0.6146
 1340SOL     OW15478   0.037   3.120  11.407  0.0491 -0.5225  0.3538
 1340SOL    HW115479   0.040   3.145  11.314 -0.7232  4.6677  1.7335
 1340SOL    HW215480   0.037   3.024  11.408 -1.7431 -0.5189  1.0102
 1341SOL     OW15481   4.509   1.474   3.526  0.2701  0.0206 -0.5562
 1341SOL    HW115482   4.533   1.407   3.461  0.6503  0.5516 -0.9652
 1341SOL    HW215483   4.499   1.421   3.605  0.7469 -0.1515 -0.6094
 1342SOL     OW15484   2.031   0.976   2.933  0.0848 -0.5487  0.1772
 1342SOL    HW115485   2.064   0.946   3.017  0.9203  0.1426  0.0993
 1342SOL    HW215486   1.962   1.040   2.947  0.3015  0.0001 -1.2776
 1343SOL     OW15487   3.262   3.233   9.403  0.4897  0.0999  0.0678
 1343SOL    HW115488   3.312   3.171   9.455  1.2995  0.2104 -0.5680
 1343SOL    HW215489   3.325   3.249   9.333  0.2848 -1.9500 -0.5645
 1344SOL     OW15490   3.042   3.456   1.064  0.2729 -0.1282 -0.5151
 1344SOL    HW115491   3.110   3.465   1.131  0.5780  2.3805 -1.1847
 1344SOL    HW215492   3.025   3.362   1.074 -0.0020 -0.1525 -1.2143
 1345SOL     OW15493   4.701   0.103   6.696  0.0163 -0.1990 -0.6935
 1345SOL    HW115494   4.673   0.174   6.754  2.1848 -0.2550  0.4405
 1345SOL    HW215495   0.006   0.045   6.768  0.7959 -0.0235 -0.8093
 1346SOL     OW15496   3.732   1.075   5.915  0.1480 -0.1456  0.1484
 1346SOL    HW115497   3.673   1.133   5.868  1.2786 -0.2624 -1.3834
 1346SOL    HW215498   3.699   0.988   5.890 -0.5321  0.5026 -1.2012
 1347SOL     OW15499   3.006   4.440   4.540 -0.2981  0.3143 -0.4021
 1347SOL    HW115500   3.090   4.468   4.576 -0.3236 -3.1844  2.3452
 1347SOL    HW215501   2.948   4.511   4.568 -1.3287 -1.0065  0.8057
 1348SOL     OW15502   1.727   2.220   5.311  0.7183  0.0061  0.3322
 1348SOL    HW115503   1.639   2.196   5.338  0.1871 -0.7416 -2.1105
 1348SOL    HW215504   1.776   2.143   5.341  2.7811  1.7662  1.5176
 1349SOL     OW15505   3.554   1.251   8.878 -0.1589 -0.0278  0.0434
 1349SOL    HW115506   3.588   1.333   8.914 -0.3396 -0.0225  0.2083
 1349SOL    HW215507   3.533   1.205   8.960 -0.8021  1.1812  0.5487
 1350SOL     OW15508   0.398   1.608  13.737  0.4963 -0.6333  0.1887
 1350SOL    HW115509   0.366   1.689  13.776 -0.2246 -0.4142 -0.8435
 1350SOL    HW215510   0.426   1.650  13.655 -0.1661  3.0872  1.8865
 1351SOL     OW15511   1.274   3.059   4.152  0.2157 -0.3027  0.0775
 1351SOL    HW115512   1.344   3.041   4.090 -0.6130 -0.9165 -0.6697
 1351SOL    HW215513   1.242   3.148   4.140 -0.6970 -1.4341 -5.5801
 1352SOL     OW15514   2.083   0.924   1.723 -0.2820  0.0251  0.0098
 1352SOL    HW115515   2.083   0.886   1.811  0.5612 -1.0586 -0.4617
 1352SOL    HW215516   2.149   0.877   1.673  4.0759  3.5451  2.4128
 1353SOL     OW15517   3.043   1.707   0.773 -0.9228  0.0840  0.3868
 1353SOL    HW115518   3.061   1.789   0.819  1.5265 -0.2375  0.0121
 1353SOL    HW215519   3.094   1.719   0.693  0.9692 -1.4038  1.3686
 1354SOL     OW15520   1.678   1.836   7.098  0.2915  0.0186  0.2135
 1354SOL    HW115521   1.681   1.912   7.156  0.2044  0.8917 -0.9325
 1354SOL    HW215522   1.773   1.831   7.090  0.1854 -1.1381 -0.3259
 1355SOL     OW15523   2.585   0.686   8.749  0.1872  0.3730  0.4082
 1355SOL    HW115524   2.662   0.640   8.782 -0.1753 -0.9373 -0.6053
 1355SOL    HW215525   2.619   0.729   8.671  1.3830 -0.3994  0.5123
 1356SOL     OW15526   1.254   0.253   2.698  0.4062  0.5396  0.4155
 1356SOL    HW115527   1.172   0.266   2.746 -0.6892  1.4188 -1.7080
 1356SOL    HW215528   1.269   0.161   2.719 -1.0176 -0.1779 -1.6953
 1357SOL     OW15529   3.251   4.669   4.593 -0.4466 -0.5582  0.1554
 1357SOL    HW115530   3.277   4.652   4.683 -0.3170 -0.0251  0.2242
 1357SOL    HW215531   3.258   0.046   4.586 -0.3702 -0.7858 -2.7835
 1358SOL     OW15532   3.303   1.955   9.804  0.5604  0.1302  0.1808
 1358SOL    HW115533   3.237   1.918   9.863  0.6781  0.7242  0.6776
 1358SOL    HW215534   3.367   1.885   9.792  0.6244  0.4273 -1.2221
 1359SOL     OW15535   3.234   0.741  12.026  0.4300  0.2801  0.2842
 1359SOL    HW115536   3.156   0.710  12.072 -1.1503  0.4988 -2.1984
 1359SOL    HW215537   3.273   0.802  12.087 -0.3804  0.2769  0.8110
 1360SOL     OW15538   1.710   3.570   2.528  0.0532  0.5920 -0.3569
 1360SOL    HW115539   1.796   3.576   2.485  0.1069  0.0259 -0.3291
 1360SOL    HW215540   1.663   3.650   2.506 -1.7976 -0.7826 -1.4110
 1361SOL     OW15541   4.109   2.314   5.298  0.5497 -0.3458  0.5625
 1361SOL    HW115542   4.124   2.339   5.206 -1.0876 -1.5313 -0.0269
 1361SOL    HW215543   4.126   2.220   5.298 -2.1519 -0.8420 -0.5299
 1362SOL     OW15544   1.799   0.294   7.914  0.6729  0.0635  0.1338
 1362SOL    HW115545   1.741   0.293   7.990 -0.9071  1.3374 -1.0589
 1362SOL    HW215546   1.852   0.372   7.922 -1.5958  1.7901 -1.4325
 1363SOL     OW15547   4.166   1.016   2.272 -0.3479  0.5431 -0.3818
 1363SOL    HW115548   4.238   1.047   2.217 -0.8053  1.7954 -0.2774
 1363SOL    HW215549   4.204   0.933   2.300  0.6188  1.2863  0.5025
 1364SOL     OW15550   1.234   0.097   1.825 -0.0721  0.0365  0.6403
 1364SOL    HW115551   1.322   0.127   1.850  0.8011 -2.2554  0.3241
 1364SOL    HW215552   1.210   0.167   1.765  2.9842  2.1888  1.9495
 1365SOL     OW15553   2.730   4.422   4.107  0.9230  0.0108  0.3479
 1365SOL    HW115554   2.702   4.353   4.167 -0.0337 -0.3973 -0.5730
 1365SOL    HW215555   2.714   4.497   4.165  0.4191  0.1492  0.0292
 1366SOL     OW15556   2.048   3.762   6.980  0.2808  0.1506 -0.5141
 1366SOL    HW115557   2.033   3.855   6.962 -0.1577 -0.1213 -1.5517
 1366SOL    HW215558   1.991   3.759   7.057  0.8933 -0.5226 -0.0908
 1367SOL     OW15559   2.796   1.203   7.559  0.0115 -0.3362  0.1246
 1367SOL    HW115560   2.776   1.187   7.651 -0.9563  0.3235  0.0286
 1367SOL    HW215561   2.783   1.112   7.532  0.0270 -0.5689  0.8927
 1368SOL     OW15562   3.251   3.341   8.814  0.3528  0.6941  0.0396
 1368SOL    HW115563   3.310   3.416   8.815  1.4746 -0.1369 -3.3207
 1368SOL    HW215564   3.183   3.371   8.875  0.2652 -0.4390  0.5157
 1369SOL     OW15565   1.643   3.554   4.135 -0.0380  0.2492 -0.5403
 1369SOL    HW115566   1.550   3.567   4.119  0.1903  2.7943  0.1433
 1369SOL    HW215567   1.637   3.467   4.175  0.0591 -0.7004 -2.6126
 1370SOL     OW15568   0.201   4.543   2.976 -0.8324 -0.0023  0.2373
 1370SOL    HW115569   0.215   4.566   3.068 -1.2977  0.1672  0.2642
 1370SOL    HW215570   0.225   4.451   2.980  0.9416  0.4279 -0.1526
 1371SOL     OW15571   0.490   0.498  12.243 -0.0726  0.0547  0.1620
 1371SOL    HW115572   0.501   0.584  12.202  1.9546 -1.0630 -1.6704
 1371SOL    HW215573   0.521   0.526  12.329  0.9652  3.2652 -1.2562
 1372SOL     OW15574   1.703   2.009   1.955  0.2287 -0.1845  0.0698
 1372SOL    HW115575   1.789   1.980   1.925 -0.1941  0.2213 -1.5893
 1372SOL    HW215576   1.652   1.971   1.883 -0.1201 -0.3612  0.4100
 1373SOL     OW15577   2.262   3.967   4.512  0.1265 -0.4677 -0.0209
 1373SOL    HW115578   2.274   3.875   4.487  0.0950 -0.7451  0.9713
 1373SOL    HW215579   2.349   3.997   4.538  0.4721 -1.3823 -0.0945
 1374SOL     OW15580   3.032   2.753  16.090  0.1737  0.0413  0.4627
 1374SOL    HW115581   2.977   2.729  16.016 -0.2262  0.0637  0.7547
 1374SOL    HW215582   3.039   2.848  16.082 -0.0997  0.1126  1.0885
 1375SOL     OW15583   3.592   3.184   8.662  0.2992  0.2167 -0.2653
 1375SOL    HW115584   3.683   3.212   8.667  0.5898 -1.1002  1.6287
 1375SOL    HW215585   3.552   3.270   8.654  0.7240  0.3923 -0.4895
 1376SOL     OW15586   3.921   2.635  13.352  0.4988  0.0993  0.0907
 1376SOL    HW115587   3.844   2.634  13.294 -1.2276  1.3228  2.3571
 1376SOL    HW215588   3.971   2.709  13.318  0.8574  0.6676  1.8610
 1377SOL     OW15589   0.698   1.805  14.880 -0.3889 -0.0420 -0.3771
 1377SOL    HW115590   0.731   1.725  14.920  2.2200  0.9730 -0.5123
 1377SOL    HW215591   0.682   1.772  14.792  4.1972  0.8642 -1.5387
 1378SOL     OW15592   1.411   0.941   5.191  0.1682  0.2914 -0.1270
 1378SOL    HW115593   1.459   0.858   5.188  0.5035  0.4591  0.6116
 1378SOL    HW215594   1.396   0.957   5.097 -1.3420  1.4826  0.3216
 1379SOL     OW15595   1.512   2.163   6.051  0.5125  0.1636 -0.1381
 1379SOL    HW115596   1.458   2.122   5.984  0.0373 -0.6330  0.7298
 1379SOL    HW215597   1.460   2.139   6.128 -0.3540  1.2875 -0.3696
 1380SOL     OW15598   2.866   0.591   0.410  0.3287  0.6658 -0.1497
 1380SOL    HW115599   2.872   0.515   0.469  1.0422  0.7798 -0.0734
 1380SOL    HW215600   2.879   0.548   0.326 -1.4961  1.6888 -0.9593
 1381SOL     OW15601   0.995   0.541   2.593  0.2207 -0.1405  0.7068
 1381SOL    HW115602   0.948   0.614   2.633 -1.7401 -1.0437  0.0440
 1381SOL    HW215603   0.989   0.468   2.655  1.5409 -0.7799  0.0723
 1382SOL     OW15604   2.703   1.320   5.712  0.5148 -0.6712 -0.5534
 1382SOL    HW115605   2.614   1.307   5.746  0.6916  0.8711  0.5186
 1382SOL    HW215606   2.722   1.390   5.775  0.6118  0.7715 -2.1978
 1383SOL     OW15607   2.927   3.064   7.530  0.4444  0.3599  0.0166
 1383SOL    HW115608   3.008   3.013   7.532  0.1072 -0.2113 -0.6060
 1383SOL    HW215609   2.946   3.135   7.591 -0.6115  0.6373  0.0184
 1384SOL     OW15610   1.588   0.421   0.737 -0.2007  0.4648  0.2145
 1384SOL    HW115611   1.651   0.488   0.711 -2.6661  2.1803 -1.3597
 1384SOL    HW215612   1.632   0.338   0.718  2.2862  1.9298 -0.4100
 1385SOL     OW15613   1.372   2.337   7.001  0.2187  0.6843  0.1121
 1385SOL    HW115614   1.387   2.408   6.939  2.7229  0.2847  0.2348
 1385SOL    HW215615   1.452   2.289   6.979 -0.4080 -0.4060  0.1851
 1386SOL     OW15616   2.936   3.536   0.696 -0.2550 -0.6467  0.3884
 1386SOL    HW115617   2.861   3.594   0.690  0.2976 -0.1295 -1.4460
 1386SOL    HW215618   2.892   3.453   0.708  0.2766 -0.7108  1.9856
 1387SOL     OW15619   2.476   1.302   8.799 -0.0019 -0.1054  0.1056
 1387SOL    HW115620   2.417   1.288   8.873  0.3543 -1.2694  0.1687
 1387SOL    HW215621   2.550   1.249   8.829 -0.7671 -0.7718  0.8224
 1388SOL     OW15622   0.860   2.779  14.742  0.3399 -0.0350 -0.1000
 1388SOL    HW115623   0.919   2.834  14.691 -1.1785  0.3047 -1.4920
 1388SOL    HW215624   0.881   2.818  14.827 -0.1766  1.4655 -0.6613
 1389SOL     OW15625   2.994   2.998  13.231  0.2989 -0.6373 -0.0211
 1389SOL    HW115626   2.919   3.045  13.194  0.6657 -0.4082 -0.4890
 1389SOL    HW215627   3.023   3.060  13.298 -0.1930 -0.5265  0.0908
 1390SOL     OW15628   1.532   4.461   7.712  0.1090  0.5440  0.2730
 1390SOL    HW115629   1.584   4.541   7.722 -0.9092  1.7326 -3.9791
 1390SOL    HW215630   1.537   4.429   7.622  0.6324  0.4656  0.3330
 1391SOL     OW15631   3.394   3.468   1.917  0.1048  0.6875  0.4996
 1391SOL    HW115632   3.454   3.427   1.855 -0.1007 -1.3938  1.6879
 1391SOL    HW215633   3.381   3.394   1.976 -0.7257  0.2721 -0.2225
 1392SOL     OW15634   0.050   4.009  12.331  0.0145 -0.1439 -0.3710
 1392SOL    HW115635   0.069   3.934  12.275 -1.0849 -2.1429  1.9124
 1392SOL    HW215636   0.041   3.965  12.416  1.2399  2.2715  1.0320
 1393SOL     OW15637   2.164   0.977   9.157 -0.9440 -0.0383 -0.3400
 1393SOL    HW115638   2.106   0.930   9.098  1.7059 -1.8727 -1.4993
 1393SOL    HW215639   2.218   0.904   9.187 -0.3493 -0.8869 -3.4186
 1394SOL     OW15640   1.629   2.008   7.808  0.5815  0.1488  0.2382
 1394SOL    HW115641   1.630   2.053   7.893 -3.6041  1.3748 -0.3228
 1394SOL    HW215642   1.671   2.073   7.752 -3.4375  0.0660 -2.8502
 1395SOL     OW15643   2.200   0.032  14.064 -0.0699 -0.2857 -0.1274
 1395SOL    HW115644   2.156   4.667  14.077  1.8896 -1.3570 -0.3812
 1395SOL    HW215645   2.216   0.026  13.970 -1.1894 -0.9813 -0.2688
 1396SOL     OW15646   4.567   4.172   7.654  0.1230 -0.3336  0.2967
 1396SOL    HW115647   4.601   4.214   7.575  1.8572  1.5524  2.0400
 1396SOL    HW215648   4.474   4.192   7.640  0.7746  1.7028 -1.1471
 1397SOL     OW15649   0.958   3.132   1.183 -0.1611 -0.2348  0.2002
 1397SOL    HW115650   0.873   3.148   1.144  0.6109  0.6387 -1.1098
 1397SOL    HW215651   1.006   3.204   1.143 -0.2200 -2.0833 -3.1922
 1398SOL     OW15652   4.039   0.982  16.917 -0.2162  0.5029 -0.2047
 1398SOL    HW115653   3.944   0.996  16.906  0.0344  2.1918 -0.1927
 1398SOL    HW215654   4.036   0.958  17.009  0.3147 -2.5609 -1.0036
 1399SOL     OW15655   1.353   0.224   1.231 -0.0704  0.2319  0.4335
 1399SOL    HW115656   1.312   0.265   1.155  1.2756  0.8672  0.0626
 1399SOL    HW215657   1.289   0.165   1.271 -1.3886 -0.6040 -2.9421
 1400SOL     OW15658   3.556   3.906  16.750 -0.1287  0.1891  0.2131
 1400SOL    HW115659   3.487   3.867  16.805  0.5764 -0.6294  0.5327
 1400SOL    HW215660   3.617   3.904  16.824  0.9617  0.5128 -0.6955
 1401SOL     OW15661   0.251   3.558   3.250  0.0617 -0.0823 -0.4140
 1401SOL    HW115662   0.240   3.543   3.344 -0.7806 -2.1151 -0.8285
 1401SOL    HW215663   0.158   3.558   3.226  0.1427 -0.0802 -0.7346
 1402SOL     OW15664   4.428   1.962  13.128  0.1335 -0.0015 -0.3223
 1402SOL    HW115665   4.477   1.890  13.088  1.6300  0.5473  0.5399
 1402SOL    HW215666   4.344   1.950  13.082 -0.1060  0.5912 -0.0473
 1403SOL     OW15667   2.996   0.812  10.851  0.6398 -0.2093 -0.5487
 1403SOL    HW115668   3.048   0.845  10.924 -0.5884  1.9749 -0.6808
 1403SOL    HW215669   2.964   0.734  10.896  1.7091 -0.9080 -0.9870
 1404SOL     OW15670   4.655   1.445   6.256 -0.1121 -0.2387 -0.2050
 1404SOL    HW115671   4.577   1.493   6.285 -0.1679 -0.2296 -0.3740
 1404SOL    HW215672   4.687   1.392   6.330 -0.6450  2.5208  2.0203
 1405SOL     OW15673   3.243   1.573   7.225  0.1524 -0.2140 -0.1887
 1405SOL    HW115674   3.178   1.512   7.261 -1.0285  1.9000  1.3066
 1405SOL    HW215675   3.298   1.499   7.202 -1.0195 -0.5442 -1.9274
 1406SOL     OW15676   1.390   2.506   8.034 -0.4230  0.1185 -0.5148
 1406SOL    HW115677   1.335   2.574   8.073  1.5749  1.4063  0.0448
 1406SOL    HW215678   1.448   2.560   7.980 -0.2771  0.8462  0.3640
 1407SOL     OW15679   4.679   1.420   0.002 -0.1657  0.1766  0.1735
 1407SOL    HW115680   0.029   1.393   0.063  0.1464  1.7923  0.5289
 1407SOL    HW215681   4.627   1.339  17.677 -0.7457  0.5034  1.0855
 1408SOL     OW15682   1.867   4.516   8.214  0.1562 -0.2205 -0.0485
 1408SOL    HW115683   1.938   4.468   8.256  0.3553 -1.3996 -1.7238
 1408SOL    HW215684   1.865   4.598   8.262 -1.3973 -0.6626  0.6326
 1409SOL     OW15685   4.651   2.387   6.923 -0.3815 -0.2380 -0.5843
 1409SOL    HW115686   4.691   2.472   6.941 -0.8007 -0.8491  3.2018
 1409SOL    HW215687   0.013   2.336   6.932 -0.6324 -1.0280 -2.9263
 1410SOL     OW15688   1.192   4.402   7.017  0.3304  0.1881  0.8061
 1410SOL    HW115689   1.274   4.400   7.066  0.4202 -0.6885  0.6186
 1410SOL    HW215690   1.144   4.322   7.039  1.0291 -0.4854 -0.1116
 1411SOL     OW15691   4.053   2.938   7.731  0.3079  0.1429  0.4876
 1411SOL    HW115692   4.091   3.018   7.769  0.4985  0.8506 -1.2127
 1411SOL    HW215693   4.123   2.873   7.743  0.6187  0.7550  2.0364
 1412SOL     OW15694   2.722   4.001   2.379 -0.0822  0.0083 -0.3296
 1412SOL    HW115695   2.669   3.963   2.309 -0.5375 -0.1904  0.1192
 1412SOL    HW215696   2.658   3.999   2.451  2.0703  0.9603  1.6181
 1413SOL     OW15697   2.502   4.475   6.951 -0.2292  0.0533  0.2004
 1413SOL    HW115698   2.498   4.386   6.914 -0.8528 -0.0416  0.4865
 1413SOL    HW215699   2.410   4.499   6.964  0.0058  1.7143 -1.1788
 1414SOL     OW15700   0.027   4.076   7.246  0.4602  0.6637 -0.0309
 1414SOL    HW115701   0.097   4.132   7.212  2.1253 -0.2842  1.7929
 1414SOL    HW215702   0.065   4.032   7.323 -3.5163  0.3716  1.7372
 1415SOL     OW15703   2.244   1.775   3.074 -0.0439  0.0355  0.4098
 1415SOL    HW115704   2.332   1.809   3.089 -0.2843  1.2102 -0.8199
 1415SOL    HW215705   2.271   1.716   3.004 -2.7747  0.2970 -0.8723
 1416SOL     OW15706   4.535   0.371  10.618  1.4054  0.3365 -0.0321
 1416SOL    HW115707   4.554   0.437  10.552 -1.2711 -1.9164 -3.0349
 1416SOL    HW215708   4.453   0.335  10.586 -0.1520  1.8024  2.2365
 1417SOL     OW15709   4.405   1.904  13.459  1.1041 -0.1080  0.6301
 1417SOL    HW115710   4.342   1.927  13.391 -0.3859  1.5614  2.6044
 1417SOL    HW215711   4.483   1.958  13.443  0.7686 -0.3240 -1.7088
 1418SOL     OW15712   4.268   2.040   9.200 -0.0769 -0.2360 -0.3475
 1418SOL    HW115713   4.271   2.105   9.270  0.3425  1.2451 -1.7191
 1418SOL    HW215714   4.317   1.964   9.231  0.3384  0.3140  0.3339
 1419SOL     OW15715   2.867   2.091   7.971  0.0249  0.0444  0.1510
 1419SOL    HW115716   2.844   2.156   7.904 -0.6515 -0.6288 -0.2647
 1419SOL    HW215717   2.863   2.011   7.919  1.6255 -0.8613  1.4268
 1420SOL     OW15718   2.006   3.756   4.525 -0.0980 -0.3916 -0.2964
 1420SOL    HW115719   1.993   3.772   4.432  1.3927  1.1972 -0.2224
 1420SOL    HW215720   2.047   3.670   4.520 -1.7529 -1.3233  1.8254
 1421SOL     OW15721   2.597   0.291   8.341 -0.1079 -0.6823 -0.2242
 1421SOL    HW115722   2.509   0.285   8.378 -0.0594 -0.4141 -0.0668
 1421SOL    HW215723   2.602   0.384   8.365  2.4413 -0.4777 -1.5899
 1422SOL     OW15724   0.547   0.493   6.517 -0.0760 -0.3785  0.7506
 1422SOL    HW115725   0.483   0.455   6.457  1.2897 -1.6418  0.0775
 1422SOL    HW215726   0.614   0.532   6.461 -1.0986 -0.8593 -0.8020
 1423SOL     OW15727   0.371   3.820   3.008 -0.3808  0.0244 -0.4378
 1423SOL    HW115728   0.324   3.751   2.963  1.7047 -0.8517 -1.2914
 1423SOL    HW215729   0.374   3.891   2.943  0.0152  0.9287  0.5682
 1424SOL     OW15730   1.484   1.591  17.406  0.6073 -0.4735 -0.2907
 1424SOL    HW115731   1.426   1.631  17.341  1.9735 -1.3800 -2.0657
 1424SOL    HW215732   1.498   1.502  17.374  2.2760 -1.0203  2.0311
 1425SOL     OW15733   4.431   1.021   0.724  0.3086 -0.1869 -0.3200
 1425SOL    HW115734   4.402   0.988   0.639  1.7753 -2.2964  0.0078
 1425SOL    HW215735   4.463   0.936   0.754 -0.9446 -0.6040 -0.1462
 1426SOL     OW15736   3.772   1.652   2.574  0.5173  0.2848 -0.5463
 1426SOL    HW115737   3.686   1.686   2.549  0.4671  0.6918  0.1866
 1426SOL    HW215738   3.746   1.564   2.603 -1.7809  1.0710 -0.2275
 1427SOL     OW15739   0.772   1.760   3.902  0.5628  0.6661 -0.3125
 1427SOL    HW115740   0.699   1.702   3.924  1.6187 -0.5195  0.0399
 1427SOL    HW215741   0.743   1.782   3.814  2.4522 -2.7454 -1.7557
 1428SOL     OW15742   1.872   1.378   3.671 -0.3347 -0.2036 -0.0009
 1428SOL    HW115743   1.876   1.291   3.712 -1.2446  0.4594  1.5206
 1428SOL    HW215744   1.847   1.346   3.585 -1.6205 -0.0736  0.3118
 1429SOL     OW15745   2.646   4.050   5.904  0.0964 -0.2732 -0.1372
 1429SOL    HW115746   2.626   4.120   5.843 -0.4630  0.3960  0.8206
 1429SOL    HW215747   2.693   3.992   5.845 -0.4483 -1.8422  0.9643
 1430SOL     OW15748   0.351   2.259   1.612  1.1754  0.2628 -0.1205
 1430SOL    HW115749   0.445   2.241   1.617  1.2366  0.5040 -0.4495
 1430SOL    HW215750   0.337   2.293   1.700  1.0465 -2.2097  0.8041
 1431SOL     OW15751   2.496   1.651   5.885 -0.1289  0.0515  0.0702
 1431SOL    HW115752   2.424   1.635   5.947 -1.1863  1.1766 -0.8816
 1431SOL    HW215753   2.569   1.610   5.932 -0.2742  0.3753  0.5788
 1432SOL     OW15754   0.439   3.985   7.550  0.2052 -0.2783 -0.1333
 1432SOL    HW115755   0.374   4.001   7.618  0.6288  1.5276 -0.1317
 1432SOL    HW215756   0.408   3.898   7.527  0.5507 -0.2705 -0.6253
 1433SOL     OW15757   3.354   0.555   6.812  0.5999 -0.0788 -0.2638
 1433SOL    HW115758   3.302   0.512   6.744 -0.2943 -0.4431  0.6574
 1433SOL    HW215759   3.312   0.639   6.796  1.4208 -0.0381 -2.2933
 1434SOL     OW15760   4.340   2.170   6.785 -0.2779 -0.6248 -0.0803
 1434SOL    HW115761   4.417   2.113   6.777 -1.6222 -2.1748 -1.8218
 1434SOL    HW215762   4.318   2.128   6.868  1.4660  0.9657  1.1846
 1435SOL     OW15763   2.431   1.244   6.218  0.7802 -0.0963  0.1755
 1435SOL    HW115764   2.377   1.321   6.203  1.3163  0.3407  0.4901
 1435SOL    HW215765   2.450   1.263   6.310 -0.6318  3.0060 -0.1540
 1436SOL     OW15766   2.257   3.065  17.428  0.0787  0.3919 -0.3806
 1436SOL    HW115767   2.320   3.124  17.469 -2.3755  1.9978  1.0178
 1436SOL    HW215768   2.212   3.128  17.371 -0.6437 -0.2399 -0.5095
 1437SOL     OW15769   1.196   3.116  13.004 -0.2840 -0.2943 -0.4913
 1437SOL    HW115770   1.188   3.024  13.030  0.1120 -0.5344 -1.2289
 1437SOL    HW215771   1.245   3.114  12.922  2.4573  1.2603  1.1091
 1438SOL     OW15772   3.654   3.073   6.947 -0.0446 -0.0779 -0.0625
 1438SOL    HW115773   3.669   3.053   6.854  1.5074 -1.6958  0.5324
 1438SOL    HW215774   3.561   3.089   6.936  0.0478  0.5599  0.0930
 1439SOL     OW15775   1.753   0.161  13.695  0.7218  0.2389 -0.0509
 1439SOL    HW115776   1.831   0.120  13.732  0.3138 -0.0516  0.4820
 1439SOL    HW215777   1.729   0.218  13.768  1.3433  0.9937 -0.4344
 1440SOL     OW15778   3.022   4.676   7.681 -0.4166  0.2805  0.1847
 1440SOL    HW115779   2.941   4.626   7.692 -1.2267  1.3259 -1.0140
 1440SOL    HW215780   3.019   0.017   7.756 -0.1839 -0.1444  0.5323
 1441SOL     OW15781   0.410   2.272   2.121 -0.0892 -0.3906  0.1880
 1441SOL    HW115782   0.370   2.344   2.170  0.4187  0.1746 -0.2211
 1441SOL    HW215783   0.497   2.311   2.112 -0.4952  0.5916  0.4663
 1442SOL     OW15784   3.291   2.759   1.672  0.1786  0.5434 -0.2963
 1442SOL    HW115785   3.231   2.708   1.727 -0.5671  0.0971 -1.5019
 1442SOL    HW215786   3.266   2.726   1.585  1.2291 -0.3590 -0.2443
 1443SOL     OW15787   4.052   0.377   8.830  0.2007  0.0715  0.2456
 1443SOL    HW115788   4.023   0.433   8.758  1.4129 -2.9614 -2.6149
 1443SOL    HW215789   4.094   0.441   8.888 -0.9350  1.6100 -0.6438
 1444SOL     OW15790   3.971   4.546   1.886 -0.4104  0.0719 -0.4662
 1444SOL    HW115791   3.923   4.500   1.955 -0.9289  0.8413 -0.3148
 1444SOL    HW215792   4.056   4.563   1.925 -0.1860  0.4911 -1.1329
 1445SOL     OW15793   2.509   1.309  15.880  0.9798 -0.8045  0.1399
 1445SOL    HW115794   2.518   1.344  15.791 -0.5886  0.3841  0.4508
 1445SOL    HW215795   2.602   1.296  15.895  0.7449 -0.4203  1.9601
 1446SOL     OW15796   2.654   1.420   2.454 -0.8547 -0.2402 -0.5313
 1446SOL    HW115797   2.694   1.415   2.367 -1.0972  1.2078 -0.7151
 1446SOL    HW215798   2.564   1.396   2.433 -0.2927 -1.3190 -1.7666
 1447SOL     OW15799   2.008   2.880   9.066 -0.2049  0.3042 -0.5771
 1447SOL    HW115800   2.101   2.860   9.074 -0.1486  1.3323  1.3334
 1447SOL    HW215801   1.984   2.872   9.158 -0.9219 -0.8199 -0.8678
 1448SOL     OW15802   3.226   2.548  16.033 -0.1921 -0.5451 -0.1622
 1448SOL    HW115803   3.304   2.604  16.026 -0.5995 -0.0033 -0.4105
 1448SOL    HW215804   3.159   2.617  16.036 -0.7413 -1.0954  0.4720
 1449SOL     OW15805   3.245   4.523   9.305 -0.3009 -0.2146 -0.2659
 1449SOL    HW115806   3.181   4.574   9.256  0.2200  1.4207  0.7665
 1449SOL    HW215807   3.286   4.484   9.227  1.6850  0.5085  0.4237
 1450SOL     OW15808   3.819   2.009   0.197 -0.2715 -0.1116  0.0665
 1450SOL    HW115809   3.823   1.920   0.160  0.3085 -0.3251  0.6319
 1450SOL    HW215810   3.870   1.989   0.276  0.1107 -0.0578 -0.1669
 1451SOL     OW15811   2.253   0.040  12.138 -0.0943  0.1308 -0.0670
 1451SOL    HW115812   2.197   0.079  12.205 -1.9398  0.1571 -1.6208
 1451SOL    HW215813   2.209   0.074  12.060 -0.4189  3.5297  1.5997
 1452SOL     OW15814   0.963   3.468   2.756  0.3477  0.5244  0.2858
 1452SOL    HW115815   0.921   3.472   2.670 -1.8362  0.7569  1.3607
 1452SOL    HW215816   1.054   3.486   2.731  0.9927 -1.5849  1.0641
 1453SOL     OW15817   3.507   1.156   6.470 -0.7289  0.4087 -0.3280
 1453SOL    HW115818   3.462   1.228   6.427  0.3723  0.9207 -0.6303
 1453SOL    HW215819   3.453   1.147   6.549 -0.8337  0.1354 -0.4294
 1454SOL     OW15820   4.584   2.683  11.127 -0.2430 -0.0921 -0.0670
 1454SOL    HW115821   4.638   2.681  11.048 -1.6516  1.1139 -1.0483
 1454SOL    HW215822   4.630   2.756  11.169 -0.1336 -1.8035  2.7996
 1455SOL     OW15823   0.153   0.721  11.630  0.0643  0.5290 -0.1181
 1455SOL    HW115824   0.084   0.667  11.669 -0.0871  1.1409  0.4766
 1455SOL    HW215825   0.144   0.807  11.671  0.2176  0.5823 -0.1990
 1456SOL     OW15826   4.041   2.797   6.702 -0.0032  0.3651  0.4965
 1456SOL    HW115827   4.114   2.757   6.749  0.6991 -0.4715 -1.3006
 1456SOL    HW215828   4.027   2.734   6.631 -0.2808 -0.1883  1.0545
 1457SOL     OW15829   2.313   4.265   8.305  0.1311 -0.0710 -1.1730
 1457SOL    HW115830   2.314   4.174   8.333  0.8271 -0.6488 -3.0576
 1457SOL    HW215831   2.260   4.256   8.227  0.2201  2.6847 -1.5669
 1458SOL     OW15832   1.032   1.992   8.136  0.0508  0.1258  0.0995
 1458SOL    HW115833   0.999   2.042   8.210 -0.8408  1.9014 -1.5118
 1458SOL    HW215834   1.001   2.056   8.072  0.7878 -0.2772 -0.6617
 1459SOL     OW15835   3.484   0.855   9.484 -0.1827  0.1362 -0.2465
 1459SOL    HW115836   3.491   0.759   9.487 -2.7806 -0.0825 -1.2631
 1459SOL    HW215837   3.462   0.858   9.577 -0.2262  0.1228 -0.2567
 1460SOL     OW15838   4.402   0.926   9.922  1.2242  0.4846  0.2854
 1460SOL    HW115839   4.455   0.849   9.944  1.2945  0.4901  0.1386
 1460SOL    HW215840   4.339   0.882   9.864  1.8178  1.3002 -0.9599
 1461SOL     OW15841   2.338   0.424  13.032  0.1812 -0.3325 -0.0273
 1461SOL    HW115842   2.409   0.378  13.076  0.3547 -2.7682 -2.8207
 1461SOL    HW215843   2.315   0.483  13.103 -0.9686 -0.9537  0.1231
 1462SOL     OW15844   0.085   2.047   5.156  0.0415 -0.2927  0.0189
 1462SOL    HW115845   0.056   1.974   5.100 -1.4916 -1.0816  1.8478
 1462SOL    HW215846   0.165   2.006   5.191  0.8618  1.7917  0.5648
 1463SOL     OW15847   2.362   2.114   7.594  0.6276  0.0847 -0.4912
 1463SOL    HW115848   2.304   2.099   7.520  0.0364  1.3070 -0.2673
 1463SOL    HW215849   2.338   2.034   7.641 -0.4354  0.3456 -0.6029
 1464SOL     OW15850   0.828   4.082   2.985 -0.6507  0.0253 -0.2113
 1464SOL    HW115851   0.772   4.008   2.962  1.1729 -1.4605  0.0677
 1464SOL    HW215852   0.913   4.066   2.945 -1.2644 -1.0041 -1.0976
 1465SOL     OW15853   1.485   0.239   9.074 -0.3809  0.1574  0.2601
 1465SOL    HW115854   1.489   0.334   9.085 -0.3931  0.2917 -0.9579
 1465SOL    HW215855   1.572   0.203   9.087 -1.2339 -2.5360 -1.3943
 1466SOL     OW15856   1.424   3.421   6.802 -0.1082  0.0116 -0.0537
 1466SOL    HW115857   1.363   3.399   6.873  1.4733  1.0823  1.6283
 1466SOL    HW215858   1.364   3.473   6.749 -0.8752 -1.8775 -1.0439
 1467SOL     OW15859   1.856   0.501   5.463  0.0051 -0.0815 -0.5579
 1467SOL    HW115860   1.829   0.575   5.518 -1.1348 -0.8154 -0.1255
 1467SOL    HW215861   1.808   0.429   5.504 -0.1438  1.2330  1.6132
 1468SOL     OW15862   1.632   1.189   8.050 -0.2147 -0.1676 -0.2171
 1468SOL    HW115863   1.711   1.235   8.022  0.0802 -0.8286 -0.4844
 1468SOL    HW215864   1.613   1.232   8.133 -1.2376  1.2473 -1.1926
 1469SOL     OW15865   3.541   1.603   1.393  0.0486 -0.3752  0.5573
 1469SOL    HW115866   3.477   1.582   1.326  3.8575 -0.0970 -3.2030
 1469SOL    HW215867   3.526   1.697   1.403 -0.5508 -0.5073  0.9154
 1470SOL     OW15868   3.858   3.177   7.113 -0.0195 -0.2219 -0.9582
 1470SOL    HW115869   3.777   3.165   7.064  0.3767 -0.8591 -1.4553
 1470SOL    HW215870   3.827   3.243   7.176  2.5521  0.5104 -0.4538
 1471SOL     OW15871   2.946   1.005   3.180 -0.2744  0.7340  0.5482
 1471SOL    HW115872   2.964   0.915   3.208 -1.1006 -0.3758 -2.5384
 1471SOL    HW215873   3.023   1.046   3.219  0.2626  0.2168  0.0229
 1472SOL     OW15874   2.970   1.252   8.299  0.1705  0.0463  0.0997
 1472SOL    HW115875   2.980   1.161   8.272  0.4781  0.9868 -3.0621
 1472SOL    HW215876   2.950   1.240   8.391 -1.2200  0.8132 -0.1088
 1473SOL     OW15877   2.848   0.885   6.011 -0.5533  0.0640 -0.1584
 1473SOL    HW115878   2.940   0.914   6.009 -0.5046  0.0691  1.9019
 1473SOL    HW215879   2.859   0.795   6.042  0.5411  0.7216  1.3726
 1474SOL     OW15880   1.791   0.333   4.395 -0.1917  0.1921  0.4107
 1474SOL    HW115881   1.731   0.402   4.368 -0.2867 -0.5020 -1.1496
 1474SOL    HW215882   1.726   0.271   4.428  2.8468 -3.4496 -0.4554
 1475SOL     OW15883   3.239   2.044  12.754  0.0747  0.2606  0.2087
 1475SOL    HW115884   3.256   2.002  12.669 -0.1514  0.2938  0.1487
 1475SOL    HW215885   3.226   2.133  12.721 -3.0608 -0.4617 -0.4556
 1476SOL     OW15886   1.944   1.093  17.259  0.4087 -0.4027 -0.0914
 1476SOL    HW115887   1.852   1.085  17.286  0.7558  0.9669  1.4517
 1476SOL    HW215888   1.987   1.080  17.344  0.8603  1.4967 -0.0383
 1477SOL     OW15889   2.692   1.072  14.303 -0.2460  0.3585  0.0492
 1477SOL    HW115890   2.766   1.013  14.290  0.5333  1.2203  0.6015
 1477SOL    HW215891   2.722   1.153  14.261 -1.0411 -0.1711 -1.5685
 1478SOL     OW15892   2.361   2.682   7.408 -0.1283  0.4700 -0.0977
 1478SOL    HW115893   2.274   2.683   7.367 -1.7850 -0.1728  3.4409
 1478SOL    HW215894   2.421   2.656   7.338 -0.2872 -1.6184  0.5505
 1479SOL     OW15895   2.811   3.175   3.956 -0.1051  0.1752  0.8707
 1479SOL    HW115896   2.776   3.264   3.955 -2.1602 -0.6599 -0.6715
 1479SOL    HW215897   2.744   3.125   3.911 -0.8713  1.7922  0.2113
 1480SOL     OW15898   0.074   0.302   1.966  0.5583  0.6830  0.2058
 1480SOL    HW115899   0.076   0.209   1.945  1.4586  0.1285  2.8132
 1480SOL    HW215900   4.714   0.320   1.914  0.2355 -0.2030  0.3871
 1481SOL     OW15901   2.612   4.615   7.163 -0.3291 -0.0384 -0.5128
 1481SOL    HW115902   2.691   4.566   7.184 -1.8886 -2.0713  0.6700
 1481SOL    HW215903   2.586   4.571   7.082 -0.5231 -1.1558  0.1537
 1482SOL     OW15904   1.354   2.472   6.734  0.0886 -0.3443  0.9973
 1482SOL    HW115905   1.417   2.402   6.717  1.9031  1.8139 -1.1676
 1482SOL    HW215906   1.274   2.422   6.717 -0.5127 -0.2453  3.5644
 1483SOL     OW15907   2.367   4.042   3.997  0.2081  0.6135  0.3506
 1483SOL    HW115908   2.447   4.060   3.949 -1.1780  1.1480 -1.7461
 1483SOL    HW215909   2.361   4.113   4.061  0.1291 -0.5504  1.6514
 1484SOL     OW15910   1.823   2.604   9.184  0.0545  0.4013  0.1082
 1484SOL    HW115911   1.916   2.622   9.195 -0.1126  0.8099  0.7981
 1484SOL    HW215912   1.790   2.626   9.271 -1.1577 -0.9046 -0.0183
 1485SOL     OW15913   0.203   3.505   0.692  0.1160  0.0883  0.1454
 1485SOL    HW115914   0.238   3.579   0.642 -1.1332  1.1407  0.8497
 1485SOL    HW215915   0.238   3.433   0.639 -3.0483  0.5471 -2.5513
 1486SOL     OW15916   4.032   3.018  10.426 -0.4555  0.3992  0.1930
 1486SOL    HW115917   4.065   3.008  10.337  1.1569  0.3542  0.8007
 1486SOL    HW215918   4.097   3.083  10.453  0.3734 -0.6686  0.7673
 1487SOL     OW15919   1.952   1.926   2.547 -0.1734 -0.4186  0.5420
 1487SOL    HW115920   1.931   2.018   2.531 -1.2170 -0.3945  2.0305
 1487SOL    HW215921   1.866   1.888   2.528 -0.7984  0.7720  0.9790
 1488SOL     OW15922   4.444   2.770  12.533  0.4668 -0.6824 -0.3502
 1488SOL    HW115923   4.532   2.745  12.508  0.9186 -0.7889  1.2992
 1488SOL    HW215924   4.459   2.788  12.626 -2.8123  1.0284 -0.1434
 1489SOL     OW15925   2.732   4.382   4.757 -0.3059  0.1468  0.0883
 1489SOL    HW115926   2.644   4.415   4.771 -0.8826 -0.9153 -1.0079
 1489SOL    HW215927   2.795   4.414   4.822  1.4181 -1.7999 -0.6078
 1490SOL     OW15928   3.078   0.948   1.474  0.1398  0.1551  0.7490
 1490SOL    HW115929   3.137   0.958   1.549 -1.3483 -2.6713  2.3037
 1490SOL    HW215930   3.132   0.896   1.414 -1.0690  0.1602 -0.3358
 1491SOL     OW15931   1.721   3.275   7.144  0.0511  0.1488  0.1666
 1491SOL    HW115932   1.665   3.311   7.213  0.2876 -2.1076  1.5178
 1491SOL    HW215933   1.772   3.354   7.127 -0.3243  0.4385  0.3712
 1492SOL     OW15934   1.552   1.725  11.786 -0.3255  0.1492  0.5373
 1492SOL    HW115935   1.639   1.722  11.746 -0.8766  0.5529 -0.6835
 1492SOL    HW215936   1.551   1.811  11.826 -1.3889 -0.6074  2.1528
 1493SOL     OW15937   4.532   1.671   9.106  0.1730 -0.0859 -0.3997
 1493SOL    HW115938   4.465   1.712   9.052 -0.4414  0.2720  0.6180
 1493SOL    HW215939   4.538   1.740   9.173  4.0167  1.6833 -2.5454
 1494SOL     OW15940   2.549   2.305   3.018 -0.2582  0.4086 -0.6366
 1494SOL    HW115941   2.585   2.218   3.035  2.0260  1.3071 -0.9019
 1494SOL    HW215942   2.494   2.313   3.096 -0.9147 -2.1585 -0.8282
 1495SOL     OW15943   0.109   4.598   6.423 -0.2062 -0.1872  0.4834
 1495SOL    HW115944   0.063   4.682   6.417 -1.5211 -1.1038 -1.9416
 1495SOL    HW215945   0.108   4.562   6.335  1.6090 -2.4277  1.3756
 1496SOL     OW15946   2.678   3.339   0.663  0.5021 -0.4712  0.3390
 1496SOL    HW115947   2.625   3.268   0.700 -1.2275  0.1282 -1.0062
 1496SOL    HW215948   2.621   3.415   0.650  1.0171 -0.2260 -0.4554
 1497SOL     OW15949   0.012   2.903   3.675 -0.2290  0.7571 -0.3046
 1497SOL    HW115950   4.661   2.943   3.624 -1.7143 -0.5680  0.7130
 1497SOL    HW215951   4.693   2.819   3.700  0.2731  0.7618  0.4779
 1498SOL     OW15952   3.812   1.483   3.816 -0.1346  0.4030  0.5144
 1498SOL    HW115953   3.891   1.537   3.826  0.5228 -0.5897  0.6229
 1498SOL    HW215954   3.845   1.399   3.848  1.2733  0.5203 -0.6485
 1499SOL     OW15955   4.461   1.972   6.460  0.3294  0.7385 -0.1615
 1499SOL    HW115956   4.435   2.062   6.437 -0.9166  0.4441  0.1117
 1499SOL    HW215957   4.475   1.935   6.373 -0.5327  1.8406 -0.7818
 1500SOL     OW15958   1.364   3.816   2.853 -0.0934  0.0600 -0.2569
 1500SOL    HW115959   1.375   3.909   2.836  0.5486  0.6425  3.3130
 1500SOL    HW215960   1.456   3.789   2.850  0.0771  0.6574 -0.3507
 1501SOL     OW15961   1.956   2.351   8.284 -0.1038 -0.3669  0.4782
 1501SOL    HW115962   2.033   2.349   8.340  0.2183  0.4045  0.0603
 1501SOL    HW215963   1.904   2.404   8.345 -0.1038  0.8632 -0.5706
 1502SOL     OW15964   0.360   3.266   3.175  0.6615  0.3346  0.2993
 1502SOL    HW115965   0.451   3.243   3.192  0.6769  1.4896  1.8271
 1502SOL    HW215966   0.363   3.321   3.097 -1.9878  1.7314  1.1533
 1503SOL     OW15967   2.202   3.046   7.390  0.3662 -1.1710  0.2754
 1503SOL    HW115968   2.130   3.062   7.329  1.0444 -0.9551 -0.4586
 1503SOL    HW215969   2.265   2.998   7.336  0.4801 -1.9001  1.0563
 1504SOL     OW15970   0.594   2.699  13.382  0.4079 -0.1934  0.0298
 1504SOL    HW115971   0.620   2.643  13.456 -1.2548 -1.4751 -0.3444
 1504SOL    HW215972   0.656   2.772  13.382  0.3811 -0.1886 -2.4604
 1505SOL     OW15973   2.940   4.219  11.074 -0.5117  0.3609  0.3206
 1505SOL    HW115974   2.952   4.303  11.117  1.6218  0.0232  0.3932
 1505SOL    HW215975   2.844   4.214  11.080 -0.6222 -1.1756 -2.5675
 1506SOL     OW15976   3.109   0.465  11.900  0.1593  0.3687  0.6746
 1506SOL    HW115977   3.169   0.442  11.971 -0.4414  0.3950  1.1943
 1506SOL    HW215978   3.124   0.392  11.839 -0.4312  0.2202  0.7073
 1507SOL     OW15979   1.597   0.948   1.164  0.1367 -0.4366  0.4422
 1507SOL    HW115980   1.540   0.874   1.185 -0.2718  0.6992  3.3205
 1507SOL    HW215981   1.666   0.930   1.228 -0.6387  1.1919  1.7393
 1508SOL     OW15982   1.973   1.612   6.522  0.1331  0.0925  0.4084
 1508SOL    HW115983   1.894   1.570   6.555  0.6972 -1.4106 -0.1660
 1508SOL    HW215984   1.939   1.678   6.461 -0.7261  0.1621  0.9725
 1509SOL     OW15985   3.018   2.111   2.878  1.0704  0.3596 -0.0481
 1509SOL    HW115986   3.075   2.039   2.907 -0.3588 -0.1250  1.5423
 1509SOL    HW215987   2.957   2.120   2.951  2.2350  0.0523  0.9719
 1510SOL     OW15988   2.246   2.827  17.310  0.2701 -0.6383  0.3920
 1510SOL    HW115989   2.247   2.918  17.338 -0.8365  0.2112 -2.3221
 1510SOL    HW215990   2.160   2.822  17.266  1.3208 -0.1395 -1.7393
 1511SOL     OW15991   2.640   0.125   5.950 -0.1980 -0.3565 -0.0585
 1511SOL    HW115992   2.708   0.060   5.964 -1.7012 -1.7395  0.7698
 1511SOL    HW215993   2.598   0.091   5.871 -2.4527  0.7894  0.6427
 1512SOL     OW15994   2.949   1.228   5.269  0.2875  0.0627  0.0200
 1512SOL    HW115995   3.034   1.224   5.311  0.2761  0.0060  0.0373
 1512SOL    HW215996   2.924   1.137   5.251  0.1754 -0.0204  0.6220
 1513SOL     OW15997   3.000   4.254   1.418 -0.2743  0.0334 -0.2439
 1513SOL    HW115998   2.925   4.307   1.445 -1.4316 -1.9613  0.4789
 1513SOL    HW215999   2.964   4.204   1.345 -0.8039  0.1542 -0.0658
 1514SOL     OW16000   2.937   2.641  16.804  0.0419 -0.1623 -0.3450
 1514SOL    HW116001   2.971   2.618  16.717 -2.4885 -2.3665 -0.7502
 1514SOL    HW216002   2.851   2.601  16.803  0.7003 -1.5187 -2.5875
 1515SOL     OW16003   3.745   1.161   6.166 -0.1332  0.2167 -0.5121
 1515SOL    HW116004   3.746   1.136   6.074 -0.6222 -1.1727 -0.1277
 1515SOL    HW216005   3.690   1.239   6.158  1.8147  1.7183  0.4740
 1516SOL     OW16006   4.627   4.186   4.345  0.3813 -0.4138  0.1701
 1516SOL    HW116007   4.716   4.206   4.372  0.6596 -0.8679 -0.3904
 1516SOL    HW216008   4.583   4.230   4.417 -1.6135 -2.4802  0.2267
 1517SOL     OW16009   2.165   1.939   8.915  0.0176 -0.4885 -0.3169
 1517SOL    HW116010   2.202   1.862   8.959 -1.5722 -0.7988  0.4961
 1517SOL    HW216011   2.090   1.955   8.973  0.7008  0.9857  0.1462
 1518SOL     OW16012   1.178   0.423   0.228  0.4195 -0.9519 -0.4390
 1518SOL    HW116013   1.156   0.482   0.155  0.3925  1.0919  1.2225
 1518SOL    HW216014   1.120   0.454   0.297  0.0655 -1.5749 -0.4581
 1519SOL     OW16015   4.350   1.789   6.655 -0.0962 -0.5215  0.4947
 1519SOL    HW116016   4.402   1.852   6.605 -1.3009  2.0044  2.3859
 1519SOL    HW216017   4.269   1.840   6.655  1.1582  1.4615  1.0187
 1520SOL     OW16018   1.049   1.076  16.651 -0.2566 -0.3869  0.4097
 1520SOL    HW116019   0.972   1.072  16.594 -1.0279  1.0780  1.3315
 1520SOL    HW216020   1.028   1.004  16.710  0.7061 -1.1803 -0.2210
 1521SOL     OW16021   3.876   1.204  14.289 -0.2311 -1.0043 -0.2322
 1521SOL    HW116022   3.838   1.116  14.296  1.0311 -1.7749 -2.9201
 1521SOL    HW216023   3.830   1.244  14.362  2.0627 -1.0125  1.2061
 1522SOL     OW16024   2.818   0.433  10.708 -0.4203 -0.2688 -0.5755
 1522SOL    HW116025   2.885   0.502  10.716 -0.4642 -0.1569 -1.1755
 1522SOL    HW216026   2.863   0.371  10.651  1.7700  0.2945  0.5074
 1523SOL     OW16027   3.636   1.115  15.399  0.4378 -0.0658  0.2151
 1523SOL    HW116028   3.708   1.143  15.455  2.6570 -0.5877 -2.4211
 1523SOL    HW216029   3.564   1.115  15.463  1.0558  0.3010  0.9106
 1524SOL     OW16030   4.306   0.756  13.488 -0.1826 -0.2378 -0.1636
 1524SOL    HW116031   4.255   0.775  13.409 -1.0231  0.7476  0.6201
 1524SOL    HW216032   4.262   0.677  13.518  0.7823 -0.3377  0.9703
 1525SOL     OW16033   0.329   1.235   1.828 -0.3079  0.6479  0.4686
 1525SOL    HW116034   0.381   1.191   1.896 -1.0780  0.1496  0.7364
 1525SOL    HW216035   0.402   1.274   1.782 -0.2692  0.6483  0.5298
 1526SOL     OW16036   3.289   3.741   1.441  0.1462 -0.2266 -0.2307
 1526SOL    HW116037   3.240   3.798   1.383 -2.8698 -0.3107  2.2685
 1526SOL    HW216038   3.381   3.746   1.413  0.1904 -2.2843 -0.4773
 1527SOL     OW16039   2.014   4.714   0.752  0.2322 -0.0726 -0.3842
 1527SOL    HW116040   2.052   0.006   0.664  1.2806  0.1807  0.1053
 1527SOL    HW216041   2.025   4.620   0.769 -1.2980 -0.4009 -1.1889
 1528SOL     OW16042   0.381   0.591   7.779  0.1789 -0.4079 -0.4876
 1528SOL    HW116043   0.447   0.640   7.827 -1.0487 -0.0649  0.8433
 1528SOL    HW216044   0.434   0.554   7.708  0.4013  0.9210 -1.0113
 1529SOL     OW16045   0.332   1.485   5.063 -0.8343 -0.3523  0.6360
 1529SOL    HW116046   0.271   1.504   5.133  1.3742  1.3179  2.1030
 1529SOL    HW216047   0.292   1.528   4.987 -1.5366 -1.1381  0.5577
 1530SOL     OW16048   1.008   1.173   4.052 -0.3472 -0.4937 -0.3335
 1530SOL    HW116049   1.050   1.106   3.998 -0.2800  0.0753 -0.9974
 1530SOL    HW216050   1.065   1.169   4.129  0.4943 -2.4854 -1.0605
 1531SOL     OW16051   1.707   2.881   2.058 -0.1906 -0.7486  0.7096
 1531SOL    HW116052   1.791   2.912   2.091  0.8272 -0.0447 -2.5427
 1531SOL    HW216053   1.730   2.830   1.980 -1.2275 -1.9257  1.1672
 1532SOL     OW16054   3.001   3.656  12.462  0.0387 -0.3048 -0.2861
 1532SOL    HW116055   2.920   3.668  12.413 -0.5469  1.4185  1.1102
 1532SOL    HW216056   3.022   3.749  12.473 -2.7567  0.3030 -0.0408
 1533SOL     OW16057   0.523   2.207   5.432 -0.0152 -0.4119 -0.3333
 1533SOL    HW116058   0.577   2.172   5.503  0.2265 -1.4669 -1.0267
 1533SOL    HW216059   0.577   2.278   5.397  0.8025 -0.1142  1.5400
 1534SOL     OW16060   3.407   0.681  14.728 -0.6381 -0.5247 -0.6029
 1534SOL    HW116061   3.448   0.604  14.767  0.1740  0.3462  0.2573
 1534SOL    HW216062   3.447   0.669  14.642  2.4164  0.6801  0.6901
 1535SOL     OW16063   4.496   0.536   7.245  0.1378 -0.1250 -0.2662
 1535SOL    HW116064   4.412   0.553   7.287  1.1657  2.4766  0.7292
 1535SOL    HW216065   4.552   0.488   7.306  0.4674  0.2154 -0.2996
 1536SOL     OW16066   2.920   2.902   7.843  0.2594 -0.0895  0.7092
 1536SOL    HW116067   2.954   2.950   7.768 -2.5349 -0.3519 -0.6932
 1536SOL    HW216068   2.982   2.831   7.861  0.5319 -1.0542 -4.0665
 1537SOL     OW16069   2.143   1.162  15.942  0.6367 -0.1705  0.0335
 1537SOL    HW116070   2.221   1.190  15.990 -0.2623 -0.0041  1.4179
 1537SOL    HW216071   2.068   1.156  16.002  1.0225 -1.8331  0.3642
 1538SOL     OW16072   1.876   2.236   8.888 -0.0594  0.1234 -0.1894
 1538SOL    HW116073   1.874   2.198   8.977 -2.4658  0.0993 -0.2550
 1538SOL    HW216074   1.859   2.327   8.913  0.1642 -0.6979  2.9986
 1539SOL     OW16075   0.300   3.312   9.013 -0.2298 -0.2890 -0.2696
 1539SOL    HW116076   0.390   3.301   8.983 -0.2495  1.3337 -0.9188
 1539SOL    HW216077   0.267   3.244   8.953  4.4520 -2.4142 -0.4632
 1540SOL     OW16078   4.565   2.425   3.469 -0.4655 -0.4137 -0.1172
 1540SOL    HW116079   4.547   2.331   3.477  1.3864 -0.4439  3.6628
 1540SOL    HW216080   4.617   2.434   3.549 -0.5365 -0.6777 -0.0418
 1541SOL     OW16081   0.466   1.992   1.838 -0.6138  0.0676  0.1517
 1541SOL    HW116082   0.379   1.953   1.852 -1.1256  0.8485 -0.8584
 1541SOL    HW216083   0.469   2.061   1.904 -0.6210  0.8853 -0.7062
 1542SOL     OW16084   2.688   1.898  14.354 -0.2683 -0.4141 -0.2039
 1542SOL    HW116085   2.666   1.950  14.431  0.4407  2.5858 -2.0058
 1542SOL    HW216086   2.747   1.830  14.388  2.4715  2.3865  0.5966
 1543SOL     OW16087   3.366   3.407  10.034  0.0119 -0.3508  0.2196
 1543SOL    HW116088   3.445   3.452  10.007 -1.2407  0.4277 -2.1568
 1543SOL    HW216089   3.392   3.396  10.126  1.9325  0.2438 -0.2720
 1544SOL     OW16090   3.842   0.539   0.077  0.0598 -0.2081 -0.3040
 1544SOL    HW116091   3.849   0.464   0.018 -1.0668 -0.9441  0.5047
 1544SOL    HW216092   3.922   0.585   0.051  0.0395  0.6503  1.1674
 1545SOL     OW16093   3.556   2.527   1.829 -0.3454 -0.6007  0.4288
 1545SOL    HW116094   3.529   2.498   1.916 -1.1495  1.7128  0.9425
 1545SOL    HW216095   3.625   2.460   1.824  1.0774  0.8917  0.0410
 1546SOL     OW16096   4.551   0.746  13.214  0.1018  0.2688 -0.1645
 1546SOL    HW116097   4.646   0.754  13.217  0.4581 -3.9522 -0.0963
 1546SOL    HW216098   4.553   0.709  13.126  1.7971  0.9080 -0.3945
 1547SOL     OW16099   4.065   0.328   4.177 -0.6203 -0.2129  0.2236
 1547SOL    HW116100   4.010   0.406   4.171  2.3445  1.9006  0.7897
 1547SOL    HW216101   4.037   0.271   4.104 -0.5797 -0.7520  0.6273
 1548SOL     OW16102   1.734   4.294   3.841 -0.2406 -0.2133  0.6362
 1548SOL    HW116103   1.682   4.258   3.769 -1.4794  3.2566 -0.2017
 1548SOL    HW216104   1.762   4.376   3.800 -0.1830  0.3732  1.8501
 1549SOL     OW16105   3.192   0.279   7.464  0.1096 -0.5549  0.0882
 1549SOL    HW116106   3.100   0.258   7.480 -0.4231  1.4687 -0.4004
 1549SOL    HW216107   3.211   0.218   7.392 -0.5030 -0.4590 -0.1477
 1550SOL     OW16108   2.264   1.274   7.547  0.3180 -0.2361 -0.2944
 1550SOL    HW116109   2.349   1.296   7.509  1.1257 -4.3996 -0.9371
 1550SOL    HW216110   2.196   1.319   7.497 -0.3796 -1.1179 -0.1338
 1551SOL     OW16111   4.689   1.877   5.001 -0.4400  0.1974  0.1726
 1551SOL    HW116112   4.619   1.937   4.974  0.1825  1.0224  0.3913
 1551SOL    HW216113   0.005   1.855   4.915  0.4961  0.8302  0.3929
 1552SOL     OW16114   4.358   1.114   4.888  0.1715  0.3190  0.2368
 1552SOL    HW116115   4.368   1.200   4.928  0.1243  0.7514 -0.6925
 1552SOL    HW216116   4.286   1.085   4.945  0.2343 -1.6672 -0.6723
 1553SOL     OW16117   0.445   0.155   7.419  0.7975 -0.0275  0.1260
 1553SOL    HW116118   0.434   0.107   7.501 -0.2131  0.0056  0.0107
 1553SOL    HW216119   0.478   0.240   7.447  0.6873 -0.8565  2.8077
 1554SOL     OW16120   4.200   4.125   2.782  0.1250 -0.5456  0.2688
 1554SOL    HW116121   4.174   4.066   2.853 -0.1549  0.6427  1.1614
 1554SOL    HW216122   4.123   4.182   2.780  1.1099  0.7853  0.4479
 1555SOL     OW16123   2.227   1.018   4.702 -0.0568 -0.1537  0.0053
 1555SOL    HW116124   2.142   1.057   4.687 -0.2211  0.0779  1.5421
 1555SOL    HW216125   2.280   1.086   4.742 -2.2060  0.7939  1.1779
 1556SOL     OW16126   2.645   4.267   2.861 -0.2924  0.5974 -0.0045
 1556SOL    HW116127   2.669   4.358   2.841 -0.2800  0.0679 -2.4517
 1556SOL    HW216128   2.553   4.262   2.833 -0.9431  2.1057  1.8710
 1557SOL     OW16129   1.412   0.580  13.640 -0.4752 -0.3234  0.0167
 1557SOL    HW116130   1.413   0.636  13.717 -0.3699  0.6727 -0.7085
 1557SOL    HW216131   1.354   0.507  13.665  0.0041  0.1017  2.3890
 1558SOL     OW16132   2.718   3.698   6.131 -0.1807  0.4077  0.1415
 1558SOL    HW116133   2.627   3.677   6.153 -0.3823  1.4774  0.3367
 1558SOL    HW216134   2.759   3.614   6.111 -2.0277 -0.5874  0.5072
 1559SOL     OW16135   2.964   2.509   2.686 -0.4580  0.4832  0.2480
 1559SOL    HW116136   3.005   2.492   2.771  0.5057 -3.1460 -0.9468
 1559SOL    HW216137   2.910   2.585   2.704  0.1127  1.6317 -3.0135
 1560SOL     OW16138   2.476   4.081   6.117  0.1014 -0.2717  0.8137
 1560SOL    HW116139   2.492   4.171   6.090  2.0475 -0.3325  1.7091
 1560SOL    HW216140   2.513   4.040   6.039 -1.3142 -0.4163  0.2352
 1561SOL     OW16141   1.067   0.874   2.859  0.4538 -0.5895 -0.0340
 1561SOL    HW116142   1.096   0.884   2.949 -1.0128  2.3293  0.1290
 1561SOL    HW216143   1.131   0.810   2.828  1.6991 -0.1432  1.6633
 1562SOL     OW16144   1.607   1.704   6.429  0.2306 -0.4983  0.3122
 1562SOL    HW116145   1.542   1.700   6.499 -0.4179 -2.2319 -0.3983
 1562SOL    HW216146   1.620   1.611   6.410 -2.4130 -0.8003 -0.0613
 1563SOL     OW16147   0.937   1.613   0.194  0.7555 -0.1132  0.1601
 1563SOL    HW116148   0.920   1.700   0.157 -1.2800  0.2768  2.0373
 1563SOL    HW216149   1.031   1.599   0.184  0.7613  0.2620 -0.3030
 1564SOL     OW16150   2.914   2.842   5.195  0.0266  0.2346  0.2027
 1564SOL    HW116151   2.865   2.770   5.236  1.2566 -0.8006 -0.1514
 1564SOL    HW216152   2.847   2.884   5.140 -0.5599 -1.6908 -0.5484
 1565SOL     OW16153   1.110   0.082   0.785  0.6881 -0.1919 -0.3067
 1565SOL    HW116154   1.118   0.059   0.877  0.9620  1.6729  0.1320
 1565SOL    HW216155   1.178   0.148   0.771  1.0527 -0.2700  1.1567
 1566SOL     OW16156   3.642   3.597   7.282 -0.1697  0.4460 -0.6787
 1566SOL    HW116157   3.588   3.599   7.360  1.8334 -1.6199  0.7794
 1566SOL    HW216158   3.582   3.622   7.212 -0.2780 -0.1409 -0.7945
 1567SOL     OW16159   3.237   0.363   7.033 -0.3726 -0.7190 -0.4840
 1567SOL    HW116160   3.298   0.380   7.105 -2.3671 -0.5358  1.1551
 1567SOL    HW216161   3.300   0.376   6.962  0.1777  1.4080  0.3769
 1568SOL     OW16162   0.384   4.361   3.452  0.1867  0.0551  0.2911
 1568SOL    HW116163   0.362   4.270   3.436 -0.3945  0.0028  1.3667
 1568SOL    HW216164   0.457   4.359   3.515  0.0110 -0.9636  0.4547
 1569SOL     OW16165   3.269   1.096  10.461  0.1221  0.1747 -0.5175
 1569SOL    HW116166   3.205   1.159  10.493 -0.5022 -0.0915 -1.2423
 1569SOL    HW216167   3.351   1.143  10.473  0.8366 -0.7877 -1.6744
 1570SOL     OW16168   4.435   3.988  11.170 -0.0002  0.2787 -0.1570
 1570SOL    HW116169   4.356   3.975  11.117 -0.9969 -0.6812  1.5372
 1570SOL    HW216170   4.392   4.023  11.248  1.8141  1.0386  0.4887
 1571SOL     OW16171   4.033   1.542   6.235  0.5049 -0.2542  0.3097
 1571SOL    HW116172   4.088   1.559   6.159  0.6516  0.6685  0.6271
 1571SOL    HW216173   4.077   1.464   6.268  0.0539 -0.8692 -0.5431
 1572SOL     OW16174   0.404   3.304   2.693  0.1690  0.1632 -0.3205
 1572SOL    HW116175   0.343   3.236   2.723 -0.4864  0.8127 -0.1506
 1572SOL    HW216176   0.348   3.364   2.643  0.9844 -0.2265 -1.7077
 1573SOL     OW16177   4.238   4.129  16.328  0.1185  0.4567  0.2038
 1573SOL    HW116178   4.228   4.077  16.248 -0.8861 -0.2029  0.7558
 1573SOL    HW216179   4.295   4.074  16.381 -0.3392 -1.2784 -1.1152
 1574SOL     OW16180   0.285   0.258   7.727  0.4843 -0.1910 -0.3425
 1574SOL    HW116181   0.283   0.223   7.816  2.4803  0.8699  0.1183
 1574SOL    HW216182   0.376   0.286   7.715 -0.0336  0.4935 -2.6343
 1575SOL     OW16183   2.093   3.802   6.410 -0.1438 -0.4025  0.3716
 1575SOL    HW116184   2.113   3.722   6.460 -0.7484 -0.1994  0.9466
 1575SOL    HW216185   2.090   3.774   6.319  2.1764 -0.6479  0.3747
 1576SOL     OW16186   3.506   4.318  14.919  0.0114  0.2918 -0.3269
 1576SOL    HW116187   3.559   4.387  14.879 -1.2351  0.8364 -1.0448
 1576SOL    HW216188   3.475   4.261  14.849 -0.8523 -1.4572  1.5027
 1577SOL     OW16189   1.966   1.975   1.495  0.0563  0.5647  0.3035
 1577SOL    HW116190   2.025   1.941   1.562 -0.1358 -3.9061 -1.7599
 1577SOL    HW216191   1.937   2.057   1.534 -2.3117  0.1757 -0.6476
 1578SOL     OW16192   0.010   0.937  10.425 -0.4078  0.0681  0.0730
 1578SOL    HW116193   0.014   0.844  10.403  1.3628  0.1266  0.1440
 1578SOL    HW216194   0.028   0.967  10.336 -0.0557 -0.8048 -0.1519
 1579SOL     OW16195   2.127   3.569  12.136 -0.8814  0.2961 -0.0149
 1579SOL    HW116196   2.137   3.503  12.068 -1.3009 -0.8449  1.0311
 1579SOL    HW216197   2.174   3.517  12.201  0.5287 -0.8530 -1.9684
 1580SOL     OW16198   3.173   0.106   5.106  0.2657 -0.2518  0.2028
 1580SOL    HW116199   3.207   0.184   5.063 -0.7312 -0.2796 -0.6327
 1580SOL    HW216200   3.090   0.094   5.061  0.6558 -2.7831  0.1535
 1581SOL     OW16201   0.073   2.652   7.601  0.0602  0.6781 -0.4781
 1581SOL    HW116202   0.069   2.561   7.570 -2.1571  0.9627 -1.0665
 1581SOL    HW216203   0.144   2.677   7.541  1.2042  0.6879  0.9026
 1582SOL     OW16204   4.642   0.358   5.311 -0.2958 -0.4135 -0.5842
 1582SOL    HW116205   4.652   0.266   5.335 -0.9243  0.2982  2.4325
 1582SOL    HW216206   4.561   0.349   5.261  0.6022  0.8912 -2.2665
 1583SOL     OW16207   4.459   2.213   5.032  0.2852 -0.1294 -0.3184
 1583SOL    HW116208   4.389   2.160   5.070  0.7577 -0.1430  0.5389
 1583SOL    HW216209   4.448   2.194   4.939 -1.9645 -0.8467  0.1043
 1584SOL     OW16210   3.645   3.304   8.046 -0.4343 -0.4939 -0.3492
 1584SOL    HW116211   3.692   3.241   7.991  0.7988 -0.8336  1.0952
 1584SOL    HW216212   3.594   3.257   8.112  0.5760 -0.0753  0.7303
 1585SOL     OW16213   3.596   2.524   4.238 -0.5361 -0.2303 -0.8859
 1585SOL    HW116214   3.686   2.506   4.264 -1.0901  1.7433  2.4003
 1585SOL    HW216215   3.607   2.582   4.163 -0.3314 -0.2759 -0.8889
 1586SOL     OW16216   1.035   3.757   5.016  0.2955 -0.4213 -0.2000
 1586SOL    HW116217   1.110   3.811   4.990  0.3905 -1.1728 -1.4960
 1586SOL    HW216218   0.959   3.811   4.994  0.7872  0.9190  1.3993
 1587SOL     OW16219   2.390   4.302   8.704  0.2246  0.0202 -0.3360
 1587SOL    HW116220   2.322   4.243   8.671  3.0540 -2.0143 -2.6630
 1587SOL    HW216221   2.469   4.253   8.678  0.5439 -1.1493  2.8084
 1588SOL     OW16222   2.823   2.626   5.323 -0.1320 -0.1712  0.0149
 1588SOL    HW116223   2.893   2.566   5.348 -0.9375 -1.7243 -1.3705
 1588SOL    HW216224   2.746   2.603   5.374  1.6556 -2.2758  1.7518
 1589SOL     OW16225   1.235   2.450   7.538  0.0413  0.1156  0.6745
 1589SOL    HW116226   1.207   2.379   7.596  1.7116 -2.9766 -2.3388
 1589SOL    HW216227   1.324   2.470   7.567  0.2842 -0.0615  0.0351
 1590SOL     OW16228   1.364   4.170   1.362  0.2295  0.2954 -0.0763
 1590SOL    HW116229   1.354   4.249   1.415  1.1322  0.1610  0.2982
 1590SOL    HW216230   1.284   4.184   1.312  1.6094 -1.6578 -2.8683
 1591SOL     OW16231   3.230   3.306   2.191  0.6697  0.3354 -0.2148
 1591SOL    HW116232   3.171   3.230   2.196  1.4711 -0.3042 -0.5298
 1591SOL    HW216233   3.256   3.291   2.100 -1.0162 -0.4972 -0.5742
 1592SOL     OW16234   4.290   4.532   4.795  0.0684 -0.0927 -0.2764
 1592SOL    HW116235   4.281   4.500   4.705 -1.7130  1.0984 -0.5202
 1592SOL    HW216236   4.252   4.620   4.800 -1.6075 -0.8261  0.2754
 1593SOL     OW16237   3.906   1.346   8.910  0.2349  0.0076  0.2450
 1593SOL    HW116238   3.890   1.278   8.974  0.7411  0.9614  1.3766
 1593SOL    HW216239   3.989   1.308   8.881  1.1458  1.4004  1.0211
 1594SOL     OW16240   0.387   4.277  12.730  0.3368  0.0515 -0.0190
 1594SOL    HW116241   0.422   4.189  12.717  1.3116  0.6060 -1.0917
 1594SOL    HW216242   0.466   4.322  12.759 -0.8914  1.9258  0.4068
 1595SOL     OW16243   0.660   0.555   2.600  0.0678  0.0783  0.1979
 1595SOL    HW116244   0.733   0.612   2.622 -1.7222  2.0429  1.1458
 1595SOL    HW216245   0.631   0.520   2.685 -1.0373 -0.2584 -0.3044
 1596SOL     OW16246   2.280   0.048   8.429  0.2537  0.1742  0.0350
 1596SOL    HW116247   2.201   0.047   8.483  0.8760  0.6803  0.9391
 1596SOL    HW216248   2.307   4.677   8.446  1.8818  0.3588 -1.5518
 1597SOL     OW16249   2.303   4.335   5.914 -0.3378  0.1264  0.5469
 1597SOL    HW116250   2.281   4.427   5.899  0.6991 -0.0682 -2.0619
 1597SOL    HW216251   2.242   4.295   5.853 -2.1963  1.6080  1.4133
 1598SOL     OW16252   3.468   4.358   7.166  0.1338 -0.3850 -0.5509
 1598SOL    HW116253   3.417   4.279   7.148 -0.1105 -0.2925 -0.2639
 1598SOL    HW216254   3.553   4.326   7.196 -0.0387 -1.7210 -1.5066
 1599SOL     OW16255   4.081   0.447   7.845 -0.2719 -0.2470  0.2367
 1599SOL    HW116256   4.070   0.493   7.928 -0.1762 -1.2506  0.8121
 1599SOL    HW216257   4.175   0.429   7.856 -0.3926 -1.0792 -0.0508
 1600SOL     OW16258   2.019   3.929  16.784 -0.3945  0.3863 -0.1144
 1600SOL    HW116259   2.000   3.835  16.785 -1.8925  0.7182  1.7430
 1600SOL    HW216260   1.933   3.965  16.806  0.2076  1.8242 -0.1305
 1601SOL     OW16261   4.471   1.310   0.724  0.6951 -0.1778 -0.4544
 1601SOL    HW116262   4.467   1.215   0.732 -0.3336 -0.0538  0.5767
 1601SOL    HW216263   4.400   1.328   0.662  1.7391  0.4426 -1.4775
 1602SOL     OW16264   1.449   0.747   1.240  0.5245  0.0533  0.0735
 1602SOL    HW116265   1.398   0.667   1.254  1.4836 -0.0305  2.9853
 1602SOL    HW216266   1.459   0.778   1.330  0.3240  0.6376 -0.1082
 1603SOL     OW16267   4.612   2.416  11.924 -0.0358  0.8321 -0.3220
 1603SOL    HW116268   4.640   2.446  11.837 -0.2649  0.0701 -0.6591
 1603SOL    HW216269   4.668   2.339  11.935 -3.4436 -1.1886  2.6539
 1604SOL     OW16270   3.479   2.693   8.578 -0.6707 -0.3229  0.3911
 1604SOL    HW116271   3.509   2.763   8.636 -2.0995  1.0914 -0.5827
 1604SOL    HW216272   3.477   2.738   8.494 -2.3445 -2.4155 -0.6829
 1605SOL     OW16273   3.802   0.292   7.370  0.1023 -0.1156  0.3596
 1605SOL    HW116274   3.875   0.305   7.310 -2.0408  2.7674 -1.6125
 1605SOL    HW216275   3.843   0.277   7.456  1.5706 -1.0797 -0.5173
 1606SOL     OW16276   2.663   0.087   3.127  0.3458  0.2488 -0.5950
 1606SOL    HW116277   2.730   0.132   3.075  1.8613  1.7300  2.6271
 1606SOL    HW216278   2.593   0.069   3.065  0.4453 -1.6624 -0.1597
 1607SOL     OW16279   1.270   4.461  15.808 -0.0626 -0.1710 -0.1766
 1607SOL    HW116280   1.361   4.452  15.837 -0.0855  0.4203  0.0978
 1607SOL    HW216281   1.219   4.389  15.845  0.5771 -1.4868 -1.8623
 1608SOL     OW16282   4.206   3.123   7.854  0.1864  0.1256  0.5645
 1608SOL    HW116283   4.221   3.102   7.947  2.3200 -0.9754 -0.0364
 1608SOL    HW216284   4.208   3.218   7.846  1.3142 -0.0993 -1.6705
 1609SOL     OW16285   4.482   0.587  17.286  0.2400 -0.3608 -0.3111
 1609SOL    HW116286   4.403   0.640  17.297 -0.1431 -0.5362 -2.2698
 1609SOL    HW216287   4.544   0.653  17.255 -0.8732  1.5416  1.4346
 1610SOL     OW16288   4.442   2.245   0.928 -0.2417  0.1504 -1.1110
 1610SOL    HW116289   4.480   2.161   0.955 -0.8614  0.1234 -0.3147
 1610SOL    HW216290   4.377   2.244   0.998  0.1337  1.5446 -0.7432
 1611SOL     OW16291   2.154   3.521   1.968  0.1872 -0.2819 -0.3598
 1611SOL    HW116292   2.071   3.481   1.992  0.8346 -0.1147  2.1768
 1611SOL    HW216293   2.119   3.596   1.920 -1.8505  0.3858  2.1790
 1612SOL     OW16294   1.821   0.006   1.416 -0.0391  0.0668  0.1291
 1612SOL    HW116295   1.771   4.719   1.497  0.2076  1.4236  0.3889
 1612SOL    HW216296   1.759   0.065   1.372 -1.4368 -1.9633 -0.6271
 1613SOL     OW16297   0.111   2.021   2.185  0.1737 -0.4597 -0.2654
 1613SOL    HW116298   0.038   2.053   2.133 -0.1055 -0.6964 -0.0198
 1613SOL    HW216299   0.077   2.051   2.269 -0.8121 -0.0010 -0.8309
 1614SOL     OW16300   3.617   1.731   8.988  0.1863  0.5856 -0.4608
 1614SOL    HW116301   3.643   1.727   9.080 -0.1216 -1.2851 -0.4730
 1614SOL    HW216302   3.607   1.826   8.987  0.3876  0.6075 -0.8458
 1615SOL     OW16303   2.632   1.841   2.488 -0.2973 -0.0774 -0.2352
 1615SOL    HW116304   2.696   1.859   2.556  0.2646 -0.3963 -0.6784
 1615SOL    HW216305   2.592   1.928   2.480 -1.1852 -0.3228  1.4096
 1616SOL     OW16306   2.492   1.772   4.077 -0.4656 -0.1059 -0.5541
 1616SOL    HW116307   2.513   1.679   4.086 -2.6048 -0.5220  0.2133
 1616SOL    HW216308   2.445   1.759   3.994  1.3262  1.2887 -1.8003
 1617SOL     OW16309   3.490   2.804   1.879  0.2519  0.1750 -0.0654
 1617SOL    HW116310   3.436   2.789   1.802 -0.7677 -2.6825  1.2143
 1617SOL    HW216311   3.534   2.720   1.876 -2.7159 -1.4839  3.0008
 1618SOL     OW16312   3.763   1.559   3.426  0.5950  0.6038  0.0262
 1618SOL    HW116313   3.834   1.612   3.464  1.2328 -0.1484 -0.1074
 1618SOL    HW216314   3.817   1.498   3.376  0.4939  0.0593  0.5748
 1619SOL     OW16315   0.157   2.008   8.893 -0.2725 -0.1195  0.0200
 1619SOL    HW116316   0.129   1.922   8.925  0.4403 -0.6169 -0.7123
 1619SOL    HW216317   0.105   2.072   8.942 -1.5492  0.1849 -1.7369
 1620SOL     OW16318   3.301   0.501   8.328 -0.2237 -0.0403  0.4931
 1620SOL    HW116319   3.340   0.483   8.413  0.4108  0.6508  0.3518
 1620SOL    HW216320   3.229   0.439   8.341 -0.9735  0.1556 -2.5554
 1621SOL     OW16321   0.187   0.397  11.422  0.4749 -0.0741  0.0670
 1621SOL    HW116322   0.157   0.319  11.470 -0.8754  0.3775 -0.0561
 1621SOL    HW216323   0.269   0.427  11.462  0.0015 -0.3576  1.2635
 1622SOL     OW16324   4.658   0.702   9.407  0.2554  0.2487  0.6015
 1622SOL    HW116325   4.616   0.738   9.485  1.6883  2.1186  0.5183
 1622SOL    HW216326   0.032   0.725   9.414  0.7986 -1.6677 -0.4134
 1623SOL     OW16327   0.648   4.556   3.791 -0.8626  0.1368 -0.2629
 1623SOL    HW116328   0.650   4.489   3.859  0.2330  0.6313  0.2052
 1623SOL    HW216329   0.563   4.597   3.803 -0.1112  1.5738  0.2649
 1624SOL     OW16330   1.962   1.767   4.363 -0.1579 -0.5756 -0.3216
 1624SOL    HW116331   1.967   1.793   4.271  2.9417  0.3792  0.1032
 1624SOL    HW216332   1.874   1.730   4.371  0.2045 -0.3645  4.6063
 1625SOL     OW16333   0.688   3.588   3.006  0.1241  0.2387  0.4677
 1625SOL    HW116334   0.780   3.581   3.031  0.6058 -0.0779 -1.4238
 1625SOL    HW216335   0.641   3.625   3.081 -2.2881  0.6023 -1.1990
 1626SOL     OW16336   4.223   3.148   9.643 -0.2047 -0.0734  0.4056
 1626SOL    HW116337   4.256   3.205   9.573 -0.5697 -1.9346 -1.2726
 1626SOL    HW216338   4.143   3.198   9.664  0.2875  0.4391  1.0802
 1627SOL     OW16339   4.138   0.814   8.853 -0.4232  0.0175 -0.5384
 1627SOL    HW116340   4.150   0.872   8.929 -1.4646 -0.8402  0.2734
 1627SOL    HW216341   4.062   0.763   8.881  1.4296 -0.0115  4.5375
 1628SOL     OW16342   1.231   1.838   3.511  0.4543  0.5216 -0.0176
 1628SOL    HW116343   1.321   1.807   3.516  0.4000  0.0670 -1.9111
 1628SOL    HW216344   1.245   1.922   3.555 -0.1588  1.3216 -1.3583
 1629SOL     OW16345   3.073   0.489   8.905 -0.5173 -0.0352  0.2330
 1629SOL    HW116346   3.063   0.547   8.980 -1.9272 -0.6956  0.5481
 1629SOL    HW216347   3.162   0.465   8.932 -0.0169  0.0015 -1.3638
 1630SOL     OW16348   2.027   3.097  15.949  0.7104 -0.6191 -0.5381
 1630SOL    HW116349   2.075   3.031  15.998 -0.4794 -1.5879 -0.6866
 1630SOL    HW216350   2.091   3.168  15.941 -0.8249  0.7309 -1.1077
 1631SOL     OW16351   4.333   0.152   3.988  0.4201 -0.2297 -0.1735
 1631SOL    HW116352   4.263   0.200   3.945 -0.8807 -1.1068  0.9346
 1631SOL    HW216353   4.415   0.187   3.954  0.4128  0.8045  0.8859
 1632SOL     OW16354   1.490   3.144   6.417  0.6399  0.0330 -0.0491
 1632SOL    HW116355   1.578   3.115   6.392  0.4984 -0.0326 -0.4833
 1632SOL    HW216356   1.446   3.069   6.455 -0.0154  0.2404 -0.3887
 1633SOL     OW16357   0.249   0.027   8.180  0.3226 -0.7986 -0.0159
 1633SOL    HW116358   0.244   4.709   8.268  0.9965  1.5275  0.9870
 1633SOL    HW216359   0.307   0.099   8.202 -1.2162  0.2348  0.6608
 1634SOL     OW16360   2.517   0.052   5.687  0.5780 -0.1169  0.5298
 1634SOL    HW116361   2.438   0.009   5.654  2.4304 -0.0043 -4.0298
 1634SOL    HW216362   2.586   4.717   5.650  0.2667 -0.3583  0.2956
 1635SOL     OW16363   0.659   4.443   5.601 -0.0478  0.2836  0.0720
 1635SOL    HW116364   0.710   4.494   5.664  0.0280  0.0939  0.1675
 1635SOL    HW216365   0.630   4.368   5.653 -0.2454  0.6390  0.4770
 1636SOL     OW16366   2.922   0.120   7.905 -0.6066 -0.5301  0.0591
 1636SOL    HW116367   2.898   0.213   7.905 -1.3570 -0.7210 -0.5140
 1636SOL    HW216368   2.843   0.075   7.936 -1.5870  0.6461 -0.7314
 1637SOL     OW16369   1.336   3.483   0.231 -0.3491  0.0093  0.1914
 1637SOL    HW116370   1.356   3.505   0.322  1.5300 -1.3771  0.1223
 1637SOL    HW216371   1.362   3.391   0.227  2.2232  0.9287 -3.0542
 1638SOL     OW16372   0.190   3.137   3.685 -0.3057  0.3377 -0.1161
 1638SOL    HW116373   0.178   3.169   3.595 -1.6226  1.1613  0.3572
 1638SOL    HW216374   0.140   3.056   3.690 -0.1544  0.1566 -1.4575
 1639SOL     OW16375   2.076   4.039  10.036 -0.4639 -0.0425 -0.0148
 1639SOL    HW116376   2.037   3.965   9.988 -2.2194  0.1547  1.0928
 1639SOL    HW216377   1.995   4.091  10.040  1.1122  2.5190 -1.4422
 1640SOL     OW16378   2.918   3.282   7.719 -0.0068 -0.3039  0.2440
 1640SOL    HW116379   2.829   3.317   7.712 -1.7961 -4.6953  0.9455
 1640SOL    HW216380   2.912   3.245   7.807  0.6574 -1.7894 -0.3399
 1641SOL     OW16381   2.652   0.798  14.990 -0.0698 -0.1510  0.7695
 1641SOL    HW116382   2.734   0.787  14.942 -1.0258  1.4913 -1.2426
 1641SOL    HW216383   2.640   0.709  15.022  0.6729 -0.5280 -0.0121
 1642SOL     OW16384   3.572   2.634   4.533 -0.1202 -0.0718  0.4394
 1642SOL    HW116385   3.579   2.617   4.627  3.3428 -1.7993 -0.1508
 1642SOL    HW216386   3.629   2.567   4.495  1.2193  1.9359 -1.0868
 1643SOL     OW16387   0.580   1.270   5.438  0.1365 -0.1006 -0.1316
 1643SOL    HW116388   0.573   1.186   5.484  0.5709 -1.0376 -1.7930
 1643SOL    HW216389   0.623   1.254   5.354  0.9576  0.2028  0.2299
 1644SOL     OW16390   0.351   3.811   4.972  0.0520 -0.0853  0.7146
 1644SOL    HW116391   0.391   3.825   4.886 -2.9763 -0.6596 -0.7959
 1644SOL    HW216392   0.309   3.897   4.977  0.1824  0.1032 -1.5181
 1645SOL     OW16393   1.794   2.531  13.478  0.2910  0.2996 -0.3718
 1645SOL    HW116394   1.705   2.544  13.445 -0.0020 -2.0566 -0.5746
 1645SOL    HW216395   1.796   2.614  13.525 -1.2490 -0.1731  0.5405
 1646SOL     OW16396   2.704   2.659  10.195 -1.2028 -0.1373  0.5900
 1646SOL    HW116397   2.762   2.674  10.269 -2.2017  0.6344  1.2121
 1646SOL    HW216398   2.750   2.606  10.130 -2.7617 -1.2141  0.3645
 1647SOL     OW16399   1.621   1.321   5.044 -0.0336  0.1924 -0.1500
 1647SOL    HW116400   1.660   1.235   5.060  0.1848  0.7069  2.1164
 1647SOL    HW216401   1.687   1.385   5.015 -1.7120  2.2623  0.5903
 1648SOL     OW16402   0.994   0.768   6.366 -0.0992  0.4217  0.4547
 1648SOL    HW116403   0.949   0.850   6.347 -0.1678  0.7929  2.2726
 1648SOL    HW216404   0.954   0.741   6.449  0.7683 -0.4523  0.5827
 1649SOL     OW16405   3.656   2.252   9.465 -0.8203  0.0116 -0.3844
 1649SOL    HW116406   3.567   2.276   9.439 -1.1397  1.7951  2.3050
 1649SOL    HW216407   3.641   2.204   9.547  0.7457  1.7631  0.9350
 1650SOL     OW16408   1.374   3.636   1.986  0.3807  0.4070  0.1254
 1650SOL    HW116409   1.464   3.602   1.984  1.1284  2.6047 -3.2381
 1650SOL    HW216410   1.360   3.657   1.894  2.2013  1.5509  0.1164
 1651SOL     OW16411   2.866   2.659  13.790  0.0698 -0.0305 -0.1530
 1651SOL    HW116412   2.849   2.566  13.778  2.4312 -0.5735  0.8300
 1651SOL    HW216413   2.779   2.694  13.807 -0.7711 -0.8545 -2.6897
 1652SOL     OW16414   1.315   2.381  11.341 -0.9541 -0.8520 -0.0668
 1652SOL    HW116415   1.272   2.392  11.257 -3.0973 -1.6859  0.9058
 1652SOL    HW216416   1.313   2.465  11.387 -3.2321 -0.7008 -0.4260
 1653SOL     OW16417   1.201   3.684  17.172 -0.0757  0.2948 -0.1876
 1653SOL    HW116418   1.134   3.716  17.112 -0.6469  1.7045  1.1825
 1653SOL    HW216419   1.201   3.589  17.163 -2.5775  0.3713 -0.8578
 1654SOL     OW16420   3.995   4.140  16.036  0.2849  0.4146 -0.7087
 1654SOL    HW116421   3.964   4.220  16.078 -0.8007 -1.1335  1.4138
 1654SOL    HW216422   4.064   4.112  16.097 -1.5761 -0.9501  0.7841
 1655SOL     OW16423   0.353   1.643   8.909 -0.2097 -0.0352 -0.0453
 1655SOL    HW116424   0.268   1.672   8.942  0.1201  0.0057  0.7599
 1655SOL    HW216425   0.345   1.548   8.904 -1.3492  0.0631 -0.1921
 1656SOL     OW16426   3.376   2.643   7.702  0.2305 -0.1301 -0.9092
 1656SOL    HW116427   3.443   2.627   7.768  0.9802 -1.0791 -1.9057
 1656SOL    HW216428   3.406   2.590   7.628 -0.3968 -1.3045 -0.3131
 1657SOL     OW16429   0.735   1.402   9.831  0.0703 -0.0815  0.0332
 1657SOL    HW116430   0.680   1.426   9.906 -1.4717  1.0546 -1.4722
 1657SOL    HW216431   0.804   1.468   9.822  1.2397 -1.1369  1.2892
 1658SOL     OW16432   3.192   4.638  10.845 -0.6061  0.4981  0.0955
 1658SOL    HW116433   3.221   4.547  10.839  0.3418  0.8760 -1.1007
 1658SOL    HW216434   3.224   4.656  10.933  3.6950 -0.0431 -1.3714
 1659SOL     OW16435   0.826   4.156  11.070  0.0229  0.3846 -0.8668
 1659SOL    HW116436   0.753   4.172  11.130  0.6756 -0.1314  0.0453
 1659SOL    HW216437   0.838   4.061  11.074 -1.5488  0.2415  0.5079
 1660SOL     OW16438   3.729   0.758   2.694 -0.0062 -0.4498 -0.4320
 1660SOL    HW116439   3.711   0.691   2.627  1.3710 -0.6364 -0.6095
 1660SOL    HW216440   3.641   0.793   2.707  0.0080 -0.6415  0.1806
 1661SOL     OW16441   1.764   4.298   6.052 -0.1140  0.5480 -0.1640
 1661SOL    HW116442   1.780   4.385   6.089 -0.8483  0.8479 -0.5541
 1661SOL    HW216443   1.793   4.248   6.128  1.9253  1.4247 -0.3432
 1662SOL     OW16444   3.709   2.509  15.822 -0.1851 -0.1840 -0.5252
 1662SOL    HW116445   3.701   2.473  15.911 -0.2739 -1.1425 -0.9198
 1662SOL    HW216446   3.641   2.455  15.782  2.2489 -1.7776 -2.4481
 1663SOL     OW16447   3.871   0.580   2.959 -0.4251 -0.5016  0.0200
 1663SOL    HW116448   3.852   0.674   2.966 -0.9090 -0.7144  1.5253
 1663SOL    HW216449   3.966   0.583   2.952 -0.5493  1.4044 -0.7278
 1664SOL     OW16450   1.582   0.276   8.194 -0.0586  0.2258  0.4746
 1664SOL    HW116451   1.500   0.242   8.229 -0.1284  1.3050  1.3355
 1664SOL    HW216452   1.550   0.357   8.155 -1.8584 -0.2838  0.8971
 1665SOL     OW16453   2.848   1.850   2.674  0.4932 -0.0335 -0.0798
 1665SOL    HW116454   2.933   1.895   2.675 -0.5346  1.8910 -0.6470
 1665SOL    HW216455   2.884   1.761   2.673  1.4118  0.3691 -1.9362
 1666SOL     OW16456   2.038   1.936   4.740 -0.4065  0.0309 -0.2802
 1666SOL    HW116457   2.038   2.022   4.782 -0.9171 -0.1462  0.0688
 1666SOL    HW216458   1.947   1.910   4.755 -0.9338  1.7428 -0.4842
 1667SOL     OW16459   0.511   2.521   8.335  0.4611  0.4499  0.4489
 1667SOL    HW116460   0.494   2.427   8.330 -0.3223  0.5129  1.9879
 1667SOL    HW216461   0.571   2.534   8.261  0.2494 -2.1841 -0.1645
 1668SOL     OW16462   0.022   4.153   0.063 -0.4845  0.8352  0.0201
 1668SOL    HW116463   4.711   4.218   0.127  0.2552  1.4828 -0.3018
 1668SOL    HW216464   0.117   4.164   0.067 -0.6217  1.0856  2.5041
 1669SOL     OW16465   1.113   1.717  13.129 -0.3604 -0.1688  0.2967
 1669SOL    HW116466   1.177   1.750  13.192 -0.4075  0.1581  0.1733
 1669SOL    HW216467   1.038   1.761  13.169 -1.6025 -2.4601  0.4908
 1670SOL     OW16468   3.491   3.101  16.458 -0.0699  0.2297 -0.6509
 1670SOL    HW116469   3.426   3.075  16.523  1.1865  0.7218  0.8152
 1670SOL    HW216470   3.469   3.194  16.453 -1.2462  0.0457  1.1280
 1671SOL     OW16471   1.227   0.680   6.454 -0.1354 -0.3818 -0.0079
 1671SOL    HW116472   1.239   0.587   6.438  3.4290 -0.1983  1.5466
 1671SOL    HW216473   1.143   0.694   6.410 -0.2734  2.5480  1.1638
 1672SOL     OW16474   0.675   2.504   5.469 -0.7719 -0.5121 -0.5741
 1672SOL    HW116475   0.698   2.590   5.436  0.2537  0.0192  1.5310
 1672SOL    HW216476   0.756   2.456   5.448  1.4089  2.0529  1.9630
 1673SOL     OW16477   3.564   2.368  14.949 -0.6947  0.7744  0.0144
 1673SOL    HW116478   3.636   2.422  14.918 -1.6853  1.5729 -0.8982
 1673SOL    HW216479   3.601   2.280  14.937 -0.9610  0.2912  2.8051
 1674SOL     OW16480   0.612   1.590  13.172 -0.2877 -0.6151 -0.5923
 1674SOL    HW116481   0.581   1.629  13.091  0.3196  0.0764 -0.4900
 1674SOL    HW216482   0.616   1.495  13.161  0.3383 -0.5523 -0.9201
 1675SOL     OW16483   3.515   4.120   3.619  0.3730  0.1974  0.4531
 1675SOL    HW116484   3.423   4.111   3.642  0.5733 -1.0401  0.7325
 1675SOL    HW216485   3.546   4.169   3.696  0.5021  1.3750 -0.3439
 1676SOL     OW16486   4.576   0.113   7.867 -0.0489 -0.6337  0.2100
 1676SOL    HW116487   4.569   0.208   7.861  0.7423 -0.4726  1.7778
 1676SOL    HW216488   4.537   0.087   7.784  0.5718  0.2051 -0.3497
 1677SOL     OW16489   3.187   0.115  13.022  0.3124  0.3099  0.1302
 1677SOL    HW116490   3.254   0.047  13.023  1.4359  1.4576  2.6182
 1677SOL    HW216491   3.157   0.108  13.113 -3.5118  0.2922 -1.1281
 1678SOL     OW16492   3.949   2.086  11.057  0.1357  0.2238 -0.2071
 1678SOL    HW116493   4.005   2.160  11.036  0.7907 -0.0989  0.3824
 1678SOL    HW216494   3.919   2.121  11.141  0.4769 -0.2931  0.1332
 1679SOL     OW16495   1.262   3.916   9.369  0.0494  0.2914  0.2673
 1679SOL    HW116496   1.306   3.999   9.388  1.7356 -0.0645 -2.1126
 1679SOL    HW216497   1.341   3.874   9.338 -0.9625 -1.2996 -0.1253
 1680SOL     OW16498   3.133   0.162  11.126 -0.2028 -0.3661 -0.6797
 1680SOL    HW116499   3.183   0.081  11.128  0.4567  0.0762  0.5800
 1680SOL    HW216500   3.119   0.178  11.032  1.9202 -0.0613 -0.9386
 1681SOL     OW16501   4.668   0.927   5.785 -0.4283  0.1975 -0.6522
 1681SOL    HW116502   4.615   0.998   5.750 -0.3746  0.7228  0.3552
 1681SOL    HW216503   4.682   0.860   5.717  1.4272  2.3771 -2.4281
 1682SOL     OW16504   1.471   3.337   4.369 -0.6561  0.0241  0.1108
 1682SOL    HW116505   1.395   3.381   4.407  0.5149  0.1678  2.2800
 1682SOL    HW216506   1.542   3.391   4.403 -0.0736  1.0720 -2.7909
 1683SOL     OW16507   0.065   1.164   5.079 -0.0419 -0.2324  0.2737
 1683SOL    HW116508   0.090   1.249   5.041 -1.4950  0.0911  0.0242
 1683SOL    HW216509   0.012   1.124   5.011  0.5722  1.7285 -1.3700
 1684SOL     OW16510   4.296   2.102   7.473  0.2592 -0.5429 -0.1034
 1684SOL    HW116511   4.390   2.084   7.469  0.4155  0.6412 -1.7338
 1684SOL    HW216512   4.274   2.016   7.510  0.7378 -0.6521 -0.0733
 1685SOL     OW16513   0.502   0.704  13.162 -0.0364  0.0240  0.1762
 1685SOL    HW116514   0.462   0.621  13.137 -0.2285 -0.1296  1.0098
 1685SOL    HW216515   0.561   0.724  13.089 -0.0324  1.3274  0.5423
 1686SOL     OW16516   0.320   0.669  10.467  0.1994  0.8789 -0.0881
 1686SOL    HW116517   0.309   0.657  10.562 -2.2062  0.2063 -0.4687
 1686SOL    HW216518   0.229   0.690  10.450 -0.3027 -0.1427  1.2627
 1687SOL     OW16519   1.995   4.129   1.192 -0.1566  0.3729  0.7914
 1687SOL    HW116520   1.905   4.099   1.179 -0.2914  0.7937  0.7254
 1687SOL    HW216521   2.021   4.158   1.105 -0.0288  0.1451  0.7548
 1688SOL     OW16522   2.293   1.854   8.101 -0.0774  0.0842 -0.4870
 1688SOL    HW116523   2.299   1.932   8.046 -0.5076  0.3351 -0.1746
 1688SOL    HW216524   2.340   1.884   8.178 -0.6661  0.6856 -0.3695
 1689SOL     OW16525   2.894   0.958   7.631 -0.1942 -0.6109 -0.4288
 1689SOL    HW116526   2.818   0.921   7.675  0.4441 -1.2417  0.1422
 1689SOL    HW216527   2.959   0.908   7.680  0.6385  0.6816 -0.2130
 1690SOL     OW16528   0.405   2.431   6.440  0.3408 -0.1222  0.4001
 1690SOL    HW116529   0.436   2.520   6.423  0.0469  0.1466  1.2517
 1690SOL    HW216530   0.331   2.420   6.380  1.7421  1.4316 -1.5985
 1691SOL     OW16531   3.654   3.437   8.911  0.2167  0.3209  0.3478
 1691SOL    HW116532   3.693   3.516   8.874  1.5847 -0.3954  0.2649
 1691SOL    HW216533   3.576   3.439   8.856 -0.7368 -2.4732  1.5650
 1692SOL     OW16534   3.520   4.223  14.116 -0.9786 -0.3216 -0.4828
 1692SOL    HW116535   3.615   4.221  14.128 -1.3332  2.9298  2.9058
 1692SOL    HW216536   3.508   4.301  14.062  1.0082 -1.1230 -2.0815
 1693SOL     OW16537   1.438   1.549   8.276  0.2469 -0.2173  0.1527
 1693SOL    HW116538   1.386   1.620   8.313  1.6632 -0.0229  1.8030
 1693SOL    HW216539   1.369   1.496   8.236 -0.4471 -0.9431  2.3231
 1694SOL     OW16540   2.627   4.275   2.175 -0.0204 -0.2173  0.1522
 1694SOL    HW116541   2.675   4.202   2.213  0.5818  0.5838  0.9415
 1694SOL    HW216542   2.545   4.228   2.168 -0.5416  0.6399  0.4272
 1695SOL     OW16543   0.870   4.269   3.462  0.3259  0.0071 -0.0763
 1695SOL    HW116544   0.835   4.205   3.400 -0.8553  0.5306  0.0528
 1695SOL    HW216545   0.899   4.340   3.405  3.3333 -1.9320 -0.9980
 1696SOL     OW16546   2.861   2.890   0.946 -0.0352  0.0600 -0.3751
 1696SOL    HW116547   2.776   2.866   0.912 -0.2680  0.8651 -0.3777
 1696SOL    HW216548   2.857   2.982   0.920  0.6272  0.3036  0.3706
 1697SOL     OW16549   1.702   3.638   0.644  0.4873  0.1168  0.6983
 1697SOL    HW116550   1.788   3.637   0.687  0.2865 -0.2560  1.0796
 1697SOL    HW216551   1.668   3.722   0.674 -0.7344  0.7140 -2.3706
 1698SOL     OW16552   0.528   1.705   7.414  0.0640  0.0291 -0.2457
 1698SOL    HW116553   0.528   1.613   7.440  0.6103 -0.2133 -1.0632
 1698SOL    HW216554   0.567   1.740   7.494  0.5610 -0.1302 -0.4137
 1699SOL     OW16555   0.502   0.193   5.062  0.1228  0.0791 -0.5664
 1699SOL    HW116556   0.417   0.215   5.100  0.6160  0.6660  0.1892
 1699SOL    HW216557   0.522   0.271   5.009  3.4043  1.0273  2.0258
 1700SOL     OW16558   3.358   1.939   5.215  0.0709  0.2098 -0.0160
 1700SOL    HW116559   3.317   1.993   5.148 -0.2980  1.1034  0.9388
 1700SOL    HW216560   3.451   1.963   5.211  0.2186 -0.3999 -0.2610
 1701SOL     OW16561   2.502   4.527  15.243  0.3249 -0.6500 -0.1335
 1701SOL    HW116562   2.527   4.545  15.333 -1.4678 -1.2702  0.4857
 1701SOL    HW216563   2.567   4.458  15.230  1.8332  0.8673 -0.6388
 1702SOL     OW16564   0.930   2.683  12.573  0.7735  0.2084  0.1113
 1702SOL    HW116565   0.888   2.767  12.588  1.7123  0.6317  0.3301
 1702SOL    HW216566   0.969   2.663  12.659 -1.5923 -0.6316  0.9948
 1703SOL     OW16567   1.404   0.239   3.888 -0.1512 -0.0860 -0.1534
 1703SOL    HW116568   1.398   0.151   3.852  0.6764 -0.1730 -0.0891
 1703SOL    HW216569   1.340   0.236   3.959  0.3456 -2.0192  0.1979
 1704SOL     OW16570   2.716   4.056  12.430  0.1799 -0.0484 -0.4785
 1704SOL    HW116571   2.718   4.145  12.464 -0.7793 -0.6434  1.1005
 1704SOL    HW216572   2.751   4.072  12.342  1.7758 -1.1774 -0.0357
 1705SOL     OW16573   0.346   1.334  17.048 -0.1710  0.7265 -0.0996
 1705SOL    HW116574   0.368   1.357  17.138 -1.8422 -0.7107  0.6888
 1705SOL    HW216575   0.409   1.389  17.002  0.6018  0.6033  0.8286
 1706SOL     OW16576   2.856   1.464   6.443  0.5184 -0.7944 -0.1263
 1706SOL    HW116577   2.823   1.464   6.353 -0.3610  0.1140  0.1958
 1706SOL    HW216578   2.910   1.385   6.442  1.2461 -0.2482 -3.2288
 1707SOL     OW16579   4.468   2.169   1.846 -0.0808 -0.3321 -0.2933
 1707SOL    HW116580   4.404   2.098   1.850 -0.3887  0.0191  0.9963
 1707SOL    HW216581   4.554   2.126   1.849 -0.1773 -0.4436  0.7365
 1708SOL     OW16582   1.513   1.944   1.748 -0.4807  0.1206  0.0825
 1708SOL    HW116583   1.527   1.852   1.724  1.6774  0.3675  0.3962
 1708SOL    HW216584   1.418   1.935   1.745 -0.3570 -0.6712 -1.6172
 1709SOL     OW16585   4.160   4.551  13.065 -0.5498  0.3106  0.0525
 1709SOL    HW116586   4.194   4.604  13.137  0.3568 -0.5891  0.2810
 1709SOL    HW216587   4.196   4.464  13.076 -0.2520  0.2910 -1.0521
 1710SOL     OW16588   1.651   4.293  10.632 -0.0516  0.0217  0.5187
 1710SOL    HW116589   1.664   4.278  10.538  1.1291 -0.6257  0.7787
 1710SOL    HW216590   1.556   4.292  10.630 -0.0774  0.0548  1.8651
 1711SOL     OW16591   3.930   2.992   7.300 -0.8165 -0.0198 -0.2161
 1711SOL    HW116592   3.906   2.907   7.263 -0.0886 -0.2180 -0.2304
 1711SOL    HW216593   3.902   3.052   7.231  2.5598  3.4167  1.4160
 1712SOL     OW16594   0.828   3.438  11.262  0.0682  0.0570  0.2210
 1712SOL    HW116595   0.819   3.396  11.347  0.9086  2.2453  1.3971
 1712SOL    HW216596   0.800   3.527  11.285 -0.0306  0.7009 -2.3546
 1713SOL     OW16597   3.808   3.600   0.077  0.2120 -0.0025  0.1098
 1713SOL    HW116598   3.851   3.686   0.076 -1.3057  0.7351 -0.8714
 1713SOL    HW216599   3.730   3.635   0.034  1.8502  2.3815 -1.0063
 1714SOL     OW16600   1.893   0.331  12.451  0.4441  0.1653 -0.4944
 1714SOL    HW116601   1.937   0.390  12.512  1.8790  0.1922 -1.5441
 1714SOL    HW216602   1.834   0.398  12.416 -0.1779 -1.2231 -2.1216
 1715SOL     OW16603   0.433   0.507   8.868  0.0924 -0.1637  0.3059
 1715SOL    HW116604   0.495   0.485   8.798  0.7395  1.5088  0.3618
 1715SOL    HW216605   0.372   0.433   8.876  1.2827 -1.1205  0.5874
 1716SOL     OW16606   0.668   1.950   3.192 -0.0814  0.6621 -0.0689
 1716SOL    HW116607   0.763   1.959   3.202 -0.3437  2.0910  1.1684
 1716SOL    HW216608   0.661   1.928   3.099  1.0989  1.0080 -0.2343
 1717SOL     OW16609   4.367   3.808   2.906 -0.1652 -0.3522 -0.0337
 1717SOL    HW116610   4.427   3.867   2.862 -0.8813 -0.8399 -1.6746
 1717SOL    HW216611   4.372   3.841   2.996  0.2229  0.5356 -0.3869
 1718SOL     OW16612   3.559   3.661   6.608  0.1186 -0.1638 -0.4546
 1718SOL    HW116613   3.621   3.613   6.554  2.8436 -0.0397  2.5299
 1718SOL    HW216614   3.532   3.734   6.553  1.2393 -0.3644 -1.2732
 1719SOL     OW16615   1.503   4.025  11.587  0.2572 -0.2309  0.2293
 1719SOL    HW116616   1.504   3.937  11.624 -0.7878  0.1428  1.1767
 1719SOL    HW216617   1.493   4.081  11.665 -2.8936 -1.8063  0.9798
 1720SOL     OW16618   2.281   3.836   2.405  0.2900 -0.4210 -0.0156
 1720SOL    HW116619   2.305   3.754   2.362  1.3574  1.2344 -2.5448
 1720SOL    HW216620   2.209   3.805   2.461  1.7389  1.1857  2.7582
 1721SOL     OW16621   4.556   3.920   9.930 -0.5672 -0.0043  0.2695
 1721SOL    HW116622   4.553   4.013   9.954  0.2263  0.3538 -0.9876
 1721SOL    HW216623   4.588   3.876  10.009  0.0276  1.9329  1.1206
 1722SOL     OW16624   3.266   2.085   2.268 -0.1164  0.3911 -0.3581
 1722SOL    HW116625   3.304   2.109   2.353 -1.6643 -2.0459  1.0306
 1722SOL    HW216626   3.280   1.990   2.266 -0.6112  0.3001  0.7681
 1723SOL     OW16627   3.018   0.830   4.218  0.0324 -0.1996  0.0615
 1723SOL    HW116628   2.963   0.904   4.192  2.0631  0.9582 -0.9621
 1723SOL    HW216629   3.068   0.807   4.139  0.1500  0.2432  0.0060
 1724SOL     OW16630   3.731   2.114   4.677  0.4512  0.1577 -0.3523
 1724SOL    HW116631   3.733   2.024   4.711 -0.1902  0.0659 -0.5638
 1724SOL    HW216632   3.652   2.154   4.711  1.9806  1.0414  2.1240
 1725SOL     OW16633   4.586   2.559  14.287  0.2698  0.2070  0.2797
 1725SOL    HW116634   4.589   2.619  14.213  1.5599 -0.2955 -0.0870
 1725SOL    HW216635   4.648   2.495  14.251 -0.5537 -0.4491  0.0326
 1726SOL     OW16636   4.513   4.669   8.098  0.0064 -0.0715 -0.2462
 1726SOL    HW116637   4.545   4.704   8.015 -4.0693 -1.6443 -2.4627
 1726SOL    HW216638   4.480   4.584   8.070 -2.0150  0.4607  0.5472
 1727SOL     OW16639   2.699   0.062   6.699 -0.0885  0.5028  0.6105
 1727SOL    HW116640   2.676   0.121   6.771 -2.9794  2.1498 -1.6552
 1727SOL    HW216641   2.612   0.060   6.659  1.3562  2.4594 -2.6009
 1728SOL     OW16642   4.062   0.336   7.245 -0.2908  0.0958  0.1926
 1728SOL    HW116643   4.122   0.313   7.175 -0.3963  1.0243 -0.2145
 1728SOL    HW216644   4.039   0.426   7.220  1.2973  0.3242 -0.3943
 1729SOL     OW16645   0.032   1.523  15.960  0.0594 -0.7056  0.2902
 1729SOL    HW116646   0.108   1.514  16.018  1.0526  0.9363 -0.7800
 1729SOL    HW216647   0.018   1.435  15.926 -2.2477 -0.7283  1.2939
 1730SOL     OW16648   1.177   0.617   4.253  0.0767  0.2615 -0.1838
 1730SOL    HW116649   1.098   0.651   4.295 -1.0421 -0.8369 -1.3663
 1730SOL    HW216650   1.223   0.699   4.232 -2.6044  2.2839  1.8875
 1731SOL     OW16651   0.647   1.754  10.708 -0.1435  0.0271  0.1578
 1731SOL    HW116652   0.724   1.809  10.694 -1.5486  2.8627  3.4878
 1731SOL    HW216653   0.679   1.695  10.777  2.9451  0.1986 -1.1054
 1732SOL     OW16654   3.590   0.923  16.027 -0.1844 -0.3582  0.3342
 1732SOL    HW116655   3.650   0.952  15.957  0.8345  0.5385  1.5799
 1732SOL    HW216656   3.533   0.998  16.044  2.6957  1.4547  2.1967
 1733SOL     OW16657   2.925   0.308  13.712 -0.0088  0.0239 -0.5968
 1733SOL    HW116658   2.951   0.395  13.682  3.4044 -1.9887 -3.4568
 1733SOL    HW216659   2.870   0.338  13.784  0.7793  0.1755 -0.0521
 1734SOL     OW16660   4.453   2.622   8.248  0.1650 -0.0821 -0.0746
 1734SOL    HW116661   4.384   2.677   8.286  0.3876 -0.1434  0.4193
 1734SOL    HW216662   4.527   2.639   8.306  2.2943 -1.8792 -2.2819
 1735SOL     OW16663   2.966   1.237   2.669 -0.2253  0.4710  0.0706
 1735SOL    HW116664   2.876   1.209   2.652 -0.5792  2.9718 -2.1934
 1735SOL    HW216665   2.946   1.296   2.742  2.8576  0.9251  0.5173
 1736SOL     OW16666   4.587   2.730   7.289 -0.0301  0.0960  0.0726
 1736SOL    HW116667   4.665   2.694   7.329 -0.8813  0.4044  2.0174
 1736SOL    HW216668   4.599   2.818   7.326 -0.7393 -0.2011  0.9826
 1737SOL     OW16669   1.831   0.086   9.890  0.4728 -0.1572  0.4743
 1737SOL    HW116670   1.911   0.134   9.910  1.3523 -1.5297  0.2984
 1737SOL    HW216671   1.779   0.155   9.850 -0.8830 -1.7219 -0.4662
 1738SOL     OW16672   3.635   0.382   2.886  0.6446 -0.2027  0.2481
 1738SOL    HW116673   3.697   0.455   2.891  1.6227 -0.8743 -2.0692
 1738SOL    HW216674   3.549   0.418   2.863 -0.1983  0.3750  4.3371
 1739SOL     OW16675   2.835   3.464  14.658  0.0220  0.1099 -0.4377
 1739SOL    HW116676   2.876   3.383  14.626 -0.8821 -0.5148 -0.0351
 1739SOL    HW216677   2.844   3.448  14.752 -0.7504 -1.0572 -0.5654
 1740SOL     OW16678   3.330   2.647   4.453 -0.0073 -0.8778  0.3395
 1740SOL    HW116679   3.362   2.649   4.363  1.2123  2.1310  0.8213
 1740SOL    HW216680   3.415   2.653   4.497 -0.6912 -0.7862  1.6664
 1741SOL     OW16681   0.436   3.272   5.328  0.2023  0.0347 -0.0062
 1741SOL    HW116682   0.379   3.206   5.289  2.8830 -1.3587 -1.5613
 1741SOL    HW216683   0.408   3.346   5.275  4.0285  1.2598 -0.3267
 1742SOL     OW16684   2.413   3.930  13.213  0.5798  0.1920 -0.0096
 1742SOL    HW116685   2.461   3.972  13.142 -1.1116 -0.5770 -1.6102
 1742SOL    HW216686   2.359   4.007  13.229  1.7321  0.8984  0.3938
 1743SOL     OW16687   0.350   3.826   5.610 -0.5561 -0.4434  0.0350
 1743SOL    HW116688   0.401   3.863   5.538  2.0251 -1.2259  1.4507
 1743SOL    HW216689   0.323   3.752   5.558  1.3612 -0.9615 -0.2462
 1744SOL     OW16690   0.606   3.935   2.610  0.4088  0.3862  0.2870
 1744SOL    HW116691   0.511   3.932   2.618  0.4281 -0.2235  0.3115
 1744SOL    HW216692   0.634   3.873   2.677 -1.2970  0.3762  0.9816
 1745SOL     OW16693   3.967   1.749   3.562  0.5591  0.1042  0.5524
 1745SOL    HW116694   4.015   1.717   3.485 -0.1183 -0.0865  0.2125
 1745SOL    HW216695   4.039   1.787   3.613  0.8569  1.3412 -0.7825
 1746SOL     OW16696   3.972   3.048   6.807 -0.0458  0.1911  0.1643
 1746SOL    HW116697   3.879   3.058   6.786 -0.6457 -1.9071  1.7506
 1746SOL    HW216698   3.995   2.970   6.757 -0.6319  0.2083 -0.1382
 1747SOL     OW16699   2.552   0.595   8.266 -0.1867  0.8519  0.0693
 1747SOL    HW116700   2.487   0.645   8.315 -0.3512 -2.2586  3.0288
 1747SOL    HW216701   2.551   0.641   8.182 -1.6033  0.7404  0.0293
 1748SOL     OW16702   4.032   0.162   6.118  0.7743 -0.1812 -0.1557
 1748SOL    HW116703   3.940   0.170   6.143  0.2025  0.2066 -2.3516
 1748SOL    HW216704   4.066   0.100   6.183 -1.3336  0.5314  1.6073
 1749SOL     OW16705   0.234   1.531   5.319 -0.0123  0.0628  0.4243
 1749SOL    HW116706   0.198   1.615   5.349 -0.2391 -0.3048  1.1855
 1749SOL    HW216707   0.319   1.531   5.363 -0.1136  1.1878  0.6319
 1750SOL     OW16708   1.534   1.983   4.834  0.5686  0.3645  0.3165
 1750SOL    HW116709   1.499   2.067   4.864 -2.7392 -0.4531 -1.2937
 1750SOL    HW216710   1.470   1.957   4.768  0.3465  1.0821  0.2437
 1751SOL     OW16711   0.242   3.401  16.004 -0.3105 -0.2669 -0.1608
 1751SOL    HW116712   0.185   3.422  15.930 -0.7340  0.5660  0.3957
 1751SOL    HW216713   0.172   3.406  16.070 -0.3483  3.2029 -0.4335
 1752SOL     OW16714   1.176   2.824   4.456  0.4069  0.3533  0.0616
 1752SOL    HW116715   1.252   2.862   4.499 -0.3572  0.2077  1.5231
 1752SOL    HW216716   1.120   2.901   4.443 -1.4161 -0.6591  1.9338
 1753SOL     OW16717   3.823   0.386   6.214  0.0570 -0.2674 -0.2190
 1753SOL    HW116718   3.759   0.326   6.176  1.5973 -2.2124  0.2542
 1753SOL    HW216719   3.834   0.454   6.148  1.3995 -0.2415  0.0314
 1754SOL     OW16720   3.453   3.206   8.908  0.2005 -0.0618  0.2933
 1754SOL    HW116721   3.517   3.201   8.837 -0.4092 -0.5172 -0.2153
 1754SOL    HW216722   3.389   3.264   8.867 -0.6682 -1.7055 -0.6696
 1755SOL     OW16723   3.961   0.182   2.340  0.3486  0.0678  0.0619
 1755SOL    HW116724   3.967   0.235   2.261  2.8279  1.3286  1.0926
 1755SOL    HW216725   3.992   0.099   2.305  1.1277 -0.4956  2.0921
 1756SOL     OW16726   2.566   3.457   4.763  0.0341  0.3092 -0.0679
 1756SOL    HW116727   2.656   3.436   4.740  0.1725  0.8607 -0.0487
 1756SOL    HW216728   2.551   3.421   4.850 -3.3570  1.3891 -0.1998
 1757SOL     OW16729   0.608   3.240   1.843  0.3644 -0.5044  0.8734
 1757SOL    HW116730   0.573   3.228   1.931  0.7524  1.4927  1.3097
 1757SOL    HW216731   0.677   3.176   1.857 -0.4100 -1.5385 -0.0193
 1758SOL     OW16732   1.497   2.918   9.772  0.0992  0.4367  0.0761
 1758SOL    HW116733   1.575   2.924   9.827  0.3867 -2.1195 -0.0374
 1758SOL    HW216734   1.429   2.944   9.834 -1.5585 -0.2353 -1.4410
 1759SOL     OW16735   0.305   3.719  12.522 -0.1792  0.0602 -0.1860
 1759SOL    HW116736   0.306   3.669  12.441 -3.4718 -0.1939 -0.0868
 1759SOL    HW216737   0.210   3.719  12.539 -0.6921 -3.0011 -3.0402
 1760SOL     OW16738   3.151   3.498   7.062 -0.0517  0.5092  0.5464
 1760SOL    HW116739   3.077   3.449   7.027  1.3785 -1.7470  0.6422
 1760SOL    HW216740   3.159   3.571   7.002 -2.6508  1.1590  0.9898
 1761SOL     OW16741   2.164   2.326   6.671  0.2239  0.8236 -0.2333
 1761SOL    HW116742   2.094   2.391   6.671  1.3188  2.0042  2.0985
 1761SOL    HW216743   2.240   2.381   6.650  1.3603 -1.2266 -1.5121
 1762SOL     OW16744   4.303   1.908  16.494  0.1786 -0.2038 -0.0226
 1762SOL    HW116745   4.239   1.870  16.434  0.6913  0.1774 -0.8001
 1762SOL    HW216746   4.293   1.850  16.571 -0.1894  1.0662  0.8815
 1763SOL     OW16747   2.139   2.037   3.170  0.3938  0.2443  0.5484
 1763SOL    HW116748   2.177   1.950   3.160  0.5079  0.2344  1.0759
 1763SOL    HW216749   2.123   2.054   3.077  0.3717 -2.2257  0.0843
 1764SOL     OW16750   4.434   1.327   3.748  1.1047 -0.4782  1.0827
 1764SOL    HW116751   4.440   1.413   3.790  0.1909  0.6221 -1.0839
 1764SOL    HW216752   4.391   1.274   3.815 -0.6045  1.7350  1.7303
 1765SOL     OW16753   3.830   0.209  13.666 -0.4169 -0.2403  0.4433
 1765SOL    HW116754   3.921   0.186  13.650 -0.6230  0.7384 -2.1194
 1765SOL    HW216755   3.783   0.127  13.678 -1.3345  0.1751 -0.3676
 1766SOL     OW16756   3.360   2.802   7.415  0.1521  0.9811  0.0132
 1766SOL    HW116757   3.398   2.714   7.419 -2.5008 -0.0750  1.5875
 1766SOL    HW216758   3.318   2.796   7.329  1.6386  1.2854 -0.7511
 1767SOL     OW16759   0.235   3.453   8.094 -0.3434 -0.7994 -0.2208
 1767SOL    HW116760   0.174   3.389   8.130 -2.7234  1.9042  0.4185
 1767SOL    HW216761   0.320   3.408   8.094 -0.2966 -0.7032  0.9139
 1768SOL     OW16762   4.327   1.190   3.954  0.6060  0.5261  0.0847
 1768SOL    HW116763   4.367   1.122   4.008 -0.9172  0.1195  0.7114
 1768SOL    HW216764   4.235   1.178   3.977  0.9331  0.2875  1.2741
 1769SOL     OW16765   2.272   3.306   3.923  0.0107 -0.6384 -0.0529
 1769SOL    HW116766   2.227   3.246   3.983 -0.7008 -0.8479 -0.7980
 1769SOL    HW216767   2.231   3.288   3.838  1.0643 -1.4038 -0.4060
 1770SOL     OW16768   0.400   0.455   1.760 -0.2014 -0.4169 -0.8979
 1770SOL    HW116769   0.471   0.408   1.804 -2.1679 -2.0170  0.5832
 1770SOL    HW216770   0.332   0.389   1.774 -1.3125  1.0416  0.6033
 1771SOL     OW16771   4.048   0.001   4.294 -0.3362 -0.3287 -0.0879
 1771SOL    HW116772   4.020   0.084   4.334 -0.5054 -1.8630  2.9707
 1771SOL    HW216773   4.045   4.657   4.366 -0.9584  1.7743  1.7428
 1772SOL     OW16774   3.807   2.387   9.934  0.2448  0.1299 -0.2367
 1772SOL    HW116775   3.752   2.389  10.011  1.2125  0.2569  0.4537
 1772SOL    HW216776   3.892   2.421   9.964  1.4318 -4.6327  1.8923
 1773SOL     OW16777   3.613   0.593   3.565 -0.2885 -0.4882  0.4317
 1773SOL    HW116778   3.554   0.546   3.624 -0.6515 -1.1965 -0.4840
 1773SOL    HW216779   3.579   0.563   3.480 -1.2914 -0.4753  0.8322
 1774SOL     OW16780   2.542   2.594   4.176  0.2460  0.1207 -0.1468
 1774SOL    HW116781   2.505   2.682   4.179 -1.0108 -0.3388 -1.6822
 1774SOL    HW216782   2.602   2.598   4.250  0.2035 -0.2967 -0.0869
 1775SOL     OW16783   3.448   3.607   3.521 -0.2580  0.5247  0.3775
 1775SOL    HW116784   3.378   3.620   3.458  0.4057  0.8012 -0.3053
 1775SOL    HW216785   3.461   3.695   3.558  1.5857  0.9707 -1.3618
 1776SOL     OW16786   2.614   2.100   7.069  0.5601  0.0896  0.0084
 1776SOL    HW116787   2.547   2.072   7.007  0.4416 -0.3344  0.3295
 1776SOL    HW216788   2.681   2.037   7.043 -0.5151 -2.1895  2.6971
 1777SOL     OW16789   1.339   3.971  13.125 -0.1075 -0.3131 -0.7481
 1777SOL    HW116790   1.416   3.953  13.071 -0.1119  0.8029 -1.1339
 1777SOL    HW216791   1.319   3.884  13.161  0.3493 -1.0046 -2.1705
 1778SOL     OW16792   3.652   1.605   3.093 -0.2620  0.1037 -0.3607
 1778SOL    HW116793   3.627   1.687   3.135  1.5733  0.5123 -0.0707
 1778SOL    HW216794   3.745   1.590   3.107 -0.0745  1.1320 -0.5098
 1779SOL     OW16795   0.683   2.961  13.390 -0.0673 -0.4188 -0.0357
 1779SOL    HW116796   0.776   2.961  13.370 -0.2062  0.3098 -0.7104
 1779SOL    HW216797   0.667   3.016  13.467 -0.9446 -0.6104 -0.0731
 1780SOL     OW16798   2.776   0.801   0.576 -0.3231  0.0779  0.6913
 1780SOL    HW116799   2.774   0.739   0.649  0.5019  1.3974  1.8579
 1780SOL    HW216800   2.812   0.746   0.507 -0.4345 -1.1269  1.6019
 1781SOL     OW16801   3.257   3.108   1.314  0.0552 -0.0860  0.1089
 1781SOL    HW116802   3.191   3.178   1.315 -2.0852 -2.1449  2.5790
 1781SOL    HW216803   3.219   3.053   1.246  0.0359 -1.7197  1.4567
 1782SOL     OW16804   2.892   2.052  15.122  0.6607  0.2160 -0.0230
 1782SOL    HW116805   2.842   2.056  15.204  1.6263  0.0445  0.5776
 1782SOL    HW216806   2.984   2.048  15.150  0.0673 -0.9848  1.7798
 1783SOL     OW16807   4.207   1.760  16.277  0.3999 -0.3144  0.1018
 1783SOL    HW116808   4.252   1.799  16.202  0.1578 -0.1730  0.0278
 1783SOL    HW216809   4.150   1.695  16.234  1.5340 -1.2969  0.0778
 1784SOL     OW16810   2.653   2.698  16.888  0.2817 -0.3199  0.6805
 1784SOL    HW116811   2.612   2.628  16.938 -1.1843  0.4927  0.6187
 1784SOL    HW216812   2.713   2.739  16.951 -0.5045  2.0839 -0.1177
 1785SOL     OW16813   0.946   0.234   0.226  0.3372  0.0332 -0.0660
 1785SOL    HW116814   0.855   0.209   0.240  0.1346 -0.9010 -3.0478
 1785SOL    HW216815   0.982   0.225   0.314  0.7740 -0.9083 -0.3377
 1786SOL     OW16816   1.269   4.020   1.566  0.3224  0.1143 -0.0673
 1786SOL    HW116817   1.303   4.053   1.483  0.1889 -3.9162 -1.7381
 1786SOL    HW216818   1.233   4.103   1.598  1.9097  2.1997 -3.7165
 1787SOL     OW16819   1.989   1.707  13.171  0.2880  0.6521  0.9793
 1787SOL    HW116820   1.899   1.691  13.143 -0.0593  0.8976  1.9869
 1787SOL    HW216821   1.982   1.750  13.256  1.0477 -0.2686  1.5118
 1788SOL     OW16822   0.025   0.263  10.393  0.3980  0.2923  0.1986
 1788SOL    HW116823   4.715   0.354  10.395 -1.9406 -0.4008 -2.7430
 1788SOL    HW216824   4.700   0.244  10.310 -1.2581 -0.4133  1.2245
 1789SOL     OW16825   4.635   3.777  13.658  0.4064 -0.6180  0.0637
 1789SOL    HW116826   4.662   3.824  13.737 -0.5064  1.1726 -0.7067
 1789SOL    HW216827   4.541   3.773  13.676  0.1030 -0.0565 -1.3678
 1790SOL     OW16828   0.027   4.105  14.118  0.1910  0.1285  0.2345
 1790SOL    HW116829   4.708   4.154  14.191 -0.3640  0.1457 -0.0706
 1790SOL    HW216830   0.119   4.123  14.136  0.0463 -1.4407  2.5779
 1791SOL     OW16831   1.660   3.584   2.004 -0.4606 -0.1668 -0.5876
 1791SOL    HW116832   1.711   3.628   1.937  1.8790  0.5384  1.6437
 1791SOL    HW216833   1.734   3.570   2.063  0.8620  1.2726 -1.8994
 1792SOL     OW16834   1.348   0.359   3.563  0.4512  0.3136  0.4975
 1792SOL    HW116835   1.366   0.287   3.503  0.4705 -0.7103  1.7150
 1792SOL    HW216836   1.262   0.328   3.590  0.3338 -0.1107 -0.3696
 1793SOL     OW16837   4.579   4.386   9.454  0.4049  0.2209  0.0743
 1793SOL    HW116838   4.536   4.425   9.530 -1.8064 -0.3798 -0.8525
 1793SOL    HW216839   4.516   4.398   9.383 -1.4321  0.2246  1.6865
 1794SOL     OW16840   1.551   3.577   8.943  0.0146 -0.0080  0.1034
 1794SOL    HW116841   1.499   3.657   8.942 -1.9667 -1.3055  0.3030
 1794SOL    HW216842   1.511   3.519   8.878 -0.0431 -0.0021  0.1339
 1795SOL     OW16843   4.000   4.133   3.867 -0.4710  0.5215  0.4497
 1795SOL    HW116844   3.913   4.098   3.883 -0.1831 -0.7358 -0.7658
 1795SOL    HW216845   4.032   4.077   3.796 -1.6192 -2.0082  1.9255
 1796SOL     OW16846   1.401   3.394   5.080  0.1317  0.1155  0.0465
 1796SOL    HW116847   1.338   3.436   5.139  1.9364  0.2895  1.8429
 1796SOL    HW216848   1.469   3.362   5.139 -0.2324 -0.9153 -0.0898
 1797SOL     OW16849   0.783   1.047   7.017 -0.0284  0.0827  0.8169
 1797SOL    HW116850   0.702   1.058   7.067 -1.0617 -0.3414 -0.7921
 1797SOL    HW216851   0.823   1.132   7.036 -0.9509  1.4885 -3.5585
 1798SOL     OW16852   4.112   1.166  10.303  0.4334  0.2309  0.0951
 1798SOL    HW116853   4.189   1.150  10.358 -1.5461 -0.8272  2.5489
 1798SOL    HW216854   4.151   1.133  10.222  1.0509  0.3363  0.3425
 1799SOL     OW16855   0.163   0.582   5.426  0.6340 -0.2057 -0.4490
 1799SOL    HW116856   0.087   0.570   5.483 -0.4350  0.7102 -1.6953
 1799SOL    HW216857   0.164   0.677   5.419 -5.3333 -0.0784 -0.0755
 1800SOL     OW16858   2.600   3.543  11.062 -0.1559 -0.3124 -0.0806
 1800SOL    HW116859   2.665   3.568  11.128 -1.3580 -1.8631  1.7177
 1800SOL    HW216860   2.641   3.470  11.015  2.0622  1.8578 -1.5256
 1801SOL     OW16861   1.903   2.235   2.072  0.0577  0.0296 -0.4827
 1801SOL    HW116862   1.931   2.312   2.022 -0.5009 -0.4055 -1.4564
 1801SOL    HW216863   1.836   2.276   2.127  0.8329  0.6122  0.0369
 1802SOL     OW16864   1.311   1.810   8.365  0.5211  0.0769 -0.0870
 1802SOL    HW116865   1.257   1.745   8.409  3.0911 -1.8646  0.2380
 1802SOL    HW216866   1.267   1.810   8.281  1.5897 -0.3629 -0.6472
 1803SOL     OW16867   2.792   3.718   5.848 -0.8032  0.1024 -0.5364
 1803SOL    HW116868   2.830   3.806   5.843  0.0724 -0.2707 -0.3133
 1803SOL    HW216869   2.707   3.721   5.803 -0.0996  2.3018 -1.7230
 1804SOL     OW16870   3.381   3.202   9.821 -0.1626  0.4700 -0.6777
 1804SOL    HW116871   3.319   3.205   9.747  0.1809 -0.2635 -0.9944
 1804SOL    HW216872   3.349   3.264   9.886  1.2340  1.5427 -1.0243
 1805SOL     OW16873   4.473   2.337   8.431 -0.3696 -0.1162  0.0866
 1805SOL    HW116874   4.535   2.265   8.422 -0.8614 -0.0839 -3.7930
 1805SOL    HW216875   4.519   2.404   8.481 -1.0079 -0.5273  1.2265
 1806SOL     OW16876   0.591   2.269   5.786 -0.4666 -0.2032  0.2449
 1806SOL    HW116877   0.571   2.250   5.878 -1.2404 -0.5501  0.0156
 1806SOL    HW216878   0.683   2.289   5.771 -1.1017  2.0122 -0.6101
 1807SOL     OW16879   1.319   1.301  13.745  0.6712 -0.1084  0.9952
 1807SOL    HW116880   1.290   1.263  13.828 -1.8030 -0.0564  0.1504
 1807SOL    HW216881   1.412   1.312  13.767  1.2831 -2.3648 -0.4088
 1808SOL     OW16882   2.909   1.660   4.265  0.1228 -0.1032  0.1896
 1808SOL    HW116883   2.861   1.742   4.253 -1.3447 -1.2359 -1.5862
 1808SOL    HW216884   2.860   1.590   4.222  1.3155 -0.3086 -0.8324
 1809SOL     OW16885   4.557   0.019   5.781 -0.3745  0.3024 -0.2784
 1809SOL    HW116886   4.475   0.069   5.786 -2.0384 -2.3160 -0.9153
 1809SOL    HW216887   4.534   4.691   5.701 -2.8402  1.0432 -0.0052
 1810SOL     OW16888   3.562   3.627   9.231  0.1895 -0.0361 -0.0140
 1810SOL    HW116889   3.630   3.678   9.188 -0.8375  0.6597 -0.8010
 1810SOL    HW216890   3.604   3.627   9.317 -2.0837  1.1008  1.0828
 1811SOL     OW16891   2.301   3.560   4.217  0.0443  0.2734  0.0074
 1811SOL    HW116892   2.357   3.638   4.213  0.7970 -0.2282  0.9637
 1811SOL    HW216893   2.212   3.597   4.215 -0.0818 -0.0300  0.1140
 1812SOL     OW16894   0.164   1.758   5.423  0.4822 -0.2671 -0.0863
 1812SOL    HW116895   0.185   1.832   5.481  1.4375 -0.6631  0.0819
 1812SOL    HW216896   0.080   1.747   5.467 -0.3888 -1.9007 -2.2003
 1813SOL     OW16897   0.325   2.002   5.494  0.1720  0.2512 -0.1122
 1813SOL    HW116898   0.351   1.989   5.586  2.5542 -1.3300 -1.0018
 1813SOL    HW216899   0.333   2.096   5.478  1.4635  0.4476  1.5921
 1814SOL     OW16900   3.726   4.548   5.667 -0.1191  0.1871 -0.4737
 1814SOL    HW116901   3.675   4.618   5.708 -0.9591  0.0323 -1.2573
 1814SOL    HW216902   3.791   4.529   5.734 -0.0693  1.4169 -0.1719
 1815SOL     OW16903   3.447   2.338  11.702  0.4774 -0.0777  0.1780
 1815SOL    HW116904   3.446   2.257  11.651 -3.1330  0.2723 -0.3401
 1815SOL    HW216905   3.437   2.307  11.791  1.0196 -1.1921 -0.1586
 1816SOL     OW16906   2.696   3.191   8.594 -0.5517  0.2093  0.5893
 1816SOL    HW116907   2.690   3.098   8.573 -0.1266  0.5637 -1.0963
 1816SOL    HW216908   2.747   3.185   8.675  1.7274  2.9491 -0.6528
 1817SOL     OW16909   3.224   0.512  15.355  0.1386  0.4853 -0.2192
 1817SOL    HW116910   3.278   0.585  15.323  1.1100 -0.0817  0.1340
 1817SOL    HW216911   3.136   0.550  15.357  0.4028  1.1077 -0.5503
 1818SOL     OW16912   1.385   1.652   3.100  0.0559 -0.2226  0.3001
 1818SOL    HW116913   1.473   1.690   3.097 -0.5121  1.1430  0.7934
 1818SOL    HW216914   1.339   1.727   3.137  1.6148  1.6049 -1.5131
 1819SOL     OW16915   3.584   3.821   9.580  0.2812  0.2555  0.8102
 1819SOL    HW116916   3.667   3.780   9.555 -0.6988 -0.6778 -0.9669
 1819SOL    HW216917   3.521   3.760   9.618  0.9563 -1.5837 -1.0020
 1820SOL     OW16918   0.878   2.917  14.990  0.3414  0.7881  0.2063
 1820SOL    HW116919   0.933   2.991  15.013 -0.1232  1.1438  0.1656
 1820SOL    HW216920   0.799   2.943  15.038 -0.8244 -1.6804 -0.3318
 1821SOL     OW16921   0.329   3.590   8.319  0.1510 -0.2201 -0.9799
 1821SOL    HW116922   0.337   3.676   8.278 -2.4392  0.0207 -0.9506
 1821SOL    HW216923   0.287   3.542   8.248  2.2492 -2.9079 -0.4207
 1822SOL     OW16924   1.679   1.189   0.494 -0.3571 -0.2432 -0.0687
 1822SOL    HW116925   1.633   1.129   0.552  1.7330 -1.4996  0.3025
 1822SOL    HW216926   1.759   1.212   0.541  0.2191 -1.1806 -0.5717
 1823SOL     OW16927   0.637   1.102   4.431 -0.5602  0.0003 -0.3106
 1823SOL    HW116928   0.719   1.144   4.404 -0.0482 -0.3519  0.6927
 1823SOL    HW216929   0.669   1.016   4.457  1.3095  0.7983  0.0448
 1824SOL     OW16930   1.637   0.851  11.230 -0.1941 -0.3540 -0.2308
 1824SOL    HW116931   1.713   0.892  11.270 -0.5087  0.9245 -0.9253
 1824SOL    HW216932   1.657   0.850  11.136 -1.2386 -1.6967 -0.4314
 1825SOL     OW16933   1.311   3.757  12.504  0.1962 -0.2345 -0.1686
 1825SOL    HW116934   1.226   3.791  12.475  0.3752  1.4330  1.2768
 1825SOL    HW216935   1.325   3.815  12.579  2.5509  0.9123 -1.4791
 1826SOL     OW16936   1.795   3.876   3.807 -0.0285  0.0075 -0.0969
 1826SOL    HW116937   1.809   3.882   3.712 -0.2869 -0.7163 -0.1860
 1826SOL    HW216938   1.832   3.790   3.827 -0.2941 -0.1016 -0.0758
 1827SOL     OW16939   1.810   1.475   9.177 -0.0787 -0.6316  0.0364
 1827SOL    HW116940   1.772   1.477   9.265 -0.1325  1.1642 -0.0367
 1827SOL    HW216941   1.736   1.435   9.129 -0.2395  0.7841 -0.8885
 1828SOL     OW16942   1.468   1.161   1.832 -0.1355 -0.2964  0.3653
 1828SOL    HW116943   1.449   1.224   1.763 -0.5185  1.7404  2.3464
 1828SOL    HW216944   1.401   1.173   1.899 -0.6899  1.2691 -0.4650
 1829SOL     OW16945   1.986   1.002  10.333 -0.8892  0.5346  0.2286
 1829SOL    HW116946   1.968   1.049  10.414  1.7420 -1.5473  2.0277
 1829SOL    HW216947   1.921   0.931  10.333  0.5911 -0.8027 -0.6006
 1830SOL     OW16948   1.562   2.105  11.529  0.0045 -0.0587 -0.5215
 1830SOL    HW116949   1.625   2.175  11.511  0.2921  0.3276  1.9778
 1830SOL    HW216950   1.494   2.109  11.461 -2.2781 -0.1106  1.7287
 1831SOL     OW16951   2.011   2.057   5.749  0.8594  0.4696  0.0124
 1831SOL    HW116952   1.952   2.069   5.824  0.9893 -0.7422  0.3116
 1831SOL    HW216953   2.051   1.971   5.760  1.2352  0.6636  0.1694
 1832SOL     OW16954   2.168   1.197   4.082 -0.3496  0.5201 -0.1864
 1832SOL    HW116955   2.222   1.172   4.008  0.3035 -0.8136  0.7314
 1832SOL    HW216956   2.121   1.277   4.059 -2.7026 -1.2107 -1.3610
 1833SOL     OW16957   1.993   1.053   4.586  0.1048  0.0944 -0.4254
 1833SOL    HW116958   2.039   1.083   4.508  1.8039 -1.3678  0.0112
 1833SOL    HW216959   1.951   0.974   4.550 -1.8797  0.6411  0.6634
 1834SOL     OW16960   4.004   2.253   5.981  0.4522 -0.1628  0.0987
 1834SOL    HW116961   4.058   2.331   5.996 -1.1052  1.5314 -2.9580
 1834SOL    HW216962   4.052   2.206   5.912  0.7858 -0.7120  0.7156
 1835SOL     OW16963   1.131   1.725  17.250  0.0790  0.1612 -0.1175
 1835SOL    HW116964   1.157   1.792  17.313 -1.1554  0.0011  0.5800
 1835SOL    HW216965   1.092   1.780  17.181 -0.0928  1.3097  0.8907
 1836SOL     OW16966   3.436   3.984   1.822 -0.0033  0.0118 -0.7009
 1836SOL    HW116967   3.471   3.900   1.793 -0.3876  0.8387 -3.6106
 1836SOL    HW216968   3.472   3.975   1.910 -0.1433 -1.6474 -0.8316
 1837SOL     OW16969   2.053   1.648   8.233  0.1267  0.1915 -0.0326
 1837SOL    HW116970   2.093   1.672   8.317 -2.2459  1.5978  0.6843
 1837SOL    HW216971   2.115   1.697   8.178  3.4429 -1.7607  1.9419
 1838SOL     OW16972   4.442   1.667  13.619 -0.2853 -0.1379  0.3809
 1838SOL    HW116973   4.419   1.744  13.568  0.8365 -0.1810 -0.1738
 1838SOL    HW216974   4.537   1.670  13.628 -0.3539  0.6120  0.8955
 1839SOL     OW16975   4.040   3.426  11.338  0.2373  0.0204  0.1945
 1839SOL    HW116976   4.020   3.512  11.301 -1.1528 -0.7632 -0.8907
 1839SOL    HW216977   3.960   3.414  11.389  0.7073  1.8378  1.3401
 1840SOL     OW16978   3.911   3.637   6.124 -0.8005 -0.3329  0.9279
 1840SOL    HW116979   3.997   3.628   6.083 -0.2684  0.1915  1.9297
 1840SOL    HW216980   3.927   3.573   6.193 -1.6367 -1.6537 -0.1080
 1841SOL     OW16981   4.082   2.212   7.374  0.2870  0.7171  0.2364
 1841SOL    HW116982   4.118   2.261   7.301  0.2919 -3.2787 -2.4499
 1841SOL    HW216983   4.155   2.159   7.406  1.4795  1.3207 -1.5259
 1842SOL     OW16984   3.962   4.134   4.812  0.7162 -0.1087 -0.0321
 1842SOL    HW116985   4.035   4.073   4.798  0.3023 -0.9185  1.4370
 1842SOL    HW216986   3.985   4.201   4.747  0.2989  0.2555  0.2050
 1843SOL     OW16987   4.596   1.528   8.231  0.4524  0.0592 -0.0152
 1843SOL    HW116988   4.602   1.454   8.172  0.1085 -0.8723  1.1273
 1843SOL    HW216989   4.508   1.519   8.267  1.2562 -0.1930  1.9134
 1844SOL     OW16990   4.640   4.142   8.373  0.2529 -0.3080 -0.4390
 1844SOL    HW116991   4.717   4.142   8.316 -0.6669  0.7762 -1.6895
 1844SOL    HW216992   4.583   4.186   8.310  0.8635  0.8228 -0.2148
 1845SOL     OW16993   0.752   2.315   6.234  0.4130  0.2915 -0.4332
 1845SOL    HW116994   0.756   2.395   6.182 -1.3387  0.4810 -0.2803
 1845SOL    HW216995   0.771   2.352   6.320  2.7555  1.9037 -1.6315
 1846SOL     OW16996   3.495   1.752   3.628  0.0979 -0.3886  0.5660
 1846SOL    HW116997   3.464   1.841   3.640  0.2007 -0.4905  1.6276
 1846SOL    HW216998   3.587   1.756   3.655 -0.0126 -1.5912  1.1491
 1847SOL     OW16999   1.596   4.678   5.978 -0.0251  0.2106  0.9787
 1847SOL    HW117000   1.654   0.026   5.943 -0.1110  0.7541  1.8592
 1847SOL    HW217001   1.649   4.641   6.049  3.5707  1.3477 -1.1560
 1848SOL     OW17002   0.771   4.500   1.749  0.1484  0.2343  0.1302
 1848SOL    HW117003   0.867   4.505   1.752  0.1414  0.2174  0.3853
 1848SOL    HW217004   0.763   4.501   1.653  1.0221  1.6705  0.0616
 1849SOL     OW17005   0.037   3.139  17.139 -0.3116  0.5374  0.3083
 1849SOL    HW117006   0.022   3.223  17.181  1.3787  2.7492 -3.4522
 1849SOL    HW217007   0.098   3.158  17.067 -0.9179 -0.8445 -0.5698
 1850SOL     OW17008   3.440   1.268  10.989  0.3828  0.6471 -0.2152
 1850SOL    HW117009   3.354   1.309  11.002  0.4088  0.4615  0.5483
 1850SOL    HW217010   3.433   1.228  10.902  0.6475  2.0121 -0.8644
 1851SOL     OW17011   1.847   0.468   5.181  0.2521 -1.1059  0.4089
 1851SOL    HW117012   1.844   0.488   5.274  0.0925 -0.7250  0.3231
 1851SOL    HW217013   1.894   0.546   5.151  2.9325 -3.0365 -0.4755
 1852SOL     OW17014   3.710   1.997  15.763 -0.4302 -0.3188  0.2762
 1852SOL    HW117015   3.737   1.992  15.671 -1.4474 -2.0876  0.0959
 1852SOL    HW217016   3.796   2.014  15.801 -0.5028 -0.1206  0.3500
 1853SOL     OW17017   3.846   1.843   7.375  0.0698 -0.1176  0.0450
 1853SOL    HW117018   3.871   1.894   7.452 -0.5982  2.1180 -1.2049
 1853SOL    HW217019   3.871   1.756   7.405  0.0474 -0.2722 -0.3821
 1854SOL     OW17020   0.650   3.419  15.005 -0.3580  0.2080  0.1304
 1854SOL    HW117021   0.571   3.365  15.012  1.2939 -2.2306  0.0246
 1854SOL    HW217022   0.708   3.379  15.070 -0.2386  0.6795  0.3131
 1855SOL     OW17023   2.368   3.830   5.676  0.5283  0.2562  0.4711
 1855SOL    HW117024   2.305   3.774   5.721  1.2225 -0.8933  0.0196
 1855SOL    HW217025   2.430   3.757   5.678  0.8923  0.5507 -0.2957
 1856SOL     OW17026   0.249   1.532   0.616  0.0283  0.2773  0.2301
 1856SOL    HW117027   0.228   1.605   0.558 -1.3616 -0.9230 -0.7693
 1856SOL    HW217028   0.271   1.579   0.697 -1.5952  0.6835  0.4439
 1857SOL     OW17029   2.771   2.694   1.628  0.4086 -0.7182 -0.0720
 1857SOL    HW117030   2.837   2.640   1.584 -0.8072 -1.2820 -1.2012
 1857SOL    HW217031   2.698   2.635   1.644  0.5150 -1.0750 -0.8913
 1858SOL     OW17032   4.142   3.994   5.739  1.0438 -0.2724  0.0227
 1858SOL    HW117033   4.099   3.928   5.684 -0.7625  1.6334 -0.8686
 1858SOL    HW217034   4.135   4.070   5.681 -0.2471  0.0202  0.5621
 1859SOL     OW17035   1.880   2.687   1.583 -0.5992 -0.1481 -0.0311
 1859SOL    HW117036   1.828   2.730   1.515 -1.0976  2.4588  1.9711
 1859SOL    HW217037   1.960   2.666   1.536  0.8179  0.4328  2.0896
 1860SOL     OW17038   1.834   3.178   7.993 -0.2780  0.2163  0.3248
 1860SOL    HW117039   1.927   3.158   8.002  0.2162  0.7150 -3.6647
 1860SOL    HW217040   1.844   3.272   7.977 -0.5264  0.4455  1.5795
 1861SOL     OW17041   2.840   3.215  13.830 -0.1949 -0.5774 -0.9762
 1861SOL    HW117042   2.827   3.131  13.874 -0.6487 -0.4238 -0.8168
 1861SOL    HW217043   2.777   3.268  13.880 -2.8560 -3.3393 -1.4501
 1862SOL     OW17044   3.924   4.433   5.096 -0.1758  0.3706  0.4767
 1862SOL    HW117045   3.958   4.346   5.076 -3.4751 -0.5467 -1.1576
 1862SOL    HW217046   3.848   4.415   5.152 -0.7479 -0.6112 -0.6151
 1863SOL     OW17047   2.618   1.318   7.358 -0.0745  0.4105  0.0770
 1863SOL    HW117048   2.678   1.392   7.370 -1.4000  1.5907 -0.5411
 1863SOL    HW217049   2.665   1.243   7.394  0.7714  0.8370 -0.1481
 1864SOL     OW17050   1.871   3.195   9.002 -0.3850 -0.2651  0.4064
 1864SOL    HW117051   1.954   3.207   9.048 -0.0286  0.7972 -0.5045
 1864SOL    HW217052   1.897   3.200   8.910 -1.0196 -1.0154  0.1829
 1865SOL     OW17053   3.210   1.895   6.374  0.3004  0.3035 -0.1482
 1865SOL    HW117054   3.240   1.968   6.427 -0.9073  0.5990  0.1405
 1865SOL    HW217055   3.187   1.945   6.296  2.3678  1.0131 -0.2780
 1866SOL     OW17056   0.892   0.718   6.612  0.5949 -0.3060  0.0524
 1866SOL    HW117057   0.846   0.795   6.644 -1.9149 -0.7586 -2.4718
 1866SOL    HW217058   0.906   0.670   6.694 -0.3433 -1.5987 -0.5325
 1867SOL     OW17059   1.677   4.246  14.015 -0.3924 -0.1778  0.8086
 1867SOL    HW117060   1.587   4.231  14.044 -0.2963 -0.1868  1.1006
 1867SOL    HW217061   1.723   4.286  14.088  2.5828 -2.6751  0.2997
 1868SOL     OW17062   2.499   3.280   2.227 -0.8523  0.2585 -0.0879
 1868SOL    HW117063   2.427   3.237   2.181 -1.2548  3.3908 -2.4550
 1868SOL    HW217064   2.561   3.208   2.223  0.1562  1.2750 -3.0514
 1869SOL     OW17065   0.896   2.305  14.866  0.0030 -0.1378  0.3161
 1869SOL    HW117066   0.959   2.376  14.855 -1.3853  0.7898 -1.6464
 1869SOL    HW217067   0.898   2.269  14.778 -1.9215 -0.5652  0.4447
 1870SOL     OW17068   4.064   0.476   0.654 -0.0261  0.2184 -0.2497
 1870SOL    HW117069   4.153   0.441   0.652  0.8018  2.2241  2.5400
 1870SOL    HW217070   4.014   0.398   0.630  1.3770 -0.7516 -0.0126
 1871SOL     OW17071   0.383   1.708   5.992  0.6604  0.1738  0.4421
 1871SOL    HW117072   0.353   1.658   5.916 -0.7644  0.9469  0.5069
 1871SOL    HW217073   0.394   1.644   6.063  0.5934 -1.3717 -0.9403
 1872SOL     OW17074   1.711   2.034   8.745 -0.4939  0.3948 -0.1068
 1872SOL    HW117075   1.750   2.102   8.800 -0.1934  1.4583 -1.6246
 1872SOL    HW217076   1.632   2.075   8.710 -0.5957  0.7714  0.5663
 1873SOL     OW17077   2.232   1.358   3.166 -0.3861 -0.5258  0.0113
 1873SOL    HW117078   2.146   1.323   3.189 -0.6247  0.9755  1.4101
 1873SOL    HW217079   2.206   1.448   3.151 -0.6838 -0.4323  1.0592
 1874SOL     OW17080   0.832   2.440  10.890  0.0509 -0.2096  0.1987
 1874SOL    HW117081   0.879   2.523  10.887 -2.4477  1.2125  0.0885
 1874SOL    HW217082   0.752   2.475  10.931  0.8813  1.8448  0.0543
 1875SOL     OW17083   1.636   4.598  14.451  0.1347 -0.4173 -0.3744
 1875SOL    HW117084   1.690   4.629  14.524  0.0047  0.9396 -0.8579
 1875SOL    HW217085   1.553   4.620  14.493  0.9475  2.8573 -0.4860
 1876SOL     OW17086   2.230   3.052   6.514  0.5475 -0.1446  0.1302
 1876SOL    HW117087   2.199   3.049   6.604  2.5291  0.3849  0.8259
 1876SOL    HW217088   2.187   2.976   6.473 -0.4694  1.5212 -1.8598
 1877SOL     OW17089   1.089   3.339   6.714  0.3204 -0.6497 -0.1026
 1877SOL    HW117090   1.147   3.299   6.650 -1.3957 -1.3072 -1.2618
 1877SOL    HW217091   1.121   3.287   6.788 -0.1200 -1.0509 -0.1934
 1878SOL     OW17092   3.248   2.755   7.160  0.2832  0.4012 -0.3897
 1878SOL    HW117093   3.252   2.846   7.130  0.4468  0.7733  0.7870
 1878SOL    HW217094   3.334   2.726   7.130 -0.2829 -0.9676 -0.7061
 1879SOL     OW17095   3.607   1.399   6.048  0.0230  0.3960 -0.0377
 1879SOL    HW117096   3.682   1.434   6.001 -0.6102 -0.6662 -1.8537
 1879SOL    HW217097   3.536   1.457   6.020 -0.4357  0.3142  0.9405
 1880SOL     OW17098   0.493   3.763   6.322  0.7624 -0.0673 -0.0187
 1880SOL    HW117099   0.487   3.797   6.233 -0.6387  1.2845  0.5999
 1880SOL    HW217100   0.537   3.838   6.361  0.7112 -1.0999  2.0190
 1881SOL     OW17101   3.751   2.377   5.599  0.0239 -0.4626  0.1917
 1881SOL    HW117102   3.672   2.374   5.653 -0.8938 -1.1850 -1.1784
 1881SOL    HW217103   3.817   2.413   5.658 -2.1617  0.2394  2.2047
 1882SOL     OW17104   4.551   0.456  16.987  0.2926  0.0060  0.7652
 1882SOL    HW117105   4.456   0.466  16.990  0.0413 -1.9043 -0.9718
 1882SOL    HW217106   4.564   0.423  17.076 -1.2220 -0.3924  0.8248
 1883SOL     OW17107   2.733   1.866   4.194  0.0563  0.6240 -0.3349
 1883SOL    HW117108   2.653   1.875   4.143  0.5843 -0.2068 -1.3071
 1883SOL    HW217109   2.704   1.877   4.284  2.0977  2.0969  0.1425
 1884SOL     OW17110   3.287   2.876  12.093 -0.8110 -0.5031  0.1010
 1884SOL    HW117111   3.349   2.829  12.039 -1.6672 -0.5131 -0.8810
 1884SOL    HW217112   3.320   2.966  12.092 -0.8369 -0.5090 -1.2450
 1885SOL     OW17113   3.031   2.867   3.869  0.2362 -0.8434 -0.8898
 1885SOL    HW117114   3.115   2.889   3.909  0.3898 -1.8461 -0.6601
 1885SOL    HW217115   3.016   2.780   3.906  3.6441 -0.9539  0.2083
 1886SOL     OW17116   4.490   2.232  13.166  0.4244  0.5321 -0.1813
 1886SOL    HW117117   4.451   2.145  13.165 -1.3556  1.3291 -0.0014
 1886SOL    HW217118   4.490   2.241  13.261 -0.9232  2.8307 -0.3898
 1887SOL     OW17119   0.765   3.930   0.149 -0.8221  0.5637  0.5297
 1887SOL    HW117120   0.845   3.893   0.187  0.0506  0.2381 -1.6394
 1887SOL    HW217121   0.717   3.849   0.133  0.6727 -0.3048  0.3951
 1888SOL     OW17122   2.299   0.892   8.095 -0.3724  0.1733 -0.1149
 1888SOL    HW117123   2.324   0.914   8.185 -1.8401  0.9835  0.0847
 1888SOL    HW217124   2.215   0.937   8.089 -0.7316 -0.3325  0.9502
 1889SOL     OW17125   2.772   0.364   0.861 -0.1421 -0.1420 -0.0260
 1889SOL    HW117126   2.700   0.301   0.874 -0.8072  0.3702 -1.1634
 1889SOL    HW217127   2.721   0.438   0.894  1.7666  0.9313  0.5195
 1890SOL     OW17128   3.101   2.308   6.654 -0.2001 -0.4302 -0.3030
 1890SOL    HW117129   3.043   2.241   6.690 -0.9607  1.1314  1.3756
 1890SOL    HW217130   3.107   2.374   6.723 -0.3506 -0.0339 -0.6728
 1891SOL     OW17131   1.528   3.031   5.379 -0.0333 -0.0772 -0.4580
 1891SOL    HW117132   1.513   3.086   5.302  1.1760 -1.2420 -1.5186
 1891SOL    HW217133   1.556   2.944   5.351 -0.0928 -1.0128  2.4327
 1892SOL     OW17134   2.740   2.999  13.975  0.2020  0.4088  0.3086
 1892SOL    HW117135   2.734   2.979  14.069 -3.3982 -2.0802 -0.4389
 1892SOL    HW217136   2.704   2.920  13.935 -3.1150  0.4440  3.1850
 1893SOL     OW17137   4.490   3.179   0.574 -0.4906 -0.1948  0.3488
 1893SOL    HW117138   4.540   3.256   0.545 -0.5696 -0.0091  0.7025
 1893SOL    HW217139   4.418   3.187   0.512 -1.6008 -0.2183  1.6292
 1894SOL     OW17140   4.594   2.112   3.987  0.3315 -0.6881  0.1935
 1894SOL    HW117141   4.589   2.112   3.891  2.1083 -0.2416  0.1077
 1894SOL    HW217142   4.678   2.068   3.992  2.0557  2.5920 -0.0141
 1895SOL     OW17143   4.303   3.033  16.429 -0.1441 -0.9532  0.5510
 1895SOL    HW117144   4.264   3.072  16.351 -2.6128 -2.8639  0.8539
 1895SOL    HW217145   4.336   3.110  16.475 -2.6058 -0.4450  1.4647
 1896SOL     OW17146   4.057   0.851  16.534 -0.1987  1.0652  0.0899
 1896SOL    HW117147   3.997   0.813  16.599 -0.4078  2.4750  0.7138
 1896SOL    HW217148   4.020   0.819  16.451  0.8874  0.3379 -0.1053
 1897SOL     OW17149   0.817   1.455   1.699 -0.1141 -0.0582  0.0460
 1897SOL    HW117150   0.736   1.493   1.733  0.0691  1.4412 -1.2153
 1897SOL    HW217151   0.875   1.524   1.730 -0.8825 -0.5687  2.6715
 1898SOL     OW17152   4.354   1.079   0.987 -0.5556 -0.4218  0.4711
 1898SOL    HW117153   4.444   1.051   1.008 -0.5828 -0.1099  1.0063
 1898SOL    HW217154   4.367   1.067   0.893 -0.8865 -0.1248  0.3887
 1899SOL     OW17155   1.765   2.719  16.193 -0.8000 -0.1813  0.1325
 1899SOL    HW117156   1.817   2.792  16.227 -0.7504 -0.1580  0.0089
 1899SOL    HW217157   1.687   2.769  16.171 -0.6941  0.1037  0.4036
 1900SOL     OW17158   3.070   2.022   2.600 -0.0292 -0.1460  0.0661
 1900SOL    HW117159   2.990   2.059   2.562 -0.0630 -3.5373 -3.2371
 1900SOL    HW217160   3.055   2.035   2.693  1.7930 -1.3030  0.5164
 1901SOL     OW17161   1.061   4.098   6.764  0.2682 -0.0826 -0.4848
 1901SOL    HW117162   1.147   4.130   6.735  0.9366 -1.1051  0.3897
 1901SOL    HW217163   1.043   4.033   6.697 -0.7559 -0.5195  0.2274
 1902SOL     OW17164   3.220   4.581   8.855  0.4810 -0.3351  0.3033
 1902SOL    HW117165   3.302   4.620   8.826  0.7775 -1.3620 -0.2603
 1902SOL    HW217166   3.253   4.497   8.887  2.6957 -0.8591 -3.3559
 1903SOL     OW17167   2.329   0.899   6.733  0.1889  0.1204 -0.9805
 1903SOL    HW117168   2.332   0.883   6.827 -1.0577 -1.6217 -1.2333
 1903SOL    HW217169   2.420   0.883   6.707  0.0653  0.4622 -1.6204
 1904SOL     OW17170   4.429   3.198   9.781 -0.3096 -0.4510  0.3273
 1904SOL    HW117171   4.415   3.129   9.846  2.0103 -0.0876  1.2156
 1904SOL    HW217172   4.360   3.184   9.716 -0.5068 -2.1104  0.9140
 1905SOL     OW17173   3.031   0.142  12.023  0.7045  0.7690 -0.4146
 1905SOL    HW117174   3.062   0.191  11.947  2.7781  0.7833  0.4317
 1905SOL    HW217175   2.964   0.085  11.986  2.5518 -1.3363 -0.5739
 1906SOL     OW17176   3.861   0.454   2.545  1.0753 -0.4108 -0.3302
 1906SOL    HW117177   3.777   0.485   2.512  0.5121 -1.6431 -0.0725
 1906SOL    HW217178   3.912   0.507   2.484  1.9184  2.6822  3.0440
 1907SOL     OW17179   4.505   1.455   9.586 -0.1764 -0.2869 -0.2384
 1907SOL    HW117180   4.499   1.480   9.494 -0.2861 -0.1773 -0.2022
 1907SOL    HW217181   4.419   1.417   9.603 -0.7428  2.3609  2.7771
 1908SOL     OW17182   0.195   0.900   3.083  0.2714  0.1585 -0.0602
 1908SOL    HW117183   0.124   0.855   3.037 -0.4401  1.3267 -0.1226
 1908SOL    HW217184   0.161   0.951   3.157  1.7075 -0.5890  1.0911
 1909SOL     OW17185   2.561   0.784   9.017  0.0163 -0.0524  0.7434
 1909SOL    HW117186   2.538   0.806   8.927 -1.1891 -1.6904  0.6386
 1909SOL    HW217187   2.537   0.692   9.027 -0.6715 -0.0599 -0.9299
 1910SOL     OW17188   0.964   4.574  10.498 -0.1330  0.4580 -0.3083
 1910SOL    HW117189   0.946   4.658  10.455 -1.2130 -0.8634 -2.4768
 1910SOL    HW217190   0.947   4.595  10.590  0.0641 -2.4757  0.4056
 1911SOL     OW17191   1.362   1.864   1.387 -0.1217  0.3269 -0.6365
 1911SOL    HW117192   1.413   1.933   1.344  0.8899 -0.8071 -1.2749
 1911SOL    HW217193   1.355   1.891   1.479  1.3834 -3.5043  0.5803
 1912SOL     OW17194   2.661   0.977   8.120 -0.2396  0.2240 -0.3862
 1912SOL    HW117195   2.571   0.955   8.095 -0.4276  1.6809 -0.9831
 1912SOL    HW217196   2.637   1.040   8.188 -1.4376 -0.5943 -0.0516
 1913SOL     OW17197   3.246   1.917   9.105  0.1859  0.3701  0.0741
 1913SOL    HW117198   3.190   1.907   9.181  0.8940 -0.6050  0.4707
 1913SOL    HW217199   3.330   1.891   9.144  0.8365  2.4479  0.0791
 1914SOL     OW17200   2.368   0.259  11.194 -0.2767  0.3056 -0.7347
 1914SOL    HW117201   2.436   0.218  11.140  0.5514 -0.3312  0.7779
 1914SOL    HW217202   2.334   0.332  11.142  1.8220  1.1623 -0.8862
 1915SOL     OW17203   0.768   1.462   1.427  0.5420  0.2907 -0.1687
 1915SOL    HW117204   0.833   1.528   1.402  1.8732 -1.0844 -0.3123
 1915SOL    HW217205   0.773   1.463   1.522 -2.2315 -1.6804  0.0113
 1916SOL     OW17206   3.698   4.369   5.232 -0.7775 -0.1339  0.2227
 1916SOL    HW117207   3.682   4.280   5.200  0.7604 -1.2355  2.5120
 1916SOL    HW217208   3.666   4.370   5.322 -1.3078 -0.6797  0.0356
 1917SOL     OW17209   0.853   3.065  16.199  0.1949 -0.9992 -0.5155
 1917SOL    HW117210   0.873   3.059  16.293  0.3990 -1.3945 -0.5842
 1917SOL    HW217211   0.803   2.985  16.186  0.6546 -1.0670 -1.8622
 1918SOL     OW17212   4.264   1.800   8.595 -0.2795 -0.0602 -0.1408
 1918SOL    HW117213   4.288   1.708   8.596 -1.5437 -0.3556  2.6121
 1918SOL    HW217214   4.225   1.820   8.680 -0.5832 -0.3687 -0.2105
 1919SOL     OW17215   4.670   1.963   8.030 -0.1342 -0.0027  0.5118
 1919SOL    HW117216   0.002   1.970   7.949 -0.3605 -0.5258  0.3247
 1919SOL    HW217217   0.004   1.905   8.085  0.2824  0.6524  0.7991
 1920SOL     OW17218   3.035   2.176   4.920  0.1921 -0.3543 -0.3059
 1920SOL    HW117219   2.940   2.168   4.927  0.3677 -2.3180 -0.0658
 1920SOL    HW217220   3.034   2.217   4.834 -0.2314 -1.0706 -0.6413
 1921SOL     OW17221   3.658   4.499  10.026  0.3178 -0.7060 -0.5576
 1921SOL    HW117222   3.642   4.580   9.977  1.5632  0.9501  1.8262
 1921SOL    HW217223   3.569   4.499  10.062  0.5341 -4.9237 -0.0429
 1922SOL     OW17224   4.654   3.886   0.048  0.1181  0.1259  0.3985
 1922SOL    HW117225   0.001   3.865   0.114 -0.8339  1.7756  1.8816
 1922SOL    HW217226   4.659   3.982   0.045 -0.6589  0.2470  3.0672
 1923SOL     OW17227   0.101   2.233   1.838  0.3026 -0.1764 -0.3146
 1923SOL    HW117228   0.069   2.314   1.797  1.7863  1.2314  1.2837
 1923SOL    HW217229   0.136   2.265   1.921 -2.4341  1.8669  0.0662
 1924SOL     OW17230   1.863   1.354   2.255  0.0140  0.0230 -0.9034
 1924SOL    HW117231   1.944   1.391   2.291 -0.5156 -0.9923  1.3369
 1924SOL    HW217232   1.798   1.412   2.295 -1.2661 -2.1160  0.1200
 1925SOL     OW17233   3.257   2.546   8.750  0.4157  0.3240 -0.0440
 1925SOL    HW117234   3.334   2.495   8.728 -0.3217 -1.3194  1.1378
 1925SOL    HW217235   3.277   2.630   8.709  2.4720 -0.8056 -1.3232
 1926SOL     OW17236   0.900   4.654   3.862  0.1670 -0.2195 -0.2036
 1926SOL    HW117237   0.811   4.621   3.848 -0.2413  0.5426  0.5468
 1926SOL    HW217238   0.882   0.029   3.857 -0.8383 -0.1973  3.6343
 1927SOL     OW17239   2.014   0.057   6.680  0.2816  0.1755  0.2754
 1927SOL    HW117240   2.060   0.116   6.739 -1.9087 -0.3242  2.4796
 1927SOL    HW217241   2.071   4.700   6.690 -0.1825 -0.4467 -1.5927
 1928SOL     OW17242   0.444   4.236  10.729  0.5847  0.1625 -0.1928
 1928SOL    HW117243   0.430   4.156  10.678  0.6109 -0.9861  1.6047
 1928SOL    HW217244   0.423   4.213  10.819  0.4403 -1.0631 -0.5407
 1929SOL     OW17245   0.096   0.826   3.619 -0.5475  0.2369  0.2388
 1929SOL    HW117246   0.003   0.817   3.599 -0.6427  0.9750  0.3238
 1929SOL    HW217247   0.109   0.921   3.612  0.6256 -0.0890 -2.0782
 1930SOL     OW17248   0.687   1.476  10.588  0.2021  0.0522  0.2476
 1930SOL    HW117249   0.660   1.567  10.591  1.1382  0.4293 -2.1444
 1930SOL    HW217250   0.650   1.445  10.670  2.1615 -0.5185  0.9186
 1931SOL     OW17251   3.078   4.666  12.624 -0.6617  0.2795 -0.1945
 1931SOL    HW117252   2.997   4.677  12.674  0.4393 -0.6139  1.7969
 1931SOL    HW217253   3.122   4.599  12.675 -1.2673  0.6787  0.8640
 1932SOL     OW17254   2.262   1.679   8.958 -0.4598 -0.1671  0.3337
 1932SOL    HW117255   2.341   1.638   8.922 -0.1072  0.4775  0.3695
 1932SOL    HW217256   2.193   1.677   8.892 -1.5825  1.9942  1.4516
 1933SOL     OW17257   0.585   1.419   2.008  0.2899 -0.0495  0.8725
 1933SOL    HW117258   0.675   1.415   2.041  0.6201 -1.7650 -0.2599
 1933SOL    HW217259   0.587   1.490   1.943 -1.1246 -0.4930  0.3622
 1934SOL     OW17260   2.203   0.756  16.481  0.0488 -0.8588 -0.4763
 1934SOL    HW117261   2.268   0.794  16.540 -0.5933 -0.0152 -0.3227
 1934SOL    HW217262   2.133   0.731  16.541  1.3117 -0.2425  1.2547
 1935SOL     OW17263   0.066   0.873   6.811  0.0574 -0.2154  0.1927
 1935SOL    HW117264   4.701   0.843   6.777 -1.5053  1.0399  2.9278
 1935SOL    HW217265   0.118   0.793   6.820 -1.3692 -0.8450  2.8952
 1936SOL     OW17266   4.465   2.007  10.140 -0.0883  0.2372 -0.2235
 1936SOL    HW117267   4.516   1.933  10.172 -0.7086 -0.5626 -1.0780
 1936SOL    HW217268   4.402   1.970  10.078 -0.4415  0.3579  0.0597
 1937SOL     OW17269   1.391   4.220   7.567  0.7366 -0.4092 -1.0773
 1937SOL    HW117270   1.339   4.271   7.505  0.1687 -0.5253 -0.7007
 1937SOL    HW217271   1.347   4.135   7.561  2.4143 -1.2309 -1.6697
 1938SOL     OW17272   3.810   1.154  12.940  0.4287  0.1761 -0.0310
 1938SOL    HW117273   3.772   1.115  13.019 -0.6641  0.5241 -0.3857
 1938SOL    HW217274   3.856   1.074  12.917 -2.4595 -1.4956  0.0689
 1939SOL     OW17275   3.572   0.777   7.716  0.5391  0.0378  0.0616
 1939SOL    HW117276   3.526   0.842   7.663  3.0001  0.3094 -1.7640
 1939SOL    HW217277   3.623   0.842   7.765  1.7165  0.5034 -1.7695
 1940SOL     OW17278   3.464   4.669   1.310  0.2008  0.6712  0.3232
 1940SOL    HW117279   3.370   4.656   1.301  0.2716  1.1853 -1.1118
 1940SOL    HW217280   3.503   4.584   1.290 -3.0692 -0.4714 -1.0067
 1941SOL     OW17281   1.514   2.211  10.270 -0.0080 -0.0721 -0.2264
 1941SOL    HW117282   1.604   2.237  10.251  0.3255  0.8392  2.6730
 1941SOL    HW217283   1.471   2.195  10.186 -2.7693 -1.6572  1.4652
 1942SOL     OW17284   1.107   3.617   6.253 -0.4364  0.3452 -0.2463
 1942SOL    HW117285   1.065   3.681   6.195 -1.3190  1.5424  1.7077
 1942SOL    HW217286   1.059   3.647   6.331 -1.1394 -1.3343 -0.0283
 1943SOL     OW17287   4.262   0.003   7.256 -0.5721 -0.0426  0.6201
 1943SOL    HW117288   4.184   4.670   7.274 -0.4417 -0.7138 -0.8164
 1943SOL    HW217289   4.319   4.655   7.219 -0.4023 -0.7810  2.1870
 1944SOL     OW17290   2.773   1.292  11.071  0.3200  0.5501  0.1893
 1944SOL    HW117291   2.845   1.253  11.021 -0.8642 -0.7362 -0.5270
 1944SOL    HW217292   2.765   1.209  11.119  0.3015  2.1045  2.9015
 1945SOL     OW17293   2.941   1.704   7.401  0.3671  0.3708  0.7011
 1945SOL    HW117294   2.937   1.648   7.478  4.5358  0.2702  0.8613
 1945SOL    HW217295   2.848   1.700   7.379  0.5535  0.8500 -0.1822
 1946SOL     OW17296   2.086   2.602   9.252  0.1954 -0.1512  0.3086
 1946SOL    HW117297   2.151   2.665   9.221  1.7908 -1.3410  1.2318
 1946SOL    HW217298   2.115   2.601   9.343  0.9420  0.2193  0.0711
 1947SOL     OW17299   2.416   1.327   4.651  0.1899 -0.2871  0.4469
 1947SOL    HW117300   2.511   1.313   4.648  0.0463 -0.5923 -2.7148
 1947SOL    HW217301   2.382   1.254   4.702 -0.4381 -0.0358  0.3922
 1948SOL     OW17302   0.264   1.206   4.412 -0.0930  0.1479 -0.6396
 1948SOL    HW117303   0.269   1.113   4.437 -0.0777  0.2408 -0.2956
 1948SOL    HW217304   0.278   1.257   4.492  0.2941 -1.6565  0.4478
 1949SOL     OW17305   4.592   1.793  16.424 -0.2107 -0.8828  0.5655
 1949SOL    HW117306   4.505   1.833  16.425 -0.1356 -0.6497 -0.9438
 1949SOL    HW217307   4.647   1.848  16.480 -1.8050 -1.0898  2.3117
 1950SOL     OW17308   3.460   1.015  14.916 -0.0504  0.2549 -0.0504
 1950SOL    HW117309   3.489   0.955  14.984 -0.4828 -1.5802 -1.4709
 1950SOL    HW217310   3.422   1.088  14.963  0.6883 -0.2628  1.3405
 1951SOL     OW17311   0.726   3.694   5.435 -0.1338 -0.2456  0.2941
 1951SOL    HW117312   0.801   3.676   5.377  0.5258  2.5144  0.2797
 1951SOL    HW217313   0.699   3.605   5.455  0.3095 -0.1572  1.2874
 1952SOL     OW17314   0.260   0.797  11.087 -0.0114  0.0947 -0.8197
 1952SOL    HW117315   0.251   0.875  11.142  2.0329 -0.4034  0.2439
 1952SOL    HW217316   0.340   0.817  11.038 -1.1691 -1.8281 -3.4164
 1953SOL     OW17317   4.462   2.002   7.193  0.0709 -0.5620 -0.0795
 1953SOL    HW117318   4.483   1.995   7.286 -0.5614 -2.7333 -0.0861
 1953SOL    HW217319   4.476   2.096   7.194 -2.6771 -0.1521  0.6791
 1954SOL     OW17320   1.700   3.490   7.451 -0.3849 -0.4048 -0.6122
 1954SOL    HW117321   1.630   3.426   7.461 -0.2262 -0.4481  0.3111
 1954SOL    HW217322   1.774   3.436   7.479 -1.0281 -0.3750  1.1896
 1955SOL     OW17323   4.600   0.495   1.228 -0.1151  0.3812 -0.5668
 1955SOL    HW117324   4.634   0.584   1.240 -0.9787  0.6894 -0.4211
 1955SOL    HW217325   4.624   0.472   1.138  2.5457  1.6787 -0.1919
 1956SOL     OW17326   4.134   1.182  12.831 -0.0001  0.1424 -0.0415
 1956SOL    HW117327   4.104   1.092  12.818 -0.8991  0.2181  1.5792
 1956SOL    HW217328   4.057   1.226  12.864  0.5531  0.2510  1.0928
 1957SOL     OW17329   2.560   1.786   8.368 -0.1712 -0.1297 -0.1945
 1957SOL    HW117330   2.533   1.814   8.456  1.3432 -0.5065  0.3760
 1957SOL    HW217331   2.636   1.842   8.354  1.4631 -2.2140  0.4859
 1958SOL     OW17332   1.668   4.717  11.103 -0.4470  0.3650  0.0259
 1958SOL    HW117333   1.685   0.084  11.065  0.9528  0.4163  0.7546
 1958SOL    HW217334   1.575   0.002  11.123 -0.2742  1.5039  0.5799
 1959SOL     OW17335   1.347   1.849   2.701 -0.1931 -0.5556  0.2172
 1959SOL    HW117336   1.382   1.899   2.628  2.2488 -0.2414  1.5995
 1959SOL    HW217337   1.393   1.768   2.681  0.7487 -0.0267  0.2380
 1960SOL     OW17338   2.615   0.534  14.975  0.2840 -0.2364 -0.4801
 1960SOL    HW117339   2.610   0.446  14.937 -2.8416 -1.0735  1.7714
 1960SOL    HW217340   2.709   0.552  14.972  0.5793 -1.4014  1.7379
 1961SOL     OW17341   2.787   3.614   3.620  0.2694 -0.1911  0.2244
 1961SOL    HW117342   2.714   3.663   3.656 -0.1758 -1.0973  0.5477
 1961SOL    HW217343   2.801   3.668   3.542  0.3171 -2.4252 -1.3379
 1962SOL     OW17344   3.179   0.946   7.261 -0.5319 -0.2194 -0.0007
 1962SOL    HW117345   3.116   1.000   7.308  1.3545 -0.5793  2.9263
 1962SOL    HW217346   3.135   0.861   7.257  0.9128 -1.0506  1.3541
 1963SOL     OW17347   4.243   4.215  15.524  0.2924 -0.0167  0.5832
 1963SOL    HW117348   4.192   4.230  15.604  1.8753 -1.0252  1.7917
 1963SOL    HW217349   4.324   4.187  15.566 -1.1044 -1.2137  2.4974
 1964SOL     OW17350   1.449   4.557  15.335 -0.4900  0.2085  0.0556
 1964SOL    HW117351   1.420   4.541  15.424 -1.4235 -2.3013 -0.7015
 1964SOL    HW217352   1.492   4.473  15.317  1.2510  1.2232 -0.6153
 1965SOL     OW17353   2.774   2.151   4.096  0.2829  0.6454  0.1730
 1965SOL    HW117354   2.679   2.155   4.109  0.5856  1.1704  2.1468
 1965SOL    HW217355   2.798   2.062   4.120 -1.2207  0.0593 -0.4380
 1966SOL     OW17356   1.553   1.342   3.909 -0.8057  0.1907 -0.0521
 1966SOL    HW117357   1.532   1.352   3.816 -4.1139  2.3290  0.9318
 1966SOL    HW217358   1.623   1.406   3.919  0.2660 -0.9315 -0.4144
 1967SOL     OW17359   1.702   4.199   5.118 -0.1267  0.0449  0.0481
 1967SOL    HW117360   1.632   4.258   5.089  0.3824  0.0109 -1.2474
 1967SOL    HW217361   1.681   4.124   5.062  1.5751 -0.2525 -0.1830
 1968SOL     OW17362   1.789   2.042  12.318 -0.5586 -0.1060 -0.2490
 1968SOL    HW117363   1.700   2.078  12.321 -0.5352 -0.1495  0.9504
 1968SOL    HW217364   1.782   1.954  12.354 -2.4130 -0.1118 -0.6632
 1969SOL     OW17365   4.501   4.263   4.586 -0.1747 -0.5003 -0.3858
 1969SOL    HW117366   4.455   4.346   4.580 -0.3562 -0.6120 -0.5568
 1969SOL    HW217367   4.432   4.197   4.575 -0.2507 -0.4621 -0.1505
 1970SOL     OW17368   1.118   4.350   2.792  0.1259  0.1839  0.2568
 1970SOL    HW117369   1.133   4.347   2.697  2.0775 -1.3264  0.6013
 1970SOL    HW217370   1.077   4.267   2.815 -0.5860  0.6398  0.6348
 1971SOL     OW17371   1.956   2.172   4.833  0.4710 -0.2699 -0.0643
 1971SOL    HW117372   1.898   2.168   4.757 -1.0929  0.4757  1.0972
 1971SOL    HW217373   1.905   2.215   4.902 -0.1312  0.4058 -0.9464
 1972SOL     OW17374   0.382   2.965  15.115 -0.0650 -0.0452 -0.2207
 1972SOL    HW117375   0.334   3.029  15.166  0.1271  0.6146 -0.8647
 1972SOL    HW217376   0.313   2.898  15.108 -0.7543  0.5246  1.2569
 1973SOL     OW17377   1.024   0.439   8.963 -0.5453  0.5310 -0.4525
 1973SOL    HW117378   1.015   0.426   9.057 -3.4086  0.4329 -0.7544
 1973SOL    HW217379   1.116   0.411   8.955 -1.2578 -2.1689  0.5505
 1974SOL     OW17380   1.408   3.208   0.239  0.4798  0.6448 -0.3228
 1974SOL    HW117381   1.485   3.154   0.228 -0.2446  0.1326 -2.7143
 1974SOL    HW217382   1.339   3.146   0.217 -1.3682  1.9393  1.8239
 1975SOL     OW17383   0.452   1.199   3.950  0.1604  0.3226  0.4073
 1975SOL    HW117384   0.455   1.286   3.911 -1.1893  0.7535  1.2568
 1975SOL    HW217385   0.438   1.223   4.042 -2.7187 -0.8089  0.2672
 1976SOL     OW17386   4.669   3.643   9.729  0.0108  0.2429  0.3027
 1976SOL    HW117387   4.685   3.606   9.642 -0.9454 -1.5744  0.9108
 1976SOL    HW217388   4.613   3.575   9.766  2.4346 -2.4483 -1.0396
 1977SOL     OW17389   1.726   0.151   2.780  0.0115 -0.1319 -0.5029
 1977SOL    HW117390   1.750   0.235   2.820  0.7449 -0.6927  0.2416
 1977SOL    HW217391   1.797   0.139   2.717  1.2032  1.7610  0.4845
 1978SOL     OW17392   3.365   4.414   1.300 -0.0040 -0.2292  0.1517
 1978SOL    HW117393   3.344   4.445   1.388  1.7138  0.3610  0.3464
 1978SOL    HW217394   3.460   4.424   1.289  0.1201  0.5743  2.0912
 1979SOL     OW17395   1.229   4.558  10.427 -0.5992  0.2000  0.3104
 1979SOL    HW117396   1.219   4.632  10.367  3.1215  0.4713  0.0221
 1979SOL    HW217397   1.137   4.551  10.452 -0.4714 -0.9956  0.4699
 1980SOL     OW17398   4.243   3.753   9.391 -0.1328 -0.2117  0.1289
 1980SOL    HW117399   4.263   3.738   9.299  0.8752 -3.0372  0.8282
 1980SOL    HW217400   4.236   3.663   9.422  2.0131  0.4249  2.4147
 1981SOL     OW17401   3.225   4.093   3.713 -0.8585  0.4599 -0.2097
 1981SOL    HW117402   3.156   4.033   3.686  0.8261 -1.8680  0.6381
 1981SOL    HW217403   3.191   4.179   3.692 -2.6928 -0.6106 -1.6118
 1982SOL     OW17404   3.012   3.577   9.702  0.0797  0.2192  0.3015
 1982SOL    HW117405   3.087   3.569   9.761  0.7085 -0.5748 -0.6123
 1982SOL    HW217406   3.051   3.532   9.627 -0.1957  0.2018  0.1676
 1983SOL     OW17407   1.180   1.335   5.429  0.0201  0.0703 -0.0713
 1983SOL    HW117408   1.151   1.264   5.487  0.9752 -1.0968 -1.0302
 1983SOL    HW217409   1.232   1.292   5.361  0.9074  0.0555  0.6238
 1984SOL     OW17410   0.746   1.684  13.366 -0.2178 -0.1733 -0.1724
 1984SOL    HW117411   0.704   1.639  13.293 -4.4838  2.7192  0.4948
 1984SOL    HW217412   0.788   1.751  13.312  3.7266 -0.6657  2.3137
 1985SOL     OW17413   1.114   4.537   5.063  0.1887 -0.4435 -0.4003
 1985SOL    HW117414   1.209   4.548   5.065  0.1082  0.5151 -1.7587
 1985SOL    HW217415   1.082   4.606   5.120  2.1134  1.6761 -1.8725
 1986SOL     OW17416   2.052   0.565   9.689  0.0099 -0.5196 -0.0791
 1986SOL    HW117417   1.998   0.612   9.753  0.1181 -1.2886  0.5793
 1986SOL    HW217418   2.134   0.614   9.692  0.9162 -2.0679  0.4353
 1987SOL     OW17419   3.349   3.060   1.731  0.3283  0.5043  0.0900
 1987SOL    HW117420   3.358   2.966   1.712  1.2515  0.8231 -1.0531
 1987SOL    HW217421   3.388   3.104   1.655 -0.3917  0.0230 -0.5676
 1988SOL     OW17422   2.889   2.921   4.348  0.5774  0.0930 -0.7497
 1988SOL    HW117423   2.821   2.881   4.293  0.4248  1.6314 -1.6701
 1988SOL    HW217424   2.925   2.997   4.302 -0.6846  1.1140 -0.0503
 1989SOL     OW17425   1.122   0.311   6.156  0.1495 -0.0959  0.1253
 1989SOL    HW117426   1.059   0.382   6.158  0.7604  0.4624 -0.3766
 1989SOL    HW217427   1.175   0.339   6.081  2.0632 -0.0744  1.4760
 1990SOL     OW17428   3.266   2.464  15.512 -0.9814  0.1975 -0.2053
 1990SOL    HW117429   3.189   2.466  15.568 -0.1901 -2.2690  0.9872
 1990SOL    HW217430   3.320   2.518  15.570  0.6106 -0.8185 -0.7224
 1991SOL     OW17431   1.648   4.237   6.338 -0.4144  0.5720  0.4904
 1991SOL    HW117432   1.565   4.277   6.365 -0.4405 -1.1869  3.0481
 1991SOL    HW217433   1.710   4.282   6.395  1.5514 -0.6296 -0.7168
 1992SOL     OW17434   3.067   4.508   9.092 -0.2968  0.0939  0.1042
 1992SOL    HW117435   3.076   4.543   9.003 -1.1779 -1.4744 -0.6028
 1992SOL    HW217436   2.998   4.564   9.128 -0.2113 -0.4306  1.0761
 1993SOL     OW17437   1.198   2.817   7.475 -0.1665 -0.2703  0.3019
 1993SOL    HW117438   1.276   2.833   7.528 -0.5923  0.6564  0.6507
 1993SOL    HW217439   1.129   2.871   7.512  1.2185  1.8899 -0.3112
 1994SOL     OW17440   3.155   4.271   9.419 -0.1743 -0.4449 -0.8424
 1994SOL    HW117441   3.156   4.363   9.393 -2.1576 -0.0204  0.5598
 1994SOL    HW217442   3.060   4.260   9.428 -0.1359 -1.0013 -1.0612
 1995SOL     OW17443   1.782   0.193  15.457 -0.3812 -0.7229 -0.1543
 1995SOL    HW117444   1.767   0.267  15.398  2.5939  0.1142  0.1388
 1995SOL    HW217445   1.708   0.137  15.436 -1.1702  1.1575 -2.4623
 1996SOL     OW17446   2.089   3.283   8.492  0.0955 -0.0060 -1.0136
 1996SOL    HW117447   2.011   3.283   8.548 -0.5807 -0.1758 -1.9423
 1996SOL    HW217448   2.154   3.341   8.532  0.5567 -1.4765  0.3688
 1997SOL     OW17449   3.094   0.782   7.738 -0.2238 -0.0153  0.1809
 1997SOL    HW117450   3.062   0.697   7.707  1.0367 -0.0663 -0.9633
 1997SOL    HW217451   3.126   0.754   7.824 -0.7441 -1.2094 -0.0159
 1998SOL     OW17452   0.424   4.651   5.381 -0.0979 -0.9686 -0.4288
 1998SOL    HW117453   0.505   4.650   5.433 -1.7540 -2.6650  2.1312
 1998SOL    HW217454   0.389   0.019   5.401  2.0408  0.1923 -1.7424
 1999SOL     OW17455   3.112   4.208   9.133 -0.5535 -0.4632 -0.0555
 1999SOL    HW117456   3.146   4.298   9.132 -6.0818  1.6712  1.0458
 1999SOL    HW217457   3.044   4.203   9.200 -1.2675  0.5530 -0.6917
 2000SOL     OW17458   2.063   1.357  12.110  0.0727  0.3011  0.1228
 2000SOL    HW117459   2.134   1.298  12.082  0.2946  0.1663  0.9410
 2000SOL    HW217460   2.002   1.345  12.038  1.9862 -2.4596 -1.0415
 2001SOL     OW17461   0.834   4.075   4.880 -0.1256 -0.1047 -0.5686
 2001SOL    HW117462   0.884   4.034   4.810  1.3187 -0.2006  0.5288
 2001SOL    HW217463   0.855   4.168   4.874 -0.6861  0.1969  1.9437
 2002SOL     OW17464   4.249   2.047   5.122 -0.4281  0.2943  0.0365
 2002SOL    HW117465   4.205   2.099   5.055  0.2240 -0.5964 -1.0722
 2002SOL    HW217466   4.180   2.044   5.189 -1.5745 -0.3640 -1.1834
 2003SOL     OW17467   2.199   0.068   6.446  0.0741  0.2346 -0.1620
 2003SOL    HW117468   2.105   0.078   6.428  0.4003 -1.1251 -2.5820
 2003SOL    HW217469   2.202   4.713   6.507 -1.6158 -0.1008 -0.4682
 2004SOL     OW17470   0.422   3.528   7.661  0.4309  0.8922 -0.2842
 2004SOL    HW117471   0.447   3.447   7.705 -1.5198  1.3522  1.6611
 2004SOL    HW217472   0.360   3.567   7.723  0.5306  0.7339 -0.0863
 2005SOL     OW17473   1.010   3.665   3.669 -0.3522  0.2341 -0.3167
 2005SOL    HW117474   0.932   3.718   3.688 -0.0829  0.6294 -0.3150
 2005SOL    HW217475   1.070   3.726   3.711  0.7561 -0.3569 -1.0524
 2006SOL     OW17476   1.431   2.192   0.921  0.0239  0.5866  0.0297
 2006SOL    HW117477   1.391   2.271   0.884 -3.3436 -0.3543  1.6814
 2006SOL    HW217478   1.383   2.183   1.003 -3.3166 -0.2204 -1.9934
 2007SOL     OW17479   3.150   3.804   7.479 -0.3068  0.1598 -0.2898
 2007SOL    HW117480   3.147   3.789   7.574 -1.9830 -2.2605 -0.7472
 2007SOL    HW217481   3.096   3.735   7.441 -2.5603  0.8908  1.5640
 2008SOL     OW17482   2.658   0.297   9.183 -0.0917 -0.4685 -0.3463
 2008SOL    HW117483   2.680   0.218   9.233  1.1339  0.6314  0.8641
 2008SOL    HW217484   2.634   0.263   9.097  1.7046  0.0415 -1.0512
 2009SOL     OW17485   0.133   2.040   8.645  0.2783  0.6578  0.3925
 2009SOL    HW117486   0.078   2.118   8.644 -1.0145 -0.2529  0.4422
 2009SOL    HW217487   0.140   2.038   8.741 -1.9923  1.8977  0.6013
 2010SOL     OW17488   1.055   3.673   7.045  0.3044  0.3493 -0.1165
 2010SOL    HW117489   1.039   3.605   7.111 -1.7371  1.8766  0.9526
 2010SOL    HW217490   1.014   3.628   6.971  1.8941 -0.0444 -0.7671
 2011SOL     OW17491   2.819   1.519   9.054 -0.0869  0.2362 -0.3929
 2011SOL    HW117492   2.813   1.484   8.965  0.1771  0.7504 -0.6097
 2011SOL    HW217493   2.729   1.543   9.075  0.0015  0.5723 -0.4009
 2012SOL     OW17494   0.382   3.685   8.022  0.6117  0.3784  0.2554
 2012SOL    HW117495   0.293   3.649   8.026  0.4291  0.8740  0.9042
 2012SOL    HW217496   0.433   3.615   8.061  0.2053  0.0815  0.2494
 2013SOL     OW17497   2.904   3.388   9.927  0.7453  0.1922  0.4479
 2013SOL    HW117498   2.946   3.457   9.978 -0.8045  0.6651  1.0880
 2013SOL    HW217499   2.819   3.372   9.969 -0.6685  2.1868 -1.6257
 2014SOL     OW17500   4.698   1.781  12.363  0.2084 -0.1846  0.1657
 2014SOL    HW117501   4.609   1.771  12.331  1.3187  0.4525 -3.0641
 2014SOL    HW217502   4.702   1.712  12.430 -2.9401 -1.1314 -0.6460
 2015SOL     OW17503   2.749   0.752   7.256 -0.1338  0.5121  0.2980
 2015SOL    HW117504   2.736   0.663   7.223 -0.6196  1.6190 -2.5120
 2015SOL    HW217505   2.670   0.754   7.311 -0.3202  0.5590  0.0335
 2016SOL     OW17506   2.785   0.060   7.273  0.9273  0.0494 -0.1980
 2016SOL    HW117507   2.716   0.003   7.238  1.4686 -1.8123  1.7860
 2016SOL    HW217508   2.862   0.004   7.283  0.7816  0.0247  0.8499
 2017SOL     OW17509   2.992   4.478   8.279  0.3039  0.2116  0.2695
 2017SOL    HW117510   3.009   4.385   8.269 -0.0839  0.1562  0.1193
 2017SOL    HW217511   3.069   4.519   8.240  1.8657 -0.1132  3.0129
 2018SOL     OW17512   4.372   3.028   3.063  0.2749 -0.2513  0.2114
 2018SOL    HW117513   4.407   2.983   2.986 -1.6522 -4.2095  1.5875
 2018SOL    HW217514   4.452   3.046   3.113  1.7177  1.0174 -2.5782
 2019SOL     OW17515   1.241   3.075   3.441  0.1620  0.4985 -0.1046
 2019SOL    HW117516   1.238   3.103   3.532  1.9256 -0.9535  0.3950
 2019SOL    HW217517   1.317   3.118   3.403  1.5058 -1.1115  0.7602
 2020SOL     OW17518   0.642   4.177   4.072 -0.5418  0.1622 -0.7569
 2020SOL    HW117519   0.596   4.120   4.134 -0.3993  0.5123 -0.3339
 2020SOL    HW217520   0.726   4.200   4.111 -0.9396 -0.5132  0.5320
 2021SOL     OW17521   2.225   2.945   9.542 -0.1012 -0.4101 -0.4269
 2021SOL    HW117522   2.198   2.942   9.634 -2.3010  0.1993 -1.0371
 2021SOL    HW217523   2.270   2.861   9.538  0.8164  0.0228  0.7448
 2022SOL     OW17524   3.228   3.322   3.591  0.0585  0.2855  0.0075
 2022SOL    HW117525   3.304   3.351   3.643  0.2450  1.2618 -0.8189
 2022SOL    HW217526   3.172   3.269   3.648 -2.1902  1.0800 -1.4863
 2023SOL     OW17527   2.887   4.597   9.441 -0.3322  0.0429  0.4887
 2023SOL    HW117528   2.833   4.546   9.501  0.1389 -0.2978  0.6157
 2023SOL    HW217529   2.833   4.603   9.362 -2.4925  1.1121  2.0402
 2024SOL     OW17530   0.068   3.401   3.574 -0.4165  0.4119 -0.4532
 2024SOL    HW117531   4.713   3.343   3.590  0.5143 -0.9797 -1.2602
 2024SOL    HW217532   0.103   3.352   3.500  0.3425 -0.9495  0.8125
 2025SOL     OW17533   2.188   3.696  13.131 -0.9520 -0.7746  0.1761
 2025SOL    HW117534   2.210   3.635  13.060 -0.9245 -0.6788  0.1034
 2025SOL    HW217535   2.117   3.747  13.093 -0.2297 -1.0795 -1.5950
 2026SOL     OW17536   1.533   0.832   7.618 -0.1440 -0.2760  0.4573
 2026SOL    HW117537   1.451   0.818   7.570 -0.8685  0.0861  1.5977
 2026SOL    HW217538   1.565   0.907   7.569  1.1382 -1.4722 -0.5525
 2027SOL     OW17539   0.928   0.623   0.683 -0.2276 -0.4454 -0.2904
 2027SOL    HW117540   0.878   0.698   0.650  0.3199 -0.5380 -1.3504
 2027SOL    HW217541   0.860   0.561   0.708 -2.1966  1.3825 -1.1438
 2028SOL     OW17542   2.898   1.467   7.557  0.7919 -0.3483 -0.3944
 2028SOL    HW117543   2.844   1.388   7.563  0.7786 -0.4709 -2.0772
 2028SOL    HW217544   2.939   1.478   7.643  0.9662 -0.1127 -0.5084
 2029SOL     OW17545   2.674   3.064   9.437  0.5316  0.4148  0.0849
 2029SOL    HW117546   2.748   3.123   9.430  0.9065  0.2645  3.0201
 2029SOL    HW217547   2.699   2.990   9.492  0.2626 -0.0856 -0.4566
 2030SOL     OW17548   0.122   1.912   3.161  0.1381  0.6284 -0.0065
 2030SOL    HW117549   0.165   1.831   3.136 -0.9693 -0.5330  1.8640
 2030SOL    HW217550   0.163   1.931   3.245  1.2684 -2.1426  0.0646
 2031SOL     OW17551   2.772   3.613   2.315 -0.0872 -0.0226  0.3048
 2031SOL    HW117552   2.838   3.659   2.262 -0.9623 -1.8747 -2.3636
 2031SOL    HW217553   2.707   3.580   2.253 -0.1724  0.2334  0.2593
 2032SOL     OW17554   4.491   0.805   1.618  0.1116  0.3529  0.4605
 2032SOL    HW117555   4.575   0.848   1.633  0.1905 -0.7797  3.2899
 2032SOL    HW217556   4.437   0.866   1.669  0.7091  2.0940 -1.0059
 2033SOL     OW17557   4.577   1.699   8.734  0.5928  0.0686 -0.3355
 2033SOL    HW117558   4.566   1.773   8.673 -1.6125 -0.3858 -0.5121
 2033SOL    HW217559   4.499   1.685   8.788  0.6634  1.6058  0.1772
 2034SOL     OW17560   2.610   0.867  13.933 -0.9863  0.6744 -0.3470
 2034SOL    HW117561   2.594   0.794  13.872  0.8283 -0.6572  0.7760
 2034SOL    HW217562   2.527   0.910  13.955 -1.4024  0.2627 -1.0892
 2035SOL     OW17563   3.976   4.352   8.736 -0.2500 -0.0694 -0.1376
 2035SOL    HW117564   4.060   4.327   8.697  0.2525 -1.2844  1.7080
 2035SOL    HW217565   3.919   4.355   8.659 -0.6112  0.1085  0.1396
 2036SOL     OW17566   3.614   2.593  11.728 -0.4961  0.0600 -0.1519
 2036SOL    HW117567   3.564   2.519  11.694 -2.7076  0.8904  1.2588
 2036SOL    HW217568   3.549   2.660  11.749  0.6471  1.7224 -1.9017
 2037SOL     OW17569   2.278   2.632   2.805 -0.7241  0.1071 -0.3311
 2037SOL    HW117570   2.358   2.666   2.766 -1.3810 -0.0869 -1.8543
 2037SOL    HW217571   2.284   2.540   2.781 -1.1147 -0.9878  3.8738
 2038SOL     OW17572   0.061   4.279   6.574 -0.2196  0.2004 -0.2580
 2038SOL    HW117573   0.127   4.328   6.623  0.7445 -0.1468 -1.2092
 2038SOL    HW217574   4.713   4.254   6.637 -0.4313  3.3785  0.8197
 2039SOL     OW17575   4.093   2.338  11.080 -0.1315 -0.3882 -0.2961
 2039SOL    HW117576   4.058   2.406  11.022  0.8195  0.8234  0.5679
 2039SOL    HW217577   4.143   2.391  11.142  0.7172 -1.5827  0.0387
 2040SOL     OW17578   1.739   1.108  11.997  0.4611 -0.1167  0.0032
 2040SOL    HW117579   1.811   1.168  11.978 -0.3230  1.1816  1.0432
 2040SOL    HW217580   1.715   1.157  12.076  2.9183 -0.1226  0.7386
 2041SOL     OW17581   2.027   4.103   2.876 -0.0523 -0.1344 -0.6701
 2041SOL    HW117582   1.958   4.067   2.821  1.1942 -0.7234 -1.8262
 2041SOL    HW217583   2.094   4.035   2.870  1.8330  1.5655  1.2908
 2042SOL     OW17584   3.879   1.333   2.267 -0.3037  0.3888 -0.1055
 2042SOL    HW117585   3.865   1.350   2.173  3.1962 -3.0898 -1.2414
 2042SOL    HW217586   3.818   1.396   2.306 -1.0947 -0.1986 -0.3953
 2043SOL     OW17587   2.039   2.005   1.210  0.6436 -0.0752 -0.1674
 2043SOL    HW117588   2.039   1.996   1.306 -1.8278  2.4841  0.0818
 2043SOL    HW217589   2.093   1.927   1.201 -2.0562 -1.8629 -0.8834
 2044SOL     OW17590   3.350   2.957   6.359  0.0203  0.0905  0.3891
 2044SOL    HW117591   3.293   3.017   6.407 -0.2324  0.3707 -0.2620
 2044SOL    HW217592   3.302   2.948   6.276 -0.9141  0.3226  0.9067
 2045SOL     OW17593   1.039   1.085   5.959  0.3983  0.5140  0.2906
 2045SOL    HW117594   0.950   1.101   5.990  0.0729  1.1202 -0.9141
 2045SOL    HW217595   1.088   1.155   6.003 -0.1031  0.1579  1.4040
 2046SOL     OW17596   3.446   0.885   0.761 -0.9601  0.4498 -0.3001
 2046SOL    HW117597   3.382   0.819   0.738  1.6284 -0.9645 -3.5396
 2046SOL    HW217598   3.513   0.823   0.790  0.1101  2.1531  0.9190
 2047SOL     OW17599   0.124   3.586  15.615 -0.4754 -0.0328  0.4759
 2047SOL    HW117600   0.085   3.515  15.564 -0.1738  0.5735 -0.5971
 2047SOL    HW217601   0.147   3.655  15.554  0.5086 -0.7995 -0.0262
 2048SOL     OW17602   0.155   2.653   5.532 -0.2073  0.1040 -0.4353
 2048SOL    HW117603   0.165   2.577   5.474 -3.5296 -0.1871 -0.6762
 2048SOL    HW217604   0.094   2.709   5.482  1.8771  0.8889 -2.0867
 2049SOL     OW17605   0.423   0.820   7.187  0.4058  0.6914  0.3694
 2049SOL    HW117606   0.403   0.764   7.112 -0.3944  0.9290  0.4134
 2049SOL    HW217607   0.403   0.906   7.151 -0.2339  0.1704 -0.5052
 2050SOL     OW17608   4.428   1.792   0.072  0.1603  0.2626 -0.2487
 2050SOL    HW117609   4.460   1.709   0.037  0.3777  0.6406 -0.9535
 2050SOL    HW217610   4.465   1.853   0.008  2.3996 -0.9493 -0.1077
 2051SOL     OW17611   1.564   0.798   4.218  0.0797 -0.4141  0.1882
 2051SOL    HW117612   1.602   0.812   4.131  0.5830  1.6432  0.7486
 2051SOL    HW217613   1.470   0.814   4.206  0.1329  0.0463  0.3753
 2052SOL     OW17614   2.253   2.139   2.398  0.5825 -0.3911 -0.1363
 2052SOL    HW117615   2.203   2.197   2.341  0.7289  1.2574  1.3949
 2052SOL    HW217616   2.324   2.199   2.420  1.3782 -2.2635  2.3838
 2053SOL     OW17617   1.932   0.877   6.453 -0.9697 -0.0688  0.1758
 2053SOL    HW117618   1.946   0.794   6.407 -3.7115 -0.0867 -0.6328
 2053SOL    HW217619   1.898   0.846   6.537 -0.2958 -0.5474  0.2673
 2054SOL     OW17620   2.446   2.197  10.410 -0.2968 -0.6692 -0.2309
 2054SOL    HW117621   2.454   2.117  10.358  0.6365 -0.5287 -0.3194
 2054SOL    HW217622   2.469   2.269  10.351 -0.9695  1.4348  2.0909
 2055SOL     OW17623   3.784   3.471   0.461 -0.3460  0.1090  0.1812
 2055SOL    HW117624   3.861   3.525   0.440 -0.4102  0.8289  1.7846
 2055SOL    HW217625   3.713   3.494   0.402  0.6133 -0.4760 -1.2031
 2056SOL     OW17626   0.667   4.592   5.163  0.1021  0.0665  0.2761
 2056SOL    HW117627   0.711   4.533   5.224  3.1672  1.4336 -0.5967
 2056SOL    HW217628   0.580   4.552   5.170 -0.1190  0.9523  2.6516
 2057SOL     OW17629   3.351   1.423   7.785 -0.1757 -0.0574 -0.6120
 2057SOL    HW117630   3.327   1.497   7.842 -0.0442  1.6020 -2.7239
 2057SOL    HW217631   3.308   1.445   7.703 -0.2708 -1.3531 -0.9025
 2058SOL     OW17632   4.362   2.098  11.237 -0.6957  0.3814 -0.3395
 2058SOL    HW117633   4.279   2.116  11.281 -1.3360 -1.2433 -0.8565
 2058SOL    HW217634   4.402   2.023  11.281 -1.3394 -0.6992 -1.5868
 2059SOL     OW17635   1.682   4.580  17.504  0.1569 -0.0304  0.1892
 2059SOL    HW117636   1.721   4.526  17.435 -3.4657 -1.8657 -0.4696
 2059SOL    HW217637   1.617   4.521  17.542  0.7481 -0.6267  0.2693
 2060SOL     OW17638   1.272   3.712   5.445 -0.2051  0.4101  0.4308
 2060SOL    HW117639   1.226   3.685   5.524  0.7615 -0.2116  0.7859
 2060SOL    HW217640   1.209   3.769   5.401  0.2789  0.8269  0.2741
 2061SOL     OW17641   2.766   1.540   4.568 -0.4322  0.6837  0.1252
 2061SOL    HW117642   2.790   1.600   4.638  1.8894  0.7814 -0.7732
 2061SOL    HW217643   2.699   1.584   4.516 -0.8159 -0.7173 -0.5732
 2062SOL     OW17644   4.563   1.271  15.803  0.4408  0.2817  0.0667
 2062SOL    HW117645   4.540   1.244  15.714  1.9131  0.0389 -0.2473
 2062SOL    HW217646   4.551   1.190  15.852 -2.2122  1.0762  0.7159
 2063SOL     OW17647   4.517   4.090  15.627 -0.0140 -0.5657 -0.4061
 2063SOL    HW117648   4.584   4.046  15.575 -0.0768  0.0302 -0.9898
 2063SOL    HW217649   4.500   4.026  15.696 -0.1564  0.8763  0.8899
 2064SOL     OW17650   1.047   0.076   6.702  0.3801  0.3555 -0.0313
 2064SOL    HW117651   1.015   0.140   6.637  0.4626  0.8443  0.4072
 2064SOL    HW217652   1.129   0.051   6.661  1.0264  0.6909  1.0532
 2065SOL     OW17653   3.887   4.435   8.166  0.5446  0.0115 -0.1296
 2065SOL    HW117654   3.942   4.371   8.211 -0.7180 -0.0732  1.3090
 2065SOL    HW217655   3.860   4.492   8.238  1.6163  2.0123 -1.3321
 2066SOL     OW17656   0.792   2.671   6.349  0.1086  0.0981 -0.4108
 2066SOL    HW117657   0.773   2.645   6.258  2.0718  0.6034 -0.9570
 2066SOL    HW217658   0.713   2.714   6.381  0.9674  1.8258 -0.6205
 2067SOL     OW17659   1.099   3.708  11.685 -0.1139 -0.4184 -0.1953
 2067SOL    HW117660   1.132   3.677  11.600 -1.1811 -2.9153  0.3106
 2067SOL    HW217661   1.169   3.770  11.707  0.1758 -0.6108 -0.5614
 2068SOL     OW17662   4.112   4.693   6.282  0.3491  0.6418 -0.2322
 2068SOL    HW117663   4.054   4.625   6.318 -0.5562  1.2829 -0.4848
 2068SOL    HW217664   4.198   4.651   6.276 -0.5541 -0.9818 -1.7498
 2069SOL     OW17665   0.312   3.516   0.955 -0.1100 -0.1900 -0.0171
 2069SOL    HW117666   0.267   3.520   0.871 -0.8203 -0.5002  0.3473
 2069SOL    HW217667   0.388   3.567   0.927  0.2914 -1.0934 -0.5572
 2070SOL     OW17668   1.032   3.353   0.791  0.1191 -0.1429  0.3653
 2070SOL    HW117669   1.100   3.403   0.745 -1.0860  2.3112  1.2687
 2070SOL    HW217670   1.019   3.418   0.859 -1.3850  0.3687 -0.4177
 2071SOL     OW17671   3.164   1.863   2.880 -0.0185  0.1673 -0.0982
 2071SOL    HW117672   3.145   1.809   2.804 -2.0554  1.6803 -0.6691
 2071SOL    HW217673   3.233   1.813   2.924 -1.0793 -1.7690 -0.6527
 2072SOL     OW17674   2.672   3.788   0.434 -0.2009 -0.1433 -0.4488
 2072SOL    HW117675   2.734   3.808   0.363 -0.1406  0.8189 -0.1215
 2072SOL    HW217676   2.675   3.871   0.482 -2.4138  0.2261 -0.9478
 2073SOL     OW17677   3.205   1.511   4.701 -0.4875  0.0471  0.0712
 2073SOL    HW117678   3.165   1.563   4.631  1.5970 -0.4705 -1.5018
 2073SOL    HW217679   3.233   1.576   4.766  1.7742  1.4965 -2.3215
 2074SOL     OW17680   4.335   3.206   8.533  0.3762 -0.2611 -0.0575
 2074SOL    HW117681   4.334   3.278   8.596  0.9211 -0.7833  0.5432
 2074SOL    HW217682   4.276   3.146   8.578  1.1236 -0.5782  0.4876
 2075SOL     OW17683   2.860   0.977  10.678 -0.5006 -0.3247 -0.3116
 2075SOL    HW117684   2.896   0.909  10.735  0.7185 -2.1094 -3.2359
 2075SOL    HW217685   2.852   1.049  10.740  0.6869  0.4926 -1.1285
 2076SOL     OW17686   4.520   4.404   6.386 -0.2677 -0.1008  0.1607
 2076SOL    HW117687   4.508   4.493   6.420 -0.4488  0.9293 -2.5692
 2076SOL    HW217688   4.614   4.391   6.400 -0.3457 -2.8896 -1.9351
 2077SOL     OW17689   3.200   1.598   1.383  0.1599  0.2918 -0.0627
 2077SOL    HW117690   3.245   1.561   1.307 -0.8087 -1.4102  0.1949
 2077SOL    HW217691   3.212   1.534   1.453 -0.2940 -0.6598 -0.8690
 2078SOL     OW17692   2.045   4.528   8.673 -0.6595 -0.0405  0.4313
 2078SOL    HW117693   1.981   4.600   8.677 -1.1713 -0.5352  1.0679
 2078SOL    HW217694   2.023   4.475   8.749 -0.2929 -1.6847 -0.6070
 2079SOL     OW17695   4.480   3.671   6.910 -0.0467 -0.4732  0.1682
 2079SOL    HW117696   4.422   3.617   6.857 -0.3701  0.4248 -0.3830
 2079SOL    HW217697   4.413   3.737   6.931  0.8408  0.3639  0.3371
 2080SOL     OW17698   4.244   3.310   9.421  0.3273  0.5830  0.1815
 2080SOL    HW117699   4.164   3.341   9.377  0.0463 -0.3111  0.0545
 2080SOL    HW217700   4.299   3.384   9.398 -0.1601 -0.0101 -2.9364
 2081SOL     OW17701   0.082   2.531  15.276  0.0658  0.4725  0.8618
 2081SOL    HW117702   0.017   2.544  15.207  2.6561 -1.1220 -1.8843
 2081SOL    HW217703   0.117   2.620  15.281  0.4191  0.4066 -0.6097
 2082SOL     OW17704   1.329   2.184  10.020 -0.0621 -0.8060 -0.0706
 2082SOL    HW117705   1.340   2.269   9.978 -1.1406 -1.4555 -1.6438
 2082SOL    HW217706   1.359   2.145   9.938 -0.3095  3.1935 -2.0529
 2083SOL     OW17707   2.937   2.288   6.401  0.1870  0.6071 -0.3288
 2083SOL    HW117708   2.877   2.339   6.455  0.5542  1.5352 -0.7935
 2083SOL    HW217709   3.012   2.311   6.456  0.1400 -0.1115  0.0331
 2084SOL     OW17710   2.080   2.734  16.558 -0.3382 -0.2839 -0.5313
 2084SOL    HW117711   2.008   2.698  16.507 -1.2271  0.5620  0.1291
 2084SOL    HW217712   2.160   2.731  16.505  0.2395  0.2857  0.3097
 2085SOL     OW17713   2.795   4.304  17.212 -0.1337 -0.1785  0.0282
 2085SOL    HW117714   2.826   4.252  17.287  1.2856  0.0480 -0.3923
 2085SOL    HW217715   2.706   4.332  17.233 -0.3059 -0.8435  0.1965
 2086SOL     OW17716   0.582   0.035   4.494  0.1292 -0.4848  0.5619
 2086SOL    HW117717   0.630   0.081   4.425 -0.4471 -1.2074 -0.3251
 2086SOL    HW217718   0.494   0.026   4.457  0.7954 -1.5511 -0.7533
 2087SOL     OW17719   3.958   1.302  16.963 -0.0184  0.3281  0.1211
 2087SOL    HW117720   3.897   1.230  16.975  0.5402 -0.1872 -0.1395
 2087SOL    HW217721   3.924   1.353  16.889 -1.2675 -1.0926 -0.2672
 2088SOL     OW17722   2.827   2.025  14.633 -0.2867 -0.2923  0.5190
 2088SOL    HW117723   2.808   2.060  14.720 -1.2608 -0.6833  0.4556
 2088SOL    HW217724   2.752   2.045  14.577 -0.5341 -0.9272  0.6268
 2089SOL     OW17725   2.427   4.673   7.338 -0.4194 -0.2785  0.2281
 2089SOL    HW117726   2.398   0.043   7.317 -2.3638 -0.5739  1.6749
 2089SOL    HW217727   2.484   4.657   7.262  0.7021 -0.5222  1.1266
 2090SOL     OW17728   2.042   0.808   1.992  0.4984  0.1431  0.4670
 2090SOL    HW117729   1.971   0.748   1.968  0.9151 -0.6022  1.0970
 2090SOL    HW217730   2.006   0.859   2.064  0.0522  2.0458 -1.0960
 2091SOL     OW17731   4.325   4.579  14.517  0.0323  0.1867  0.3108
 2091SOL    HW117732   4.234   4.556  14.498  0.9212 -1.3478 -2.1380
 2091SOL    HW217733   4.304   4.672  14.522  1.8928  0.5655  1.1039
 2092SOL     OW17734   2.183   2.092  10.639  0.0091  0.3058  0.0164
 2092SOL    HW117735   2.193   2.112  10.732 -1.9671  1.2045  0.0370
 2092SOL    HW217736   2.268   2.054  10.614  0.0924 -0.0903  0.9106
 2093SOL     OW17737   3.578   2.004   5.017  0.3539 -0.3857  0.1533
 2093SOL    HW117738   3.559   1.994   4.924  0.0049 -1.2980  0.3239
 2093SOL    HW217739   3.543   2.090   5.040  0.5865  0.3045 -2.1076
 2094SOL     OW17740   1.495   0.167   1.898  0.1056 -0.0395 -0.2662
 2094SOL    HW117741   1.531   0.132   1.979  0.2282  1.2414  0.2383
 2094SOL    HW217742   1.468   0.249   1.939 -2.2385 -0.0341 -1.8289
 2095SOL     OW17743   0.578   0.460   8.638 -0.7008  0.0620  0.3663
 2095SOL    HW117744   0.639   0.390   8.615 -0.2801  0.0718  1.4197
 2095SOL    HW217745   0.589   0.530   8.573 -3.0216  1.3563  1.3661
 2096SOL     OW17746   0.437   3.920   5.875 -0.2989 -0.3162 -0.1133
 2096SOL    HW117747   0.464   3.871   5.797  0.3420  0.7320 -0.5517
 2096SOL    HW217748   0.519   3.962   5.901  1.3728 -2.2477 -2.2256
 2097SOL     OW17749   0.568   0.117   1.398 -0.3038  0.9826 -0.4983
 2097SOL    HW117750   0.658   0.099   1.425 -0.7907 -0.8448 -0.0768
 2097SOL    HW217751   0.540   0.032   1.363 -0.9700  1.4349 -1.0753
 2098SOL     OW17752   3.662   4.483   8.713  0.0535 -0.1121  0.1654
 2098SOL    HW117753   3.697   4.468   8.800  0.6889  0.5022  0.0187
 2098SOL    HW217754   3.711   4.427   8.654  2.2487 -0.5293  2.4120
 2099SOL     OW17755   2.727   1.735   2.920 -0.4332  0.1641 -0.7525
 2099SOL    HW117756   2.811   1.711   2.960  0.3832 -0.8316 -3.0584
 2099SOL    HW217757   2.751   1.789   2.845  2.7399  1.1416  0.9382
 2100SOL     OW17758   0.477   1.135  16.174 -0.0465 -0.6670 -0.4227
 2100SOL    HW117759   0.506   1.225  16.164 -0.1290 -0.6816 -0.7726
 2100SOL    HW217760   0.382   1.135  16.185 -0.0596 -1.6911 -0.5087
 2101SOL     OW17761   3.165   1.310  17.588 -0.0117  0.2492 -0.0302
 2101SOL    HW117762   3.211   1.299  17.671  0.7057 -1.1402 -0.6197
 2101SOL    HW217763   3.102   1.382  17.593 -0.3515 -0.1030  0.6404
 2102SOL     OW17764   1.446   1.250   5.656 -0.1648 -0.0922  0.5453
 2102SOL    HW117765   1.497   1.175   5.686  0.6879 -0.4422 -1.7521
 2102SOL    HW217766   1.356   1.218   5.660  0.1763 -1.3594 -2.0744
 2103SOL     OW17767   3.001   1.672  14.800 -0.1913  0.2147 -0.0456
 2103SOL    HW117768   3.093   1.696  14.792 -0.2252  1.4881  3.2247
 2103SOL    HW217769   2.982   1.709  14.886  1.3912  0.0756  0.3716
 2104SOL     OW17770   2.255   4.460   7.359  0.2915  0.4021 -0.9166
 2104SOL    HW117771   2.280   4.546   7.325  0.2290  0.5772 -0.5136
 2104SOL    HW217772   2.168   4.444   7.323  0.3675 -0.2799 -0.8075
 2105SOL     OW17773   2.333   2.555   8.716  0.6737  0.3803 -0.1287
 2105SOL    HW117774   2.263   2.500   8.753  1.5940 -1.6778 -1.4237
 2105SOL    HW217775   2.351   2.617   8.786  0.2483  0.0243  0.3002
 2106SOL     OW17776   1.578   2.561   8.664  0.1479  0.8918 -0.5165
 2106SOL    HW117777   1.578   2.583   8.758  3.1072  0.8063 -0.4912
 2106SOL    HW217778   1.558   2.468   8.667  0.9775  0.7013 -0.8731
 2107SOL     OW17779   3.962   2.546   5.340 -0.0976  0.0998 -0.1159
 2107SOL    HW117780   4.002   2.460   5.334  1.3231  0.8075 -0.6564
 2107SOL    HW217781   3.968   2.571   5.248 -0.9497  1.0826  0.0844
 2108SOL     OW17782   2.689   1.049   7.227  0.3168  0.5379 -0.2782
 2108SOL    HW117783   2.690   0.954   7.216 -0.0598  0.6914 -1.6684
 2108SOL    HW217784   2.667   1.058   7.319  0.1589 -0.3986 -0.2264
 2109SOL     OW17785   4.469   2.358  11.093  0.1537  0.3949  0.4485
 2109SOL    HW117786   4.432   2.270  11.096  1.0366  0.0168  0.4045
 2109SOL    HW217787   4.559   2.324  11.091  0.1348  0.3385  0.5743
 2110SOL     OW17788   2.142   3.154  11.817  0.1207  0.0586  0.1404
 2110SOL    HW117789   2.093   3.074  11.834  0.2037 -0.2152 -0.9261
 2110SOL    HW217790   2.229   3.118  11.799  0.9911  1.8042  0.8650
 2111SOL     OW17791   2.691   4.578   9.911  0.2480  0.4601 -0.3580
 2111SOL    HW117792   2.645   4.642   9.966 -0.9795 -1.1194  0.4559
 2111SOL    HW217793   2.645   4.594   9.828  1.2937  1.8892 -0.6735
 2112SOL     OW17794   1.560   2.142   9.599 -0.1095  0.4496  0.5162
 2112SOL    HW117795   1.513   2.127   9.682 -0.8890  2.3217  0.4153
 2112SOL    HW217796   1.494   2.119   9.534 -0.5328  1.4316  0.6017
 2113SOL     OW17797   4.235   3.714   5.276  0.3781  0.1248 -0.3045
 2113SOL    HW117798   4.326   3.694   5.257  0.1645 -0.7231 -0.4370
 2113SOL    HW217799   4.225   3.697   5.369  0.3919  1.7610  0.0036
 2114SOL     OW17800   1.021   2.488   8.610 -0.4744  0.5095  0.0618
 2114SOL    HW117801   1.078   2.422   8.649 -0.0381 -1.0516 -3.2301
 2114SOL    HW217802   0.978   2.523   8.688 -0.4031  1.1822 -0.2021
 2115SOL     OW17803   1.117   4.056  13.251  0.3890 -0.0893  0.1083
 2115SOL    HW117804   1.195   4.020  13.209  0.8580  1.0590  0.0059
 2115SOL    HW217805   1.067   4.080  13.173 -0.0275 -0.9672  0.1080
 2116SOL     OW17806   1.452   1.656   3.534  0.0311  0.7605 -0.8665
 2116SOL    HW117807   1.541   1.688   3.538 -1.0321  3.5822  0.0203
 2116SOL    HW217808   1.454   1.596   3.459  2.9329  0.6046 -0.6368
 2117SOL     OW17809   1.466   3.791   6.199  0.3404  0.3850 -0.0813
 2117SOL    HW117810   1.544   3.823   6.244  1.3219 -0.4308 -1.1998
 2117SOL    HW217811   1.452   3.870   6.147 -3.9878 -1.9639 -2.4822
 2118SOL     OW17812   0.245   2.959  12.286 -0.3155 -0.1239 -0.1091
 2118SOL    HW117813   0.171   3.012  12.258 -1.2546 -1.0934  0.5683
 2118SOL    HW217814   0.200   2.905  12.351 -1.7966  3.1343  1.5339
 2119SOL     OW17815   4.272   0.561  17.077 -0.1304  0.1340 -0.3632
 2119SOL    HW117816   4.231   0.608  17.004 -2.2858 -0.3550  0.5089
 2119SOL    HW217817   4.290   0.635  17.134 -1.7379  1.0355 -1.0060
 2120SOL     OW17818   2.620   4.541   5.529 -0.1608  0.0011  0.4212
 2120SOL    HW117819   2.587   4.468   5.478 -1.9990 -0.5853  2.4639
 2120SOL    HW217820   2.622   4.500   5.616  2.2251 -1.3331 -0.2623
 2121SOL     OW17821   2.890   2.315   9.223  0.2410 -0.3710  0.1213
 2121SOL    HW117822   2.971   2.360   9.201  0.5308 -2.1919 -2.5659
 2121SOL    HW217823   2.847   2.305   9.138  0.9980  0.0934 -0.3167
 2122SOL     OW17824   0.712   4.445   0.034 -0.1948  0.0649 -0.2542
 2122SOL    HW117825   0.687   4.494   0.112 -2.6338  0.1463 -1.0959
 2122SOL    HW217826   0.706   4.353   0.058 -0.5301  0.9351  2.9946
 2123SOL     OW17827   3.087   2.134   8.111  0.5916 -0.0778 -0.7152
 2123SOL    HW117828   3.004   2.106   8.073  0.9559  0.7915 -2.1527
 2123SOL    HW217829   3.137   2.172   8.039 -0.5949  3.9994  0.5783
 2124SOL     OW17830   1.758   3.814   6.818 -0.0879 -0.2675 -0.1025
 2124SOL    HW117831   1.707   3.742   6.856  0.2039 -0.0665  0.6846
 2124SOL    HW217832   1.831   3.775   6.771  0.7203  1.3114 -0.1456
 2125SOL     OW17833   1.580   0.873  12.427  0.2282 -0.3817 -0.5647
 2125SOL    HW117834   1.545   0.801  12.479  2.4789 -1.0319  0.0823
 2125SOL    HW217835   1.497   0.882  12.380  0.2852  1.8559 -0.2284
 2126SOL     OW17836   1.747   4.454  11.052  0.3102  0.4121 -0.1028
 2126SOL    HW117837   1.718   4.545  11.056  1.1211  0.5719  2.3643
 2126SOL    HW217838   1.803   4.442  11.129  3.2368  1.3037 -2.0611
 2127SOL     OW17839   2.732   4.448  11.009  0.2227 -0.1722 -0.2406
 2127SOL    HW117840   2.728   4.367  11.060  1.8829 -0.3711 -0.4133
 2127SOL    HW217841   2.679   4.414  10.937  0.9186 -1.8772  0.0365
 2128SOL     OW17842   3.396   2.150  11.895  0.3272 -0.5250  0.4336
 2128SOL    HW117843   3.474   2.105  11.928  1.4823  1.9501  1.0646
 2128SOL    HW217844   3.375   2.093  11.822  4.3448  1.0206 -1.9063
 2129SOL     OW17845   4.388   3.336   6.138  0.1814 -0.4524  0.2598
 2129SOL    HW117846   4.325   3.265   6.122  0.1428 -0.3502 -0.0434
 2129SOL    HW217847   4.404   3.376   6.053 -0.5026 -0.1995  0.2475
 2130SOL     OW17848   0.864   1.802   7.155 -0.1773  0.1279  0.7175
 2130SOL    HW117849   0.902   1.718   7.182  2.8063  1.2677  0.1524
 2130SOL    HW217850   0.936   1.838   7.102 -1.1442 -1.7840 -1.8944
 2131SOL     OW17851   0.518   1.616  16.685 -0.2231 -0.4363 -0.1098
 2131SOL    HW117852   0.542   1.704  16.714 -0.1223 -1.2629  2.3371
 2131SOL    HW217853   0.573   1.604  16.607 -0.3178  0.7843 -0.3584
 2132SOL     OW17854   1.420   4.244   2.970 -0.8306 -0.4999 -0.4197
 2132SOL    HW117855   1.396   4.195   2.891  1.4995  0.4167 -1.7060
 2132SOL    HW217856   1.354   4.213   3.031 -2.4141 -0.8597 -2.3185
 2133SOL     OW17857   3.487   2.673   7.104 -0.0645 -0.0685 -0.3774
 2133SOL    HW117858   3.515   2.637   7.020  1.2057 -0.7393  0.3302
 2133SOL    HW217859   3.541   2.752   7.096 -1.4829  0.7023 -2.3989
 2134SOL     OW17860   0.457   1.061   2.211  0.5578  0.2998 -0.5192
 2134SOL    HW117861   0.411   0.981   2.236  1.7483 -0.4248 -0.6511
 2134SOL    HW217862   0.533   1.060   2.270 -0.0514  0.4657  0.2746
 2135SOL     OW17863   2.547   2.287  13.134  0.3798 -0.1885  0.2324
 2135SOL    HW117864   2.561   2.325  13.047  0.9324 -0.7309  0.0857
 2135SOL    HW217865   2.636   2.278  13.168  0.7420 -0.2186 -0.7291
 2136SOL     OW17866   0.581   4.450   4.065 -0.5966  0.1936 -0.0932
 2136SOL    HW117867   0.538   4.462   4.149  0.5311  0.5542  0.4317
 2136SOL    HW217868   0.598   4.356   4.075 -2.5622 -0.0199  1.1654
 2137SOL     OW17869   1.146   0.714   3.361  0.0147 -0.1828 -0.4839
 2137SOL    HW117870   1.220   0.694   3.419  1.0763 -0.7076 -2.0308
 2137SOL    HW217871   1.068   0.725   3.416  0.9555  0.7350  0.6571
 2138SOL     OW17872   2.151   1.764   5.096 -0.4055 -0.2863 -0.1277
 2138SOL    HW117873   2.059   1.742   5.107 -0.2768  0.4428  2.4292
 2138SOL    HW217874   2.194   1.693   5.144  0.8728  0.8096  0.3575
 2139SOL     OW17875   2.538   0.322   9.483 -0.4364  0.1269  0.2524
 2139SOL    HW117876   2.460   0.283   9.444 -1.5452  1.5519  1.0693
 2139SOL    HW217877   2.529   0.415   9.463  1.0817 -0.1981 -1.9906
 2140SOL     OW17878   3.386   3.711  16.813 -0.1621  0.5039 -0.3900
 2140SOL    HW117879   3.373   3.626  16.857  2.5396  0.5541  0.4913
 2140SOL    HW217880   3.451   3.693  16.746  0.9958 -0.0052  0.8708
 2141SOL     OW17881   2.188   3.903   8.022  0.9360 -0.0499 -0.3495
 2141SOL    HW117882   2.196   3.918   7.928  1.4000  0.4081 -0.2404
 2141SOL    HW217883   2.093   3.892   8.030  1.3509 -1.3829  2.9903
 2142SOL     OW17884   1.400   3.974   6.000  0.3904  0.2750  0.5914
 2142SOL    HW117885   1.322   3.951   5.949 -0.0422  0.4242  1.1791
 2142SOL    HW217886   1.429   4.052   5.953  0.6586 -0.2341 -0.0943
 2143SOL     OW17887   2.082   2.790   0.886  0.0343 -0.5391 -0.0205
 2143SOL    HW117888   2.152   2.766   0.825 -0.5804  0.8692 -1.2657
 2143SOL    HW217889   2.125   2.787   0.972 -2.2398  2.7694  1.2190
 2144SOL     OW17890   0.052   3.148  13.569 -0.0516  0.0067 -0.1365
 2144SOL    HW117891   0.080   3.057  13.579  0.1685  0.0094 -0.7965
 2144SOL    HW217892   0.111   3.194  13.630 -1.3474  0.4952  0.7594
 2145SOL     OW17893   0.365   4.076   8.024  0.0032 -0.3888 -0.4165
 2145SOL    HW117894   0.352   4.136   7.950  0.1188 -1.7070 -1.5048
 2145SOL    HW217895   0.381   3.994   7.978 -2.1241  0.3879 -2.5000
 2146SOL     OW17896   2.480   2.618   1.393  0.1265 -0.1926  0.3346
 2146SOL    HW117897   2.428   2.562   1.335  0.4649 -1.4699  1.2531
 2146SOL    HW217898   2.490   2.698   1.341 -0.2284  1.3499  2.6316
 2147SOL     OW17899   2.383   3.909   7.371  0.0176 -0.0377 -0.0986
 2147SOL    HW117900   2.396   3.893   7.277  0.0030 -1.6712  0.1822
 2147SOL    HW217901   2.375   4.004   7.365 -0.7876 -0.1104 -0.1994
 2148SOL     OW17902   2.278   4.539  12.466  0.0882  0.8117 -0.0284
 2148SOL    HW117903   2.318   4.457  12.495  0.0827  1.0046  0.5249
 2148SOL    HW217904   2.276   4.593  12.545  1.6186  0.2667  0.3755
 2149SOL     OW17905   4.661   3.912  13.905 -0.3298 -0.1282  0.2421
 2149SOL    HW117906   4.596   3.868  13.960 -0.1666  1.3127  1.6109
 2149SOL    HW217907   4.679   3.984  13.966  0.6536 -1.2141  1.2454
 2150SOL     OW17908   0.964   0.348   2.778  0.1950  0.6264  0.4227
 2150SOL    HW117909   0.883   0.299   2.768  0.7099 -0.2364  0.4659
 2150SOL    HW217910   0.997   0.317   2.862 -2.4638  0.6156  1.4661
 2151SOL     OW17911   2.161   4.560   2.373 -0.4396  0.0647  0.4628
 2151SOL    HW117912   2.123   4.599   2.295  0.5315 -0.5432 -0.3075
 2151SOL    HW217913   2.163   4.466   2.355  0.6980  0.2847 -0.4975
 2152SOL     OW17914   2.571   3.955   2.152 -0.5174  0.3742 -0.0313
 2152SOL    HW117915   2.520   4.033   2.134 -2.9089 -1.0892  0.3107
 2152SOL    HW217916   2.496   3.895   2.147 -0.2889  0.0742  0.0885
 2153SOL     OW17917   4.241   4.361  12.024 -0.4457  0.1448  0.1415
 2153SOL    HW117918   4.327   4.335  11.993 -0.4859  0.5801 -0.3462
 2153SOL    HW217919   4.254   4.365  12.118 -0.4998 -2.3520  0.2532
 2154SOL     OW17920   1.786   0.271   1.640  0.8050  0.0058 -0.3246
 2154SOL    HW117921   1.698   0.234   1.651  0.2346  1.5407  0.2599
 2154SOL    HW217922   1.842   0.195   1.628  0.1316 -0.9900  2.7996
 2155SOL     OW17923   2.199   3.922   7.765  0.2619 -0.0409 -0.3381
 2155SOL    HW117924   2.228   3.937   7.675 -1.5357  0.8696 -0.7617
 2155SOL    HW217925   2.151   4.004   7.776  1.8206  0.6675  1.1405
 2156SOL     OW17926   3.066   2.955   1.163 -0.4716 -0.2841 -0.3153
 2156SOL    HW117927   3.009   2.902   1.218 -1.0899 -0.2128 -0.8906
 2156SOL    HW217928   3.062   2.904   1.082  1.7565 -0.1743 -0.4951
 2157SOL     OW17929   0.381   1.090   8.381 -0.1068  0.3306 -0.7020
 2157SOL    HW117930   0.312   1.033   8.345  0.6789 -1.8401  1.2293
 2157SOL    HW217931   0.426   1.121   8.302  2.3974 -1.4935  0.0195
 2158SOL     OW17932   0.082   1.709   6.320  0.1517  0.2165  0.6473
 2158SOL    HW117933   0.025   1.785   6.332 -2.9866 -2.2208  0.8937
 2158SOL    HW217934   0.051   1.667   6.240  0.1741  2.8898 -0.7617
 2159SOL     OW17935   3.662   3.258   1.092 -0.0072  0.0444 -0.2272
 2159SOL    HW117936   3.674   3.196   1.021 -1.3159 -0.0132 -0.3980
 2159SOL    HW217937   3.685   3.198   1.163 -1.7118 -1.3957 -0.9043
 2160SOL     OW17938   3.771   2.516   3.268  0.0683 -0.2999 -0.2407
 2160SOL    HW117939   3.832   2.570   3.218 -1.2424  1.1849 -0.2526
 2160SOL    HW217940   3.794   2.429   3.235  2.3141  0.1240  0.2795
 2161SOL     OW17941   0.897   1.445  17.118  0.4921 -0.2805 -0.1186
 2161SOL    HW117942   0.960   1.401  17.059 -1.9668 -2.9796 -0.7419
 2161SOL    HW217943   0.931   1.457  17.206  0.6591 -0.5086 -0.1508
 2162SOL     OW17944   0.791   2.729  16.217  0.5052 -0.1472 -0.0298
 2162SOL    HW117945   0.700   2.724  16.245  0.1096 -0.9307 -1.4313
 2162SOL    HW217946   0.836   2.716  16.300  2.8557  0.9508 -1.1270
 2163SOL     OW17947   1.814   1.408   7.194  0.4634 -0.0622 -0.2937
 2163SOL    HW117948   1.790   1.336   7.135  0.3603  0.6566 -1.1328
 2163SOL    HW217949   1.852   1.470   7.131 -3.6423  0.6645 -2.0366
 2164SOL     OW17950   0.541   1.335   7.814 -0.2485  0.1686 -0.1104
 2164SOL    HW117951   0.607   1.272   7.788  0.0821  0.6724 -0.4840
 2164SOL    HW217952   0.588   1.408   7.853  1.2300 -1.8800  1.9420
 2165SOL     OW17953   3.319   0.622   1.574 -0.3435  0.2142 -0.2951
 2165SOL    HW117954   3.381   0.554   1.548 -1.9679 -1.0170 -0.9139
 2165SOL    HW217955   3.377   0.698   1.567 -0.9033  0.7584  1.0810
 2166SOL     OW17956   3.988   0.058   7.601 -0.3889 -0.0405 -0.3858
 2166SOL    HW117957   3.906   0.102   7.623  0.1949  0.2595  1.2356
 2166SOL    HW217958   4.033   0.131   7.560  2.5483 -1.6421 -0.0827
 2167SOL     OW17959   3.711   2.253   0.124 -0.2556  0.2907  0.2029
 2167SOL    HW117960   3.787   2.291   0.167 -0.1104 -0.7850  0.8961
 2167SOL    HW217961   3.728   2.159   0.132 -3.6419 -0.3177  0.2345
 2168SOL     OW17962   1.507   0.430   4.611 -0.2130  0.4502 -0.1493
 2168SOL    HW117963   1.593   0.408   4.647  0.4565  2.0011 -0.7867
 2168SOL    HW217964   1.454   0.359   4.649  0.8358  0.8079  1.9965
 2169SOL     OW17965   2.535   1.167  16.819 -0.1407  0.8020 -0.5072
 2169SOL    HW117966   2.627   1.158  16.796 -0.5180 -0.3135 -1.5748
 2169SOL    HW217967   2.506   1.084  16.781  2.1408 -0.8155  1.2608
 2170SOL     OW17968   1.479   1.600   2.682 -0.0316 -0.4705  0.0886
 2170SOL    HW117969   1.483   1.543   2.758  2.5812 -2.7887 -1.7828
 2170SOL    HW217970   1.477   1.537   2.610  1.1407  0.3911 -0.7100
 2171SOL     OW17971   1.040   4.662  10.749 -0.1547 -0.4134  0.6485
 2171SOL    HW117972   1.074   4.639  10.835 -1.2380  0.4117  1.3051
 2171SOL    HW217973   0.962   4.712  10.774 -0.3119 -0.6173  0.5642
 2172SOL     OW17974   0.230   1.038  11.228  0.3067  0.3046 -0.1048
 2172SOL    HW117975   0.163   1.069  11.166  0.0157  0.3650  0.2399
 2172SOL    HW217976   0.306   1.085  11.195 -0.1668 -0.4416 -2.2519
 2173SOL     OW17977   1.382   2.851  15.702 -0.3466  0.5374 -0.4407
 2173SOL    HW117978   1.343   2.813  15.623  0.8662  1.4050 -1.4729
 2173SOL    HW217979   1.457   2.895  15.660  1.9429 -2.8450  0.1202
 2174SOL     OW17980   0.136   3.485   3.817 -0.4888  0.1614  0.2231
 2174SOL    HW117981   0.053   3.485   3.865  0.2888 -0.2376  1.5331
 2174SOL    HW217982   0.107   3.464   3.728 -0.2083  0.1384  0.1373
 2175SOL     OW17983   4.473   2.984   8.364 -0.4334  0.2935 -0.6288
 2175SOL    HW117984   4.454   3.066   8.411  1.4043  0.8591 -0.8817
 2175SOL    HW217985   4.401   2.931   8.398 -0.7265 -0.4192 -2.3787
 2176SOL     OW17986   2.602   0.731  13.669 -0.9536 -0.3359  0.2799
 2176SOL    HW117987   2.607   0.668  13.597  0.5076  1.3621 -1.0998
 2176SOL    HW217988   2.645   0.674  13.732 -2.4159 -1.0284  0.6593
 2177SOL     OW17989   3.269   1.694  13.451  0.3371 -0.6299  0.4686
 2177SOL    HW117990   3.177   1.691  13.477  0.3703 -0.8648  0.5560
 2177SOL    HW217991   3.324   1.655  13.518 -1.6034 -0.9640  1.8538
 2178SOL     OW17992   3.169   2.175  14.695 -0.9291  0.3983 -0.4670
 2178SOL    HW117993   3.116   2.118  14.751  0.3063  1.3726  1.6883
 2178SOL    HW217994   3.205   2.232  14.763  0.8352  0.3602 -1.3769
 2179SOL     OW17995   0.033   3.704   4.079 -0.4233 -0.1543  0.4182
 2179SOL    HW117996   4.660   3.685   4.094 -0.9124  1.1338 -0.9752
 2179SOL    HW217997   0.030   3.789   4.034 -0.9504 -0.3402  0.1091
 2180SOL     OW17998   3.531   0.547   4.427  0.1324 -0.4945 -0.0248
 2180SOL    HW117999   3.449   0.550   4.478  1.3621  1.6495  1.8345
 2180SOL    HW218000   3.518   0.615   4.362 -1.6439  0.2374  1.0691
 2181SOL     OW18001   3.107   1.561   2.460  0.1746  0.1464  0.2582
 2181SOL    HW118002   3.094   1.470   2.433  2.0540  0.0648 -0.3720
 2181SOL    HW218003   3.023   1.601   2.438 -0.1504 -1.8120 -1.9747
 2182SOL     OW18004   1.444   1.060   5.857 -0.3900  0.5113 -0.0275
 2182SOL    HW118005   1.424   1.136   5.912  1.3847  0.2673  0.9591
 2182SOL    HW218006   1.366   1.041   5.805  0.4549 -1.5104 -0.5495
 2183SOL     OW18007   4.531   3.732  11.408 -0.8718  0.0311 -0.1218
 2183SOL    HW118008   4.537   3.746  11.313 -0.2789  0.5949 -0.0010
 2183SOL    HW218009   4.456   3.673  11.419 -0.3320 -0.9716 -1.8535
 2184SOL     OW18010   4.004   2.879   5.764  0.1505 -0.3757 -0.0633
 2184SOL    HW118011   4.037   2.812   5.705  0.1806 -1.0102  0.6680
 2184SOL    HW218012   3.961   2.947   5.712 -1.0105 -0.3380  0.9256
 2185SOL     OW18013   1.784   1.787  12.446  0.2821 -0.2932  0.3661
 2185SOL    HW118014   1.720   1.740  12.391  1.1365 -2.5231  1.2866
 2185SOL    HW218015   1.770   1.742  12.529 -0.3393  0.6929  0.7895
 2186SOL     OW18016   1.598   4.395   8.193  0.3017  0.2587 -0.0578
 2186SOL    HW118017   1.534   4.465   8.203 -1.3358 -0.8718 -2.7112
 2186SOL    HW218018   1.677   4.448   8.186  0.5472 -0.2467 -1.1309
 2187SOL     OW18019   4.591   2.858   5.756  0.3153  0.0975 -0.2133
 2187SOL    HW118020   4.523   2.917   5.788  0.3081 -0.6242  1.0940
 2187SOL    HW218021   4.543   2.803   5.694  0.0613  0.4226 -0.3048
 2188SOL     OW18022   4.002   2.616   5.076  0.3916 -1.1448 -0.0244
 2188SOL    HW118023   4.085   2.651   5.107  1.2199 -1.6057 -1.7614
 2188SOL    HW218024   4.022   2.532   5.036  0.1940 -1.1182 -0.1797
 2189SOL     OW18025   1.765   2.147   4.047  0.0277  0.4335  0.8984
 2189SOL    HW118026   1.772   2.235   4.084 -3.7061  2.5965 -3.5387
 2189SOL    HW218027   1.679   2.154   4.006  1.1484 -1.9118 -1.8737
 2190SOL     OW18028   2.946   4.668   9.777  0.1783  0.5415  0.0787
 2190SOL    HW118029   2.944   4.585   9.728 -2.5741  0.7182 -0.1089
 2190SOL    HW218030   2.860   4.668   9.818 -0.2215 -0.0779 -0.7569
 2191SOL     OW18031   1.345   0.905   2.482 -0.1377  0.2471  0.0195
 2191SOL    HW118032   1.375   0.963   2.411 -0.3784 -0.1473 -0.3978
 2191SOL    HW218033   1.275   0.961   2.517 -0.3900  0.4028 -0.7339
 2192SOL     OW18034   2.237   3.959   2.734  0.5874 -0.2987  0.1937
 2192SOL    HW118035   2.173   3.905   2.688  0.6135 -0.1634 -0.0002
 2192SOL    HW218036   2.319   3.909   2.733 -0.1297 -1.4647  0.2197
 2193SOL     OW18037   4.071   0.421  15.202 -0.6493  0.0244  0.3327
 2193SOL    HW118038   4.152   0.377  15.229 -0.6998 -0.7961 -0.8637
 2193SOL    HW218039   4.015   0.414  15.279 -1.3684 -1.3703 -0.3227
 2194SOL     OW18040   3.410   3.443   1.561  0.4084  0.3816 -0.1502
 2194SOL    HW118041   3.393   3.350   1.546  0.3624  0.3129  0.3398
 2194SOL    HW218042   3.490   3.431   1.611  0.6174 -1.8755 -1.0475
 2195SOL     OW18043   1.587   1.779   5.450  0.5139 -0.1217  0.0031
 2195SOL    HW118044   1.503   1.739   5.427  0.1715  0.7285 -0.1853
 2195SOL    HW218045   1.591   1.759   5.544 -2.4876 -1.5585 -0.1748
 2196SOL     OW18046   1.649   3.592   5.884  0.6311  0.6093 -0.1932
 2196SOL    HW118047   1.639   3.531   5.957 -0.2903  0.1931 -0.6808
 2196SOL    HW218048   1.727   3.552   5.845 -1.5961 -1.5910 -2.3103
 2197SOL     OW18049   2.335   3.669  13.727  0.3735 -0.3157 -0.0038
 2197SOL    HW118050   2.294   3.685  13.812  0.7834 -0.9010  0.3103
 2197SOL    HW218051   2.426   3.698  13.732  0.5335 -0.5513 -1.6623
 2198SOL     OW18052   2.559   0.897  17.009  0.3049  0.1149 -0.5616
 2198SOL    HW118053   2.544   0.939  16.924  1.3212  0.2008 -0.7005
 2198SOL    HW218054   2.470   0.876  17.037  0.7139 -0.9320 -0.0348
 2199SOL     OW18055   4.613   3.620   3.227 -0.1859 -0.5856 -0.2924
 2199SOL    HW118056   4.653   3.626   3.140 -2.3471  1.9194 -1.1006
 2199SOL    HW218057   4.526   3.586   3.208 -0.9439  0.8835  0.5590
 2200SOL     OW18058   4.192   3.173   4.502  0.0406  0.0932 -0.4195
 2200SOL    HW118059   4.247   3.104   4.463  0.3873 -0.7221  1.5042
 2200SOL    HW218060   4.140   3.204   4.428 -1.6348 -0.7838  0.3903
 2201SOL     OW18061   1.918   2.388  15.913 -0.2324 -0.0783 -0.4840
 2201SOL    HW118062   1.839   2.424  15.952 -0.1884 -0.3574 -0.1435
 2201SOL    HW218063   1.885   2.358  15.828  0.5016  0.5532 -1.0029
 2202SOL     OW18064   2.831   0.961   8.574  0.0757  0.2351  0.7080
 2202SOL    HW118065   2.881   0.886   8.607  2.0715  0.9977 -0.5875
 2202SOL    HW218066   2.891   1.036   8.564 -0.2049  0.6084  1.7398
 2203SOL     OW18067   4.502   4.576   7.131 -0.3146  0.1969  0.1948
 2203SOL    HW118068   4.478   4.516   7.061  0.2400  1.3575 -1.0066
 2203SOL    HW218069   4.589   4.537   7.138  0.5476  2.0776  0.1032
 2204SOL     OW18070   0.644   0.799  10.474 -0.6613 -0.2760  0.1958
 2204SOL    HW118071   0.562   0.805  10.523 -0.2077 -1.1116  1.0543
 2204SOL    HW218072   0.696   0.763  10.545  1.2538 -1.7297 -1.9619
 2205SOL     OW18073   3.554   3.394   3.683 -0.3333  0.4108  0.2832
 2205SOL    HW118074   3.516   3.463   3.628  0.6622  0.4329 -0.3625
 2205SOL    HW218075   3.526   3.423   3.770 -0.7459 -1.6753  0.8389
 2206SOL     OW18076   1.932   4.094   3.949 -0.4630 -0.1600  0.0507
 2206SOL    HW118077   1.881   4.020   3.916 -0.8814  0.8131 -1.5044
 2206SOL    HW218078   1.888   4.170   3.909 -0.8190 -1.3792 -1.8541
 2207SOL     OW18079   0.283   2.404  15.764 -0.0008  0.4663  0.0780
 2207SOL    HW118080   0.271   2.381  15.672 -2.0931 -0.9142  0.6856
 2207SOL    HW218081   0.268   2.319  15.806 -1.1160  0.9725  0.7308
 2208SOL     OW18082   0.999   1.508  17.344 -0.0812  0.9637 -0.2880
 2208SOL    HW118083   1.042   1.577  17.294 -0.5071  2.1035  0.9385
 2208SOL    HW218084   0.951   1.547  17.417 -0.3718 -0.1270  0.1043
 2209SOL     OW18085   3.686   0.763  17.231 -0.1407  0.7805 -0.0531
 2209SOL    HW118086   3.632   0.699  17.187 -0.4070  0.3465  0.9048
 2209SOL    HW218087   3.695   0.713  17.312  2.2458  1.3244  0.0296
 2210SOL     OW18088   3.976   2.148  15.408 -0.8054 -0.7845 -0.4349
 2210SOL    HW118089   3.938   2.226  15.449 -0.2817 -1.1403  0.7066
 2210SOL    HW218090   4.012   2.185  15.328 -0.9144 -0.6481 -0.4214
 2211SOL     OW18091   4.113   0.385   5.248  0.5646 -0.1021  0.3869
 2211SOL    HW118092   4.112   0.382   5.344  0.9503  0.9415  0.4296
 2211SOL    HW218093   4.114   0.296   5.215  1.5758 -0.5087  1.5040
 2212SOL     OW18094   1.762   2.802   3.106  0.9887 -0.1369  0.6844
 2212SOL    HW118095   1.790   2.788   3.015  0.1772  1.1743  0.2193
 2212SOL    HW218096   1.810   2.732   3.150  0.2597 -0.3146  1.1949
 2213SOL     OW18097   0.389   0.731  11.839 -0.8412  0.4329 -0.0676
 2213SOL    HW118098   0.437   0.814  11.832  0.4265 -0.0624  2.9775
 2213SOL    HW218099   0.391   0.712  11.745 -2.1678  0.7749 -0.1575
 2214SOL     OW18100   2.416   2.326   1.745 -0.2238  0.2818 -0.5185
 2214SOL    HW118101   2.367   2.268   1.687 -0.1268 -0.1388 -0.1858
 2214SOL    HW218102   2.479   2.272   1.794 -1.8978  0.0862  1.4449
 2215SOL     OW18103   0.811   2.429   6.499  0.1090 -0.6653 -0.8746
 2215SOL    HW118104   0.841   2.473   6.579  1.0635 -1.1811 -0.9466
 2215SOL    HW218105   0.824   2.499   6.436  1.4212  0.0470  0.1917
 2216SOL     OW18106   3.795   3.333  12.955 -0.0622 -0.4756  0.7580
 2216SOL    HW118107   3.709   3.374  12.945  1.6326  3.2522  1.2787
 2216SOL    HW218108   3.792   3.260  12.893  1.1449 -1.1481  1.5094
 2217SOL     OW18109   4.615   3.661   7.540 -0.0853  0.0093 -0.1632
 2217SOL    HW118110   4.602   3.571   7.570 -0.0780 -0.1768 -0.7152
 2217SOL    HW218111   4.534   3.673   7.490 -0.6399 -1.2800  0.4262
 2218SOL     OW18112   3.390   4.343   9.748  0.4944 -0.1866  1.0244
 2218SOL    HW118113   3.451   4.373   9.681  1.1959  0.4239  1.9353
 2218SOL    HW218114   3.452   4.310   9.813 -0.3068 -2.7921  0.4438
 2219SOL     OW18115   3.870   4.628   4.943 -0.4379  0.2780  0.1658
 2219SOL    HW118116   3.889   4.540   4.975 -2.4175  0.0466  0.7169
 2219SOL    HW218117   3.794   4.659   4.992  0.9118  2.2997  0.9653
 2220SOL     OW18118   0.913   1.558   8.092 -0.3236  0.4733  0.7106
 2220SOL    HW118119   0.852   1.617   8.135 -0.7578  1.3787 -1.1597
 2220SOL    HW218120   0.944   1.607   8.016 -3.4840 -3.6267 -3.2554
 2221SOL     OW18121   4.307   2.945   4.364  0.4403 -0.1352 -0.5174
 2221SOL    HW118122   4.276   2.876   4.423 -2.6627  0.2880 -1.6754
 2221SOL    HW218123   4.359   2.902   4.296  0.3936 -3.7767  1.7894
 2222SOL     OW18124   4.693   0.590   0.779  0.1446 -0.5609  0.4034
 2222SOL    HW118125   0.040   0.521   0.772  0.7094 -0.1872  2.0740
 2222SOL    HW218126   4.715   0.626   0.865  1.2157 -0.8503  0.2446
 2223SOL     OW18127   1.816   3.799  15.434  0.0169 -0.1748 -0.0457
 2223SOL    HW118128   1.899   3.767  15.399  0.4858  1.2254 -0.2029
 2223SOL    HW218129   1.831   3.891  15.415  3.3961 -0.7424 -0.1590
 2224SOL     OW18130   0.018   1.278   5.743  0.6402  0.3816 -0.4412
 2224SOL    HW118131   0.064   1.265   5.826  1.4084  1.8733 -0.6366
 2224SOL    HW218132   0.087   1.321   5.693  0.0746 -0.7153 -2.1676
 2225SOL     OW18133   2.315   0.232   7.191 -0.0878  0.2662 -0.1851
 2225SOL    HW118134   2.230   0.269   7.170  0.5065  2.5052  1.3442
 2225SOL    HW218135   2.337   0.187   7.110 -0.0877 -0.6394  0.3127
 2226SOL     OW18136   4.420   2.485   6.229  0.4824 -0.0780 -0.3224
 2226SOL    HW118137   4.459   2.441   6.304 -1.2615  1.1217  1.2890
 2226SOL    HW218138   4.335   2.516   6.260  0.6789  0.2235 -0.0833
 2227SOL     OW18139   1.962   1.738   3.023  0.1912  0.3881 -0.0951
 2227SOL    HW118140   1.972   1.781   2.939 -1.7193 -0.9377 -0.9902
 2227SOL    HW218141   2.053   1.712   3.034  0.2531  1.1494  1.1910
 2228SOL     OW18142   3.846   1.616   8.873 -0.1275  0.0379 -0.0581
 2228SOL    HW118143   3.781   1.652   8.934  1.1247  0.8302  0.8240
 2228SOL    HW218144   3.844   1.526   8.904  0.6039 -0.0280 -0.1999
 2229SOL     OW18145   3.231   3.647   5.258 -0.2577  0.3071  0.0685
 2229SOL    HW118146   3.324   3.667   5.269 -0.4477 -0.2972  2.8103
 2229SOL    HW218147   3.191   3.688   5.335 -2.7027 -0.5479 -0.7414
 2230SOL     OW18148   1.235   0.845   4.533  0.5019 -0.9548  0.2785
 2230SOL    HW118149   1.304   0.823   4.470  0.4475 -1.1136  0.2748
 2230SOL    HW218150   1.262   0.803   4.615  0.1865 -0.5922  0.5675
 2231SOL     OW18151   4.232   0.565   6.395 -0.3417 -0.5095 -0.1405
 2231SOL    HW118152   4.253   0.656   6.411  1.5376 -0.1603 -4.6277
 2231SOL    HW218153   4.302   0.514   6.353  1.5441  3.2143 -1.4364
 2232SOL     OW18154   1.887   0.273  10.558 -0.3587 -0.0524  0.3250
 2232SOL    HW118155   1.916   0.308  10.474  0.1366 -2.1263 -0.3672
 2232SOL    HW218156   1.871   0.181  10.536  2.0469 -0.6289  1.1055
 2233SOL     OW18157   2.410   3.214   2.599  0.3303 -1.0089 -0.0804
 2233SOL    HW118158   2.485   3.173   2.644  0.4124  1.6156  2.1742
 2233SOL    HW218159   2.367   3.129   2.589 -2.7398  0.5678 -0.0707
 2234SOL     OW18160   2.777   3.611  13.110 -0.6686  0.5295 -0.1981
 2234SOL    HW118161   2.796   3.676  13.042  0.2410  1.3709  0.8700
 2234SOL    HW218162   2.685   3.628  13.131 -1.0295  1.1791 -2.3369
 2235SOL     OW18163   1.842   3.426  10.448 -0.2846  0.2332  0.5131
 2235SOL    HW118164   1.798   3.367  10.509  0.3824 -1.1936 -0.3908
 2235SOL    HW218165   1.934   3.400  10.451 -0.3008  0.1563  0.3373
 2236SOL     OW18166   1.002   2.943   3.903  0.2840  0.2352  0.6835
 2236SOL    HW118167   1.068   2.915   3.840 -1.2057  2.1214 -1.7369
 2236SOL    HW218168   1.023   3.034   3.924 -0.8292 -0.1341  3.4024
 2237SOL     OW18169   1.390   4.498   3.462 -0.1328  0.1851 -0.6627
 2237SOL    HW118170   1.308   4.472   3.421  0.3897 -0.1556 -1.5033
 2237SOL    HW218171   1.392   4.592   3.444 -0.8708  0.2185 -0.5564
 2238SOL     OW18172   1.332   2.738   2.879 -0.2856  0.2025  0.0660
 2238SOL    HW118173   1.282   2.795   2.937 -0.5865  0.3707 -0.3671
 2238SOL    HW218174   1.259   2.707   2.826 -2.3927  1.1790  2.3551
 2239SOL     OW18175   4.271   3.503   6.819 -0.5755  0.7645  0.0770
 2239SOL    HW118176   4.217   3.581   6.802  0.3168  1.2110 -0.7157
 2239SOL    HW218177   4.212   3.429   6.834 -0.7575  0.9242  0.1481
 2240SOL     OW18178   3.374   4.258   2.702 -0.0618 -0.1126  0.3205
 2240SOL    HW118179   3.305   4.230   2.761 -1.5378 -0.6413 -1.6604
 2240SOL    HW218180   3.359   4.352   2.696  2.1139  0.2629  0.7012
 2241SOL     OW18181   0.015   1.855   1.451  0.3194  0.3295  0.0776
 2241SOL    HW118182   0.023   1.773   1.499 -0.8507  1.0935  1.6062
 2241SOL    HW218183   4.658   1.907   1.478 -1.2860 -1.7974 -0.3403
 2242SOL     OW18184   1.600   1.415   0.254 -1.0361  0.3955 -0.0074
 2242SOL    HW118185   1.686   1.388   0.285 -1.0073  2.0978  1.3660
 2242SOL    HW218186   1.554   1.421   0.339  2.4965 -0.1071  1.9353
 2243SOL     OW18187   0.464   0.668   6.696 -0.0293 -0.1582 -0.4992
 2243SOL    HW118188   0.516   0.613   6.638  1.2652  0.3400  0.1695
 2243SOL    HW218189   0.412   0.715   6.631 -0.8050 -0.9115 -0.4268
 2244SOL     OW18190   2.597   2.447   3.728 -0.2095 -0.1487 -0.4065
 2244SOL    HW118191   2.544   2.519   3.761 -0.0155  0.1489 -0.7342
 2244SOL    HW218192   2.661   2.428   3.797  0.5574 -0.5354 -1.2139
 2245SOL     OW18193   2.937   0.194   0.998  0.5142 -0.2635 -0.1262
 2245SOL    HW118194   2.899   0.252   0.933 -2.7658  0.0834  2.1362
 2245SOL    HW218195   2.858   0.142   1.009  0.8209 -1.1954 -2.2147
 2246SOL     OW18196   0.663   0.253  12.122 -0.1736 -0.1666 -0.5933
 2246SOL    HW118197   0.583   0.303  12.135  0.0578 -0.1137  0.5996
 2246SOL    HW218198   0.728   0.305  12.170  0.6900 -1.6510 -0.1565
 2247SOL     OW18199   1.344   1.197  12.586  0.8796  0.8168  0.2919
 2247SOL    HW118200   1.390   1.123  12.625 -0.8811 -0.2509  0.3284
 2247SOL    HW218201   1.417   1.252  12.557  1.0461 -0.4741 -1.6980
 2248SOL     OW18202   4.155   1.857  15.986 -0.3125 -0.5096  0.1631
 2248SOL    HW118203   4.087   1.875  15.920  3.0346 -1.2948 -3.4910
 2248SOL    HW218204   4.144   1.762  15.996  1.1046 -0.5032  1.5773
 2249SOL     OW18205   4.100   3.082   3.682 -0.7149 -0.2211 -0.1138
 2249SOL    HW118206   4.173   3.145   3.686 -1.3935  0.3921  2.8419
 2249SOL    HW218207   4.072   3.100   3.592 -0.0812 -2.9175 -0.8424
 2250SOL     OW18208   0.067   1.819   1.167  0.2012  0.1795  0.0328
 2250SOL    HW118209   0.018   1.820   1.249 -0.6491  2.0156 -0.4986
 2250SOL    HW218210   0.119   1.898   1.180 -1.0806  0.6514  2.1339
 2251SOL     OW18211   4.408   1.685   5.667  0.5039 -0.0022 -0.4399
 2251SOL    HW118212   4.411   1.657   5.758 -1.8527 -0.2278 -0.4414
 2251SOL    HW218213   4.329   1.740   5.665  1.3076  1.1377 -1.0694
 2252SOL     OW18214   1.805   3.287   3.326  0.0211 -0.4760 -0.6647
 2252SOL    HW118215   1.850   3.328   3.400  0.7312 -1.2301 -0.6745
 2252SOL    HW218216   1.848   3.202   3.317 -2.4430 -1.5360 -2.3157
 2253SOL     OW18217   4.111   2.408   7.170  0.2073 -0.2019 -0.4026
 2253SOL    HW118218   4.141   2.493   7.204 -1.6942 -0.0539  0.8772
 2253SOL    HW218219   4.128   2.413   7.076  1.1190  0.0634 -0.2280
 2254SOL     OW18220   3.266   0.649  15.001  0.1893  0.3145 -0.7356
 2254SOL    HW118221   3.340   0.595  14.972  1.6163  1.2543  1.1401
 2254SOL    HW218222   3.319   0.729  15.003  1.7997 -0.7566  0.3844
 2255SOL     OW18223   2.969   4.179   5.932  0.1371 -0.1597  0.1481
 2255SOL    HW118224   2.978   4.121   6.008  0.0688 -0.1737  0.1447
 2255SOL    HW218225   3.047   4.235   5.933 -0.1569  0.2281  2.0115
 2256SOL     OW18226   1.894   2.897   7.533  0.1632  0.0953  0.2048
 2256SOL    HW118227   1.811   2.909   7.486 -0.0605  1.0950  0.8454
 2256SOL    HW218228   1.884   2.980   7.580 -0.8378 -0.8099  1.5599
 2257SOL     OW18229   4.194   3.865   8.691 -0.1064  0.2796 -0.5581
 2257SOL    HW118230   4.153   3.893   8.609  0.4343 -0.0682 -0.9414
 2257SOL    HW218231   4.277   3.827   8.664 -0.3860 -0.1806 -0.7663
 2258SOL     OW18232   2.901   3.978  17.070  0.3080  0.1588 -0.4588
 2258SOL    HW118233   2.996   3.967  17.067  0.7125  3.1699  1.5756
 2258SOL    HW218234   2.865   3.890  17.083  0.4875  0.2388  0.5428
 2259SOL     OW18235   1.612   1.025   8.638 -0.2285  0.0805  0.2777
 2259SOL    HW118236   1.539   1.019   8.577 -0.2933 -0.4964  0.4102
 2259SOL    HW218237   1.670   1.082   8.587 -1.5281  1.7161  0.6407
 2260SOL     OW18238   0.968   3.270  15.639  0.0997  0.2751  0.5613
 2260SOL    HW118239   1.048   3.252  15.688 -0.2927 -0.0660  1.0767
 2260SOL    HW218240   1.005   3.346  15.595  1.3738 -0.3048  0.6264
 2261SOL     OW18241   4.120   0.455   1.395 -0.0149 -0.1196  0.0093
 2261SOL    HW118242   4.215   0.468   1.385 -0.2389  0.7671 -0.9197
 2261SOL    HW218243   4.115   0.359   1.394  2.1468 -0.2428  0.6883
 2262SOL     OW18244   2.701   1.066   5.494 -0.4394 -0.1311  0.3423
 2262SOL    HW118245   2.703   0.979   5.534  0.3216 -1.1973 -1.9805
 2262SOL    HW218246   2.691   1.123   5.570  1.8271  1.3738 -0.4797
 2263SOL     OW18247   3.108   0.264  11.726  0.6859 -0.5985  0.4698
 2263SOL    HW118248   3.130   0.301  11.641 -0.9114 -0.0390  0.3067
 2263SOL    HW218249   3.062   0.184  11.700  0.3615 -0.9450  2.0935
 2264SOL     OW18250   2.421   0.617  16.342  0.7335  0.3325  0.6387
 2264SOL    HW118251   2.399   0.604  16.250 -0.9114  0.2778  1.0458
 2264SOL    HW218252   2.345   0.664  16.376  1.4541  3.0724 -1.4681
 2265SOL     OW18253   3.229   3.208   7.766  0.8263  0.6801  0.3671
 2265SOL    HW118254   3.280   3.132   7.738 -0.8820 -0.8795  1.5608
 2265SOL    HW218255   3.252   3.273   7.699 -0.7765  1.4592  0.5745
 2266SOL     OW18256   4.438   0.457   6.799 -0.5644  0.1147  0.5373
 2266SOL    HW118257   4.456   0.394   6.729  0.5660  1.9094 -0.7924
 2266SOL    HW218258   4.343   0.465   6.802 -0.5405  0.7318 -0.5266
 2267SOL     OW18259   1.257   0.002   6.526 -0.2999 -0.5615 -0.3233
 2267SOL    HW118260   1.304   4.690   6.449  1.5671  2.2053 -0.3126
 2267SOL    HW218261   1.182   4.662   6.522 -0.7019 -0.1280  0.6831
 2268SOL     OW18262   0.391   0.267   6.003  0.8269 -0.1189  0.0803
 2268SOL    HW118263   0.326   0.244   6.070  1.0740 -1.0689  0.0035
 2268SOL    HW218264   0.366   0.229   5.919 -2.2709 -0.5816  1.2002
 2269SOL     OW18265   1.343   1.948   2.054  0.9685 -0.1682  0.1268
 2269SOL    HW118266   1.381   1.944   1.966 -1.6221 -1.5193 -0.9445
 2269SOL    HW218267   1.270   1.887   2.042  1.4523 -0.8296  0.5534
 2270SOL     OW18268   0.808   4.352   4.771 -0.0666  0.5307  0.2337
 2270SOL    HW118269   0.770   4.314   4.692 -3.4874  0.4578  1.8929
 2270SOL    HW218270   0.772   4.439   4.754 -0.7636  0.2692  0.3885
 2271SOL     OW18271   2.298   2.388   1.998  0.6691 -0.0737 -0.0807
 2271SOL    HW118272   2.337   2.316   2.046  1.3194 -0.1613 -0.7363
 2271SOL    HW218273   2.324   2.378   1.906  0.7422 -1.5867  0.1059
 2272SOL     OW18274   1.118   1.607   9.786 -0.5861 -0.4469  0.3540
 2272SOL    HW118275   1.047   1.607   9.851 -1.0280 -0.4991 -0.1261
 2272SOL    HW218276   1.082   1.555   9.714  0.8992  0.7475 -1.2583
 2273SOL     OW18277   2.825   4.152   3.040 -0.3029 -0.6873 -0.0602
 2273SOL    HW118278   2.773   4.072   3.039  1.5462 -1.8728 -1.3715
 2273SOL    HW218279   2.776   4.214   2.986  0.2887 -0.9204 -0.8693
 2274SOL     OW18280   1.974   4.596   2.574  0.0998 -0.0643  0.7090
 2274SOL    HW118281   2.037   4.580   2.504 -0.7564  2.7889 -0.7247
 2274SOL    HW218282   1.894   4.617   2.525  0.6760  2.5680  0.9041
 2275SOL     OW18283   1.497   0.109   2.480  0.4108  0.3134  0.0871
 2275SOL    HW118284   1.464   0.165   2.551  1.1365 -1.5470  1.8822
 2275SOL    HW218285   1.431   0.040   2.481  1.2387 -0.5008 -0.8983
 2276SOL     OW18286   0.044   0.983  11.651  0.5535  0.2708  0.5113
 2276SOL    HW118287   0.089   1.066  11.634  1.7713 -0.3364  0.7759
 2276SOL    HW218288   0.029   0.958  11.560  1.1339 -0.5535  0.6430
 2277SOL     OW18289   1.767   2.802   1.806 -0.0438  0.2757 -0.1162
 2277SOL    HW118290   1.711   2.825   1.731  2.3388  0.2523 -1.9002
 2277SOL    HW218291   1.827   2.740   1.764  0.3258 -0.2073  1.1371
 2278SOL     OW18292   1.952   1.000   7.672  0.6504  0.1704 -0.2552
 2278SOL    HW118293   1.880   1.063   7.666 -0.7813 -1.6831 -2.1096
 2278SOL    HW218294   2.009   1.053   7.729 -0.5117  2.0225 -0.7972
 2279SOL     OW18295   3.757   2.917   9.667  0.5255  0.2192  0.8849
 2279SOL    HW118296   3.693   2.878   9.728  2.8911 -1.5743  2.2038
 2279SOL    HW218297   3.771   2.847   9.604 -0.0629  1.3977 -0.5664
 2280SOL     OW18298   4.660   2.118  12.173  0.0002  0.2938  0.1001
 2280SOL    HW118299   4.683   2.100  12.264  0.3803  1.4356  0.2361
 2280SOL    HW218300   4.717   2.195  12.165  0.8955 -0.2567  1.1057
 2281SOL     OW18301   3.448   1.589   9.643  0.1478 -0.2222 -0.5822
 2281SOL    HW118302   3.537   1.553   9.648 -0.0536 -0.8889 -1.9482
 2281SOL    HW218303   3.386   1.517   9.645  0.4698 -0.4607  1.1782
 2282SOL     OW18304   2.918   1.650   3.119 -0.0912  0.1482  0.6410
 2282SOL    HW118305   2.909   1.564   3.161 -0.8224  0.2823  0.7621
 2282SOL    HW218306   2.892   1.713   3.186  1.7416  2.6582 -1.0049
 2283SOL     OW18307   4.632   1.764   5.554 -0.3604  0.5337 -0.2221
 2283SOL    HW118308   4.596   1.837   5.604  0.0726  0.8983 -0.4452
 2283SOL    HW218309   4.568   1.695   5.571  0.9689 -0.9195 -1.1014
 2284SOL     OW18310   0.042   2.449   8.367 -0.1246 -0.3421 -0.0493
 2284SOL    HW118311   4.719   2.508   8.429  0.3653 -0.3054  0.2490
 2284SOL    HW218312   0.006   2.465   8.280 -0.6577 -0.4354  0.1527
 2285SOL     OW18313   2.348   4.712   5.299  0.6480  0.1173  0.3561
 2285SOL    HW118314   2.284   0.033   5.240  0.7831  0.3674  0.3806
 2285SOL    HW218315   2.319   0.028   5.383 -2.2072  3.1156 -1.9122
 2286SOL     OW18316   4.638   2.346   4.311 -0.0318 -0.6973  0.1504
 2286SOL    HW118317   0.013   2.327   4.305  0.3140  0.6734  1.2258
 2286SOL    HW218318   4.628   2.308   4.398  1.4882 -0.3131  0.4962
 2287SOL     OW18319   0.892   4.284   6.857  0.9039  0.4232  0.5063
 2287SOL    HW118320   0.959   4.351   6.874  0.3424  0.9245  0.7327
 2287SOL    HW218321   0.954   4.219   6.822  1.2993  1.1598 -0.1613
 2288SOL     OW18322   0.504   3.406   4.998  0.5099 -0.9042 -0.4097
 2288SOL    HW118323   0.525   3.314   4.985  0.3080 -0.8608 -1.0216
 2288SOL    HW218324   0.569   3.436   5.062 -0.5980 -1.0016  0.7404
 2289SOL     OW18325   3.990   4.129  10.345 -0.3003 -0.7436 -0.0963
 2289SOL    HW118326   4.063   4.120  10.406 -0.2831  1.9372  0.2959
 2289SOL    HW218327   3.918   4.157  10.401  0.8723  0.1592  0.9746
 2290SOL     OW18328   1.180   1.170   7.275  0.0718 -0.0174  0.3435
 2290SOL    HW118329   1.109   1.230   7.299 -0.3488 -0.9676  1.4494
 2290SOL    HW218330   1.192   1.179   7.180  1.3138 -0.2710  0.4858
 2291SOL     OW18331   1.776   3.909   4.930  0.0340  0.1819  0.2664
 2291SOL    HW118332   1.836   3.840   4.902 -2.9360 -1.3013 -2.3469
 2291SOL    HW218333   1.688   3.882   4.905  0.1919  0.0375 -0.1313
 2292SOL     OW18334   4.656   4.121   3.254 -0.2098  0.1254  0.1182
 2292SOL    HW118335   4.654   4.175   3.176  1.0732 -1.2018 -0.8319
 2292SOL    HW218336   0.008   4.063   3.230 -0.4554 -0.8319  1.6730
 2293SOL     OW18337   3.509   2.825   4.119 -0.6896  0.5747 -0.0114
 2293SOL    HW118338   3.598   2.813   4.085 -0.4274 -0.0140  0.9066
 2293SOL    HW218339   3.526   2.826   4.213 -1.0849 -1.3557  0.0727
 2294SOL     OW18340   2.607   2.704   9.269 -0.2583  0.1675  0.5193
 2294SOL    HW118341   2.586   2.786   9.225 -3.7072 -0.2464  1.3759
 2294SOL    HW218342   2.686   2.671   9.227  0.5024  3.3510 -0.5141
 2295SOL     OW18343   2.835   4.461   2.492  0.6444 -0.7607 -0.4371
 2295SOL    HW118344   2.843   4.489   2.401 -2.6374  1.3643 -0.0583
 2295SOL    HW218345   2.743   4.433   2.493  0.2118  0.6943  0.7492
 2296SOL     OW18346   0.707   3.547   3.805 -0.7076 -0.2902 -0.6187
 2296SOL    HW118347   0.728   3.637   3.830 -0.1140 -0.8665  1.0331
 2296SOL    HW218348   0.708   3.559   3.711 -1.9408  1.2084 -0.4384
 2297SOL     OW18349   0.465   1.529   5.456 -0.3015 -0.4556  0.0418
 2297SOL    HW118350   0.495   1.441   5.435  0.2708 -0.3143  0.2793
 2297SOL    HW218351   0.544   1.566   5.496 -1.8121  1.7441  0.9732
 2298SOL     OW18352   2.645   2.540   7.934  0.5006  0.4044  0.3995
 2298SOL    HW118353   2.561   2.497   7.951  1.0144 -0.4065  0.8935
 2298SOL    HW218354   2.710   2.475   7.965 -0.6580 -0.2519  1.4731
 2299SOL     OW18355   4.102   0.015   4.788  0.1963  0.3060 -0.7684
 2299SOL    HW118356   4.106   0.085   4.853 -0.9016 -1.3151  1.0139
 2299SOL    HW218357   4.043   4.677   4.838  1.3432 -2.9197 -3.0986
 2300SOL     OW18358   1.354   1.525   7.248  0.2246 -0.3870 -0.1238
 2300SOL    HW118359   1.359   1.605   7.301  0.0559 -0.7692  0.4767
 2300SOL    HW218360   1.444   1.494   7.259  0.3269  1.1169  3.1757
 2301SOL     OW18361   0.658   2.362   4.496  0.8292  0.3541  0.1274
 2301SOL    HW118362   0.634   2.305   4.423 -0.7668 -0.2771  1.1413
 2301SOL    HW218363   0.745   2.392   4.472  1.3567 -1.5670 -0.3720
 2302SOL     OW18364   3.967   3.264   7.626  0.3503  0.5921 -0.0183
 2302SOL    HW118365   4.015   3.242   7.546  1.4435  3.7153 -0.2146
 2302SOL    HW218366   4.014   3.337   7.666  2.6198 -0.9001  0.0499
 2303SOL     OW18367   4.260   1.343  15.806  0.4859 -0.1916  1.0022
 2303SOL    HW118368   4.271   1.325  15.900  0.9390  1.5606  1.2890
 2303SOL    HW218369   4.181   1.398  15.806  0.8946  0.3887 -0.6727
 2304SOL     OW18370   1.857   3.807   8.978 -0.0504 -0.1905  0.0403
 2304SOL    HW118371   1.857   3.714   8.956  1.1697 -0.4572  1.2143
 2304SOL    HW218372   1.865   3.854   8.895  1.5978 -0.0991  0.2556
 2305SOL     OW18373   3.022   4.015   4.234 -0.0629 -0.7100 -0.1330
 2305SOL    HW118374   3.006   4.087   4.296 -1.4230 -0.7388 -0.4490
 2305SOL    HW218375   2.938   4.015   4.190 -1.5529  0.0884  2.6880
 2306SOL     OW18376   2.030   1.572   2.624  0.7465  0.3250 -0.1954
 2306SOL    HW118377   2.057   1.482   2.603  3.4208  0.5457  2.2818
 2306SOL    HW218378   1.960   1.588   2.561  1.1080 -2.4145 -1.3166
 2307SOL     OW18379   4.033   0.956   9.448  0.9736 -0.7757 -0.0389
 2307SOL    HW118380   4.031   0.862   9.430  0.9800 -1.4309  3.3554
 2307SOL    HW218381   3.967   0.984   9.385  1.6084  1.3314  0.2533
 2308SOL     OW18382   0.523   1.037   5.578  0.3983 -0.1003  0.2121
 2308SOL    HW118383   0.604   1.018   5.626  2.7654  0.1082 -3.6704
 2308SOL    HW218384   0.457   1.054   5.646  0.1290 -2.2934  0.4956
 2309SOL     OW18385   3.802   0.235   4.681  0.4839  0.0085  0.0693
 2309SOL    HW118386   3.853   0.291   4.739 -0.2180  1.4836 -0.7469
 2309SOL    HW218387   3.779   0.293   4.608  0.8732 -0.5213 -0.4789
 2310SOL     OW18388   3.099   1.263  10.608 -0.3709  0.1387  0.2657
 2310SOL    HW118389   3.060   1.185  10.649  2.1250 -1.1455  0.2313
 2310SOL    HW218390   3.025   1.319  10.629  1.1712  2.2091  0.1202
 2311SOL     OW18391   0.507   2.224  10.966 -0.2929 -0.1324  0.8947
 2311SOL    HW118392   0.552   2.217  10.882 -1.0478  0.1204  0.4647
 2311SOL    HW218393   0.489   2.132  10.988  2.5491 -1.1114 -0.9433
 2312SOL     OW18394   3.532   4.381   1.635 -0.4018  0.0947 -0.0943
 2312SOL    HW118395   3.511   4.295   1.598 -2.7543  1.5593 -2.2454
 2312SOL    HW218396   3.454   4.426   1.600  0.2713 -0.1599 -1.9405
 2313SOL     OW18397   1.736   1.010  14.443 -0.3642  0.5876  0.3356
 2313SOL    HW118398   1.736   1.046  14.531  2.5081 -0.6699  0.8427
 2313SOL    HW218399   1.721   0.917  14.460  2.3874  0.0821  0.0705
 2314SOL     OW18400   1.684   1.829   2.601 -0.2141  0.0699  0.3499
 2314SOL    HW118401   1.628   1.756   2.628 -0.3350 -0.9960 -2.7581
 2314SOL    HW218402   1.719   1.853   2.687 -3.3115  3.1360  0.7386
 2315SOL     OW18403   2.386   1.849   7.233  0.1208  0.5972  0.1853
 2315SOL    HW118404   2.386   1.942   7.209 -1.1982  0.0462 -1.9329
 2315SOL    HW218405   2.404   1.857   7.327  1.6980 -1.3188  0.0343
 2316SOL     OW18406   2.301   1.862   4.274  0.3401 -0.4980 -0.0894
 2316SOL    HW118407   2.362   1.841   4.203  0.1837  0.3502 -0.4673
 2316SOL    HW218408   2.356   1.921   4.325  0.4886 -1.3561  0.7315
 2317SOL     OW18409   2.818   0.742   9.092 -0.0470  0.2331  0.1344
 2317SOL    HW118410   2.725   0.739   9.073 -0.5929  2.2837  2.3870
 2317SOL    HW218411   2.831   0.670   9.154  3.0784 -1.2563 -2.2495
 2318SOL     OW18412   1.693   0.775   0.488  0.3583 -0.3184 -0.3108
 2318SOL    HW118413   1.670   0.826   0.565 -0.9062 -0.1671 -0.7788
 2318SOL    HW218414   1.780   0.815   0.487  0.5335 -0.6915 -0.1600
 2319SOL     OW18415   0.992   4.079   5.148 -0.0566 -0.3275 -0.2726
 2319SOL    HW118416   1.026   4.055   5.061  0.8912 -1.0011  0.2842
 2319SOL    HW218417   0.966   4.169   5.126  1.5535  0.7956  2.4145
 2320SOL     OW18418   1.221   0.740   8.872 -0.3303 -0.7555  0.4738
 2320SOL    HW118419   1.283   0.668   8.880  1.0191  0.0452 -2.5772
 2320SOL    HW218420   1.271   0.782   8.801 -1.2592  1.2053  0.9743
 2321SOL     OW18421   2.821   1.897   0.684  0.0622  0.0943  0.2104
 2321SOL    HW118422   2.831   1.836   0.611  0.5733 -1.5679  1.6640
 2321SOL    HW218423   2.885   1.858   0.744  0.5009  0.8262  0.2156
 2322SOL     OW18424   1.947   2.041   2.237 -0.2744 -0.2966  0.5888
 2322SOL    HW118425   1.972   2.084   2.319 -1.4509  0.9608  0.3036
 2322SOL    HW218426   1.921   2.119   2.188 -0.5141  0.9797  2.7104
 2323SOL     OW18427   2.439   0.011   2.990 -0.5121  0.1770 -0.4514
 2323SOL    HW118428   2.438   4.663   2.922 -0.3903 -0.9701  0.6852
 2323SOL    HW218429   2.381   0.079   2.957  0.6716  0.6360 -1.5972
 2324SOL     OW18430   0.332   0.177   5.354  0.7147 -0.7203 -0.1265
 2324SOL    HW118431   0.335   0.222   5.438 -2.0901 -0.8197  0.0215
 2324SOL    HW218432   0.283   0.244   5.307  0.2639  0.2001  1.6486
 2325SOL     OW18433   0.547   2.717   6.436 -0.5885 -0.0795  0.1053
 2325SOL    HW118434   0.517   2.681   6.352 -0.6756  1.5179 -0.5344
 2325SOL    HW218435   0.524   2.809   6.428 -0.6640 -0.1318 -0.2844
 2326SOL     OW18436   2.527   1.081   4.214 -0.5094  0.0803 -0.3334
 2326SOL    HW118437   2.466   1.118   4.278 -0.6163 -1.6931  0.5851
 2326SOL    HW218438   2.539   0.993   4.250 -1.4793 -0.5080 -1.4462
 2327SOL     OW18439   1.033   0.810  13.736 -0.4638 -0.6655  0.0849
 2327SOL    HW118440   1.037   0.715  13.743 -1.2588 -0.6479  0.8086
 2327SOL    HW218441   0.958   0.815  13.676 -0.8807  1.7146  0.7925
 2328SOL     OW18442   3.671   2.758  16.217  0.5025 -0.5017 -0.1937
 2328SOL    HW118443   3.736   2.825  16.239  0.1201 -0.9988  2.4325
 2328SOL    HW218444   3.731   2.684  16.219  0.4209 -0.5589  0.4169
 2329SOL     OW18445   4.023   0.949  17.183 -0.6026 -0.4611 -0.0142
 2329SOL    HW118446   3.973   0.867  17.184  2.1544 -2.1296 -0.8714
 2329SOL    HW218447   3.972   1.004  17.242 -1.2429  0.7042 -1.6461
 2330SOL     OW18448   0.928   4.075   2.579  0.7203 -0.5401  0.3484
 2330SOL    HW118449   0.853   4.017   2.591  0.8814 -1.5212 -3.4245
 2330SOL    HW218450   0.905   4.110   2.493 -1.5134  3.5993  2.6577
 2331SOL     OW18451   0.990   3.155   9.967 -0.0608 -0.5888 -0.1988
 2331SOL    HW118452   1.072   3.107   9.974  1.0805  1.1916 -1.2295
 2331SOL    HW218453   0.922   3.090   9.951  0.0068 -0.7061 -0.0036
 2332SOL     OW18454   0.897   0.973  10.931 -0.6142 -0.0223 -0.2212
 2332SOL    HW118455   0.916   1.060  10.897 -1.0896  0.2561  0.2188
 2332SOL    HW218456   0.949   0.966  11.011 -4.0627 -0.5208  2.0094
 2333SOL     OW18457   4.125   1.583  16.045  0.7834 -0.0744 -0.6722
 2333SOL    HW118458   4.078   1.532  16.112  1.9112 -1.4457 -0.9308
 2333SOL    HW218459   4.076   1.565  15.964  0.6539 -0.2603 -0.5547
 2334SOL     OW18460   3.859   3.472   1.323  0.1301  0.1397  0.0823
 2334SOL    HW118461   3.885   3.519   1.245 -0.3560 -0.1225 -0.2374
 2334SOL    HW218462   3.822   3.547   1.369 -1.9491 -0.6505 -0.2972
 2335SOL     OW18463   2.972   2.803   1.984  0.5045  0.4943  0.0549
 2335SOL    HW118464   3.004   2.814   1.894  2.2909  2.1874  0.9191
 2335SOL    HW218465   2.877   2.813   1.971  0.4505 -0.6133 -0.4049
 2336SOL     OW18466   2.050   1.176  14.802  0.2177 -0.1545  0.5925
 2336SOL    HW118467   2.117   1.194  14.737 -1.1507  1.4050 -0.3515
 2336SOL    HW218468   1.978   1.227  14.767  0.2658 -0.1845  0.4515
 2337SOL     OW18469   1.183   1.957   5.177 -0.2778 -0.0578  0.6761
 2337SOL    HW118470   1.223   1.870   5.172  0.9311  0.6805 -2.5253
 2337SOL    HW218471   1.254   2.017   5.154  0.2647 -1.2578 -0.7885
 2338SOL     OW18472   4.553   4.361   5.725  0.1463 -0.0179 -0.6204
 2338SOL    HW118473   4.635   4.356   5.774 -0.1117 -2.3772 -0.4014
 2338SOL    HW218474   4.516   4.273   5.736  0.5812 -0.0401  0.7098
 2339SOL     OW18475   3.194   3.048   5.670  0.7091 -0.2018 -0.2336
 2339SOL    HW118476   3.133   2.976   5.655  0.9819 -0.4757 -0.0413
 2339SOL    HW218477   3.139   3.120   5.702 -0.5408 -1.3212  0.1049
 2340SOL     OW18478   3.488   1.044  16.931  0.2354 -0.0265  0.3275
 2340SOL    HW118479   3.513   1.094  16.853 -1.6811 -0.6264 -0.6726
 2340SOL    HW218480   3.507   1.095  17.009  0.9288 -1.1746  0.9144
 2341SOL     OW18481   0.672   3.965   9.026  0.3105 -0.6254  0.1614
 2341SOL    HW118482   0.657   4.006   9.111 -0.9028  1.4699 -1.0630
 2341SOL    HW218483   0.626   3.881   9.026  0.5901 -0.7782  3.2078
 2342SOL     OW18484   2.118   1.783   3.676  0.3679  0.2891  0.6790
 2342SOL    HW118485   2.137   1.841   3.602 -0.9441 -1.2487 -0.8515
 2342SOL    HW218486   2.134   1.699   3.634  0.2478  0.6371 -0.0706
 2343SOL     OW18487   3.390   1.839   2.203  0.0146  0.2038 -0.2493
 2343SOL    HW118488   3.400   1.777   2.276  1.7600  1.5240  0.6365
 2343SOL    HW218489   3.379   1.776   2.132  2.5654 -2.3251  1.5962
 2344SOL     OW18490   0.955   2.898   0.807 -0.2846 -0.1539 -0.2190
 2344SOL    HW118491   0.885   2.833   0.807 -0.4619  0.0314  0.8142
 2344SOL    HW218492   0.965   2.909   0.713  0.4944 -0.8345 -0.2213
 2345SOL     OW18493   3.713   0.750  10.896 -0.2942 -0.2489 -0.3708
 2345SOL    HW118494   3.680   0.733  10.984 -1.4025  1.3565 -0.4824
 2345SOL    HW218495   3.657   0.822  10.869 -0.9232 -1.9134 -3.6002
 2346SOL     OW18496   3.702   0.143   5.349 -0.0328 -0.0655 -0.5043
 2346SOL    HW118497   3.623   0.129   5.401  0.4377  0.0551  0.2514
 2346SOL    HW218498   3.664   0.186   5.273 -3.7599 -0.0623  1.3839
 2347SOL     OW18499   3.689   2.376   5.145 -0.3506  0.3561 -0.8839
 2347SOL    HW118500   3.699   2.424   5.062  0.2944 -2.6914 -2.5504
 2347SOL    HW218501   3.678   2.446   5.210 -2.2447 -0.6061 -0.1441
 2348SOL     OW18502   2.482   2.944   1.962 -0.0514  0.1320 -0.2165
 2348SOL    HW118503   2.471   2.999   1.884 -0.3375  3.1742  1.9806
 2348SOL    HW218504   2.426   2.875   1.924 -0.1154 -0.5359  1.0958
 2349SOL     OW18505   2.361   0.545   5.999  0.0181  0.0165 -1.0891
 2349SOL    HW118506   2.421   0.494   6.053 -1.7067 -1.7939 -0.9003
 2349SOL    HW218507   2.412   0.624   5.981 -0.3178  0.3722 -0.4898
 2350SOL     OW18508   0.499   2.058   4.857 -0.4241 -0.1130 -0.0655
 2350SOL    HW118509   0.551   2.060   4.777  1.1930  0.1482  0.9917
 2350SOL    HW218510   0.558   2.041   4.931 -1.0306 -1.0870  0.1911
 2351SOL     OW18511   2.744   2.168   9.438  0.1080  0.3531  0.3584
 2351SOL    HW118512   2.728   2.077   9.413 -1.5786  1.7855 -3.7067
 2351SOL    HW218513   2.777   2.199   9.354 -1.2496  1.5271  0.2513
 2352SOL     OW18514   3.289   0.309   0.675  0.0654  0.6539 -0.0848
 2352SOL    HW118515   3.205   0.264   0.674  0.8493 -0.8039 -0.9788
 2352SOL    HW218516   3.272   0.403   0.677  0.7584  0.8157 -1.5074
 2353SOL     OW18517   1.370   0.977   4.921 -0.4474  0.3221  0.1257
 2353SOL    HW118518   1.403   0.977   4.832  2.6234  0.6954  1.2789
 2353SOL    HW218519   1.309   0.903   4.914 -2.4161  1.6954  2.6917
 2354SOL     OW18520   0.203   1.486   9.798 -0.0106 -0.8057 -0.1779
 2354SOL    HW118521   0.287   1.526   9.819 -0.1432 -0.4354 -0.3490
 2354SOL    HW218522   0.152   1.515   9.874  0.8045  1.1211 -0.3666
 2355SOL     OW18523   1.607   1.700   1.305  0.0530  0.0748  0.1111
 2355SOL    HW118524   1.648   1.761   1.366 -0.1383  0.0773  0.2338
 2355SOL    HW218525   1.521   1.688   1.345  1.5695 -0.1663  3.2686
 2356SOL     OW18526   2.366   0.885   6.991  0.1085 -0.1373 -0.4469
 2356SOL    HW118527   2.460   0.877   6.979  0.4155 -0.7274  2.4678
 2356SOL    HW218528   2.358   0.965   7.044 -1.1389 -0.9065  0.5122
 2357SOL     OW18529   1.657   1.955   6.111  0.1826 -0.2240 -0.1480
 2357SOL    HW118530   1.711   1.970   6.189  0.1202 -3.7098  0.5496
 2357SOL    HW218531   1.599   2.031   6.114  1.0678  0.4135  0.8888
 2358SOL     OW18532   4.034   0.164   8.287 -0.2836  0.8925 -0.0065
 2358SOL    HW118533   4.106   0.143   8.227 -1.1208 -0.0660 -0.6685
 2358SOL    HW218534   4.037   0.094   8.353 -1.7071  1.5440  0.7535
 2359SOL     OW18535   4.406   2.251   2.343  0.3478  0.5239 -0.2578
 2359SOL    HW118536   4.317   2.224   2.367  1.5145 -2.3230  0.7515
 2359SOL    HW218537   4.447   2.170   2.315  0.9729 -0.0446  2.3349
 2360SOL     OW18538   3.999   0.488   3.374  0.5324  0.0678  0.0231
 2360SOL    HW118539   3.919   0.477   3.324  1.5080  1.1265 -1.7852
 2360SOL    HW218540   3.963   0.503   3.462 -1.3535  0.5652 -0.8268
 2361SOL     OW18541   3.729   1.486  10.695 -0.1465  0.0279 -0.6197
 2361SOL    HW118542   3.683   1.443  10.766  2.5828 -0.3674  0.9092
 2361SOL    HW218543   3.809   1.434  10.702  0.6337  1.4570  1.0145
 2362SOL     OW18544   4.485   2.121   3.099  1.0668  0.1278 -0.3531
 2362SOL    HW118545   4.532   2.160   3.026  0.2269 -0.2736 -1.1020
 2362SOL    HW218546   4.425   2.188   3.134  1.3291  0.6466 -0.8926
 2363SOL     OW18547   0.846   4.475   4.279  0.1480 -0.2411 -0.5604
 2363SOL    HW118548   0.843   4.562   4.238  1.3196  0.6748  1.3227
 2363SOL    HW218549   0.751   4.477   4.292  0.2839  1.7380  0.2124
 2364SOL     OW18550   3.582   1.269  16.822  0.4342  0.3614 -0.6989
 2364SOL    HW118551   3.555   1.358  16.848  0.7675  0.2979 -0.1085
 2364SOL    HW218552   3.656   1.301  16.770  0.7331  1.5886  0.4595
 2365SOL     OW18553   2.277   2.193  16.334  0.2082 -0.0479 -0.1512
 2365SOL    HW118554   2.359   2.188  16.384  0.3956  0.4778 -0.4138
 2365SOL    HW218555   2.261   2.101  16.313 -1.6702  0.2101  0.2011
 2366SOL     OW18556   1.816   3.693   1.269 -0.3631  0.3988  0.3963
 2366SOL    HW118557   1.826   3.786   1.250 -0.3812  0.0501 -1.3331
 2366SOL    HW218558   1.722   3.700   1.287 -0.3429  2.0479 -0.1065
 2367SOL     OW18559   3.642   3.647   5.143  0.7729 -0.5267 -0.0762
 2367SOL    HW118560   3.708   3.698   5.096  0.9732 -0.7484 -0.0357
 2367SOL    HW218561   3.594   3.719   5.183  1.8224  0.7402 -1.1195
 2368SOL     OW18562   3.711   4.394   6.683  0.1025  0.0069  0.5694
 2368SOL    HW118563   3.772   4.354   6.621 -1.1440 -0.5273 -0.3177
 2368SOL    HW218564   3.733   4.340   6.759  0.5301  1.1272  1.2505
 2369SOL     OW18565   4.196   4.186   8.876  0.1864  0.2851  0.0039
 2369SOL    HW118566   4.213   4.277   8.900  1.8197 -0.4442  1.6882
 2369SOL    HW218567   4.181   4.143   8.960  2.0977 -1.6017 -0.6171
 2370SOL     OW18568   0.024   2.027  16.055  0.0080 -0.3812 -0.1566
 2370SOL    HW118569   0.018   1.932  16.040 -1.4220 -0.0250 -1.8977
 2370SOL    HW218570   4.651   2.054  16.048 -0.3157 -1.9890 -2.1577
 2371SOL     OW18571   1.173   3.975   2.532 -0.5823 -0.1844  0.3071
 2371SOL    HW118572   1.163   3.953   2.439 -2.4569  0.3599  0.3783
 2371SOL    HW218573   1.102   4.039   2.538  0.6866  1.4039 -1.4224
 2372SOL     OW18574   4.226   2.706   3.053  0.1516 -0.3611 -0.3530
 2372SOL    HW118575   4.221   2.681   2.961  0.6630  0.3972 -0.5895
 2372SOL    HW218576   4.319   2.730   3.056  0.1042 -0.0027 -1.9828
 2373SOL     OW18577   4.365   0.908   4.373 -0.2075  0.4128  0.3663
 2373SOL    HW118578   4.343   0.815   4.382 -0.0354  0.6249  3.0403
 2373SOL    HW218579   4.395   0.925   4.462  0.5150 -2.1345  0.6046
 2374SOL     OW18580   4.378   1.627   4.259  1.1597  0.0582 -0.5057
 2374SOL    HW118581   4.466   1.605   4.290  1.2944  0.1064 -0.8547
 2374SOL    HW218582   4.338   1.540   4.270 -1.1999  1.3819  1.4710
 2375SOL     OW18583   2.485   4.169   6.385 -0.5499 -0.0231 -0.3691
 2375SOL    HW118584   2.539   4.244   6.408 -0.3178  0.3969 -2.2669
 2375SOL    HW218585   2.507   4.160   6.292 -0.8401 -1.1454 -0.3417
 2376SOL     OW18586   2.230   2.431   0.648  0.0419 -0.0135 -0.0539
 2376SOL    HW118587   2.237   2.476   0.733  1.1725 -1.5827  0.6950
 2376SOL    HW218588   2.303   2.476   0.604  0.2414  0.3776  0.6665
 2377SOL     OW18589   3.766   4.171  14.227  0.3380 -0.3059 -0.0830
 2377SOL    HW118590   3.737   4.080  14.233  0.3174 -0.2251  1.1041
 2377SOL    HW218591   3.849   4.156  14.182  1.1303 -0.1741  1.3100
 2378SOL     OW18592   0.970   1.205   8.611 -0.5649  0.6721  0.0056
 2378SOL    HW118593   1.048   1.256   8.588 -0.7390  0.8936 -0.0940
 2378SOL    HW218594   0.914   1.278   8.637  0.5102  1.4227  0.1773
 2379SOL     OW18595   3.553   0.563   4.745  0.3821  0.0416 -0.1387
 2379SOL    HW118596   3.627   0.591   4.691 -0.3068 -0.4959 -1.3776
 2379SOL    HW218597   3.479   0.561   4.685 -0.6684  0.7349  1.1531
 2380SOL     OW18598   0.930   0.201  15.553 -0.1477 -0.3559 -0.2326
 2380SOL    HW118599   0.934   0.141  15.627  1.3736 -0.8422 -0.7259
 2380SOL    HW218600   0.909   0.141  15.482 -0.3050 -0.6112  0.0277
 2381SOL     OW18601   2.231   0.203   2.056 -0.3917  0.1014  0.3425
 2381SOL    HW118602   2.168   0.131   2.064  1.6541 -1.5142  2.0735
 2381SOL    HW218603   2.217   0.220   1.963 -0.6101 -1.6474  0.0452
 2382SOL     OW18604   3.693   1.548   8.632 -0.2380  0.5942  0.2074
 2382SOL    HW118605   3.662   1.607   8.563  1.3924 -1.9030 -2.6247
 2382SOL    HW218606   3.707   1.606   8.707  1.7628  1.0609 -0.5463
 2383SOL     OW18607   3.150   1.554   5.420  1.0333  0.3801 -0.0561
 2383SOL    HW118608   3.163   1.459   5.411 -0.2429  0.2159 -0.0865
 2383SOL    HW218609   3.058   1.547   5.445  0.8054  0.0796 -0.9836
 2384SOL     OW18610   3.248   4.268  14.171 -0.0623  0.6110 -0.0419
 2384SOL    HW118611   3.215   4.179  14.156  0.4436  0.4622 -0.2671
 2384SOL    HW218612   3.342   4.258  14.157 -0.1034  1.4086 -0.8694
 2385SOL     OW18613   0.582   2.829   3.295  0.2793 -0.2984 -0.1019
 2385SOL    HW118614   0.606   2.747   3.337  0.4967 -0.2725 -0.1742
 2385SOL    HW218615   0.548   2.806   3.208  0.4185 -3.7273  0.7456
 2386SOL     OW18616   3.284   4.246   4.086 -0.4421 -0.1674  0.0778
 2386SOL    HW118617   3.196   4.277   4.110 -0.3297  0.9304 -0.9704
 2386SOL    HW218618   3.302   4.313   4.021 -0.3370 -0.2866 -0.0162
 2387SOL     OW18619   2.366   3.788   3.673  0.3504 -0.2637  0.7487
 2387SOL    HW118620   2.302   3.720   3.695 -1.1152  0.4493 -1.3344
 2387SOL    HW218621   2.326   3.871   3.699  1.1678  0.8527 -1.5977
 2388SOL     OW18622   0.045   3.138  14.754 -0.2340  0.1742  0.0073
 2388SOL    HW118623   0.109   3.209  14.762  1.3813 -1.0999 -1.5106
 2388SOL    HW218624   0.001   3.176  14.678  1.5044  0.2465 -0.9724
 2389SOL     OW18625   2.397   4.337   3.502  0.3986 -0.2544 -0.0269
 2389SOL    HW118626   2.488   4.356   3.525 -0.1425  1.3118  0.8371
 2389SOL    HW218627   2.372   4.410   3.445  0.0352 -0.9683 -0.7738
 2390SOL     OW18628   3.221   3.516   1.283  0.0036  0.4144 -0.1120
 2390SOL    HW118629   3.302   3.473   1.259 -0.3864  0.5609 -1.7435
 2390SOL    HW218630   3.251   3.563   1.361  0.2653 -1.0331  0.6481
 2391SOL     OW18631   1.930   3.743   2.316 -0.2425 -0.0566  0.2651
 2391SOL    HW118632   1.866   3.798   2.361  1.3633  1.6224  0.4923
 2391SOL    HW218633   1.970   3.800   2.251 -1.5416  0.1631 -0.3385
 2392SOL     OW18634   4.409   1.714   3.525 -0.6724 -0.3354  0.4297
 2392SOL    HW118635   4.451   1.628   3.534 -0.1615 -0.1328  0.0162
 2392SOL    HW218636   4.467   1.750   3.459  1.3241 -0.4645  2.1112
 2393SOL     OW18637   2.252   0.199   1.577 -0.1311 -0.0925 -0.1530
 2393SOL    HW118638   2.338   0.174   1.546  0.5399 -0.4960  2.0272
 2393SOL    HW218639   2.228   0.257   1.504 -1.9485  0.1148  0.5914
 2394SOL     OW18640   0.534   2.104   3.375  0.1803 -0.6154  0.5946
 2394SOL    HW118641   0.586   2.045   3.321  0.6796  2.4935 -2.3679
 2394SOL    HW218642   0.462   2.136   3.320 -0.2322  1.2774  2.2356
 2395SOL     OW18643   3.003   1.908  10.573 -0.8545 -0.2558  0.1534
 2395SOL    HW118644   3.058   1.857  10.632  0.1728 -0.2644 -0.8104
 2395SOL    HW218645   3.056   1.922  10.495  0.5465 -0.5509  1.0607
 2396SOL     OW18646   2.970   1.182   8.567 -0.0033  0.0461 -0.3731
 2396SOL    HW118647   3.052   1.139   8.588 -0.4167 -0.0307  1.1058
 2396SOL    HW218648   2.980   1.262   8.620  0.5004 -0.5521  0.4234
 2397SOL     OW18649   1.181   0.252   3.019  0.3984  0.2445 -0.2161
 2397SOL    HW118650   1.237   0.179   3.043  0.0394  0.3376  0.9063
 2397SOL    HW218651   1.170   0.304   3.099  0.9250 -1.5224  0.9878
 2398SOL     OW18652   2.152   2.793   7.986  0.2582 -0.3598  0.0982
 2398SOL    HW118653   2.111   2.723   8.036 -0.0303 -0.5032 -0.3335
 2398SOL    HW218654   2.190   2.836   8.062  0.8821 -0.2778 -0.2574
 2399SOL     OW18655   0.345   0.004   6.334 -0.2004  0.1907 -0.6000
 2399SOL    HW118656   0.291   4.705   6.411 -0.8404 -0.1196 -1.1238
 2399SOL    HW218657   0.371   0.096   6.339  1.3094 -0.3286  1.4043
 2400SOL     OW18658   0.752   4.380   1.499 -0.7482 -0.5768 -0.4358
 2400SOL    HW118659   0.746   4.458   1.444  0.0186 -1.5679 -1.9123
 2400SOL    HW218660   0.818   4.321   1.463  0.7467  3.1987 -3.9484
 2401SOL     OW18661   3.733   0.193   8.904 -0.0074  0.3291 -0.7649
 2401SOL    HW118662   3.649   0.149   8.916  0.0743  0.9854  2.1844
 2401SOL    HW218663   3.761   0.182   8.994  0.3952 -3.1333 -1.3358
 2402SOL     OW18664   1.460   3.233  10.373 -0.4981 -0.1025  0.4453
 2402SOL    HW118665   1.445   3.166  10.439  2.5583  1.4095  2.7251
 2402SOL    HW218666   1.518   3.298  10.414 -0.7734 -0.9295  2.1516
 2403SOL     OW18667   2.713   1.397   3.153  0.6938  0.1168  0.1861
 2403SOL    HW118668   2.667   1.442   3.082 -0.2121 -1.7825 -0.4156
 2403SOL    HW218669   2.633   1.363   3.193  1.3518 -2.3481 -0.6047
 2404SOL     OW18670   2.993   0.895   5.711 -0.3092  0.1078  0.1451
 2404SOL    HW118671   2.985   0.855   5.624 -1.1764  1.3877 -0.3528
 2404SOL    HW218672   2.938   0.833   5.758  0.9487 -0.7374  0.5170
 2405SOL     OW18673   4.282   1.245   6.504 -0.7700  0.0537  0.0767
 2405SOL    HW118674   4.218   1.186   6.545 -0.4247 -0.0535  0.4571
 2405SOL    HW218675   4.280   1.326   6.555 -0.4821  0.6345 -0.8536
 2406SOL     OW18676   4.682   1.025   9.921  0.0112 -0.5328 -0.1568
 2406SOL    HW118677   0.058   1.019   9.913  0.2216  0.6754  1.3217
 2406SOL    HW218678   4.664   0.978  10.003  0.2196  0.1117  0.2612
 2407SOL     OW18679   0.098   0.773   6.287 -0.0651  0.1849  0.1476
 2407SOL    HW118680   0.038   0.718   6.337 -0.7554  0.6526 -0.1619
 2407SOL    HW218681   0.184   0.730   6.292 -0.0254  0.0064 -2.0322
 2408SOL     OW18682   1.987   0.711  16.637 -0.4267  0.8521  0.2173
 2408SOL    HW118683   1.923   0.645  16.611  2.2658 -2.8413  3.0556
 2408SOL    HW218684   1.955   0.734  16.724  2.2237  0.9992  1.1628
 2409SOL     OW18685   2.515   1.625   4.399 -0.6225 -0.0607  0.0307
 2409SOL    HW118686   2.423   1.633   4.425 -1.0200 -1.3108 -1.0324
 2409SOL    HW218687   2.520   1.587   4.312  0.7636  0.9810 -0.3399
 2410SOL     OW18688   2.143   3.858   3.123 -0.0513 -0.1687 -0.1207
 2410SOL    HW118689   2.160   3.794   3.054 -0.6948  0.7686 -1.1249
 2410SOL    HW218690   2.123   3.793   3.192 -0.1844 -1.2299 -1.1567
 2411SOL     OW18691   0.704   2.949   0.020  0.4353 -0.5711  0.3950
 2411SOL    HW118692   0.623   2.935   0.069 -0.2971  0.6881 -0.4487
 2411SOL    HW218693   0.694   2.920  17.608 -1.4242  0.3582  0.3056
 2412SOL     OW18694   4.636   3.310  16.879 -0.2656 -0.0547  0.2077
 2412SOL    HW118695   4.639   3.383  16.941 -2.1774  1.1044 -1.0748
 2412SOL    HW218696   0.007   3.278  16.888  0.5402  1.9635 -0.8161
 2413SOL     OW18697   4.136   3.832  17.540  0.0548  0.5898  0.3250
 2413SOL    HW118698   4.201   3.808  17.606  0.1157  1.2463  0.5013
 2413SOL    HW218699   4.199   3.875  17.482  1.8431 -0.8796  1.1879
 2414SOL     OW18700   0.695   2.517   2.332 -0.4175  0.0989  0.0876
 2414SOL    HW118701   0.621   2.560   2.376 -0.3081 -2.5925  2.8509
 2414SOL    HW218702   0.751   2.592   2.311  1.1479 -1.1860 -0.2793
 2415SOL     OW18703   2.209   2.843   8.541 -0.0818 -0.2044 -0.3420
 2415SOL    HW118704   2.197   2.795   8.623  1.9137  1.8688  1.1621
 2415SOL    HW218705   2.152   2.918   8.560  1.0312  0.4427  0.4091
 2416SOL     OW18706   0.622   3.344   2.344  0.2488 -0.1530  0.7388
 2416SOL    HW118707   0.672   3.331   2.425 -0.2722 -0.9430  0.9312
 2416SOL    HW218708   0.592   3.432   2.366  2.3121  0.4948  0.9471
 2417SOL     OW18709   3.640   2.020  12.007 -0.0583 -0.3017  0.7902
 2417SOL    HW118710   3.710   2.038  11.944 -0.3213 -2.4294 -0.0754
 2417SOL    HW218711   3.645   1.927  12.025  1.3140 -0.5589 -0.8491
 2418SOL     OW18712   2.217   0.824  10.267 -0.8147  0.6482  0.2779
 2418SOL    HW118713   2.239   0.798  10.356  0.5366 -2.1630 -0.8696
 2418SOL    HW218714   2.162   0.898  10.294 -1.2175  1.2122 -2.1186
 2419SOL     OW18715   2.485   1.272   3.500  0.3684 -0.3401 -0.5702
 2419SOL    HW118716   2.393   1.254   3.517  0.7032 -0.6840  0.8603
 2419SOL    HW218717   2.477   1.299   3.408 -1.1577  2.7707  0.4757
 2420SOL     OW18718   1.129   3.532   5.633  0.2105  0.1471 -0.2129
 2420SOL    HW118719   1.059   3.479   5.595  1.1190 -2.0034  1.1053
 2420SOL    HW218720   1.079   3.594   5.685 -1.0135 -1.8874  1.0427
 2421SOL     OW18721   4.687   3.888  13.411 -0.3748  0.3381  0.3042
 2421SOL    HW118722   0.046   3.936  13.382  0.7706 -0.1819  2.5830
 2421SOL    HW218723   4.705   3.873  13.503  0.3903 -0.4486  0.0185
 2422SOL     OW18724   0.395   0.194   8.320 -0.1427 -0.4957 -0.2418
 2422SOL    HW118725   0.348   0.271   8.288 -0.6941 -0.4817  0.5915
 2422SOL    HW218726   0.391   0.214   8.414 -0.2178  0.4100 -0.4405
 2423SOL     OW18727   2.986   4.110   7.154 -0.4822  0.0378  0.1034
 2423SOL    HW118728   2.948   4.172   7.092  2.8534 -0.8720 -2.9091
 2423SOL    HW218729   2.969   4.028   7.108 -3.5401 -0.1016  1.4922
 2424SOL     OW18730   3.865   2.050  15.119 -0.3202  0.0328  0.3963
 2424SOL    HW118731   3.832   2.097  15.042  0.8417 -0.5023 -0.4308
 2424SOL    HW218732   3.959   2.039  15.107 -0.4829 -3.4499  2.3933
 2425SOL     OW18733   0.412   4.597   5.785  0.3971  0.0374 -0.1780
 2425SOL    HW118734   0.379   4.682   5.814 -0.1769 -1.1767  2.7911
 2425SOL    HW218735   0.468   4.616   5.710 -0.1845 -0.2888 -0.6982
 2426SOL     OW18736   0.285   4.655  14.284 -0.1756 -0.3810  0.0023
 2426SOL    HW118737   0.235   4.579  14.314  0.8010 -1.9868 -2.5095
 2426SOL    HW218738   0.308   4.622  14.198  0.5086  1.0054 -0.3573
 2427SOL     OW18739   3.282   3.465   5.570  0.5179 -0.0988  0.3034
 2427SOL    HW118740   3.335   3.458   5.490  2.1423  1.0155  1.2831
 2427SOL    HW218741   3.235   3.382   5.560  2.7140 -1.3024 -0.1348
 2428SOL     OW18742   1.036   2.133   7.222 -0.0267  0.4594 -0.3050
 2428SOL    HW118743   1.092   2.211   7.215 -0.8777  0.7392 -4.1266
 2428SOL    HW218744   0.965   2.158   7.161 -0.9715 -0.2206  0.5183
 2429SOL     OW18745   0.991   3.997   8.062  0.3294  0.3086 -0.1550
 2429SOL    HW118746   0.913   3.949   8.091 -1.0907  0.4378 -3.7091
 2429SOL    HW218747   0.968   4.030   7.975  0.2867  0.8738  0.0739
 2430SOL     OW18748   2.649   3.017   5.328  0.3953 -0.0569  0.3678
 2430SOL    HW118749   2.726   3.074   5.327  1.2504 -1.2174 -0.0401
 2430SOL    HW218750   2.656   2.986   5.418  0.9655  0.8141  0.6207
 2431SOL     OW18751   3.888   3.268  17.253  0.6020  0.2119  0.3651
 2431SOL    HW118752   3.821   3.289  17.318 -1.6906 -1.1117 -1.5894
 2431SOL    HW218753   3.832   3.218  17.194  1.1633  1.3118 -1.0970
 2432SOL     OW18754   2.219   2.949   5.069 -0.5490  0.4546 -0.0150
 2432SOL    HW118755   2.262   2.913   5.146  2.4648  1.8924 -1.0471
 2432SOL    HW218756   2.183   2.869   5.031 -1.5586  0.9596 -0.1357
 2433SOL     OW18757   4.180   2.027   8.827  0.5843 -0.2295  0.5606
 2433SOL    HW118758   4.121   1.956   8.804 -0.0711 -0.5277  3.1714
 2433SOL    HW218759   4.131   2.109   8.821 -1.0237 -1.2581 -0.3181
 2434SOL     OW18760   1.393   3.822  12.761  0.3236 -0.2756 -1.0212
 2434SOL    HW118761   1.444   3.753  12.719  1.8786  1.7171 -2.3982
 2434SOL    HW218762   1.455   3.857  12.825  0.4024 -1.7490 -0.3008
 2435SOL     OW18763   2.044   3.805  10.435 -0.0425  0.3399  0.0006
 2435SOL    HW118764   2.059   3.777  10.344  0.2789  1.3915 -0.2677
 2435SOL    HW218765   1.950   3.795  10.449  0.0160  3.7030  2.6990
 2436SOL     OW18766   1.587   2.530   3.898 -0.1645 -0.0496  0.1500
 2436SOL    HW118767   1.683   2.530   3.899 -0.1463  0.9933 -1.2069
 2436SOL    HW218768   1.568   2.623   3.909 -0.3666  0.2832 -3.0953
 2437SOL     OW18769   2.886   2.165   3.842 -0.3585 -0.1716 -0.0948
 2437SOL    HW118770   2.862   2.151   3.934  0.1865 -0.1481  0.0483
 2437SOL    HW218771   2.951   2.235   3.842 -0.7239  0.1610  1.3553
 2438SOL     OW18772   2.722   0.774  16.165  0.1170  0.1776  0.0719
 2438SOL    HW118773   2.729   0.734  16.251 -0.3590 -2.9415 -1.3204
 2438SOL    HW218774   2.650   0.724  16.125 -1.0486  0.4456  1.8505
 2439SOL     OW18775   1.300   1.142   2.055  0.2139 -0.1092  0.0936
 2439SOL    HW118776   1.359   1.152   2.130  0.7694  2.9491 -0.7577
 2439SOL    HW218777   1.216   1.171   2.091  0.2459  0.0546  0.0367
 2440SOL     OW18778   0.976   1.871   1.013 -0.1167  0.5533 -0.1122
 2440SOL    HW118779   0.915   1.818   1.063 -1.2844 -0.4012 -2.5546
 2440SOL    HW218780   1.001   1.814   0.941 -2.0144 -0.0315 -0.3128
 2441SOL     OW18781   2.844   3.341   5.768  0.1790 -0.1036 -0.0614
 2441SOL    HW118782   2.820   3.279   5.699  0.5504  0.1523 -0.4245
 2441SOL    HW218783   2.837   3.427   5.727  1.4337 -0.3384 -0.7625
 2442SOL     OW18784   3.044   1.269   5.684 -0.3367  0.1277 -0.2943
 2442SOL    HW118785   2.986   1.254   5.609  1.7561  0.8470 -2.0506
 2442SOL    HW218786   2.991   1.256   5.762 -0.5676  0.8605 -0.3285
 2443SOL     OW18787   0.723   2.029  14.624  0.5034  0.2321  0.2877
 2443SOL    HW118788   0.710   1.990  14.711 -2.7737 -0.6685 -0.6220
 2443SOL    HW218789   0.803   2.079  14.642  1.8726 -0.7293 -3.0652
 2444SOL     OW18790   4.487   0.500   9.321 -0.2154 -0.4306  0.1711
 2444SOL    HW118791   4.516   0.480   9.410 -0.8525 -1.0763  0.2339
 2444SOL    HW218792   4.549   0.572   9.302  0.5833 -0.8784  1.0911
 2445SOL     OW18793   3.964   1.330   7.517 -0.1378 -0.0775  0.7971
 2445SOL    HW118794   4.007   1.302   7.436 -0.4215 -2.1381  1.3502
 2445SOL    HW218795   4.036   1.295   7.570  2.2215  1.2842 -1.4917
 2446SOL     OW18796   3.280   1.229   2.649 -0.1839  0.3923 -0.2704
 2446SOL    HW118797   3.224   1.306   2.660 -1.7951 -0.7781 -0.2569
 2446SOL    HW218798   3.224   1.168   2.601  0.0705 -1.5340  1.8831
 2447SOL     OW18799   0.571   1.019  15.522 -0.1752  0.3776 -0.4372
 2447SOL    HW118800   0.616   1.054  15.599 -1.0235  0.8190 -0.1332
 2447SOL    HW218801   0.497   0.974  15.564  1.5364 -2.2279 -0.2250
 2448SOL     OW18802   3.072   1.597   2.749  0.1273  0.1785  0.2763
 2448SOL    HW118803   3.060   1.589   2.654  1.8879 -0.1800  0.0892
 2448SOL    HW218804   2.998   1.546   2.783 -0.8046  1.4374  0.1334
 2449SOL     OW18805   0.841   1.435   0.967 -0.9100  0.3104  0.0505
 2449SOL    HW118806   0.927   1.393   0.970 -0.2705  1.5214 -1.2185
 2449SOL    HW218807   0.821   1.441   0.874 -1.6104  0.1692  0.1969
 2450SOL     OW18808   3.772   1.544   9.290 -0.2732 -0.7194 -0.0122
 2450SOL    HW118809   3.858   1.584   9.278  0.3999 -2.1861 -0.0280
 2450SOL    HW218810   3.714   1.618   9.271 -1.7427 -1.6063  0.9894
 2451SOL     OW18811   4.349   4.363  12.286  0.3850 -0.1581  0.2112
 2451SOL    HW118812   4.365   4.273  12.313  2.1681 -0.2577 -1.1349
 2451SOL    HW218813   4.412   4.395  12.350  0.2146  2.1012 -0.7362
 2452SOL     OW18814   3.555   2.937   4.759 -0.0747  0.2692 -0.4467
 2452SOL    HW118815   3.520   2.852   4.785 -0.2081  0.9143  1.5257
 2452SOL    HW218816   3.496   2.949   4.685 -1.4229 -1.1785  0.3802
 2453SOL     OW18817   3.718   4.313   6.951 -0.0559  0.5051 -0.2362
 2453SOL    HW118818   3.674   4.231   6.974  1.2959  0.1707  1.1526
 2453SOL    HW218819   3.731   4.361   7.033 -1.9633  1.0960 -0.2627
 2454SOL     OW18820   3.505   2.269   4.302  0.1399 -0.2257 -0.9002
 2454SOL    HW118821   3.537   2.211   4.233  1.4720 -2.1188  1.3341
 2454SOL    HW218822   3.550   2.352   4.288 -0.6996  0.5596  0.9691
 2455SOL     OW18823   2.109   2.967   4.389  0.2008  0.3350 -0.1797
 2455SOL    HW118824   2.200   2.987   4.411  0.1143 -0.4093  0.9129
 2455SOL    HW218825   2.071   3.054   4.400 -1.1195 -0.1259 -1.1107
 2456SOL     OW18826   1.076   4.645   4.167  0.4165 -0.5143  0.3170
 2456SOL    HW118827   1.084   4.589   4.090 -1.3648 -0.4197  0.0601
 2456SOL    HW218828   0.988   4.680   4.155  0.0703 -1.1584  0.9234
 2457SOL     OW18829   4.490   4.499   2.727  0.0756 -0.6995 -0.4613
 2457SOL    HW118830   4.553   4.499   2.655 -0.3061 -1.1080 -0.7921
 2457SOL    HW218831   4.412   4.520   2.675 -2.5470 -2.1401  2.9250
 2458SOL     OW18832   1.964   4.101   4.898  0.1266 -0.2151  0.1725
 2458SOL    HW118833   1.882   4.058   4.921  1.3899 -2.2825  0.7782
 2458SOL    HW218834   1.982   4.076   4.807 -1.7914  0.7462 -0.4724
 2459SOL     OW18835   3.509   1.144  10.733 -0.5040 -0.3812  0.0189
 2459SOL    HW118836   3.530   1.184  10.649 -0.1792 -3.5324 -1.4045
 2459SOL    HW218837   3.596   1.112  10.755  0.4522  1.7555 -0.7260
 2460SOL     OW18838   0.802   4.577   7.133 -0.6285  0.3821  0.9194
 2460SOL    HW118839   0.840   4.630   7.063  1.3129  0.9429  2.4077
 2460SOL    HW218840   0.871   4.513   7.150 -0.4150  0.1883 -0.6987
 2461SOL     OW18841   0.302   0.892  14.412 -0.1423  0.3169  0.1618
 2461SOL    HW118842   0.224   0.916  14.363 -0.0286 -2.4729 -1.3848
 2461SOL    HW218843   0.284   0.798  14.416  0.7547  0.1048 -0.7147
 2462SOL     OW18844   1.774   1.595   2.012 -0.6437  0.1156  0.2935
 2462SOL    HW118845   1.714   1.621   2.082 -0.8544 -1.2443  0.6125
 2462SOL    HW218846   1.842   1.661   2.026 -0.7133 -0.0314  1.3306
 2463SOL     OW18847   0.188   1.483   7.182 -1.1173  0.1494 -0.6725
 2463SOL    HW118848   0.117   1.443   7.232  1.1691  0.1537  2.5292
 2463SOL    HW218849   0.143   1.494   7.098 -1.2584 -1.4155 -0.8051
 2464SOL     OW18850   3.239   4.703   6.315 -0.3615 -0.0013 -0.2902
 2464SOL    HW118851   3.330   4.680   6.297 -0.3293  0.0798 -0.2301
 2464SOL    HW218852   3.202   4.635   6.258  2.3155 -1.3944 -0.3285
 2465SOL     OW18853   2.946   2.084   7.262 -0.0642 -0.3988  0.0696
 2465SOL    HW118854   2.954   2.130   7.345  1.3096 -0.8772  0.1997
 2465SOL    HW218855   2.974   1.995   7.285 -1.4210 -0.0320  3.0852
 2466SOL     OW18856   0.199   2.564   3.141  0.2311  0.6380 -0.3595
 2466SOL    HW118857   0.136   2.614   3.192 -0.9411 -0.9511 -0.2793
 2466SOL    HW218858   0.169   2.481   3.176 -1.2557  1.4817  0.3672
 2467SOL     OW18859   1.199   2.720   6.359 -0.3361 -0.3412  0.7676
 2467SOL    HW118860   1.231   2.738   6.271  1.1311 -2.1053  0.9598
 2467SOL    HW218861   1.184   2.626   6.347  0.7311 -0.2192 -1.4329
 2468SOL     OW18862   0.298   3.675   7.262 -0.0910  0.2460 -0.7901
 2468SOL    HW118863   0.384   3.714   7.280 -1.2517  2.1798  0.4921
 2468SOL    HW218864   0.316   3.627   7.181  2.1991 -3.6870  2.0124
 2469SOL     OW18865   4.550   0.620  11.001 -0.5345 -0.4439  0.4358
 2469SOL    HW118866   4.503   0.619  10.918 -1.8615 -0.9576  1.2002
 2469SOL    HW218867   4.626   0.676  10.982 -0.9247 -0.3666 -0.8560
 2470SOL     OW18868   3.132   0.517   0.434  0.2575 -0.2369 -0.0856
 2470SOL    HW118869   3.194   0.567   0.382  0.7582 -2.2313 -1.3992
 2470SOL    HW218870   3.049   0.511   0.386 -0.1099  0.6834  0.4285
 2471SOL     OW18871   0.893   3.404   5.659 -0.4960  0.5887  0.4863
 2471SOL    HW118872   0.906   3.338   5.728 -2.0796  0.1415  0.3765
 2471SOL    HW218873   0.821   3.371   5.605 -1.6637  0.6693  1.9734
 2472SOL     OW18874   2.860   1.867   7.814  0.6528  0.2136 -0.0350
 2472SOL    HW118875   2.902   1.807   7.876  1.1362 -1.6238 -2.1435
 2472SOL    HW218876   2.915   1.851   7.738  0.8984  2.3787 -0.3083
 2473SOL     OW18877   0.948   3.062   8.632  0.2608 -0.5559  0.3170
 2473SOL    HW118878   1.041   3.060   8.652  0.5954  1.5309 -0.9956
 2473SOL    HW218879   0.940   2.997   8.562  1.1380 -1.1305  0.7536
 2474SOL     OW18880   0.961   2.044   6.926  0.5624 -0.2389  0.2365
 2474SOL    HW118881   1.056   2.041   6.940  0.6281 -0.1987 -0.1942
 2474SOL    HW218882   0.943   2.137   6.914 -0.6881  0.0201  4.3999
 2475SOL     OW18883   3.177   4.002  12.823 -0.0570  0.1922 -0.1931
 2475SOL    HW118884   3.088   4.023  12.794  0.4221 -0.4287 -2.0921
 2475SOL    HW218885   3.171   4.023  12.917 -2.0236  0.4134 -0.3608
 2476SOL     OW18886   3.644   0.495   5.021  0.0952  0.1188 -0.0162
 2476SOL    HW118887   3.729   0.531   5.045 -0.9536  1.4334  1.7427
 2476SOL    HW218888   3.615   0.530   4.937  0.7098  0.0065 -0.2754
 2477SOL     OW18889   0.296   0.774   4.778 -0.1361 -0.3149 -0.3816
 2477SOL    HW118890   0.231   0.707   4.799  2.5730 -3.4540 -1.9202
 2477SOL    HW218891   0.289   0.828   4.857  1.0803 -0.1924 -0.3499
 2478SOL     OW18892   2.916   2.588   8.858 -0.5129  0.1340  0.0261
 2478SOL    HW118893   2.956   2.652   8.917  1.0154 -1.6102  0.8457
 2478SOL    HW218894   2.874   2.646   8.793 -0.3139  2.0727  1.6318
 2479SOL     OW18895   3.428   1.430   9.962 -0.8458 -0.3125  0.4489
 2479SOL    HW118896   3.353   1.489   9.953 -0.1488  0.7048  1.2278
 2479SOL    HW218897   3.486   1.490  10.010 -1.9212  1.3039 -0.2566
 2480SOL     OW18898   3.495   0.297   9.939  0.3041 -0.1857  0.1076
 2480SOL    HW118899   3.519   0.319   9.849 -2.2115  1.1026 -0.2667
 2480SOL    HW218900   3.476   0.380   9.982 -0.6954 -0.0474 -0.5925
 2481SOL     OW18901   2.503   2.301   5.886 -0.3946 -0.4919  0.2013
 2481SOL    HW118902   2.597   2.312   5.903  0.2288 -2.9778 -1.6786
 2481SOL    HW218903   2.470   2.241   5.953 -1.8054 -0.3535 -0.3811
 2482SOL     OW18904   3.965   4.102   0.297  0.0001 -0.0437  0.1378
 2482SOL    HW118905   4.020   4.144   0.364 -1.0684  2.4189 -0.5374
 2482SOL    HW218906   4.017   4.023   0.285  4.2230  2.5505  0.9856
 2483SOL     OW18907   2.893   1.523   8.202 -0.7549 -0.0993 -0.4270
 2483SOL    HW118908   2.900   1.431   8.228  0.2483  0.3383  0.8479
 2483SOL    HW218909   2.952   1.569   8.262  1.2282 -1.7445 -1.0804
 2484SOL     OW18910   0.468   3.136   4.963  0.3449  0.2173  0.4713
 2484SOL    HW118911   0.415   3.057   4.972 -0.5339  0.5195 -2.0915
 2484SOL    HW218912   0.524   3.118   4.887  0.7109 -2.6203  1.4005
 2485SOL     OW18913   0.602   3.836   6.716  0.2537 -0.0540 -0.1423
 2485SOL    HW118914   0.623   3.929   6.703 -1.4571 -0.0447 -2.9669
 2485SOL    HW218915   0.507   3.848   6.719  0.1794 -0.6260 -0.2523
 2486SOL     OW18916   1.171   1.324   8.461  0.6292  0.0907 -0.2183
 2486SOL    HW118917   1.136   1.319   8.372  0.0338 -0.3754  0.0440
 2486SOL    HW218918   1.179   1.418   8.478  0.2121  0.0166  0.3831
 2487SOL     OW18919   3.386   3.514  13.173 -0.2800  0.0562 -0.2466
 2487SOL    HW118920   3.354   3.535  13.085 -1.7820  0.4179  0.3896
 2487SOL    HW218921   3.310   3.456  13.183 -0.0932 -0.0254  0.6773
 2488SOL     OW18922   2.433   1.272   0.392  0.7308 -0.6458  0.0499
 2488SOL    HW118923   2.509   1.300   0.442  0.2201  1.6214 -0.4447
 2488SOL    HW218924   2.420   1.354   0.345 -2.2281 -1.3347 -0.3405
 2489SOL     OW18925   4.163   3.252   3.097 -0.3847  0.6700  0.1193
 2489SOL    HW118926   4.234   3.189   3.104 -1.3883 -0.5001 -0.1476
 2489SOL    HW218927   4.124   3.242   3.184 -2.1056  1.4654 -0.5654
 2490SOL     OW18928   4.216   4.488   2.075  0.1761  0.3343  0.4261
 2490SOL    HW118929   4.272   4.439   2.015 -0.5833 -2.8351  2.3115
 2490SOL    HW218930   4.229   4.432   2.152  0.6805  1.2977  1.0407
 2491SOL     OW18931   1.983   0.426   6.873  0.4858 -1.0509  0.7246
 2491SOL    HW118932   2.068   0.466   6.861 -0.1452  0.0230 -0.0973
 2491SOL    HW218933   1.993   0.354   6.811 -0.7446 -0.6780  0.0942
 2492SOL     OW18934   0.042   1.563   1.347  0.1893  0.3034  0.1128
 2492SOL    HW118935   0.103   1.621   1.303  0.4025 -0.2366 -0.3094
 2492SOL    HW218936   0.094   1.542   1.425 -0.4781  1.2750  0.8140
 2493SOL     OW18937   2.901   2.497   3.098 -0.1953  0.5112 -0.2295
 2493SOL    HW118938   2.897   2.435   3.026 -0.2760  0.1299  0.1021
 2493SOL    HW218939   2.996   2.501   3.111 -0.0504  0.8583 -1.4796
 2494SOL     OW18940   3.270   4.227   1.871  0.4418 -0.4954 -0.4040
 2494SOL    HW118941   3.256   4.243   1.778 -2.3784  0.6448  0.2286
 2494SOL    HW218942   3.300   4.136   1.864 -0.3427 -0.7882 -0.0502
 2495SOL     OW18943   0.497   3.806   7.004 -0.9089  0.1589 -0.3021
 2495SOL    HW118944   0.475   3.760   7.084 -0.0943  1.1097  0.4699
 2495SOL    HW218945   0.434   3.770   6.942  0.0653  0.2628 -1.3689
 2496SOL     OW18946   4.448   2.259   7.879  0.0429  0.3674  0.9793
 2496SOL    HW118947   4.376   2.296   7.829  1.4281  1.1320 -0.4523
 2496SOL    HW218948   4.459   2.320   7.952  0.1444  0.8899  0.5232
 2497SOL     OW18949   1.457   4.419  14.386  0.2464 -0.2079 -0.0059
 2497SOL    HW118950   1.378   4.474  14.381  1.6689  1.8070 -0.2824
 2497SOL    HW218951   1.525   4.486  14.381 -1.0112  1.0477 -0.3159
 2498SOL     OW18952   2.017   3.292   5.821  0.0543 -0.0732 -0.0978
 2498SOL    HW118953   1.950   3.359   5.807  0.3802  0.6087  1.5752
 2498SOL    HW218954   2.077   3.299   5.747  0.3637 -1.0389  0.0710
 2499SOL     OW18955   4.638   0.591  15.251  0.4372 -0.1953  0.0431
 2499SOL    HW118956   4.635   0.645  15.330 -1.2176 -0.1600 -0.0486
 2499SOL    HW218957   0.011   0.607  15.227  0.6334 -0.1840  0.7747
 2500SOL     OW18958   0.266   3.915   7.772  0.3577 -0.3612 -0.2292
 2500SOL    HW118959   0.210   3.840   7.754  1.2309 -1.0196 -0.2071
 2500SOL    HW218960   0.196   3.974   7.800  0.4078 -0.6630  0.5045
 2501SOL     OW18961   0.616   0.203  11.013 -0.3063 -0.1666  0.6316
 2501SOL    HW118962   0.687   0.207  10.948 -0.3565  0.6188  0.6264
 2501SOL    HW218963   0.671   0.196  11.092  2.1551 -1.5318 -1.2029
 2502SOL     OW18964   4.204   4.368  15.941 -0.0070  0.0812  0.0448
 2502SOL    HW118965   4.253   4.448  15.920  1.8596 -0.6182  1.6644
 2502SOL    HW218966   4.231   4.351  16.031 -3.0174  0.3251  0.9950
 2503SOL     OW18967   2.578   4.608  15.600  0.1476 -0.1035 -0.0580
 2503SOL    HW118968   2.614   4.696  15.610  1.2788 -0.3215 -2.3347
 2503SOL    HW218969   2.641   4.579  15.535 -0.2335 -0.9257 -0.0551
 2504SOL     OW18970   3.893   2.301   3.171 -0.5823  0.6539  0.3253
 2504SOL    HW118971   3.929   2.263   3.091 -1.2206 -2.4868  1.5421
 2504SOL    HW218972   3.972   2.353   3.185  0.5930 -1.0234 -0.0584
 2505SOL     OW18973   3.909   3.470   6.901 -0.4585 -0.1809 -0.1285
 2505SOL    HW118974   3.823   3.433   6.881 -0.0190  0.1839 -2.6615
 2505SOL    HW218975   3.894   3.532   6.973  0.9442 -2.0530  1.7861
 2506SOL     OW18976   0.154   1.806  14.283  0.4156 -0.1963  0.4376
 2506SOL    HW118977   0.092   1.741  14.249 -0.7579  0.6451  0.9380
 2506SOL    HW218978   0.125   1.815  14.374 -2.5317 -0.3953 -0.4679
 2507SOL     OW18979   2.124   0.189  13.109 -0.6189  0.1837 -0.0396
 2507SOL    HW118980   2.147   0.212  13.018 -0.0369 -1.8011 -0.3813
 2507SOL    HW218981   2.173   0.255  13.157  0.9718 -0.7163 -0.4499
 2508SOL     OW18982   3.884   2.369   6.907 -0.5859  0.2399  0.1280
 2508SOL    HW118983   3.892   2.289   6.959 -0.5255  0.0141 -0.2239
 2508SOL    HW218984   3.974   2.394   6.884  0.6636 -2.4653  2.0999
 2509SOL     OW18985   2.218   4.252  17.138  0.2794  0.0157 -0.2613
 2509SOL    HW118986   2.287   4.209  17.188 -0.1972  0.3209  0.6596
 2509SOL    HW218987   2.194   4.191  17.069 -1.7862  0.5285 -0.0281
 2510SOL     OW18988   0.828   2.651   9.462 -0.2485  0.5087  0.1628
 2510SOL    HW118989   0.910   2.648   9.414  0.1590 -0.0061  0.8968
 2510SOL    HW218990   0.823   2.569   9.511 -1.9421  1.4022  1.4758
 2511SOL     OW18991   1.591   1.297  12.551 -1.1016  0.3292  0.1101
 2511SOL    HW118992   1.632   1.360  12.492  1.0508 -0.1129  1.1475
 2511SOL    HW218993   1.659   1.230  12.543  0.4885  2.0119 -0.6260
 2512SOL     OW18994   0.331   2.304   5.268 -0.2263  0.3292  0.9001
 2512SOL    HW118995   0.258   2.338   5.319  0.1462 -1.1345  2.4079
 2512SOL    HW218996   0.392   2.269   5.333 -0.6836 -0.0902  1.1131
 2513SOL     OW18997   4.330   1.136   5.558 -0.2706 -0.4661 -0.3985
 2513SOL    HW118998   4.396   1.141   5.627 -0.2832 -1.4738 -0.3159
 2513SOL    HW218999   4.377   1.165   5.479  1.2091  1.8179  1.3336
 2514SOL     OW19000   0.308   3.919   2.582  0.2868  0.1141 -0.3131
 2514SOL    HW119001   0.296   3.966   2.665  1.7756  0.8682 -0.5287
 2514SOL    HW219002   0.272   3.832   2.594  1.1472  0.0362  1.7185
 2515SOL     OW19003   4.712   2.434   2.839 -0.4622  0.0870  0.1868
 2515SOL    HW119004   4.629   2.449   2.884  0.3589  0.2659  1.6529
 2515SOL    HW219005   4.665   2.393   2.766 -0.1028  0.7584 -0.4186
 2516SOL     OW19006   2.435   0.962  15.713 -0.8044  0.0538 -0.3960
 2516SOL    HW119007   2.349   0.964  15.755  0.5308  1.6148  2.2341
 2516SOL    HW219008   2.429   1.026  15.642 -0.5200 -1.7582 -2.0511
 2517SOL     OW19009   1.681   3.941  14.143  0.0443 -0.2711 -0.1655
 2517SOL    HW119010   1.632   4.006  14.094 -2.6484 -1.1994  1.2896
 2517SOL    HW219011   1.759   3.928  14.089 -0.0009  1.7413 -0.7391
 2518SOL     OW19012   1.877   2.473   2.270 -0.5259 -0.3003  0.5113
 2518SOL    HW119013   1.783   2.473   2.255 -0.6668  1.9892  1.3814
 2518SOL    HW219014   1.893   2.562   2.301  1.1023 -0.2669 -0.3748
 2519SOL     OW19015   3.157   0.693   6.250 -0.2472 -0.7858 -0.4086
 2519SOL    HW119016   3.159   0.673   6.156  2.2463  1.1931 -0.7902
 2519SOL    HW219017   3.237   0.746   6.246  0.9738 -2.6646 -0.9565
 2520SOL     OW19018   2.556   2.820  12.072 -0.1543  0.2346  0.4109
 2520SOL    HW119019   2.562   2.913  12.097  0.0023  0.3825 -0.1850
 2520SOL    HW219020   2.465   2.813  12.043 -0.0352  1.4005 -0.2691
 2521SOL     OW19021   1.086   4.201   7.133 -0.0885  0.1829  0.0592
 2521SOL    HW119022   1.040   4.125   7.098  1.3663 -0.8411  0.3758
 2521SOL    HW219023   1.154   4.167   7.191 -0.2668  2.1638  1.4511
 2522SOL     OW19024   1.501   2.106   5.476  0.7977  0.4231 -0.3653
 2522SOL    HW119025   1.419   2.064   5.502  1.3770  1.7073  3.5506
 2522SOL    HW219026   1.558   2.079   5.548  0.8216  0.0183 -0.5358
 2523SOL     OW19027   1.327   4.009   4.598 -0.0720  0.1439 -0.3883
 2523SOL    HW119028   1.255   4.049   4.549  0.4778  1.2338 -0.3108
 2523SOL    HW219029   1.298   3.927   4.639  0.1614  1.2566  1.9888
 2524SOL     OW19030   3.996   3.202   1.206 -0.0101  0.2770 -0.2383
 2524SOL    HW119031   4.056   3.266   1.244  0.2200 -0.4063  0.5611
 2524SOL    HW219032   3.915   3.248   1.230 -0.3200 -0.7330  0.6753
 2525SOL     OW19033   4.193   1.036   6.967  0.5544 -0.7159  0.7393
 2525SOL    HW119034   4.140   1.072   6.896 -1.0976  2.5415  3.6558
 2525SOL    HW219035   4.204   1.095   7.041  0.4614  2.2476 -1.6102
 2526SOL     OW19036   1.963   2.035  13.126  0.2119 -0.2231 -0.2100
 2526SOL    HW119037   1.966   2.126  13.156  1.3688 -0.8487  1.5568
 2526SOL    HW219038   2.039   1.997  13.169  0.7410 -0.9934 -1.8421
 2527SOL     OW19039   0.018   4.317   7.847  0.4302  0.1105  0.5469
 2527SOL    HW119040   4.682   4.244   7.820  2.2532 -0.7139 -0.9650
 2527SOL    HW219041   4.704   4.333   7.935 -1.6530  0.9571 -0.3841
 2528SOL     OW19042   4.514   3.583   4.465 -0.3383  0.1973  0.0431
 2528SOL    HW119043   4.601   3.616   4.489  0.3097  0.3355 -2.4884
 2528SOL    HW219044   4.531   3.516   4.398  0.5670 -0.0175  0.4823
 2529SOL     OW19045   2.395   0.547  15.337 -0.1668 -0.3415 -0.0700
 2529SOL    HW119046   2.318   0.602  15.323  0.7567  0.9810  0.0249
 2529SOL    HW219047   2.436   0.588  15.413  0.0874  1.7788 -1.3561
 2530SOL     OW19048   0.842   3.731  12.539 -0.0153 -0.0860  0.3434
 2530SOL    HW119049   0.832   3.730  12.634  1.6332  0.1967  0.5197
 2530SOL    HW219050   0.883   3.818  12.531 -0.9795  0.2563 -0.8711
 2531SOL     OW19051   0.470   4.373   7.296 -0.0034 -0.3778  0.2534
 2531SOL    HW119052   0.545   4.420   7.332  0.3514 -2.6512  2.4656
 2531SOL    HW219053   0.444   4.309   7.362 -1.8351  0.2123  0.1001
 2532SOL     OW19054   2.644   2.539  17.426  0.0683 -0.0677 -0.1774
 2532SOL    HW119055   2.576   2.492  17.475  2.0528 -1.8590  0.8849
 2532SOL    HW219056   2.677   2.605  17.487 -1.6630 -1.0468  1.8115
 2533SOL     OW19057   1.040   3.790   6.023  0.2869  0.5296 -0.5008
 2533SOL    HW119058   1.064   3.728   5.954 -1.0937 -0.2830 -0.2457
 2533SOL    HW219059   1.017   3.875   5.986 -3.0084 -0.1847 -0.0812
 2534SOL     OW19060   2.478   2.010   5.252 -0.3762  0.0762  0.0306
 2534SOL    HW119061   2.438   1.999   5.165  0.6954  1.5278 -0.6545
 2534SOL    HW219062   2.409   2.062   5.293 -0.1306  1.5264 -1.4232
 2535SOL     OW19063   1.021   3.234   2.549  0.2526 -0.0758  0.3739
 2535SOL    HW119064   1.009   3.223   2.643 -2.7437  0.7408  0.0832
 2535SOL    HW219065   0.953   3.300   2.534 -0.3802 -1.1710 -1.6226
 2536SOL     OW19066   1.379   0.042   7.560  0.3469 -0.3791  0.0580
 2536SOL    HW119067   1.325   0.121   7.566  0.1052 -0.6532  1.4678
 2536SOL    HW219068   1.327   4.704   7.616 -2.1595  0.5251 -1.3127
 2537SOL     OW19069   2.419   4.273  11.425  0.1197 -0.0022  0.0118
 2537SOL    HW119070   2.410   4.182  11.397 -0.4522  0.2192 -0.5057
 2537SOL    HW219071   2.405   4.269  11.519  2.3695  0.8040  0.3924
 2538SOL     OW19072   2.628   2.388   5.115  0.2605  0.0111  0.1524
 2538SOL    HW119073   2.551   2.346   5.076  0.8552  0.9720 -2.0113
 2538SOL    HW219074   2.588   2.404   5.201  2.9264 -0.0101  1.3843
 2539SOL     OW19075   3.755   1.603   4.559  1.2743 -0.0353  0.0716
 2539SOL    HW119076   3.703   1.573   4.633  0.6244  0.6677 -0.0961
 2539SOL    HW219077   3.699   1.570   4.488 -0.8286  0.0965  1.6663
 2540SOL     OW19078   2.762   1.134   7.832  0.2876 -0.2355  0.3787
 2540SOL    HW119079   2.673   1.158   7.859  0.6847 -1.0451  2.3970
 2540SOL    HW219080   2.747   1.046   7.798 -1.6198  0.2528 -0.0804
 2541SOL     OW19081   3.028   1.600  13.916 -0.7795 -0.3126 -0.5186
 2541SOL    HW119082   2.978   1.519  13.914  0.4515 -1.0971  0.7255
 2541SOL    HW219083   3.054   1.621  13.826 -0.8070 -1.1564 -0.7272
 2542SOL     OW19084   3.004   0.778   5.432  0.7036 -0.3014 -0.4824
 2542SOL    HW119085   2.939   0.707   5.439 -1.1399  1.3584 -0.8103
 2542SOL    HW219086   2.981   0.806   5.343  0.5439  1.4729  0.1164
 2543SOL     OW19087   1.385   4.211   9.130  0.2442  0.1817 -0.1038
 2543SOL    HW119088   1.353   4.162   9.205 -1.5620  0.7471 -0.5120
 2543SOL    HW219089   1.311   4.270   9.116 -0.7373 -1.5311 -2.0380
 2544SOL     OW19090   1.309   1.283   5.968 -0.3204 -0.3315 -0.2764
 2544SOL    HW119091   1.275   1.345   6.032  0.0139 -0.4323  0.0025
 2544SOL    HW219092   1.270   1.311   5.885 -2.7853 -0.9814  0.6823
 2545SOL     OW19093   1.568   0.753  11.894  0.1993 -0.1290 -0.3162
 2545SOL    HW119094   1.494   0.804  11.927  0.5334  0.8438 -1.0715
 2545SOL    HW219095   1.612   0.811  11.833  1.2992 -0.0817  0.5427
 2546SOL     OW19096   0.107   1.011  15.976  0.5853  0.0714  0.0690
 2546SOL    HW119097   0.146   1.055  15.901  0.9565  0.8157  0.7073
 2546SOL    HW219098   0.150   0.925  15.975 -0.8083 -0.6513  1.7825
 2547SOL     OW19099   4.386   1.856   3.094 -0.4220 -0.2009 -0.0446
 2547SOL    HW119100   4.397   1.825   3.184 -1.6637  2.0049  0.8454
 2547SOL    HW219101   4.400   1.950   3.090 -1.2153 -0.1257 -1.0098
 2548SOL     OW19102   0.592   4.091  12.685  0.6707 -0.0158  0.0778
 2548SOL    HW119103   0.641   4.072  12.605  1.2928 -1.3558  0.7807
 2548SOL    HW219104   0.525   4.024  12.681  2.0198 -1.3395 -0.1826
 2549SOL     OW19105   3.116   0.200   8.335 -0.0675  0.7119  0.5747
 2549SOL    HW119106   3.148   0.159   8.254 -0.5707  1.0642  0.1946
 2549SOL    HW219107   3.029   0.233   8.314 -1.1042 -1.2068  1.8630
 2550SOL     OW19108   3.707   3.842   0.533 -0.6432 -0.0279 -0.2370
 2550SOL    HW119109   3.649   3.767   0.549 -1.6604  0.7255 -0.3772
 2550SOL    HW219110   3.792   3.798   0.534  0.0493  1.2767 -1.0228
 2551SOL     OW19111   0.047   4.304  14.527 -0.4931 -0.0054 -0.1063
 2551SOL    HW119112   4.707   4.355  14.582  0.4754  0.5446  0.4082
 2551SOL    HW219113   0.126   4.336  14.570 -0.3551 -1.1922  0.5409
 2552SOL     OW19114   3.247   3.028  14.290 -0.3459  0.2034 -0.8087
 2552SOL    HW119115   3.231   3.091  14.360  0.6969  1.2356 -1.4941
 2552SOL    HW219116   3.187   3.054  14.220 -1.4691  0.4365  0.2376
 2553SOL     OW19117   1.334   0.250   6.545  0.3990  0.0308  0.0669
 2553SOL    HW119118   1.289   0.166   6.548  0.3805  0.0877  1.2087
 2553SOL    HW219119   1.285   0.311   6.489 -1.0678 -1.0635  0.1544
 2554SOL     OW19120   1.367   2.368   6.398 -0.2841 -0.2475  0.1762
 2554SOL    HW119121   1.360   2.299   6.332 -0.2729  1.0835 -1.2162
 2554SOL    HW219122   1.407   2.331   6.477  1.5979  2.3177  0.4633
 2555SOL     OW19123   0.784   1.284   0.597  0.4513  0.1085 -0.2682
 2555SOL    HW119124   0.858   1.260   0.654 -1.2349  0.0264  1.8570
 2555SOL    HW219125   0.772   1.202   0.547  0.3695  1.0982 -1.8877
 2556SOL     OW19126   2.273   4.247  12.846 -0.2097 -0.4849  0.2881
 2556SOL    HW119127   2.361   4.284  12.852 -0.2668 -0.6625  2.2011
 2556SOL    HW219128   2.289   4.159  12.813 -1.1743 -0.7952  0.6653
 2557SOL     OW19129   2.421   1.292  14.439 -0.0140  0.4077  0.2472
 2557SOL    HW119130   2.467   1.311  14.357 -0.6680  0.9584  0.0128
 2557SOL    HW219131   2.478   1.341  14.497 -1.0193 -0.9990  2.4082
 2558SOL     OW19132   0.768   2.008  15.048 -0.0386  0.1712  0.5497
 2558SOL    HW119133   0.746   1.929  14.999  2.3138  0.9831 -1.8149
 2558SOL    HW219134   0.718   2.071  14.996 -2.1167 -0.8091  1.3759
 2559SOL     OW19135   1.740   0.744  15.815 -0.2608  0.0925 -0.2438
 2559SOL    HW119136   1.716   0.670  15.760 -1.8138  0.5022 -0.0995
 2559SOL    HW219137   1.834   0.738  15.795 -0.1646  3.0255 -0.7309
 2560SOL     OW19138   4.369   0.172   8.945 -0.2877 -0.0998  0.3620
 2560SOL    HW119139   4.462   0.188   8.961 -0.4017 -0.1462  1.0612
 2560SOL    HW219140   4.361   0.204   8.855  0.7322 -0.1510  0.2570
 2561SOL     OW19141   2.410   3.257  17.213 -0.3379 -0.5713 -0.0598
 2561SOL    HW119142   2.443   3.229  17.298 -0.0044 -0.0879 -0.0323
 2561SOL    HW219143   2.430   3.188  17.150 -1.5186 -1.1995  0.2429
 2562SOL     OW19144   1.372   2.133   3.953 -0.0762 -0.0092 -0.2734
 2562SOL    HW119145   1.431   2.148   3.880  2.6697  0.9866  2.1490
 2562SOL    HW219146   1.434   2.090   4.013 -1.3703 -1.4423  0.0313
 2563SOL     OW19147   0.560   4.645   7.696  0.0253 -0.1164  0.2277
 2563SOL    HW119148   0.605   4.696   7.763 -0.7731 -0.1554  0.7893
 2563SOL    HW219149   0.486   4.614   7.747 -0.4890  0.4722 -0.1562
 2564SOL     OW19150   0.129   3.085  13.278 -0.5048  0.5244  0.0435
 2564SOL    HW119151   0.121   3.138  13.357 -0.8601 -1.0331  1.0450
 2564SOL    HW219152   0.052   3.028  13.271  1.1443 -1.6611 -0.1923
 2565SOL     OW19153   1.331   3.501   2.998 -0.8673  0.1771  0.1560
 2565SOL    HW119154   1.256   3.551   3.031 -0.0695  0.0650  2.1427
 2565SOL    HW219155   1.369   3.467   3.079  1.9791 -0.8596 -1.6110
 2566SOL     OW19156   2.559   3.929   8.204 -0.7220 -0.2383 -0.5228
 2566SOL    HW119157   2.609   4.006   8.177 -0.9467 -0.1897 -0.8054
 2566SOL    HW219158   2.565   3.881   8.121 -3.1406 -0.0195 -0.8100
 2567SOL     OW19159   1.516   2.696  15.884  0.2224 -0.2432 -0.3308
 2567SOL    HW119160   1.517   2.754  15.960 -1.4239  1.0718 -1.3395
 2567SOL    HW219161   1.462   2.738  15.817 -1.2101 -0.3850  0.7399
 2568SOL     OW19162   3.057   4.228  13.540 -0.2294 -0.6156 -0.0482
 2568SOL    HW119163   3.085   4.175  13.465 -0.2038  0.4604 -0.8014
 2568SOL    HW219164   3.009   4.299  13.497 -0.6862 -0.5718  0.5312
 2569SOL     OW19165   0.976   2.306  13.310 -0.4215  0.3475 -0.4399
 2569SOL    HW119166   1.048   2.351  13.265  0.4318  1.1086  1.6880
 2569SOL    HW219167   1.026   2.277  13.386 -0.5052  3.0815  0.6687
 2570SOL     OW19168   0.278   0.523  12.008  0.0805 -0.0482 -0.0612
 2570SOL    HW119169   0.336   0.578  11.956 -0.6074  1.2123  0.5238
 2570SOL    HW219170   0.314   0.435  12.000  0.2560  0.1382 -1.2578
 2571SOL     OW19171   3.428   1.131   0.604  0.0454 -0.5314 -0.0924
 2571SOL    HW119172   3.451   1.045   0.639 -2.2804 -0.2786  2.0150
 2571SOL    HW219173   3.438   1.192   0.676  1.3842 -1.2890  0.3684
 2572SOL     OW19174   1.741   1.221   3.490 -0.0095  0.1078  0.4036
 2572SOL    HW119175   1.745   1.126   3.497 -0.2118  0.1298  0.8006
 2572SOL    HW219176   1.648   1.226   3.467  0.3002 -1.2996 -1.1413
 2573SOL     OW19177   1.509   4.051   3.719 -0.0095  0.9815 -0.0387
 2573SOL    HW119178   1.592   4.075   3.760  1.2549 -0.1884 -1.8704
 2573SOL    HW219179   1.457   4.076   3.795 -0.0853  2.7191 -0.6713
 2574SOL     OW19180   0.986   0.824   1.703 -0.2109 -0.3044  0.2425
 2574SOL    HW119181   0.910   0.858   1.750 -0.9965 -2.2777  0.4150
 2574SOL    HW219182   1.029   0.907   1.684  0.6708 -0.8927 -0.2867
 2575SOL     OW19183   3.099   4.246   2.395 -0.3399 -0.3495  0.1475
 2575SOL    HW119184   3.173   4.295   2.431 -0.8865  1.4574 -1.1620
 2575SOL    HW219185   3.031   4.308   2.366  2.2366  2.5798  0.3604
 2576SOL     OW19186   0.742   4.561   0.279 -0.1245  0.1885  0.7342
 2576SOL    HW119187   0.711   4.651   0.287 -1.1240 -0.0791 -0.1759
 2576SOL    HW219188   0.768   4.543   0.369 -3.5149  0.8268  1.8119
 2577SOL     OW19189   1.249   2.640   8.848  0.2883  0.4466 -0.5243
 2577SOL    HW119190   1.336   2.650   8.888 -0.6534 -0.1449  1.6347
 2577SOL    HW219191   1.199   2.625   8.927  0.1826  1.1414 -0.4550
 2578SOL     OW19192   4.239   1.682  12.461 -0.5432  0.1038  0.0077
 2578SOL    HW119193   4.221   1.600  12.507  0.1081 -0.5738 -0.9259
 2578SOL    HW219194   4.187   1.660  12.384 -0.5716 -0.0301  0.0650
 2579SOL     OW19195   2.929   3.738   6.336  0.0040 -0.0058 -0.1691
 2579SOL    HW119196   2.876   3.741   6.257 -2.5715  0.7524  1.5705
 2579SOL    HW219197   3.009   3.708   6.294  0.4993  0.5955  0.3378
 2580SOL     OW19198   3.241   2.886   4.264  0.3261 -0.0658  0.0993
 2580SOL    HW119199   3.334   2.892   4.241  0.1756 -0.9966 -0.8160
 2580SOL    HW219200   3.214   2.977   4.266 -0.0946 -0.1174 -2.8316
 2581SOL     OW19201   2.130   3.103   4.055 -0.0545  0.4392 -0.0288
 2581SOL    HW119202   2.171   3.017   4.040  1.0334  0.7247  1.2967
 2581SOL    HW219203   2.153   3.122   4.146 -3.1802 -1.6572  1.1856
 2582SOL     OW19204   2.943   3.600   4.805  0.3792  0.8110  0.4797
 2582SOL    HW119205   3.002   3.572   4.875  0.5336  2.1933  0.9117
 2582SOL    HW219206   3.009   3.612   4.737 -1.9863  0.7166 -1.8403
 2583SOL     OW19207   2.486   0.529   9.142 -0.2671 -0.2001 -0.1464
 2583SOL    HW119208   2.532   0.445   9.145  0.4864  0.1964 -0.6143
 2583SOL    HW219209   2.511   0.568   9.226 -1.3131 -1.8637  0.9372
 2584SOL     OW19210   1.664   2.944   5.993  0.0622 -0.3270 -0.3563
 2584SOL    HW119211   1.589   2.990   6.031 -0.7550 -0.4712 -1.8002
 2584SOL    HW219212   1.698   2.990   5.916  2.0176  2.4156  2.1538
 2585SOL     OW19213   3.205   4.280   5.534 -0.0459  0.0698 -0.7713
 2585SOL    HW119214   3.201   4.267   5.439  0.5846  0.8455 -0.8977
 2585SOL    HW219215   3.121   4.236   5.549  0.4745 -0.7527 -0.2678
 2586SOL     OW19216   0.619   1.198   2.757  0.0297 -0.3082  0.0234
 2586SOL    HW119217   0.707   1.173   2.786  0.2435 -1.2167 -1.4341
 2586SOL    HW219218   0.633   1.290   2.778 -0.7885 -0.0291 -0.6834
 2587SOL     OW19219   2.170   3.716   8.234  0.0018 -0.5563  0.1962
 2587SOL    HW119220   2.077   3.737   8.227 -0.5374 -3.1086 -0.3573
 2587SOL    HW219221   2.211   3.771   8.166  1.4467 -1.1843  0.5532
 2588SOL     OW19222   0.192   3.133  15.232 -0.2940 -0.2371  0.0323
 2588SOL    HW119223   0.127   3.066  15.249 -0.9574  0.5848  0.7506
 2588SOL    HW219224   0.143   3.189  15.173  1.5020  0.4997 -0.7666
 2589SOL     OW19225   2.500   0.629  16.050  0.1368 -0.0886 -0.1246
 2589SOL    HW119226   2.512   0.677  15.968  0.6070 -1.3143 -0.7697
 2589SOL    HW219227   2.405   0.617  16.050  0.1886 -0.3836  4.7065
 2590SOL     OW19228   0.302   1.464   2.508 -0.0955  0.0797 -0.0157
 2590SOL    HW119229   0.324   1.447   2.599 -0.1124  1.4088  0.2341
 2590SOL    HW219230   0.324   1.379   2.471  0.2032 -0.1718  0.7448
 2591SOL     OW19231   2.246   3.213   7.611  0.0326 -0.2047  0.0206
 2591SOL    HW119232   2.204   3.206   7.525 -0.1531 -2.2690  0.2863
 2591SOL    HW219233   2.234   3.308   7.618 -1.4961 -0.4884  1.2881
 2592SOL     OW19234   3.156   1.674   3.200  0.2269  0.2094  0.5075
 2592SOL    HW119235   3.088   1.683   3.133  0.0046 -1.6324  0.4823
 2592SOL    HW219236   3.091   1.655   3.267  2.2781 -2.4867  1.7479
 2593SOL     OW19237   1.628   2.390   9.512  0.6687  0.2966  0.4678
 2593SOL    HW119238   1.607   2.321   9.575 -0.7478 -1.1106 -1.5563
 2593SOL    HW219239   1.665   2.347   9.435 -0.2641  0.3593 -0.0137
 2594SOL     OW19240   3.920   1.811   1.783 -0.2681  0.1835 -0.6822
 2594SOL    HW119241   3.845   1.815   1.724 -0.2702 -1.1153 -0.7588
 2594SOL    HW219242   3.887   1.767   1.861 -0.2145 -0.7923 -1.2100
 2595SOL     OW19243   4.335   3.846   3.499 -0.0499 -0.4935  0.7071
 2595SOL    HW119244   4.351   3.752   3.511 -1.4967 -0.9205 -0.6757
 2595SOL    HW219245   4.421   3.881   3.525  2.3622 -5.0637 -1.1109
 2596SOL     OW19246   4.691   4.132  11.311 -1.4027  0.8016  0.3031
 2596SOL    HW119247   4.684   4.054  11.254  0.6001 -1.6209  3.3790
 2596SOL    HW219248   0.047   4.169  11.265  1.4330 -0.7837  3.6839
 2597SOL     OW19249   1.637   1.747   3.033  0.2085  0.2497 -0.2916
 2597SOL    HW119250   1.646   1.821   2.973 -0.2532 -1.2256 -2.1700
 2597SOL    HW219251   1.726   1.712   3.037  0.4323  0.7662 -0.6414
 2598SOL     OW19252   0.453   0.847   2.935 -0.3793 -0.4909  0.3203
 2598SOL    HW119253   0.385   0.864   3.001  0.1028 -0.9203  0.9233
 2598SOL    HW219254   0.517   0.802   2.989 -0.3303 -0.0892  0.6014
 2599SOL     OW19255   4.104   2.567   8.496 -0.2960 -0.2764 -0.0877
 2599SOL    HW119256   4.071   2.553   8.585  2.7886 -2.5715  0.7161
 2599SOL    HW219257   4.144   2.481   8.484  0.7073  0.5872 -2.8738
 2600SOL     OW19258   1.724   2.826   5.498 -0.5949 -0.3580 -0.0276
 2600SOL    HW119259   1.763   2.780   5.573 -0.2352 -0.2994 -0.1784
 2600SOL    HW219260   1.638   2.787   5.487 -1.3102  1.5280 -1.0008
 2601SOL     OW19261   1.134   0.817  10.843 -0.3630  0.2645 -0.9008
 2601SOL    HW119262   1.104   0.748  10.902 -2.0017  1.2948 -0.5342
 2601SOL    HW219263   1.082   0.798  10.765 -0.6661  1.2225 -0.9316
 2602SOL     OW19264   4.531   2.793   0.662 -0.4363  0.1827  0.0043
 2602SOL    HW119265   4.461   2.759   0.718  0.6474  0.7051  1.6714
 2602SOL    HW219266   4.573   2.855   0.720 -0.8814  2.1296 -1.7556
 2603SOL     OW19267   3.736   1.169   7.254 -0.1211  0.4347  0.4512
 2603SOL    HW119268   3.788   1.099   7.294  0.8690 -0.2236 -2.0226
 2603SOL    HW219269   3.655   1.178   7.305 -0.4589  0.1195 -0.0385
 2604SOL     OW19270   3.690   2.825  11.569  0.0642  0.3121 -0.0468
 2604SOL    HW119271   3.714   2.850  11.658  0.6270  1.4310 -0.5207
 2604SOL    HW219272   3.699   2.731  11.588  1.9979  0.1979 -1.4749
 2605SOL     OW19273   1.485   1.544   5.700 -0.2838 -0.0100  0.4716
 2605SOL    HW119274   1.501   1.450   5.692  0.2156  0.1422 -0.3227
 2605SOL    HW219275   1.390   1.546   5.694 -0.4413 -1.6599  2.5102
 2606SOL     OW19276   2.555   3.175   5.816  0.1046  0.3113  0.1389
 2606SOL    HW119277   2.546   3.188   5.722 -0.2043  2.0228  0.4072
 2606SOL    HW219278   2.481   3.115   5.828  0.8395 -0.7387 -0.4962
 2607SOL     OW19279   1.172   4.016  11.360 -0.0566 -0.0017 -0.0945
 2607SOL    HW119280   1.251   3.970  11.388 -0.9208 -1.6233 -0.3381
 2607SOL    HW219281   1.205   4.103  11.337 -0.6137 -0.1530 -1.4502
 2608SOL     OW19282   0.716   4.227   4.549  0.0130 -0.4320  0.0755
 2608SOL    HW119283   0.643   4.165   4.551  1.0080 -1.7161 -2.7881
 2608SOL    HW219284   0.695   4.281   4.473 -1.2412 -0.6861  0.2479
 2609SOL     OW19285   1.343   0.900  12.311  0.1679  0.4981 -0.1507
 2609SOL    HW119286   1.341   0.939  12.224 -1.0559 -1.9023 -1.2126
 2609SOL    HW219287   1.281   0.948  12.366 -1.2080 -0.0276 -1.2572
 2610SOL     OW19288   3.383   2.422   1.630 -0.6990 -0.2552 -0.5969
 2610SOL    HW119289   3.351   2.491   1.572 -0.9932 -0.0485 -0.1923
 2610SOL    HW219290   3.423   2.467   1.704  0.1718 -0.9073 -0.6689
 2611SOL     OW19291   2.974   1.438   3.284 -0.5186  0.8426 -0.5716
 2611SOL    HW119292   3.035   1.415   3.353 -2.0648 -1.7990 -0.1043
 2611SOL    HW219293   2.898   1.383   3.304  0.1153 -0.1581 -0.8977
 2612SOL     OW19294   4.180   0.522   5.753  0.5713  0.2547 -0.2811
 2612SOL    HW119295   4.121   0.588   5.717  0.0220 -0.2773 -0.3526
 2612SOL    HW219296   4.118   0.479   5.812 -0.8844  1.9444 -0.5628
 2613SOL     OW19297   2.427   2.347   4.216  0.0949  0.3056 -0.3580
 2613SOL    HW119298   2.468   2.431   4.196  1.2090 -0.9419 -3.4336
 2613SOL    HW219299   2.380   2.374   4.295 -0.8297  0.2725 -0.9023
 2614SOL     OW19300   2.832   1.761   6.390  0.1897 -0.2270  0.4450
 2614SOL    HW119301   2.784   1.701   6.446 -0.3044  0.8169  1.1434
 2614SOL    HW219302   2.793   1.841   6.425 -1.9401 -1.2567  0.4018
 2615SOL     OW19303   0.745   2.139   5.020  0.1240 -0.1611  0.0245
 2615SOL    HW119304   0.841   2.139   5.020  0.1248 -0.3122  1.5064
 2615SOL    HW219305   0.728   2.088   5.099  0.5095  0.7707  0.7145
 2616SOL     OW19306   2.778   0.759   3.855  0.1664 -0.1167 -0.0214
 2616SOL    HW119307   2.741   0.698   3.919 -1.8148  0.5236 -0.5350
 2616SOL    HW219308   2.774   0.712   3.772  0.5950  2.0391 -1.2708
 2617SOL     OW19309   1.535   3.337  13.503  0.1872  0.3560 -0.2915
 2617SOL    HW119310   1.461   3.277  13.513  1.2915 -0.4624  2.9613
 2617SOL    HW219311   1.615   3.283  13.510  1.3299  2.2597  1.3340
 2618SOL     OW19312   3.502   2.064  15.459  0.1256  0.4365 -0.2224
 2618SOL    HW119313   3.578   2.055  15.403  0.6318 -0.3088  0.5766
 2618SOL    HW219314   3.511   1.991  15.521 -0.4750 -0.2424 -0.9251
 2619SOL     OW19315   0.147   3.549   4.877 -0.6364 -0.1400 -0.4082
 2619SOL    HW119316   0.064   3.590   4.904  0.0853 -0.3299  2.1217
 2619SOL    HW219317   0.200   3.627   4.859 -1.1981  0.9237  2.6200
 2620SOL     OW19318   4.028   4.013   1.045  0.8544 -0.2045 -0.1023
 2620SOL    HW119319   4.116   4.043   1.063 -0.6216  3.9659  0.1093
 2620SOL    HW219320   4.040   3.918   1.040  1.1171 -0.1308 -0.9385
 2621SOL     OW19321   1.181   2.314  12.091  0.1836  0.4717  0.3051
 2621SOL    HW119322   1.197   2.220  12.095 -1.8781  0.0566 -0.9090
 2621SOL    HW219323   1.188   2.343  12.182  1.6758 -0.1667  0.3816
 2622SOL     OW19324   1.266   1.933   1.708 -0.2793  0.3740  0.0758
 2622SOL    HW119325   1.196   1.998   1.703 -0.3143  0.3495  0.2536
 2622SOL    HW219326   1.224   1.848   1.696  0.9989 -0.2583  0.1531
 2623SOL     OW19327   4.703   0.637   6.055 -0.5279  0.5129 -0.0323
 2623SOL    HW119328   4.697   0.696   6.130 -1.2787  0.5445 -0.1140
 2623SOL    HW219329   4.657   0.685   5.985  0.3833  1.3531 -0.0565
 2624SOL     OW19330   1.102   1.888   0.287  0.3045  0.2961  0.1861
 2624SOL    HW119331   1.072   1.877   0.196 -1.4227 -4.3645  1.3123
 2624SOL    HW219332   1.117   1.798   0.316  0.2287  0.4206  0.6085
 2625SOL     OW19333   1.808   1.343   7.933  0.4329 -0.2722 -0.1251
 2625SOL    HW119334   1.895   1.383   7.935  1.0180 -1.5770  0.2908
 2625SOL    HW219335   1.758   1.424   7.923  0.3430  0.0672  3.0867
 2626SOL     OW19336   4.202   1.189   8.336  0.7333  0.0710  0.3799
 2626SOL    HW119337   4.251   1.233   8.406 -0.0779  0.0317  0.9712
 2626SOL    HW219338   4.188   1.103   8.375 -1.6684  0.5743  0.6556
 2627SOL     OW19339   1.576   0.745  13.222  0.4278  0.1829 -0.1836
 2627SOL    HW119340   1.600   0.717  13.310  0.8843  1.1520 -0.0003
 2627SOL    HW219341   1.637   0.818  13.212  2.3504 -1.1826  1.5061
 2628SOL     OW19342   2.796   4.323   3.870 -0.1432  0.5471  0.1557
 2628SOL    HW119343   2.736   4.258   3.907  0.1417  1.3088  1.9486
 2628SOL    HW219344   2.806   4.378   3.948  0.5560  1.2544 -0.4389
 2629SOL     OW19345   3.266   1.658   5.662 -0.0207 -0.2563 -0.3000
 2629SOL    HW119346   3.177   1.681   5.687  0.8144 -0.5917  2.9318
 2629SOL    HW219347   3.244   1.622   5.576 -0.7270  0.0075 -0.2324
 2630SOL     OW19348   1.756   4.326  12.852 -0.0446  0.3095  0.3024
 2630SOL    HW119349   1.661   4.314  12.857 -0.0785  0.3858 -0.1789
 2630SOL    HW219350   1.773   4.362  12.939  1.6332  0.6098 -0.1425
 2631SOL     OW19351   4.215   0.773   6.786  0.2471  0.2939  0.3412
 2631SOL    HW119352   4.206   0.683   6.816 -0.2272  0.7459  1.5640
 2631SOL    HW219353   4.162   0.817   6.852 -2.0263 -1.4009 -0.3752
 2632SOL     OW19354   3.829   4.062  10.812  0.0149  0.0877 -0.1441
 2632SOL    HW119355   3.905   4.106  10.773  0.2539 -0.3118 -0.1270
 2632SOL    HW219356   3.760   4.068  10.747  0.1049 -0.6956 -0.3122
 2633SOL     OW19357   2.915   4.446   9.990  0.3520  0.1242  0.3772
 2633SOL    HW119358   2.825   4.476   9.986 -0.0355 -1.3028 -1.6013
 2633SOL    HW219359   2.935   4.443   9.896  2.7942  3.8958  0.7671
 2634SOL     OW19360   0.955   0.350   7.249 -0.0830 -0.1746  0.2427
 2634SOL    HW119361   0.920   0.302   7.174  1.4024 -0.5470 -0.2205
 2634SOL    HW219362   1.046   0.362   7.222  0.1259 -0.8424  0.6295
 2635SOL     OW19363   2.284   0.682  14.118 -0.3665  0.9060 -0.4990
 2635SOL    HW119364   2.336   0.673  14.197  2.6618 -0.8048 -2.6597
 2635SOL    HW219365   2.302   0.772  14.092  2.7356  0.0434 -1.2767
 2636SOL     OW19366   3.121   4.326   3.638  0.3250 -0.1989 -0.7827
 2636SOL    HW119367   3.060   4.399   3.632 -0.4314 -0.6956  0.6830
 2636SOL    HW219368   3.200   4.363   3.598 -0.3746 -0.6654 -2.5695
 2637SOL     OW19369   3.658   1.571   2.090  0.2572  0.5450 -0.1426
 2637SOL    HW119370   3.673   1.546   1.998 -0.4618 -0.5298  0.0217
 2637SOL    HW219371   3.577   1.623   2.084  0.5841  1.2245  1.6638
 2638SOL     OW19372   0.347   1.383  14.473  0.7093 -0.0487  0.1261
 2638SOL    HW119373   0.308   1.360  14.389  0.1178 -2.1108  0.9399
 2638SOL    HW219374   0.418   1.319  14.478  0.2587 -0.5183  0.6371
 2639SOL     OW19375   2.809   4.625   6.285  0.7011  0.5510 -0.3035
 2639SOL    HW119376   2.826   4.704   6.337  0.4914  0.0816  0.4710
 2639SOL    HW219377   2.863   4.556   6.324  1.8646  2.7067  1.8606
 2640SOL     OW19378   1.473   1.155  15.519 -0.2252 -0.0452 -0.2465
 2640SOL    HW119379   1.435   1.128  15.603  0.1196 -0.7826 -0.3260
 2640SOL    HW219380   1.504   1.068  15.493 -1.2323 -0.7244  0.8447
 2641SOL     OW19381   0.827   2.030   6.240  0.5755 -0.0440  0.3751
 2641SOL    HW119382   0.796   2.120   6.249 -1.1444 -0.6270  0.3992
 2641SOL    HW219383   0.757   1.977   6.279 -0.2147  1.7785  1.4403
 2642SOL     OW19384   1.906   4.350  10.793 -0.4204 -0.9701 -0.4219
 2642SOL    HW119385   1.995   4.365  10.824 -0.0079  0.5984 -2.3824
 2642SOL    HW219386   1.917   4.407  10.718 -0.2324 -2.7358 -1.7465
 2643SOL     OW19387   3.941   1.445   4.183 -0.0692 -0.0511 -0.4080
 2643SOL    HW119388   3.938   1.413   4.273  0.3273 -0.0928 -0.4093
 2643SOL    HW219389   4.017   1.503   4.179 -1.8623  2.3434  0.0112
 2644SOL     OW19390   4.379   3.882   8.928 -0.1793  0.3258 -0.3123
 2644SOL    HW119391   4.323   3.860   8.853  0.6192 -0.6866 -0.6089
 2644SOL    HW219392   4.325   3.850   9.000 -0.8039 -0.8151 -1.2784
 2645SOL     OW19393   0.985   1.210   0.759  0.3662  0.3119  0.5940
 2645SOL    HW119394   1.057   1.263   0.726 -0.3002 -0.4124 -1.9790
 2645SOL    HW219395   0.998   1.186   0.851  0.8652 -0.6426  0.2755
 2646SOL     OW19396   1.842   1.329   7.627  0.4857  0.0049  0.0845
 2646SOL    HW119397   1.782   1.399   7.655 -2.3663 -1.8670 -1.3108
 2646SOL    HW219398   1.885   1.360   7.548 -0.8068 -0.9283 -0.9934
 2647SOL     OW19399   4.106   1.707   2.229 -0.2912  0.2022  0.4933
 2647SOL    HW119400   4.016   1.699   2.260 -0.9357 -1.2790 -1.8606
 2647SOL    HW219401   4.116   1.632   2.171 -1.8749  0.0762  0.3744
 2648SOL     OW19402   1.707   1.244  12.213 -0.6366  0.5832 -0.5384
 2648SOL    HW119403   1.745   1.326  12.244 -1.4374  0.8236 -0.1706
 2648SOL    HW219404   1.730   1.184  12.284 -1.1008  0.4067 -0.5376
 2649SOL     OW19405   1.350   2.713   4.255  0.1398  0.1520 -0.1006
 2649SOL    HW119406   1.263   2.751   4.249  0.6426  1.5260  1.1708
 2649SOL    HW219407   1.382   2.763   4.331  1.0287  2.1153 -1.7656
 2650SOL     OW19408   1.045   2.638   4.691  0.2076 -0.1661 -0.2020
 2650SOL    HW119409   1.043   2.569   4.624  1.0108  1.2833 -1.7134
 2650SOL    HW219410   1.013   2.706   4.632 -1.1986 -1.4982 -0.9655
 2651SOL     OW19411   4.057   3.717   5.849  0.2458 -0.6979 -0.0741
 2651SOL    HW119412   3.964   3.717   5.828 -0.1834  2.8571  1.9101
 2651SOL    HW219413   4.073   3.807   5.877 -0.3061 -0.7734  0.4790
 2652SOL     OW19414   2.125   4.244   0.923 -0.3486 -0.4017  0.1562
 2652SOL    HW119415   2.125   4.254   0.828  1.5476  1.0114  0.2812
 2652SOL    HW219416   2.107   4.334   0.950 -2.0957 -0.9714  0.8486
 2653SOL     OW19417   1.410   2.629  12.611  0.5258 -0.3059 -0.1243
 2653SOL    HW119418   1.454   2.546  12.592 -1.7991 -1.7503  0.8197
 2653SOL    HW219419   1.400   2.674  12.527  2.8181  2.3161  1.0198
 2654SOL     OW19420   0.070   3.219   1.087 -0.0226 -0.0012  0.4751
 2654SOL    HW119421   0.075   3.299   1.035  0.1261  0.2616  0.8954
 2654SOL    HW219422   0.162   3.196   1.099  0.1610  0.6619  0.3693
 2655SOL     OW19423   1.015   4.684  12.326  0.1241  0.1664  0.1804
 2655SOL    HW119424   0.935   4.637  12.347 -0.4006  0.4384 -1.2275
 2655SOL    HW219425   1.080   4.614  12.319 -1.3295 -0.9172 -2.3842
 2656SOL     OW19426   2.944   2.890   1.632  0.5519 -0.8506 -0.3003
 2656SOL    HW119427   2.859   2.848   1.648  1.6198 -2.4742  1.0796
 2656SOL    HW219428   3.002   2.814   1.629 -0.9387 -2.0143  0.1606
 2657SOL     OW19429   4.596   3.974   3.504  0.1503 -0.0093  0.0113
 2657SOL    HW119430   4.668   3.911   3.499  1.7526  1.6425  2.0404
 2657SOL    HW219431   4.610   4.032   3.429  0.5946  0.1497  0.2126
 2658SOL     OW19432   1.287   2.405  17.526  0.1084  0.1260  0.0497
 2658SOL    HW119433   1.370   2.372  17.561  1.2195  3.1215  0.2321
 2658SOL    HW219434   1.304   2.496  17.501 -1.4868  1.3095  3.3428
 2659SOL     OW19435   2.764   3.828   3.008 -0.3018  0.2267 -0.1744
 2659SOL    HW119436   2.729   3.763   2.946  0.0697 -1.1458  1.0709
 2659SOL    HW219437   2.680   3.849   3.051 -1.0865 -1.8776 -0.6645
 2660SOL     OW19438   4.433   0.827  17.472  0.0908 -0.1331 -0.1462
 2660SOL    HW119439   4.404   0.901  17.524  1.3867 -0.6735  1.3642
 2660SOL    HW219440   4.371   0.824  17.400  2.1593 -1.6469 -1.8767
 2661SOL     OW19441   2.111   3.404  11.949 -0.3572 -0.9254  0.1531
 2661SOL    HW119442   2.018   3.412  11.929 -0.4587  0.4073  1.2436
 2661SOL    HW219443   2.123   3.319  11.906  1.5532 -1.4465  1.7572
 2662SOL     OW19444   2.792   2.495   3.424  0.4314  0.0790  0.1460
 2662SOL    HW119445   2.777   2.492   3.329 -2.2562  1.6571  0.5209
 2662SOL    HW219446   2.793   2.405   3.457  2.2744 -0.0650 -0.2764
 2663SOL     OW19447   0.084   3.141   5.383 -0.4064  0.6881  0.3962
 2663SOL    HW119448   0.034   3.073   5.338  1.6290  0.9451 -2.2149
 2663SOL    HW219449   0.163   3.159   5.332 -0.0899  0.6608  0.8765
 2664SOL     OW19450   3.306   0.941   3.522  0.6026  0.3248  0.2951
 2664SOL    HW119451   3.287   0.977   3.609 -3.6319  2.1696 -1.3692
 2664SOL    HW219452   3.388   0.893   3.529  0.6085  0.4832  1.2915
 2665SOL     OW19453   4.226   2.544  12.304  0.2907 -0.3365 -0.2833
 2665SOL    HW119454   4.304   2.532  12.251  0.4988 -2.7407  0.5840
 2665SOL    HW219455   4.228   2.640  12.296 -0.6826 -0.4696 -2.1389
 2666SOL     OW19456   3.496   3.897   8.833  0.3042 -1.0459 -0.1909
 2666SOL    HW119457   3.401   3.910   8.834  0.6769  1.7943 -1.9240
 2666SOL    HW219458   3.519   3.936   8.917  1.3316 -2.3654  0.1483
 2667SOL     OW19459   0.039   0.674  10.449 -0.1029 -0.5600 -0.0576
 2667SOL    HW119460   0.035   0.655  10.543  3.0596 -1.5253 -0.1151
 2667SOL    HW219461   4.712   0.599  10.414 -1.7559  0.0142  0.8893
 2668SOL     OW19462   0.905   1.222   4.443  0.3674  0.4523  0.4153
 2668SOL    HW119463   0.971   1.234   4.375  0.3097  0.9638  0.4544
 2668SOL    HW219464   0.935   1.143   4.489 -0.8449 -0.0906  0.3019
 2669SOL     OW19465   3.699   0.513   7.756  0.4000 -0.1683 -0.2745
 2669SOL    HW119466   3.653   0.586   7.714  0.8147  1.1804  1.6576
 2669SOL    HW219467   3.711   0.548   7.844  0.0615 -0.0748 -0.2647
 2670SOL     OW19468   1.963   2.651  14.577  0.4216 -0.4061 -0.2680
 2670SOL    HW119469   1.906   2.577  14.599 -0.3486  0.4967  0.7594
 2670SOL    HW219470   1.904   2.717  14.614  1.7613  0.3823  0.4650
 2671SOL     OW19471   1.058   4.610   5.509  0.1206 -0.6240 -0.0219
 2671SOL    HW119472   0.981   4.587   5.562  0.6123 -1.6981  0.2232
 2671SOL    HW219473   1.129   4.556   5.542 -0.0540 -0.9139 -0.1147
 2672SOL     OW19474   2.344   4.140   5.274  0.3932 -0.0914  0.0666
 2672SOL    HW119475   2.352   4.154   5.179  0.6838 -1.6499 -0.1544
 2672SOL    HW219476   2.359   4.046   5.287  2.2566  0.1246 -0.5197
 2673SOL     OW19477   1.618   4.427   5.325  0.4567  0.0361  0.6088
 2673SOL    HW119478   1.556   4.368   5.366 -0.5505  0.8985  0.3292
 2673SOL    HW219479   1.697   4.375   5.312 -0.6656 -1.7467  0.9929
 2674SOL     OW19480   4.478   3.059   7.046  0.2169  0.1460 -0.3203
 2674SOL    HW119481   4.533   2.981   7.042 -0.6539 -0.5691  1.6085
 2674SOL    HW219482   4.413   3.035   7.112  2.0319 -0.0722  1.4010
 2675SOL     OW19483   3.688   4.684   6.830 -0.0544  0.3125 -0.3478
 2675SOL    HW119484   3.742   4.613   6.793  1.8942  0.1945  2.7490
 2675SOL    HW219485   3.700   4.668   6.923  0.0284 -2.3177 -0.7879
 2676SOL     OW19486   0.800   3.337  15.850  0.2693  0.2727 -0.4191
 2676SOL    HW119487   0.819   3.271  15.783 -0.8531 -2.2650  1.7615
 2676SOL    HW219488   0.884   3.361  15.889  0.0798 -0.5295  0.4824
 2677SOL     OW19489   3.640   2.591   1.446 -0.4172 -0.1133 -0.4221
 2677SOL    HW119490   3.620   2.683   1.427  0.9016  0.2325 -0.1154
 2677SOL    HW219491   3.568   2.550   1.397  0.9038  1.6709 -3.9048
 2678SOL     OW19492   3.949   4.173  17.123  0.1565 -0.0599 -0.2618
 2678SOL    HW119493   3.903   4.092  17.104  0.0524 -0.1064  0.1951
 2678SOL    HW219494   3.921   4.193  17.212  3.5340  0.2648  0.7596
 2679SOL     OW19495   0.940   1.712   5.802  0.0951 -0.3226  0.5907
 2679SOL    HW119496   0.923   1.715   5.708  3.4739  1.1246  0.0386
 2679SOL    HW219497   1.035   1.721   5.794 -0.1009  0.2173 -1.1271
 2680SOL     OW19498   3.178   1.654  16.537  0.0344  0.2289 -0.2602
 2680SOL    HW119499   3.223   1.590  16.593 -1.8409  1.0864  2.2367
 2680SOL    HW219500   3.106   1.614  16.488  1.0422 -0.1915 -1.3984
 2681SOL     OW19501   0.142   2.529   5.099  0.2271  0.2060  0.5061
 2681SOL    HW119502   0.229   2.491   5.114 -0.1100 -0.4148  0.8583
 2681SOL    HW219503   0.107   2.469   5.034 -1.6239  2.4170 -0.5224
 2682SOL     OW19504   4.503   2.051   4.764  0.1073 -0.1847 -0.2412
 2682SOL    HW119505   4.451   1.980   4.726 -0.3009 -0.4822  0.8836
 2682SOL    HW219506   4.506   2.119   4.697  0.6713 -0.6738 -0.7150
 2683SOL     OW19507   2.057   2.656  10.840 -0.2659  0.6370  0.5677
 2683SOL    HW119508   2.114   2.644  10.916 -0.4285  0.9586  0.7373
 2683SOL    HW219509   1.995   2.584  10.830 -0.4328  1.2596 -2.9888
 2684SOL     OW19510   2.719   3.127   2.099 -0.3210 -0.2813 -0.1234
 2684SOL    HW119511   2.716   3.104   2.006 -1.1965  0.3335 -0.2491
 2684SOL    HW219512   2.753   3.216   2.089 -0.5205 -0.2080 -0.1515
 2685SOL     OW19513   4.005   4.287   3.286  0.2147  0.0774 -0.2330
 2685SOL    HW119514   4.091   4.274   3.246 -0.1482 -1.1841 -0.6253
 2685SOL    HW219515   3.974   4.356   3.228  2.5590  1.5132  0.2212
 2686SOL     OW19516   0.474   1.007   4.225 -0.0518  0.2395 -0.2198
 2686SOL    HW119517   0.524   1.056   4.289 -1.6485  1.8492 -0.1919
 2686SOL    HW219518   0.478   1.065   4.149  0.7678  2.1121  1.2622
 2687SOL     OW19519   0.629   2.819   4.952 -0.4585 -0.6306  0.1138
 2687SOL    HW119520   0.542   2.795   4.919 -0.8686  1.5168 -0.3348
 2687SOL    HW219521   0.682   2.783   4.881 -1.2558 -1.8619  0.1296
 2688SOL     OW19522   1.461   0.469   1.037 -0.3474  0.3125 -0.1323
 2688SOL    HW119523   1.497   0.446   0.951  1.2733  1.4853  0.2256
 2688SOL    HW219524   1.536   0.459   1.095 -2.0800  1.6322  2.3139
 2689SOL     OW19525   0.274   4.114  14.232 -0.2146  0.1602 -0.0026
 2689SOL    HW119526   0.329   4.149  14.302 -0.2610 -1.5012  0.8749
 2689SOL    HW219527   0.318   4.032  14.209  1.1977  1.2425 -1.0941
 2690SOL     OW19528   0.297   1.964   4.008 -0.1625  0.0006 -0.0346
 2690SOL    HW119529   0.277   2.033   3.945 -1.2095  1.4956  1.9240
 2690SOL    HW219530   0.392   1.971   4.013 -0.0258 -1.5442 -0.5511
 2691SOL     OW19531   4.082   4.679   2.510  0.2364 -0.4013  0.2736
 2691SOL    HW119532   4.167   4.716   2.537  0.0722  0.6174 -0.6129
 2691SOL    HW219533   4.118   4.609   2.455 -0.7239  0.5210 -1.5266
 2692SOL     OW19534   1.552   3.899  12.943  0.3527 -0.8847  0.0324
 2692SOL    HW119535   1.610   3.827  12.969  1.2960 -0.1607 -0.0844
 2692SOL    HW219536   1.602   3.969  12.984 -1.3821 -0.2128  1.0358
 2693SOL     OW19537   0.840   0.048  14.866 -0.6472 -0.3315 -0.1681
 2693SOL    HW119538   0.806   4.682  14.839 -2.7384  0.1479  0.9670
 2693SOL    HW219539   0.772   0.077  14.927 -1.0302  0.5082 -0.9914
 2694SOL     OW19540   3.002   4.205   3.259  0.1566 -0.3319  1.0522
 2694SOL    HW119541   2.947   4.157   3.320 -2.7340  1.7805  0.1096
 2694SOL    HW219542   2.940   4.211   3.186  1.6625 -0.7954 -0.2720
 2695SOL     OW19543   1.932   3.646  16.072  0.7225  0.2213  0.0187
 2695SOL    HW119544   2.027   3.634  16.069  0.8351  1.2612 -0.4737
 2695SOL    HW219545   1.923   3.680  16.161 -0.5225 -1.5058  0.5471
 2696SOL     OW19546   2.467   3.641   9.021  0.0981 -0.0665  0.3458
 2696SOL    HW119547   2.477   3.590   9.102 -2.9651 -0.2504  0.6241
 2696SOL    HW219548   2.374   3.664   9.029  0.6567  2.4475 -0.1829
 2697SOL     OW19549   1.517   1.304   7.538  0.1258  0.2280  0.8067
 2697SOL    HW119550   1.540   1.384   7.586  2.3619 -0.4708  0.8708
 2697SOL    HW219551   1.520   1.336   7.448  2.1699  1.1468  1.2090
 2698SOL     OW19552   1.773   2.403   4.150 -0.4130  0.0296  0.0913
 2698SOL    HW119553   1.702   2.437   4.206 -1.2529 -1.6851  0.0694
 2698SOL    HW219554   1.797   2.485   4.107  1.1437  0.2779  1.4386
 2699SOL     OW19555   3.905   3.738  11.015  0.4993  0.1848 -0.6019
 2699SOL    HW119556   3.902   3.834  11.015  0.3721  0.1797  3.2305
 2699SOL    HW219557   3.990   3.726  11.057 -0.5051 -2.0448  0.7586
 2700SOL     OW19558   1.947   0.633   1.623 -0.8205 -0.5802 -0.2793
 2700SOL    HW119559   1.991   0.577   1.559  2.2528  1.2532  0.1858
 2700SOL    HW219560   2.021   0.653   1.681 -1.9568 -0.8206  1.2474
 2701SOL     OW19561   0.011   0.908  10.715 -0.8237  0.1769 -0.2755
 2701SOL    HW119562   4.645   0.953  10.712 -0.8092  0.3339  1.5755
 2701SOL    HW219563   0.019   0.915  10.620 -1.4006  0.5379 -0.2966
 2702SOL     OW19564   1.430   0.070   3.518 -0.5494 -0.0891  0.2131
 2702SOL    HW119565   1.405   0.071   3.611 -0.1101 -1.7038  0.3469
 2702SOL    HW219566   1.519   0.033   3.521 -0.4337  0.1410 -0.3784
 2703SOL     OW19567   4.016   0.161   3.407  0.0953  0.3116 -0.4736
 2703SOL    HW119568   4.082   0.170   3.476 -0.5794 -2.2153  0.5436
 2703SOL    HW219569   4.053   0.218   3.340 -1.6637  0.7000 -1.1161
 2704SOL     OW19570   0.995   2.585  14.136  0.3079 -0.8361 -0.5916
 2704SOL    HW119571   0.929   2.586  14.205  1.2237  2.4367  0.2330
 2704SOL    HW219572   0.936   2.560  14.065  0.1062  2.2662 -1.5379
 2705SOL     OW19573   2.608   0.776   2.931 -0.6642  0.1471  0.7034
 2705SOL    HW119574   2.660   0.855   2.943  0.6572 -0.5443 -0.4565
 2705SOL    HW219575   2.611   0.726   3.012  1.4239 -0.6593  0.1295
 2706SOL     OW19576   1.818   2.067   6.299  0.4957 -0.4291  0.1641
 2706SOL    HW119577   1.873   2.145   6.294  1.0286 -0.8473 -0.4602
 2706SOL    HW219578   1.783   2.092   6.384 -0.3115  1.6539 -0.7726
 2707SOL     OW19579   2.193   1.414   6.577 -0.2835 -0.1694  0.1258
 2707SOL    HW119580   2.142   1.490   6.549 -1.1662 -0.2647  1.4453
 2707SOL    HW219581   2.145   1.340   6.540 -0.4366 -0.2565  0.4970
 2708SOL     OW19582   4.521   2.193  13.441 -0.4022 -0.2826 -0.2151
 2708SOL    HW119583   4.584   2.258  13.472  1.1854 -1.3990 -1.0595
 2708SOL    HW219584   4.451   2.207  13.505 -1.5391  0.7399 -1.6888
 2709SOL     OW19585   0.771   0.855   8.883 -0.1550  0.8306  0.1060
 2709SOL    HW119586   0.690   0.884   8.926 -0.2756  0.1115  0.3725
 2709SOL    HW219587   0.758   0.760   8.874 -0.9362  0.8790  0.6662
 2710SOL     OW19588   3.496   2.070  11.519 -0.5631 -0.4765  0.0780
 2710SOL    HW119589   3.411   2.112  11.504  0.2279  1.2054  0.2775
 2710SOL    HW219590   3.470   2.004  11.583  0.8226  0.1209  1.2517
 2711SOL     OW19591   4.129   2.129  11.425 -0.0937 -0.5273  0.2523
 2711SOL    HW119592   4.063   2.151  11.491  1.4436  0.2363  1.5515
 2711SOL    HW219593   4.075   2.115  11.347  1.9605 -0.3408 -1.1813
 2712SOL     OW19594   3.743   1.737   3.737 -0.6166  0.4104 -0.2436
 2712SOL    HW119595   3.742   1.655   3.786  0.4204 -0.5075 -1.7506
 2712SOL    HW219596   3.824   1.727   3.687  0.6429 -0.4140  1.9964
 2713SOL     OW19597   0.760   3.271   8.663  0.3153 -0.0813 -0.5335
 2713SOL    HW119598   0.817   3.195   8.650 -0.6504 -0.6537 -1.4304
 2713SOL    HW219599   0.695   3.231   8.720 -0.4074  0.8796 -0.6805
 2714SOL     OW19600   2.037   1.411   7.434 -0.3248 -0.2571  0.5334
 2714SOL    HW119601   1.989   1.401   7.352  1.4285 -2.2838 -0.2424
 2714SOL    HW219602   2.049   1.506   7.427  2.8104 -0.7346 -0.5145
 2715SOL     OW19603   0.057   2.345   5.862  0.4713  0.0422  0.0434
 2715SOL    HW119604   0.066   2.440   5.851  0.2750  0.1560  0.8220
 2715SOL    HW219605   0.125   2.329   5.928  1.2955 -2.3205 -1.4007
 2716SOL     OW19606   3.477   2.834  17.534 -0.1462 -0.5043  1.0591
 2716SOL    HW119607   3.515   2.921  17.548  0.5318 -0.5757 -0.3630
 2716SOL    HW219608   3.382   2.841  17.541  0.0860  2.2373  1.6559
 2717SOL     OW19609   0.514   1.927   6.903 -0.1540 -0.3596  0.4347
 2717SOL    HW119610   0.545   1.990   6.839 -0.5442 -0.5061  0.1003
 2717SOL    HW219611   0.596   1.891   6.936  2.0886  2.9395 -1.6238
 2718SOL     OW19612   3.480   3.728   5.346  0.0159  0.0869  0.3685
 2718SOL    HW119613   3.484   3.633   5.357 -1.2318 -0.0240 -0.2377
 2718SOL    HW219614   3.486   3.755   5.438  0.4219  3.2714 -0.5728
 2719SOL     OW19615   2.816   2.675   3.888 -0.3052 -0.3977 -0.1627
 2719SOL    HW119616   2.754   2.613   3.926 -1.2558  2.5328  3.0169
 2719SOL    HW219617   2.899   2.628   3.887 -0.2397 -0.1831 -3.7934
 2720SOL     OW19618   1.207   3.726   8.201  0.1098  0.3493 -0.2122
 2720SOL    HW119619   1.280   3.721   8.262 -1.6003  3.8419  2.1476
 2720SOL    HW219620   1.139   3.769   8.254  0.8759 -1.2925  2.1058
 2721SOL     OW19621   1.555   1.908   7.524  0.5150 -0.2114  0.2323
 2721SOL    HW119622   1.556   1.960   7.604 -3.3441  1.2122 -0.6453
 2721SOL    HW219623   1.552   1.983   7.465 -2.2201 -2.5844 -2.6428
 2722SOL     OW19624   1.211   0.231   7.646  0.3000  0.4387  0.0764
 2722SOL    HW119625   1.180   0.287   7.576 -0.8965  2.6021  2.3262
 2722SOL    HW219626   1.134   0.176   7.662  1.0553  0.1253  2.6954
 2723SOL     OW19627   1.072   4.103   9.336  0.3918  0.6622 -0.1733
 2723SOL    HW119628   1.137   4.165   9.371 -0.1698 -0.6915  3.2251
 2723SOL    HW219629   1.115   4.018   9.344  0.1610  0.4967 -0.6767
 2724SOL     OW19630   0.287   1.380   8.962 -0.6231 -0.2071 -0.3160
 2724SOL    HW119631   0.244   1.299   8.935 -0.5283 -0.5653  0.6231
 2724SOL    HW219632   0.332   1.361   9.044 -1.3807 -0.5542  0.0158
 2725SOL     OW19633   1.878   4.219   7.549 -0.0284 -0.3202  0.3587
 2725SOL    HW119634   1.800   4.220   7.605 -0.4567  1.7210 -0.2820
 2725SOL    HW219635   1.947   4.274   7.588 -0.1500  0.6034 -0.7200
 2726SOL     OW19636   1.165   3.852  12.939 -0.1405  0.0349  0.1306
 2726SOL    HW119637   1.243   3.857  12.883 -0.3933 -3.2193 -0.5694
 2726SOL    HW219638   1.107   3.896  12.877 -0.2280 -0.0442  0.1561
 2727SOL     OW19639   0.615   3.152   3.224 -0.1854  0.3349  0.3246
 2727SOL    HW119640   0.658   3.071   3.195  1.2499  1.1073  0.2999
 2727SOL    HW219641   0.683   3.196   3.274 -0.5473  0.4067  0.7517
 2728SOL     OW19642   3.042   2.683   4.222 -0.2317  0.1812  0.1547
 2728SOL    HW119643   3.106   2.752   4.203  0.4294  0.2431  2.6594
 2728SOL    HW219644   2.971   2.727   4.269  1.5551  1.0280  2.0245
 2729SOL     OW19645   1.379   4.367  10.582  0.3750 -0.4817 -0.7021
 2729SOL    HW119646   1.319   4.410  10.521 -1.4568 -0.6129  0.9936
 2729SOL    HW219647   1.326   4.313  10.642  0.5042 -1.7589 -1.7482
 2730SOL     OW19648   1.113   2.556   0.556  0.0188 -0.3925 -0.1159
 2730SOL    HW119649   1.045   2.541   0.622  2.1381  0.0998  2.2014
 2730SOL    HW219650   1.097   2.650   0.552 -2.0997 -0.6356  2.2254
 2731SOL     OW19651   4.012   4.315   4.604  0.1350  0.3423 -0.2026
 2731SOL    HW119652   4.091   4.341   4.558 -0.4705  0.9730 -0.8877
 2731SOL    HW219653   3.949   4.305   4.533  1.0622 -1.2631 -0.7937
 2732SOL     OW19654   0.575   1.283   2.487 -0.2123 -0.2851 -0.0564
 2732SOL    HW119655   0.487   1.291   2.451 -0.9572 -2.0215  1.3695
 2732SOL    HW219656   0.566   1.217   2.556  0.5388 -0.5974 -0.2616
 2733SOL     OW19657   4.631   1.472   7.269 -0.8931  0.6028 -0.4066
 2733SOL    HW119658   4.552   1.500   7.222 -1.5938  0.4594  0.6933
 2733SOL    HW219659   4.606   1.396   7.321 -0.6187 -1.1779 -2.8812
 2734SOL     OW19660   0.978   2.151   1.056 -0.5247  0.7018  0.7955
 2734SOL    HW119661   0.983   2.056   1.041 -0.3760  1.4287 -3.7034
 2734SOL    HW219662   1.001   2.184   0.970  0.3366  0.5350  0.9586
 2735SOL     OW19663   1.648   1.464   8.541 -0.0216  0.6265 -0.1312
 2735SOL    HW119664   1.573   1.503   8.586  0.8799  0.2320  1.7097
 2735SOL    HW219665   1.602   1.450   8.458  0.5804  0.3577 -0.4280
 2736SOL     OW19666   1.484   0.672   8.641 -0.5903  0.3999 -0.2423
 2736SOL    HW119667   1.442   0.623   8.711  2.0543 -1.2605  0.1663
 2736SOL    HW219668   1.469   0.765   8.658  1.1968  0.6827 -0.2344
 2737SOL     OW19669   1.004   1.436  11.672 -0.2284  0.3442 -0.5092
 2737SOL    HW119670   0.915   1.472  11.666 -0.7798 -0.8711  0.3900
 2737SOL    HW219671   1.032   1.459  11.760 -0.6045 -0.3014 -0.2192
 2738SOL     OW19672   4.137   3.615   8.851 -0.0832  0.2115  0.4511
 2738SOL    HW119673   4.131   3.706   8.821 -0.2018 -0.2187 -0.8672
 2738SOL    HW219674   4.181   3.582   8.772  0.3865  0.0498  0.7801
 2739SOL     OW19675   4.284   1.205   9.497 -0.2018 -0.3205 -0.1183
 2739SOL    HW119676   4.248   1.211   9.585 -1.9911 -1.0507 -0.7989
 2739SOL    HW219677   4.217   1.238   9.437  0.3092 -2.0772 -1.6509
 2740SOL     OW19678   3.540   1.225   2.530 -0.1445 -0.0993  0.3013
 2740SOL    HW119679   3.553   1.204   2.622  1.2405 -0.7733 -0.0447
 2740SOL    HW219680   3.445   1.233   2.534 -0.2029 -1.1438  0.7859
 2741SOL     OW19681   0.988   0.879   7.266  0.0758 -0.3124 -0.6013
 2741SOL    HW119682   1.084   0.879   7.265  0.0813 -2.9388 -1.3201
 2741SOL    HW219683   0.954   0.955   7.313  3.8448  0.6449  0.5878
 2742SOL     OW19684   2.024   3.051  14.797  0.7654  0.5989 -0.4507
 2742SOL    HW119685   2.103   3.035  14.848  1.1476  0.3626 -1.1054
 2742SOL    HW219686   1.956   3.055  14.864  2.4056 -1.0481  1.2918
 2743SOL     OW19687   0.362   4.002  10.537 -0.5182 -0.8275 -0.5168
 2743SOL    HW119688   0.309   3.958  10.603  0.5485  2.4551  2.4999
 2743SOL    HW219689   0.304   3.982  10.463  0.2257 -1.2145 -1.0030
 2744SOL     OW19690   2.840   0.946   5.279  0.3647  0.3205  0.4747
 2744SOL    HW119691   2.823   0.983   5.365  0.4902  0.8984  0.2484
 2744SOL    HW219692   2.768   0.980   5.226 -0.2563 -2.2254 -0.3546
 2745SOL     OW19693   2.140   4.335   7.643  0.0859 -0.0478  0.6078
 2745SOL    HW119694   2.234   4.349   7.630 -0.1629  1.2200  0.1862
 2745SOL    HW219695   2.101   4.422   7.642 -0.7726 -0.4735 -1.4702
 2746SOL     OW19696   0.825   1.255  13.772 -0.4611  0.6743  0.0512
 2746SOL    HW119697   0.903   1.249  13.828  0.1656  1.2276 -0.7499
 2746SOL    HW219698   0.792   1.166  13.782  0.3424  0.3230 -0.3835
 2747SOL     OW19699   1.980   1.590   6.190 -0.2677  0.2671 -0.6473
 2747SOL    HW119700   1.964   1.662   6.251 -1.4639 -2.2116  1.9627
 2747SOL    HW219701   1.903   1.609   6.137 -1.8763  1.6492  2.1848
 2748SOL     OW19702   0.483   1.383   0.505 -0.3511  0.2824 -0.2032
 2748SOL    HW119703   0.404   1.412   0.550 -0.1968  0.4474 -0.0362
 2748SOL    HW219704   0.447   1.336   0.430 -1.1963  0.2781  0.2172
 2749SOL     OW19705   1.143   2.181   1.292  0.5597  0.3221 -0.3599
 2749SOL    HW119706   1.172   2.090   1.278 -1.0115 -0.2783  0.2945
 2749SOL    HW219707   1.073   2.196   1.229  0.7715 -0.5426 -0.8043
 2750SOL     OW19708   3.657   0.970   1.496 -0.0504  0.3254 -0.0039
 2750SOL    HW119709   3.700   1.055   1.494 -1.3410  0.8915 -3.0105
 2750SOL    HW219710   3.598   0.992   1.424 -0.3205  0.6002  0.2974
 2751SOL     OW19711   2.265   2.544  10.341  0.0416  0.3791 -0.2182
 2751SOL    HW119712   2.242   2.635  10.358  0.9449  0.7301 -0.8707
 2751SOL    HW219713   2.249   2.498  10.423 -0.9999 -0.3644 -0.8449
 2752SOL     OW19714   1.764   4.303  14.399  0.2783 -0.6847  0.0481
 2752SOL    HW119715   1.698   4.256  14.349  0.2879  0.1117 -0.7210
 2752SOL    HW219716   1.722   4.387  14.417  0.3551 -0.8255  0.8476
 2753SOL     OW19717   3.960   3.056   0.981  1.0358  0.5466  0.0353
 2753SOL    HW119718   3.986   3.123   1.043  2.1752  0.0924  0.0577
 2753SOL    HW219719   4.043   3.009   0.969  0.0453 -0.3437 -3.3745
 2754SOL     OW19720   1.676   4.324   3.329 -0.0634  0.2087 -0.3821
 2754SOL    HW119721   1.702   4.388   3.395 -3.2164  0.5337  0.5233
 2754SOL    HW219722   1.721   4.354   3.250  0.2668  1.6631  0.3547
 2755SOL     OW19723   3.289   0.796   5.867 -0.5145  0.1838 -0.5347
 2755SOL    HW119724   3.345   0.784   5.790 -0.5819 -3.6515 -0.0146
 2755SOL    HW219725   3.244   0.712   5.881 -0.3785  0.1978 -0.0308
 2756SOL     OW19726   3.343   4.111   7.105  0.1036  0.4851 -0.3425
 2756SOL    HW119727   3.285   4.103   7.029  0.0848  0.1553 -0.2939
 2756SOL    HW219728   3.307   4.046   7.165 -1.4226  1.9663  0.3478
 2757SOL     OW19729   2.735   1.051   3.358 -0.0697 -0.3085 -0.1864
 2757SOL    HW119730   2.734   1.146   3.374  1.3367 -0.1553 -1.0135
 2757SOL    HW219731   2.806   1.047   3.295 -0.4701  0.6026 -0.7010
 2758SOL     OW19732   3.889   4.539  15.615  0.6958  0.5385 -0.1072
 2758SOL    HW119733   3.912   4.499  15.699 -3.6783 -1.0116  0.3844
 2758SOL    HW219734   3.974   4.582  15.606 -0.3356  2.2145 -1.8372
 2759SOL     OW19735   0.320   0.523   4.617 -0.1767  0.3352  0.4606
 2759SOL    HW119736   0.245   0.514   4.676  1.4058 -1.4565  2.1964
 2759SOL    HW219737   0.348   0.434   4.594  0.2424  0.6773 -0.3579
 2760SOL     OW19738   4.537   3.980  11.560  0.0408 -0.2684  0.0291
 2760SOL    HW119739   4.534   3.951  11.652  3.3290  1.9160  0.8476
 2760SOL    HW219740   4.534   3.890  11.528  0.4333 -0.7874  1.4463
 2761SOL     OW19741   4.105   2.519   6.052  0.0698 -0.6633 -0.1002
 2761SOL    HW119742   4.113   2.499   6.145 -2.5183 -0.3669  0.1987
 2761SOL    HW219743   4.060   2.604   6.049  0.5294 -0.3086  3.3227
 2762SOL     OW19744   3.890   2.772   4.737 -0.5489 -0.3430 -0.4670
 2762SOL    HW119745   3.856   2.819   4.662 -1.5326 -1.2960 -0.6257
 2762SOL    HW219746   3.885   2.834   4.810 -1.1520  1.2413 -1.8804
 2763SOL     OW19747   2.336   3.443   0.932 -0.2863 -0.0043  0.2751
 2763SOL    HW119748   2.370   3.463   1.019 -0.1955 -0.5080  0.3560
 2763SOL    HW219749   2.241   3.441   0.944 -0.1946  0.8002  1.1085
 2764SOL     OW19750   2.531   3.096  13.054  0.0160  0.1252 -0.2626
 2764SOL    HW119751   2.525   3.023  12.992  0.4258  1.4973 -1.9242
 2764SOL    HW219752   2.626   3.099  13.063  0.0433  0.1042 -0.5355
 2765SOL     OW19753   3.304   3.964   5.331 -0.1838  0.3188 -0.0436
 2765SOL    HW119754   3.356   3.885   5.315  1.3395  1.4158 -0.4862
 2765SOL    HW219755   3.236   3.921   5.384  2.6675 -3.6789  0.3500
 2766SOL     OW19756   4.615   3.503   0.203 -0.0685  0.3025  0.3108
 2766SOL    HW119757   4.589   3.468   0.118 -2.0321 -1.5050  1.6347
 2766SOL    HW219758   4.688   3.564   0.193  0.2276 -0.0778  0.1946
 2767SOL     OW19759   1.774   1.768   9.429  0.0347  0.3815 -0.5879
 2767SOL    HW119760   1.823   1.836   9.476 -0.7014  0.1618  0.4977
 2767SOL    HW219761   1.696   1.779   9.483  1.5199 -2.2027  2.1055
 2768SOL     OW19762   4.626   0.554   3.386  0.2015  0.0598 -0.8442
 2768SOL    HW119763   4.558   0.619   3.407  2.6824  3.0307 -1.8678
 2768SOL    HW219764   4.591   0.520   3.303  0.9357  0.8242 -1.4728
 2769SOL     OW19765   4.564   2.585  17.651 -0.0445 -0.2621  0.1064
 2769SOL    HW119766   4.599   2.506  17.610  1.5231  0.2891  0.3833
 2769SOL    HW219767   4.543   2.632  17.571 -1.8257  0.2323  0.8611
 2770SOL     OW19768   2.427   0.180   4.563  0.2381 -0.3921 -0.2569
 2770SOL    HW119769   2.459   0.259   4.519  1.3340 -0.7073 -0.0213
 2770SOL    HW219770   2.468   0.185   4.649  1.1123 -0.0265 -0.6973
 2771SOL     OW19771   0.872   0.602   8.838 -0.3561  0.4664 -0.3288
 2771SOL    HW119772   0.944   0.561   8.885 -1.4363 -0.1516  0.7922
 2771SOL    HW219773   0.880   0.563   8.751 -2.6505 -1.4347  0.3119
 2772SOL     OW19774   0.254   3.123   2.790 -0.4066 -0.0797  0.1785
 2772SOL    HW119775   0.251   3.030   2.764  1.5322  0.0775 -0.5669
 2772SOL    HW219776   0.160   3.137   2.807 -0.6900 -1.1532 -0.4745
 2773SOL     OW19777   0.722   1.366   4.879 -0.1790  0.3077  0.3142
 2773SOL    HW119778   0.779   1.293   4.904  2.4925  2.3166 -0.0126
 2773SOL    HW219779   0.770   1.386   4.799 -2.4920 -1.3911 -1.5008
 2774SOL     OW19780   2.311   3.692   2.927  0.2175  0.2123 -0.5464
 2774SOL    HW119781   2.381   3.739   2.883  0.2280  1.9315  1.3159
 2774SOL    HW219782   2.365   3.639   2.985 -1.3747  1.5112  2.1246
 2775SOL     OW19783   1.322   1.833  13.282  0.5157 -0.0905 -0.6812
 2775SOL    HW119784   1.356   1.751  13.318 -0.3845  0.1518  0.7046
 2775SOL    HW219785   1.349   1.900  13.345 -0.8523  0.4903 -0.7232
 2776SOL     OW19786   0.757   4.481   8.572 -0.1144  0.1224  0.0056
 2776SOL    HW119787   0.792   4.394   8.592 -2.3594 -1.0787 -1.3166
 2776SOL    HW219788   0.720   4.469   8.485 -2.5329  0.0381  1.0705
 2777SOL     OW19789   1.775   0.098  17.587 -0.5593  0.2033  0.0401
 2777SOL    HW119790   1.809   0.035  17.650  0.2823  0.0351 -0.5812
 2777SOL    HW219791   1.736   0.028  17.534  0.1528 -0.0766 -0.1084
 2778SOL     OW19792   0.170   1.599   4.870  0.2819  0.4065  0.4797
 2778SOL    HW119793   0.137   1.689   4.866 -1.9042 -0.4845 -1.6206
 2778SOL    HW219794   0.170   1.592   4.774 -0.0355  3.4274  0.2601
 2779SOL     OW19795   2.534   1.269   8.182  0.3308  0.0011 -0.4874
 2779SOL    HW119796   2.555   1.362   8.171  0.3115  0.0440 -0.1704
 2779SOL    HW219797   2.577   1.255   8.267  0.2625 -0.0114 -0.4545
 2780SOL     OW19798   1.836   1.135  17.607  0.6351 -0.4761  0.1799
 2780SOL    HW119799   1.890   1.214  17.596 -0.9985  0.9108  2.1979
 2780SOL    HW219800   1.760   1.177  17.647  0.2083  1.7173 -2.9580
 2781SOL     OW19801   1.426   4.199  14.073 -0.9855  0.1483 -0.4097
 2781SOL    HW119802   1.356   4.259  14.098 -0.8434 -0.1681  0.7427
 2781SOL    HW219803   1.377   4.150  14.007 -0.1718 -1.9167  0.5066
 2782SOL     OW19804   4.692   4.681   4.525 -0.4821  0.3079  0.7751
 2782SOL    HW119805   4.597   4.692   4.519 -0.6343 -1.5008 -0.0587
 2782SOL    HW219806   4.705   4.710   4.616  1.1223 -1.7941  1.2100
 2783SOL     OW19807   0.493   1.559   6.249  0.1032  0.1722  0.4919
 2783SOL    HW119808   0.515   1.489   6.311 -1.7411 -1.1998 -0.4047
 2783SOL    HW219809   0.567   1.552   6.189  2.4154 -0.5378  3.4731
 2784SOL     OW19810   1.698   0.178   0.559 -0.0777 -0.2197  0.2855
 2784SOL    HW119811   1.660   0.092   0.545  1.1049 -0.6027 -0.5097
 2784SOL    HW219812   1.700   0.214   0.470 -2.2899  0.9686  0.7103
 2785SOL     OW19813   2.097   2.067   4.257  0.1315 -0.3037 -0.3385
 2785SOL    HW119814   2.078   2.084   4.164  0.4193  0.0660 -0.3298
 2785SOL    HW219815   2.150   1.988   4.255  0.5889  0.0014 -0.0733
 2786SOL     OW19816   0.934   4.330   9.064  0.0380  0.3448 -0.0393
 2786SOL    HW119817   0.848   4.346   9.102  0.4035  0.0079  0.9160
 2786SOL    HW219818   0.914   4.250   9.016  0.0568  0.3083  0.0147
 2787SOL     OW19819   1.910   3.215  11.092 -0.6502 -0.3136  0.1531
 2787SOL    HW119820   1.941   3.188  11.178  0.5687 -1.7425 -0.7276
 2787SOL    HW219821   1.990   3.259  11.064  0.1528 -0.7436  1.7606
 2788SOL     OW19822   2.816   1.474   7.159  0.2376 -0.2933  0.0259
 2788SOL    HW119823   2.751   1.534   7.197  0.8924 -0.5710  1.5638
 2788SOL    HW219824   2.857   1.540   7.102  0.6892  1.2121  2.1163
 2789SOL     OW19825   2.817   0.513   8.801  0.2911 -1.2463  0.3550
 2789SOL    HW119826   2.891   0.492   8.857  1.7480 -0.5399 -1.3259
 2789SOL    HW219827   2.857   0.488   8.718 -1.6819  2.0038 -1.6062
 2790SOL     OW19828   0.201   1.456   3.456 -0.7662  0.0275  0.1521
 2790SOL    HW119829   0.278   1.409   3.487 -1.5904 -0.2658  1.7955
 2790SOL    HW219830   0.131   1.401   3.493 -1.0774  1.0247  1.0567
 2791SOL     OW19831   2.046   2.751  12.442  0.0362  1.0193 -0.1826
 2791SOL    HW119832   2.065   2.667  12.484 -1.9120  0.1765 -1.0521
 2791SOL    HW219833   1.953   2.765  12.457  0.2605  0.0469  2.1817
 2792SOL     OW19834   2.232   1.026   9.499  0.4833  0.5626  0.0536
 2792SOL    HW119835   2.140   1.009   9.515  1.2779 -2.4822  1.3522
 2792SOL    HW219836   2.243   1.115   9.533 -0.1134 -0.4133  2.7549
 2793SOL     OW19837   0.429   2.254  17.087  0.0661  0.5680 -0.1070
 2793SOL    HW119838   0.474   2.179  17.125 -0.3210 -0.6609 -2.1064
 2793SOL    HW219839   0.478   2.328  17.125  1.5843 -0.1024 -0.7591
 2794SOL     OW19840   0.047   4.348   5.337 -0.3059 -0.5716  0.6334
 2794SOL    HW119841   0.113   4.407   5.374  0.2419  0.0085 -1.2849
 2794SOL    HW219842   4.690   4.390   5.378 -1.2167  0.3927 -2.0621
 2795SOL     OW19843   3.730   4.026   6.966 -0.6278 -0.1069  0.1353
 2795SOL    HW119844   3.811   3.975   6.952 -0.5494  0.0945 -0.1456
 2795SOL    HW219845   3.713   4.032   6.872 -1.7201 -0.5237  0.3130
 2796SOL     OW19846   2.752   3.349   1.397 -0.2356  0.4280 -0.1105
 2796SOL    HW119847   2.826   3.410   1.401  1.6666 -1.8722 -0.4831
 2796SOL    HW219848   2.798   3.265   1.397 -0.4990  0.2824  1.4885
 2797SOL     OW19849   0.728   3.347  13.302 -0.3879  0.4517  0.8781
 2797SOL    HW119850   0.794   3.319  13.364  0.7613 -0.3118 -0.6896
 2797SOL    HW219851   0.662   3.278  13.309 -1.7020  1.5196 -0.8090
 2798SOL     OW19852   4.035   0.677   9.155  0.4927 -0.0532 -0.3267
 2798SOL    HW119853   3.947   0.670   9.190 -0.3796 -0.7303 -2.6394
 2798SOL    HW219854   4.077   0.600   9.194 -1.6587 -1.7548 -1.3634
 2799SOL     OW19855   2.088   2.844   2.851  0.6755 -0.1411 -0.2151
 2799SOL    HW119856   2.177   2.862   2.881  0.6110 -1.3760  0.6942
 2799SOL    HW219857   2.117   2.778   2.788  0.7665  1.0599 -1.4435
 2800SOL     OW19858   4.622   2.300   2.609  0.8390 -0.2575  0.0982
 2800SOL    HW119859   4.692   2.344   2.561  1.4923 -1.9483 -0.4781
 2800SOL    HW219860   4.564   2.273   2.539 -0.4221  0.5796  0.8142
 2801SOL     OW19861   0.673   4.574   4.684 -0.0867 -0.8780  0.6396
 2801SOL    HW119862   0.618   4.579   4.763 -2.6808  0.1922 -1.2564
 2801SOL    HW219863   0.647   4.650   4.633 -1.1636 -1.2615  0.6088
 2802SOL     OW19864   3.539   3.724  10.503  0.3100  0.7674  0.0300
 2802SOL    HW119865   3.468   3.774  10.542 -1.2664 -1.3773 -0.0704
 2802SOL    HW219866   3.490   3.651  10.466  2.4299  1.0673 -3.3404
 2803SOL     OW19867   0.901   3.275  12.853  0.2015  0.1934  0.4464
 2803SOL    HW119868   0.873   3.191  12.819 -2.4530  1.2022  0.1566
 2803SOL    HW219869   0.918   3.255  12.945  0.1350  1.1918  0.6752
 2804SOL     OW19870   1.388   1.245   4.905 -0.2565 -0.5933 -0.3749
 2804SOL    HW119871   1.361   1.153   4.912 -0.1971 -0.5976 -0.1994
 2804SOL    HW219872   1.427   1.264   4.991  0.0110 -1.2360 -0.3517
 2805SOL     OW19873   1.467   2.021   6.351  0.3409 -0.3954  0.1214
 2805SOL    HW119874   1.374   2.034   6.370  0.1017 -0.1939 -1.1723
 2805SOL    HW219875   1.484   1.941   6.400  0.0338  0.4747  1.6657
 2806SOL     OW19876   3.472   0.180   6.903  0.6239  0.3443  0.6074
 2806SOL    HW119877   3.540   0.233   6.946 -0.0326  0.3427  1.6536
 2806SOL    HW219878   3.515   0.096   6.890 -2.8867 -1.0053 -2.2278
 2807SOL     OW19879   0.040   1.305  15.042  0.0886 -0.1658 -0.4724
 2807SOL    HW119880   0.061   1.240  15.109  3.2740  1.1922 -0.1732
 2807SOL    HW219881   0.120   1.304  14.989  0.0134 -2.9447 -0.5281
 2808SOL     OW19882   2.044   4.441   7.923  0.1729  0.2381  0.1212
 2808SOL    HW119883   1.967   4.444   7.867 -0.9733  0.6320  1.7088
 2808SOL    HW219884   2.107   4.477   7.861  0.8457  0.8698  1.1699
 2809SOL     OW19885   2.551   3.819   1.735  0.0735 -0.2672 -0.1031
 2809SOL    HW119886   2.625   3.778   1.690  0.1020 -1.9336  1.4575
 2809SOL    HW219887   2.557   3.788   1.826 -0.6589 -2.8928 -0.9329
 2810SOL     OW19888   1.198   2.893   3.266 -0.9315 -0.3316  0.0236
 2810SOL    HW119889   1.199   2.975   3.316  1.7232 -0.4973  0.2427
 2810SOL    HW219890   1.258   2.841   3.319  0.0905 -0.6986 -1.5038
 2811SOL     OW19891   2.134   0.137   7.423 -0.2211 -0.1144  0.0842
 2811SOL    HW119892   2.209   0.176   7.468 -0.2785 -1.3199  1.2017
 2811SOL    HW219893   2.125   0.199   7.350 -2.4288 -0.2731  0.2267
 2812SOL     OW19894   1.115   1.766   4.367 -0.2390 -0.1415  0.1576
 2812SOL    HW119895   1.185   1.718   4.411  1.1201  1.2244 -0.5237
 2812SOL    HW219896   1.093   1.837   4.427 -0.9790 -1.1407  1.0757
 2813SOL     OW19897   0.396   0.880   8.614 -0.6583 -0.4918 -0.5297
 2813SOL    HW119898   0.372   0.946   8.549 -2.5209 -2.4959 -1.8796
 2813SOL    HW219899   0.473   0.930   8.642  0.3474 -1.3950 -1.6409
 2814SOL     OW19900   1.434   3.037   6.100 -0.0304 -0.3627  1.0105
 2814SOL    HW119901   1.474   3.108   6.151  0.2117  1.4172 -1.7015
 2814SOL    HW219902   1.404   3.072   6.017  0.9478  0.0253  0.8293
 2815SOL     OW19903   4.176   3.823   7.698  0.1298  0.6030 -0.1942
 2815SOL    HW119904   4.166   3.735   7.664  0.7424  0.2290  0.5972
 2815SOL    HW219905   4.138   3.818   7.786 -0.3216  1.3043 -0.3489
 2816SOL     OW19906   0.674   3.561   6.667  0.3726  0.2576  0.3067
 2816SOL    HW119907   0.689   3.557   6.572  0.3029  0.1186  0.3023
 2816SOL    HW219908   0.660   3.654   6.685 -0.2497 -0.2445  2.3348
 2817SOL     OW19909   3.477   3.274   4.009  0.4463  0.6215  0.0747
 2817SOL    HW119910   3.548   3.285   4.072 -0.5589  1.9109  0.9727
 2817SOL    HW219911   3.526   3.244   3.932 -2.5710  0.0644 -1.6735
 2818SOL     OW19912   4.609   2.492   0.293  0.2750 -0.0810 -0.0019
 2818SOL    HW119913   4.571   2.527   0.374 -1.1721  0.5448 -0.9550
 2818SOL    HW219914   4.631   2.577   0.254 -0.5939  0.1048 -0.0821
 2819SOL     OW19915   4.618   1.183  10.490  0.1326  0.3712 -0.9433
 2819SOL    HW119916   4.675   1.110  10.468 -0.1908  0.3278 -1.6340
 2819SOL    HW219917   4.599   1.148  10.577  1.2775  0.0538 -0.8237
 2820SOL     OW19918   0.449   3.379   4.240 -0.5506  0.7495  0.7038
 2820SOL    HW119919   0.410   3.425   4.166 -0.0994 -0.1871 -0.1055
 2820SOL    HW219920   0.389   3.404   4.311  0.9114  2.7842  1.2309
 2821SOL     OW19921   2.692   4.032   2.700  0.3193  0.3235  0.2331
 2821SOL    HW119922   2.676   4.116   2.744  0.6139  0.2666  0.4511
 2821SOL    HW219923   2.788   4.029   2.707  0.2426 -2.7976 -0.1644
 2822SOL     OW19924   0.516   3.841   7.857  0.0176  0.4016  0.2560
 2822SOL    HW119925   0.473   3.792   7.927  1.5156  0.1593  1.0079
 2822SOL    HW219926   0.436   3.868   7.813  0.3250  1.7953  0.5370
 2823SOL     OW19927   0.611   4.575   6.009 -0.0300  0.2045  0.7177
 2823SOL    HW119928   0.565   4.626   5.943 -0.2788 -2.5235 -1.2196
 2823SOL    HW219929   0.539   4.524   6.045  0.3381 -0.2599  0.7991
 2824SOL     OW19930   0.296   2.265  13.684  0.1623 -0.3525 -0.3685
 2824SOL    HW119931   0.228   2.234  13.624 -0.2326 -0.5869  0.1966
 2824SOL    HW219932   0.270   2.221  13.765 -0.8265 -0.2048 -0.6057
 2825SOL     OW19933   1.288   3.467  10.520 -0.0680  0.7414 -0.1851
 2825SOL    HW119934   1.208   3.422  10.548  1.0260  0.6291  2.8162
 2825SOL    HW219935   1.250   3.504  10.441 -0.2555  0.6561 -0.1331
 2826SOL     OW19936   3.487   2.432   2.073  0.4006  0.0730  0.2046
 2826SOL    HW119937   3.575   2.447   2.109 -1.0019  1.6150  3.0155
 2826SOL    HW219938   3.433   2.440   2.151  1.9017  1.3849  1.1181
 2827SOL     OW19939   2.315   2.545  15.480  0.2372  0.1872  0.2262
 2827SOL    HW119940   2.269   2.461  15.481 -0.9911  0.8485 -0.6137
 2827SOL    HW219941   2.399   2.523  15.521  0.7089 -0.4085 -1.0397
 2828SOL     OW19942   0.859   3.252   6.547 -0.0243 -0.1142  0.0343
 2828SOL    HW119943   0.911   3.259   6.627 -0.9925  1.3080  0.5438
 2828SOL    HW219944   0.923   3.280   6.481  0.3768 -0.7954  0.1347
 2829SOL     OW19945   2.460   2.333   4.783  0.0348 -0.2905  0.0071
 2829SOL    HW119946   2.442   2.268   4.851  2.3942  0.1063  1.0004
 2829SOL    HW219947   2.529   2.282   4.741  1.9059  1.3374  1.1134
 2830SOL     OW19948   1.773   2.790  12.536 -0.2250 -0.6746  0.1248
 2830SOL    HW119949   1.784   2.863  12.597  1.4313 -2.1887  1.6707
 2830SOL    HW219950   1.750   2.725  12.603  0.8791 -1.0102  0.1963
 2831SOL     OW19951   2.143   1.471   5.507  0.3689  0.0213  0.0740
 2831SOL    HW119952   2.108   1.481   5.419  0.2057  0.0883  0.1462
 2831SOL    HW219953   2.201   1.543   5.533  0.7537  0.8040 -2.9671
 2832SOL     OW19954   2.487   1.393  11.967 -0.4478 -0.5394 -0.0821
 2832SOL    HW119955   2.501   1.474  12.017  0.1100 -1.8536  1.9208
 2832SOL    HW219956   2.505   1.332  12.039 -0.3844  0.1525  0.4998
 2833SOL     OW19957   2.129   1.404   1.388 -0.1708 -0.1817  0.0253
 2833SOL    HW119958   2.098   1.355   1.464  1.5471 -2.5662 -0.8261
 2833SOL    HW219959   2.142   1.338   1.320 -0.2290 -2.2497  2.0411
 2834SOL     OW19960   3.292   0.303   4.981 -0.8337 -0.3190 -0.8825
 2834SOL    HW119961   3.318   0.388   5.017 -0.9994 -0.7344  0.2120
 2834SOL    HW219962   3.375   0.268   4.948 -1.0844 -1.9937  0.2268
 2835SOL     OW19963   0.987   1.491  14.015 -0.2964  0.5372  0.3739
 2835SOL    HW119964   0.993   1.415  14.073 -1.6747  0.1908  0.0534
 2835SOL    HW219965   0.892   1.481  14.012 -0.3817  2.0437 -2.0758
 2836SOL     OW19966   0.513   3.714  15.632  0.1403 -0.1778  1.0348
 2836SOL    HW119967   0.547   3.789  15.583 -0.4898  0.0200  0.9048
 2836SOL    HW219968   0.558   3.642  15.589  1.2759  1.1279  0.0606
 2837SOL     OW19969   1.861   2.326   3.757 -0.4934 -0.3301 -0.4661
 2837SOL    HW119970   1.944   2.278   3.762  0.0427  0.6811  0.2438
 2837SOL    HW219971   1.899   2.413   3.745  1.0080 -0.7934  0.8652
 2838SOL     OW19972   2.655   0.286  12.849  0.5027 -0.2953  0.2658
 2838SOL    HW119973   2.750   0.300  12.858  0.5412 -2.0886  2.7693
 2838SOL    HW219974   2.624   0.319  12.934 -0.9479 -0.3893 -0.2366
 2839SOL     OW19975   3.196   3.717   6.879  0.1613 -0.1577  0.4237
 2839SOL    HW119976   3.278   3.767   6.879  0.3786 -0.4984 -2.6030
 2839SOL    HW219977   3.185   3.685   6.790 -0.0152  0.4763  0.2128
 2840SOL     OW19978   1.007   2.585   2.430 -0.1314  0.1980 -0.0411
 2840SOL    HW119979   0.922   2.626   2.446  0.3021  1.5796 -1.2076
 2840SOL    HW219980   0.999   2.575   2.335  1.2244  3.0024 -0.4647
 2841SOL     OW19981   0.642   1.662  15.784  0.2730  0.1492  0.5043
 2841SOL    HW119982   0.673   1.710  15.707  1.3589 -0.7685  0.3633
 2841SOL    HW219983   0.587   1.726  15.828 -1.2805 -0.2167 -0.8980
 2842SOL     OW19984   2.533   2.785   1.193  0.1325 -0.1012 -0.0983
 2842SOL    HW119985   2.509   2.832   1.112  1.1490  3.2716  1.5722
 2842SOL    HW219986   2.627   2.786   1.175 -0.1427 -3.1944 -1.6282
 2843SOL     OW19987   2.528   2.302   7.697 -0.0288 -0.1539 -0.4952
 2843SOL    HW119988   2.480   2.250   7.633  1.6230 -3.0965  0.6594
 2843SOL    HW219989   2.471   2.379   7.699  0.6390  0.3021  1.6604
 2844SOL     OW19990   1.199   2.032   6.383 -0.3254 -0.5211  0.0253
 2844SOL    HW119991   1.138   1.965   6.352 -2.3360  0.9896  0.7343
 2844SOL    HW219992   1.202   2.095   6.310  1.6406  0.9568  1.3674
 2845SOL     OW19993   2.623   2.850   6.766  0.8430  0.2619 -0.0286
 2845SOL    HW119994   2.639   2.757   6.750  0.1891  0.8829 -4.1102
 2845SOL    HW219995   2.678   2.862   6.844  0.7029  2.4277 -0.2754
 2846SOL     OW19996   4.639   0.817   4.049  0.0529  0.3223  0.4556
 2846SOL    HW119997   4.613   0.728   4.071 -1.2897  0.1597 -1.8096
 2846SOL    HW219998   4.607   0.825   3.959 -0.8938 -0.8849  0.6896
 2847SOL     OW19999   0.303   2.515   2.515  0.3059  0.5843  1.0562
 2847SOL    HW120000   0.333   2.606   2.512  0.1674  0.6305  1.0723
 2847SOL    HW220001   0.357   2.491   2.591  0.8693  0.1891  0.5240
 2848SOL     OW20002   2.797   1.326   3.454  0.4485  0.1390  0.4600
 2848SOL    HW120003   2.714   1.359   3.489  0.0242  0.8611 -1.2007
 2848SOL    HW220004   2.862   1.361   3.514  1.6334 -0.1372 -0.6663
 2849SOL     OW20005   0.864   0.294  12.294  0.1180  0.2259  0.1759
 2849SOL    HW120006   0.934   0.359  12.291 -0.0073  0.3746  0.4485
 2849SOL    HW220007   0.864   0.249  12.379  1.8810  0.5968  0.3722
 2850SOL     OW20008   3.038   0.189   0.636  0.1076 -0.0323 -0.1213
 2850SOL    HW120009   2.982   0.256   0.597 -1.1233 -1.6583 -1.1425
 2850SOL    HW220010   2.985   0.110   0.636 -0.5436  0.4077 -0.3509
 2851SOL     OW20011   2.233   1.251   9.200 -0.2302  0.2185  0.3039
 2851SOL    HW120012   2.319   1.235   9.238  0.4984 -0.2490 -1.5633
 2851SOL    HW220013   2.222   1.160   9.174 -1.8528  0.0069  1.7421
 2852SOL     OW20014   2.292   1.731   6.811  0.3512  0.1624  0.5811
 2852SOL    HW120015   2.265   1.644   6.840  0.8426 -0.8933 -2.1017
 2852SOL    HW220016   2.223   1.760   6.752 -0.4234 -0.6157  1.1215
 2853SOL     OW20017   4.504   1.565   3.917 -0.3169  0.0783 -0.0170
 2853SOL    HW120018   4.422   1.609   3.936  0.6214  1.8019  0.0240
 2853SOL    HW220019   4.527   1.531   4.004  0.4704  0.5677 -0.0306
 2854SOL     OW20020   1.469   4.419   6.634 -0.1794 -0.4714  0.2054
 2854SOL    HW120021   1.441   4.470   6.710 -1.2377  1.2926 -1.3840
 2854SOL    HW220022   1.522   4.485   6.589 -1.1086 -0.5854 -1.0540
 2855SOL     OW20023   3.336   1.312   5.796  0.2162  0.3549  0.1305
 2855SOL    HW120024   3.352   1.223   5.827 -1.5400 -0.4988 -1.4276
 2855SOL    HW220025   3.246   1.311   5.763  0.3614 -2.7422 -0.1899
 2856SOL     OW20026   3.226   0.143   7.185  0.0428 -0.1083  0.0093
 2856SOL    HW120027   3.299   0.088   7.155  1.5644  0.8762  1.8688
 2856SOL    HW220028   3.218   0.203   7.111 -1.0100 -2.1557 -1.5696
 2857SOL     OW20029   2.837   4.436   5.001 -0.0214  0.1725 -0.5277
 2857SOL    HW120030   2.814   4.495   5.073 -1.7777 -0.5168 -0.5302
 2857SOL    HW220031   2.930   4.430   5.023  0.0245  1.9338 -0.2753
 2858SOL     OW20032   3.366   1.467   1.215 -0.3307  0.2518  0.4459
 2858SOL    HW120033   3.416   1.450   1.136  0.1592  0.1643  0.7756
 2858SOL    HW220034   3.364   1.373   1.232 -3.4091  0.1398 -0.5569
 2859SOL     OW20035   4.067   0.889   8.102 -0.1615 -0.2576  0.0044
 2859SOL    HW120036   4.002   0.920   8.165 -0.2814 -1.9284  0.7106
 2859SOL    HW220037   4.072   0.963   8.042 -0.8217 -0.0881  0.1598
 2860SOL     OW20038   1.092   3.950   6.344 -0.1375 -0.9525 -0.0480
 2860SOL    HW120039   1.080   4.031   6.394 -1.5200 -0.4468 -1.1888
 2860SOL    HW220040   1.012   3.950   6.292 -0.9079  0.8275  1.1323
 2861SOL     OW20041   3.967   2.131  14.743  0.3548  0.0982 -0.2983
 2861SOL    HW120042   4.020   2.140  14.664  1.2866  0.0712  0.3271
 2861SOL    HW220043   3.947   2.038  14.754  0.0924  0.0775 -0.9674
 2862SOL     OW20044   3.477   3.802   6.374 -0.1980 -0.1500  0.1702
 2862SOL    HW120045   3.552   3.861   6.384  0.5430 -0.7069 -2.0245
 2862SOL    HW220046   3.430   3.853   6.440  0.4435 -0.7428  1.0906
 2863SOL     OW20047   0.750   2.269   0.802  0.0800 -0.0177  0.3614
 2863SOL    HW120048   0.708   2.224   0.729  0.2501  0.2614  0.0925
 2863SOL    HW220049   0.802   2.340   0.764 -1.5409  1.0570  0.1613
 2864SOL     OW20050   1.552   1.405   9.722 -0.1236 -0.4181  0.1209
 2864SOL    HW120051   1.483   1.425   9.786  1.8782 -1.5812  2.5988
 2864SOL    HW220052   1.490   1.403   9.648 -2.2594  0.0035  1.8898
 2865SOL     OW20053   2.149   0.235   0.801 -0.0918 -0.3555  0.1084
 2865SOL    HW120054   2.241   0.212   0.816  0.5246  3.1295  1.7453
 2865SOL    HW220055   2.116   0.165   0.746 -0.5762  1.1082 -1.4504
 2866SOL     OW20056   3.885   2.213   6.676 -0.2826 -0.5002  0.0131
 2866SOL    HW120057   3.835   2.138   6.709  0.8811 -1.3331 -0.1260
 2866SOL    HW220058   3.873   2.273   6.750  0.2489  0.2638 -0.5287
 2867SOL     OW20059   2.523   0.336   3.813  0.2795  0.1862  0.0264
 2867SOL    HW120060   2.590   0.274   3.840 -0.8181 -0.2430  1.7637
 2867SOL    HW220061   2.457   0.319   3.880  0.5482  1.5014  0.6289
 2868SOL     OW20062   0.605   4.260   7.889 -0.9231  0.7527 -0.0838
 2868SOL    HW120063   0.670   4.329   7.875 -0.4124  0.3035  0.0970
 2868SOL    HW220064   0.554   4.252   7.809  0.4470  0.3301 -0.9079
 2869SOL     OW20065   3.603   3.115  16.176 -0.3648 -0.5606 -0.0571
 2869SOL    HW120066   3.584   3.078  16.262 -0.4584  1.0923  0.6406
 2869SOL    HW220067   3.564   3.202  16.187  1.3891  0.3807 -1.3512
 2870SOL     OW20068   0.241   2.266   4.313  0.1377  0.5721  0.0769
 2870SOL    HW120069   0.320   2.238   4.360 -0.8925 -1.2662  0.6936
 2870SOL    HW220070   0.279   2.340   4.265  0.5806  0.8827  0.8921
 2871SOL     OW20071   4.335   0.632   4.340  0.5477  0.2290  0.1200
 2871SOL    HW120072   4.334   0.549   4.292  0.8556  1.0993 -1.3747
 2871SOL    HW220073   4.312   0.692   4.269  2.6244  0.8413 -0.0194
 2872SOL     OW20074   1.300   1.817   9.690  0.4880 -0.4336 -0.1575
 2872SOL    HW120075   1.222   1.821   9.634 -0.8803  2.2112  1.9171
 2872SOL    HW220076   1.262   1.754   9.752  0.6636  0.1573  0.5517
 2873SOL     OW20077   3.346   4.361   8.147  0.3365 -0.4033  0.1128
 2873SOL    HW120078   3.346   4.312   8.229 -0.3517  1.8246  1.4497
 2873SOL    HW220079   3.423   4.330   8.100  0.2814 -0.8572  0.3228
 2874SOL     OW20080   3.615   1.652   7.799 -0.1728 -0.1216 -0.2470
 2874SOL    HW120081   3.604   1.594   7.724  0.6876 -0.5861 -0.0111
 2874SOL    HW220082   3.553   1.723   7.781  0.0548  0.5195  1.4154
 2875SOL     OW20083   2.843   3.113  13.020 -0.4682 -0.0667  0.1066
 2875SOL    HW120084   2.877   3.198  12.991 -0.8561 -0.2576 -0.8970
 2875SOL    HW220085   2.887   3.052  12.961  2.0481  0.9846  0.8759
 2876SOL     OW20086   2.653   4.518   0.578 -0.0214  0.6950  0.2177
 2876SOL    HW120087   2.615   4.461   0.645  1.3796  2.2153  2.2836
 2876SOL    HW220088   2.656   4.460   0.502  0.8863  0.7875  0.1886
 2877SOL     OW20089   0.095   3.166   6.320  0.4192  0.4135 -0.0551
 2877SOL    HW120090   0.150   3.244   6.309  0.3656 -0.0317 -3.2694
 2877SOL    HW220091   0.010   3.199   6.348 -0.3272 -0.9764 -0.6750
 2878SOL     OW20092   2.894   3.672   4.031  0.1512 -0.4009 -0.1186
 2878SOL    HW120093   2.983   3.705   4.019  0.1110 -0.3906 -0.3996
 2878SOL    HW220094   2.879   3.667   4.125 -1.4616 -0.4925 -0.3792
 2879SOL     OW20095   3.229   2.788  14.701  0.2291 -0.0985 -0.5424
 2879SOL    HW120096   3.170   2.716  14.679 -2.5400  1.7016  1.0273
 2879SOL    HW220097   3.266   2.812  14.616  2.3520 -1.4714 -0.0038
 2880SOL     OW20098   4.402   2.960   5.188 -0.3649  0.6997  0.6481
 2880SOL    HW120099   4.344   2.893   5.153  1.3463  0.4247 -1.7085
 2880SOL    HW220100   4.358   3.039   5.157 -0.8730  0.5403  0.9727
 2881SOL     OW20101   0.243   0.610  13.788 -0.7788  0.2935  0.3533
 2881SOL    HW120102   0.250   0.704  13.809 -1.5489  0.2469  0.8363
 2881SOL    HW220103   0.322   0.597  13.735 -1.3768  3.4690 -1.3228
 2882SOL     OW20104   0.312   0.832   5.811  0.3281 -0.1350  0.4921
 2882SOL    HW120105   0.400   0.795   5.819  0.3283  0.2285  2.2530
 2882SOL    HW220106   0.257   0.757   5.790 -1.5215  1.1672  0.6831
 2883SOL     OW20107   1.354   0.806  13.068 -0.0226 -0.5168  0.6292
 2883SOL    HW120108   1.340   0.900  13.067  0.3460 -0.4792 -1.3926
 2883SOL    HW220109   1.431   0.798  13.124 -0.4764 -0.5095  1.2579
 2884SOL     OW20110   1.820   2.277   1.767  0.1773 -0.3266 -0.6228
 2884SOL    HW120111   1.881   2.311   1.832 -0.6178  0.4920 -0.3045
 2884SOL    HW220112   1.880   2.229   1.710 -0.2090  0.6592 -1.8365
 2885SOL     OW20113   1.016   3.921  10.122  0.3003 -0.7800  0.5016
 2885SOL    HW120114   0.958   3.914  10.047 -1.2821 -0.3637  1.6817
 2885SOL    HW220115   1.005   4.012  10.149  0.5729 -0.2418 -1.2241
 2886SOL     OW20116   4.367   2.515  13.497  0.1281  0.0409  0.2767
 2886SOL    HW120117   4.456   2.508  13.532 -0.3724 -2.6886  1.0089
 2886SOL    HW220118   4.335   2.442  13.549  2.0889 -0.6003  0.5654
 2887SOL     OW20119   1.169   4.261  15.400  0.2432 -0.1774  0.0364
 2887SOL    HW120120   1.211   4.183  15.437 -2.6540 -1.3727  0.7833
 2887SOL    HW220121   1.106   4.217  15.343  0.0613  0.7318 -0.4725
 2888SOL     OW20122   1.674   2.355   5.929 -0.0609 -0.9632 -0.4681
 2888SOL    HW120123   1.684   2.440   5.972 -1.6020 -0.2946 -1.4023
 2888SOL    HW220124   1.616   2.305   5.987 -1.1981  0.5970 -0.2471
 2889SOL     OW20125   0.855   2.210   6.641 -0.4855 -0.1188  0.0143
 2889SOL    HW120126   0.947   2.205   6.612 -1.0273 -2.7849 -1.2482
 2889SOL    HW220127   0.828   2.281   6.584 -1.3567 -0.4820 -0.0232
 2890SOL     OW20128   4.396   0.799   6.300  0.0966 -0.1268 -0.3926
 2890SOL    HW120129   4.367   0.879   6.342 -0.2739 -0.5340  0.1196
 2890SOL    HW220130   4.325   0.786   6.237  2.1508 -0.7364 -2.5842
 2891SOL     OW20131   1.302   1.036  10.753  0.3221  0.0653  0.3247
 2891SOL    HW120132   1.274   1.043  10.662 -0.7104 -2.8354  0.4387
 2891SOL    HW220133   1.256   0.960  10.787 -0.5800  0.4198 -0.1088
 2892SOL     OW20134   0.475   0.197  15.968  0.0336  0.3167 -0.6279
 2892SOL    HW120135   0.518   0.282  15.966 -1.7221  1.2079 -0.5175
 2892SOL    HW220136   0.545   0.135  15.949  0.2636 -0.1286  1.6831
 2893SOL     OW20137   0.106   1.934   7.289  0.3999 -0.2235  0.1041
 2893SOL    HW120138   0.042   1.882   7.338  1.6828 -0.8951  1.0603
 2893SOL    HW220139   0.167   1.867   7.259  1.6959  0.7534  0.5227
 2894SOL     OW20140   1.479   4.250  10.864  0.0676 -0.1210  0.2374
 2894SOL    HW120141   1.472   4.183  10.932  2.0411  0.9516  1.5110
 2894SOL    HW220142   1.398   4.300  10.877  1.6121  2.3697  0.3277
 2895SOL     OW20143   2.776   0.528   9.710 -0.0275  0.5269 -0.0040
 2895SOL    HW120144   2.805   0.575   9.632  0.0878 -1.2459 -1.0132
 2895SOL    HW220145   2.787   0.441   9.674  3.4602  1.6369 -1.5742
 2896SOL     OW20146   0.497   0.382   8.051  0.8116  0.1905  0.1097
 2896SOL    HW120147   0.524   0.382   7.959  2.1628  0.4007  0.5080
 2896SOL    HW220148   0.574   0.358   8.102  0.6387 -0.7990 -0.0917
 2897SOL     OW20149   3.318   2.539   8.403 -0.2120  0.2305 -0.6777
 2897SOL    HW120150   3.345   2.588   8.481 -2.1238  0.2702 -0.0353
 2897SOL    HW220151   3.373   2.461   8.412 -2.6112 -1.6415 -2.2245
 2898SOL     OW20152   0.142   4.431   5.086 -0.6219 -0.4905  0.0927
 2898SOL    HW120153   0.063   4.478   5.059 -0.5858 -0.1868  0.5107
 2898SOL    HW220154   0.115   4.404   5.174  1.5632  1.0276  1.2379
 2899SOL     OW20155   4.685   2.031  14.920 -0.7653  0.3808  0.5636
 2899SOL    HW120156   4.622   2.056  14.987 -0.3009  2.0038  0.4057
 2899SOL    HW220157   0.010   1.950  14.943  2.6982  1.2372 -2.9167
 2900SOL     OW20158   3.564   4.281   6.177  0.2766 -0.4284 -0.0885
 2900SOL    HW120159   3.529   4.349   6.119 -0.7637 -0.0970  0.9284
 2900SOL    HW220160   3.537   4.203   6.130 -0.9647  0.9557 -1.6685
 2901SOL     OW20161   1.376   3.656   5.953 -0.3546  0.0039  0.3640
 2901SOL    HW120162   1.462   3.678   5.989 -0.6149 -0.9026  1.5501
 2901SOL    HW220163   1.324   3.706   6.016  1.7090  0.6973  1.5230
 2902SOL     OW20164   1.801   3.023  12.770 -0.1846 -0.5987 -0.5458
 2902SOL    HW120165   1.718   2.999  12.811  1.1665 -0.5769  2.2094
 2902SOL    HW220166   1.782   3.095  12.709 -1.9798  0.8268  1.7003
 2903SOL     OW20167   4.423   3.867   4.111 -0.4464 -0.3957 -0.1289
 2903SOL    HW120168   4.351   3.855   4.048 -0.5672 -3.2468  0.5222
 2903SOL    HW220169   4.485   3.842   4.042 -1.3574  1.4194 -1.6106
 2904SOL     OW20170   4.043   4.527  14.443 -0.2913 -0.0205 -0.3980
 2904SOL    HW120171   3.994   4.500  14.521  1.6694 -2.2414  0.0696
 2904SOL    HW220172   3.984   4.587  14.399  0.8566 -0.1408 -2.0914
 2905SOL     OW20173   0.742   2.603   1.966 -0.3810  0.3016 -0.5970
 2905SOL    HW120174   0.750   2.697   1.949 -0.9463  0.9108  2.5381
 2905SOL    HW220175   0.831   2.573   1.946 -0.7266 -0.9377 -0.3021
 2906SOL     OW20176   3.147   4.587   3.832  0.2242  0.7193 -0.2756
 2906SOL    HW120177   3.129   4.578   3.738  1.4759  4.8210 -0.9456
 2906SOL    HW220178   3.228   4.536   3.837  0.2876  0.9842  1.4064
 2907SOL     OW20179   3.397   1.015   8.006  1.0409 -0.1835  0.0395
 2907SOL    HW120180   3.360   0.927   8.013  1.1779 -0.2451  0.0002
 2907SOL    HW220181   3.350   1.058   7.935  2.1571  2.2203  0.7519
 2908SOL     OW20182   3.588   3.511   0.257  0.3250  0.2247 -0.0542
 2908SOL    HW120183   3.540   3.453   0.198  1.9873 -1.2112 -0.0023
 2908SOL    HW220184   3.629   3.560   0.186  0.4930  0.0732 -0.0624
 2909SOL     OW20185   4.224   4.488   8.277 -0.7800 -0.3997 -0.3038
 2909SOL    HW120186   4.172   4.523   8.349  0.5113  1.3950 -0.2499
 2909SOL    HW220187   4.226   4.562   8.215  1.1036 -0.9301 -0.8790
 2910SOL     OW20188   3.072   2.680   6.442  0.1680 -0.0347  0.1737
 2910SOL    HW120189   3.005   2.656   6.506 -1.4179  2.8475 -0.3867
 2910SOL    HW220190   3.132   2.726   6.500  1.6415  0.4150 -1.6925
 2911SOL     OW20191   3.003   0.361   6.096  0.6198  0.1280 -0.0685
 2911SOL    HW120192   2.982   0.324   6.181  1.0253  1.4134  0.6003
 2911SOL    HW220193   3.004   0.282   6.042  0.4898  0.3873 -0.4506
 2912SOL     OW20194   4.307   0.814   5.858 -0.8779  0.3114  0.3272
 2912SOL    HW120195   4.374   0.873   5.824 -0.2865 -0.1486  0.6742
 2912SOL    HW220196   4.244   0.799   5.788 -1.1273  0.5165  0.5103
 2913SOL     OW20197   0.931   0.388   8.223 -0.1219 -0.0419  0.1414
 2913SOL    HW120198   1.002   0.333   8.190  0.4934  0.8097  0.0259
 2913SOL    HW220199   0.867   0.324   8.253 -0.0904 -0.6170 -1.0039
 2914SOL     OW20200   2.710   0.483   6.216  0.1029  0.1216 -0.0097
 2914SOL    HW120201   2.645   0.522   6.274 -0.0941  1.6686 -1.2525
 2914SOL    HW220202   2.783   0.463   6.273  1.8067  0.0118 -2.2295
 2915SOL     OW20203   3.187   3.159   6.478  0.0850  0.2424  0.2626
 2915SOL    HW120204   3.095   3.131   6.473 -0.0223  0.3049  1.8103
 2915SOL    HW220205   3.180   3.201   6.564 -3.5110  2.0863 -0.9007
 2916SOL     OW20206   0.758   4.227   6.275 -0.1516  0.3210 -0.4382
 2916SOL    HW120207   0.667   4.251   6.261 -0.1462  1.0159  0.7751
 2916SOL    HW220208   0.804   4.300   6.234  1.4216  0.7364  2.0810
 2917SOL     OW20209   2.565   1.690   6.731  0.2674 -0.1942  0.4850
 2917SOL    HW120210   2.589   1.680   6.823  0.7359 -1.4584  0.2315
 2917SOL    HW220211   2.470   1.699   6.734  0.3423  0.9135 -0.3884
 2918SOL     OW20212   1.889   2.684   6.121 -0.5195 -0.0926  0.2679
 2918SOL    HW120213   1.951   2.651   6.185 -0.6327 -4.5131 -1.9673
 2918SOL    HW220214   1.909   2.632   6.044  0.1295  1.2068 -0.4422
 2919SOL     OW20215   3.163   2.452   2.053 -0.2505 -0.2650 -0.3289
 2919SOL    HW120216   3.196   2.424   2.138  2.0074  1.8455 -0.5148
 2919SOL    HW220217   3.180   2.375   1.998 -0.1439  0.2796 -1.0540
 2920SOL     OW20218   2.810   0.973   2.948 -0.2929  0.0679  0.0506
 2920SOL    HW120219   2.886   0.996   2.894  0.0513  0.1423  0.5619
 2920SOL    HW220220   2.848   0.983   3.035 -0.9428 -1.0223  0.4536
 2921SOL     OW20221   1.783   1.965  14.097 -0.0865  1.0859 -0.1321
 2921SOL    HW120222   1.833   2.047  14.099  1.5590  0.0824 -0.8078
 2921SOL    HW220223   1.828   1.914  14.165 -2.0327  2.7953  2.4545
 2922SOL     OW20224   0.796   3.196   5.275  0.0557 -0.1725  0.2809
 2922SOL    HW120225   0.870   3.189   5.214  0.0551 -0.8029  0.3489
 2922SOL    HW220226   0.746   3.138   5.218 -2.8636  2.7862 -0.1197
 2923SOL     OW20227   1.581   4.036   4.462 -0.5242 -0.4859  0.6055
 2923SOL    HW120228   1.557   4.113   4.410  0.4349 -1.2489 -0.9858
 2923SOL    HW220229   1.519   4.043   4.534 -2.0039 -2.2694 -0.5001
 2924SOL     OW20230   1.689   2.452   1.578 -1.1931  0.2149 -0.4074
 2924SOL    HW120231   1.724   2.389   1.640  1.3733  1.1756 -0.8779
 2924SOL    HW220232   1.758   2.519   1.574 -1.5336  0.4755 -1.8181
 2925SOL     OW20233   0.081   4.091  13.054  0.5286 -0.4662 -0.5845
 2925SOL    HW120234   0.117   4.079  13.142 -1.5014 -0.8944  0.1906
 2925SOL    HW220235   0.015   4.158  13.070  0.4194 -0.8235  0.4702
 2926SOL     OW20236   3.385   2.730   4.786  0.0980 -0.4207  0.0183
 2926SOL    HW120237   3.335   2.805   4.754  0.9637 -0.0524 -0.4915
 2926SOL    HW220238   3.311   2.675   4.808 -1.2888  1.2704 -0.4460
 2927SOL     OW20239   1.729   2.100   9.358  0.0074  0.5022  0.3974
 2927SOL    HW120240   1.704   2.074   9.447  0.5537  0.0785  0.4268
 2927SOL    HW220241   1.790   2.028   9.344 -0.9997 -0.5449  1.3907
 2928SOL     OW20242   1.749   4.575   2.233 -0.0203  0.4457  0.1231
 2928SOL    HW120243   1.660   4.609   2.220  1.1292  2.2159 -3.1017
 2928SOL    HW220244   1.770   4.636   2.304 -1.1311  3.3858 -2.0619
 2929SOL     OW20245   0.875   1.568   6.770 -0.0169  0.2835 -0.1317
 2929SOL    HW120246   0.846   1.657   6.788 -1.1370  0.0228 -0.6216
 2929SOL    HW220247   0.931   1.591   6.696 -2.0765  2.4510 -1.0008
 2930SOL     OW20248   4.073   3.294   6.774 -0.3407 -0.2964 -0.1515
 2930SOL    HW120249   4.080   3.200   6.788 -0.0071 -0.2540 -0.0402
 2930SOL    HW220250   3.985   3.320   6.801  0.0098  2.1350 -1.3052
 2931SOL     OW20251   0.449   3.961  13.020 -0.2745  0.0859 -0.6343
 2931SOL    HW120252   0.372   3.910  12.997 -1.5630  0.8155  2.0613
 2931SOL    HW220253   0.505   3.903  13.072  2.0827  2.0163 -1.0081
 2932SOL     OW20254   1.543   1.818   0.345  0.1352 -0.1237  0.0057
 2932SOL    HW120255   1.540   1.902   0.298 -2.6730 -0.1113  0.2269
 2932SOL    HW220256   1.593   1.848   0.420  1.8008  0.5612 -1.3752
 2933SOL     OW20257   1.947   0.597   7.448 -0.4231  0.3644 -0.2323
 2933SOL    HW120258   1.894   0.526   7.411 -0.5947 -0.3860  1.4584
 2933SOL    HW220259   1.889   0.671   7.432 -2.4731 -1.6676 -2.4749
 2934SOL     OW20260   4.465   0.746   3.181  0.2058  0.4567  0.2612
 2934SOL    HW120261   4.454   0.835   3.214  0.1444  0.4117  0.3635
 2934SOL    HW220262   4.427   0.699   3.255  0.5654 -0.2391  0.0065
 2935SOL     OW20263   4.371   4.068   4.290  0.2490 -0.2621  0.0418
 2935SOL    HW120264   4.458   4.107   4.291 -0.3520  1.0738  0.1250
 2935SOL    HW220265   4.390   3.987   4.242 -2.1705 -0.0436 -1.3512
 2936SOL     OW20266   2.824   0.172   6.389  0.0837  0.5705  0.1042
 2936SOL    HW120267   2.814   0.234   6.461  0.5145 -0.7464  1.2994
 2936SOL    HW220268   2.915   0.193   6.369  0.3235 -0.9092 -0.3980
 2937SOL     OW20269   1.435   4.220   3.346 -0.0928 -0.5515 -0.0982
 2937SOL    HW120270   1.451   4.169   3.266  2.5218  0.0351  0.0535
 2937SOL    HW220271   1.516   4.269   3.351 -0.2618 -0.3767  0.9092
 2938SOL     OW20272   2.010   0.038   5.690  0.2322  0.0129 -1.3333
 2938SOL    HW120273   1.968   0.011   5.609 -0.2750 -0.8208 -0.7893
 2938SOL    HW220274   2.009   0.133   5.696  0.8709 -0.0765  0.4986
 2939SOL     OW20275   3.877   1.443   5.997 -0.3078 -0.3520  0.3095
 2939SOL    HW120276   3.967   1.417   5.977 -0.6753 -0.9617 -0.5517
 2939SOL    HW220277   3.894   1.477   6.085 -2.6743 -1.2640  1.1229
 2940SOL     OW20278   3.828   1.523   6.982 -0.5814  0.0754 -0.3142
 2940SOL    HW120279   3.896   1.476   6.934  0.7739  1.2138  0.5000
 2940SOL    HW220280   3.856   1.612   6.960 -0.4993  0.1892  0.2654
 2941SOL     OW20281   4.091   0.759   2.061  0.5047 -0.6953 -0.5986
 2941SOL    HW120282   4.010   0.708   2.050  0.6685 -0.8282 -1.2223
 2941SOL    HW220283   4.047   0.838   2.093  0.7853 -1.2012  1.0302
 2942SOL     OW20284   3.007   3.325   6.112 -0.1600  0.3872 -0.5216
 2942SOL    HW120285   3.004   3.420   6.114 -1.1846  0.3335  0.5997
 2942SOL    HW220286   3.036   3.297   6.199  0.7115  2.0559 -0.2848
 2943SOL     OW20287   0.524   1.416  16.156  0.2999  0.0249 -0.3227
 2943SOL    HW120288   0.560   1.503  16.169 -0.9471  0.5617 -0.4228
 2943SOL    HW220289   0.436   1.433  16.190  0.4447 -2.6919  1.4445
 2944SOL     OW20290   2.004   0.473   0.886  0.0626 -0.2807 -0.9203
 2944SOL    HW120291   1.942   0.500   0.818 -0.5224  1.2622  0.2188
 2944SOL    HW220292   2.060   0.407   0.845  3.0091 -0.1522  2.8420
 2945SOL     OW20293   4.047   0.233  16.939  0.3220 -0.2396 -0.0441
 2945SOL    HW120294   4.061   0.229  16.844  0.8761 -2.5936  0.1319
 2945SOL    HW220295   4.015   0.145  16.960  2.7489 -0.6480  1.8464
 2946SOL     OW20296   1.421   3.949   6.656 -0.1737 -0.3773 -0.0902
 2946SOL    HW120297   1.344   3.893   6.664 -0.9522  0.5535 -1.0989
 2946SOL    HW220298   1.479   3.892   6.605 -0.2732 -0.4417 -0.1322
 2947SOL     OW20299   4.022   3.151   4.745  0.2226 -0.1978 -0.1217
 2947SOL    HW120300   3.997   3.194   4.827 -1.6581  0.7057 -1.1708
 2947SOL    HW220301   4.106   3.193   4.728  0.7161 -1.2252 -0.2268
 2948SOL     OW20302   0.460   0.045   2.579 -0.0382  0.0310  0.1071
 2948SOL    HW120303   0.495   0.132   2.563 -1.3064  0.3739 -0.7609
 2948SOL    HW220304   0.376   0.069   2.619  0.0359  2.3533 -1.1635
 2949SOL     OW20305   1.539   2.847  16.111  0.1823  0.3518  0.1830
 2949SOL    HW120306   1.451   2.854  16.147  0.5759 -0.1749  1.2465
 2949SOL    HW220307   1.552   2.941  16.098 -0.6468  0.0299 -2.9136
 2950SOL     OW20308   3.806   1.260  15.559 -0.0124  0.1901  0.8308
 2950SOL    HW120309   3.858   1.199  15.611  0.6400  0.3143  0.3134
 2950SOL    HW220310   3.803   1.324  15.630  1.0438  0.5997  0.5022
 2951SOL     OW20311   1.643   3.931   7.221 -0.1031  0.9390 -0.2378
 2951SOL    HW120312   1.627   3.840   7.247 -0.3360  1.6503  2.1472
 2951SOL    HW220313   1.565   3.951   7.169 -0.5635  0.4292  0.2402
 2952SOL     OW20314   3.258   1.324   9.054  0.2272 -0.6973  0.4660
 2952SOL    HW120315   3.191   1.274   9.101 -1.4781  1.1553 -0.0003
 2952SOL    HW220316   3.341   1.277   9.064 -0.0233 -1.4537 -0.9489
 2953SOL     OW20317   0.021   0.331   4.181 -0.5827  0.2394  0.5917
 2953SOL    HW120318   0.062   0.317   4.095 -0.9598  0.5969  0.3529
 2953SOL    HW220319   0.080   0.400   4.214 -0.4190  0.9711 -1.2271
 2954SOL     OW20320   0.268   4.037   2.828 -0.1947  0.8906  0.0276
 2954SOL    HW120321   0.322   4.113   2.850  0.3129  0.8105 -0.9479
 2954SOL    HW220322   0.183   4.077   2.810 -2.0764 -2.0123  2.5269
 2955SOL     OW20323   1.835   3.136   7.692 -0.1377 -0.0547  0.1658
 2955SOL    HW120324   1.826   3.159   7.785  1.8711  1.0172  0.1115
 2955SOL    HW220325   1.867   3.211   7.641 -1.6986 -0.8409 -1.9621
 2956SOL     OW20326   4.142   3.055   2.226  0.1021  0.6737  0.4029
 2956SOL    HW120327   4.047   3.062   2.221 -0.0734 -0.7294  1.7671
 2956SOL    HW220328   4.167   3.134   2.275  2.3221  0.3298 -0.1823
 2957SOL     OW20329   0.486   2.408   6.929  0.1279  0.2532  0.1836
 2957SOL    HW120330   0.426   2.465   6.977  2.1483  2.4182  0.1331
 2957SOL    HW220331   0.436   2.398   6.848  0.4818  1.7831 -0.2329
 2958SOL     OW20332   2.497   3.556   1.643  0.0673  0.1079 -0.1834
 2958SOL    HW120333   2.496   3.651   1.659 -0.8878  0.0400  0.1694
 2958SOL    HW220334   2.589   3.540   1.664  0.1853 -1.6133 -2.0390
 2959SOL     OW20335   3.116   1.829   3.984 -0.1993 -0.2882  0.2090
 2959SOL    HW120336   3.086   1.895   4.046  1.9369  1.7606 -0.9165
 2959SOL    HW220337   3.099   1.870   3.899 -0.4497  0.8752  0.8169
 2960SOL     OW20338   1.111   2.272  13.541  0.4527  0.2367  1.1186
 2960SOL    HW120339   1.111   2.350  13.596  3.4262  0.1846  1.2420
 2960SOL    HW220340   1.125   2.203  13.607 -1.3951 -1.9215 -0.7351
 2961SOL     OW20341   2.147   2.564  11.079  0.6357 -0.5995 -0.3950
 2961SOL    HW120342   2.147   2.469  11.085 -0.6062 -0.7655 -2.8604
 2961SOL    HW220343   2.231   2.590  11.117  0.3676 -3.1564  1.8932
 2962SOL     OW20344   3.746   0.880   1.904 -0.9040  0.0164 -0.0817
 2962SOL    HW120345   3.724   0.821   1.977  1.5770 -0.1684  0.5203
 2962SOL    HW220346   3.743   0.965   1.948 -1.7632  0.7279 -1.5300
 2963SOL     OW20347   2.129   0.321   3.094 -0.0352  0.0961  0.0005
 2963SOL    HW120348   2.200   0.302   3.033  0.5902  0.6451  0.5630
 2963SOL    HW220349   2.075   0.246   3.066 -2.4600  1.7834  0.1417
 2964SOL     OW20350   4.137   0.504  13.539 -0.8117 -0.2658 -0.4741
 2964SOL    HW120351   4.123   0.486  13.632 -3.6553 -1.2035 -1.1039
 2964SOL    HW220352   4.200   0.432  13.531  2.5652  2.6499  0.0030
 2965SOL     OW20353   3.579   3.585   3.910  0.1102 -0.2314 -0.3726
 2965SOL    HW120354   3.616   3.533   3.980  1.7915  2.4677  0.7445
 2965SOL    HW220355   3.652   3.646   3.896 -1.9682  1.8620 -2.1103
 2966SOL     OW20356   4.347   2.321  11.442  0.5275 -0.4271 -0.4875
 2966SOL    HW120357   4.282   2.253  11.429  0.4098 -0.4635  0.3057
 2966SOL    HW220358   4.340   2.335  11.536  0.2554 -0.1496 -0.5478
 2967SOL     OW20359   3.381   2.730  11.722  0.5691  0.2715  0.3594
 2967SOL    HW120360   3.352   2.821  11.724  0.0463  0.1110 -0.0620
 2967SOL    HW220361   3.308   2.680  11.687 -0.4964  1.3799  1.0104
 2968SOL     OW20362   4.438   0.746   1.353 -0.2090 -0.7276  0.0561
 2968SOL    HW120363   4.461   0.786   1.437  1.2479 -1.6905  0.1158
 2968SOL    HW220364   4.509   0.690   1.324 -0.7753 -2.4816  2.0265
 2969SOL     OW20365   4.136   2.615   0.530  0.0745  0.1922 -0.0143
 2969SOL    HW120366   4.163   2.609   0.439  3.3604 -2.5420  1.1245
 2969SOL    HW220367   4.064   2.552   0.534  1.7168 -1.7248 -0.9262
 2970SOL     OW20368   0.510   0.240   6.347  0.1318  0.2701 -0.1768
 2970SOL    HW120369   0.557   0.200   6.420 -1.2951 -2.0415 -0.5169
 2970SOL    HW220370   0.577   0.298   6.310  0.4756  1.0336  1.6523
 2971SOL     OW20371   2.831   2.955   3.459  0.2880  0.2448  0.2463
 2971SOL    HW120372   2.926   2.964   3.464  0.2560  1.1228 -0.6003
 2971SOL    HW220373   2.802   2.966   3.549  1.7333 -0.4513  0.7924
 2972SOL     OW20374   2.735   3.874  15.410  0.1408 -0.4772  0.2388
 2972SOL    HW120375   2.799   3.895  15.478  0.3000 -1.5528  0.4102
 2972SOL    HW220376   2.792   3.905  15.340  2.0786 -0.0925  1.9860
 2973SOL     OW20377   1.777   0.542  16.641 -0.8245 -0.4540 -0.4759
 2973SOL    HW120378   1.740   0.589  16.716  0.8913 -0.4626  0.3661
 2973SOL    HW220379   1.708   0.484  16.609 -0.8364 -0.6486 -0.0916
 2974SOL     OW20380   1.089   1.543  11.905 -0.8068  0.4188 -0.3202
 2974SOL    HW120381   1.160   1.483  11.928 -1.2136  0.8675  2.0520
 2974SOL    HW220382   1.019   1.506  11.959  0.4903 -1.5086  0.0267
 2975SOL     OW20383   0.252   0.463   0.757 -0.7185 -0.8645 -0.1519
 2975SOL    HW120384   0.296   0.540   0.720  0.6049 -1.7876 -0.4838
 2975SOL    HW220385   0.308   0.466   0.834  0.0609 -0.8724 -0.7154
 2976SOL     OW20386   2.840   2.375   8.621  0.0334 -0.1756 -0.1379
 2976SOL    HW120387   2.776   2.368   8.692  0.5701  0.6328  0.4347
 2976SOL    HW220388   2.814   2.453   8.571 -1.6733 -0.0606  0.9245
 2977SOL     OW20389   0.518   3.683   2.717 -0.2362  0.5071 -0.2553
 2977SOL    HW120390   0.425   3.683   2.695 -0.6803  3.3752  1.6303
 2977SOL    HW220391   0.514   3.615   2.785 -1.1489 -0.0816 -0.8944
 2978SOL     OW20392   0.154   0.401   3.931  0.7814  0.3510  0.2687
 2978SOL    HW120393   0.165   0.495   3.924 -0.2319  0.5586  1.4798
 2978SOL    HW220394   0.160   0.373   3.840  2.9334  3.4423 -0.5376
 2979SOL     OW20395   1.390   3.113   8.420 -0.3173  0.2657  0.2350
 2979SOL    HW120396   1.317   3.150   8.470 -0.3153 -0.9626  1.1673
 2979SOL    HW220397   1.450   3.111   8.495  0.6176 -0.7914 -0.5304
 2980SOL     OW20398   3.482   0.438  11.535 -0.0171 -0.2656 -0.0110
 2980SOL    HW120399   3.531   0.365  11.571 -1.0233 -1.1113 -0.3643
 2980SOL    HW220400   3.537   0.449  11.457  1.5494  0.8183  1.2357
 2981SOL     OW20401   4.017   3.143   0.643  0.3427 -0.6101  0.5767
 2981SOL    HW120402   4.068   3.130   0.723 -1.1539 -2.9024  1.1370
 2981SOL    HW220403   4.080   3.197   0.595 -0.2368  1.5286  2.2229
 2982SOL     OW20404   4.617   4.527   1.841 -0.2701  0.3674  0.1533
 2982SOL    HW120405   4.587   4.450   1.793 -2.4601  1.1946  0.2094
 2982SOL    HW220406   4.706   4.543   1.809 -0.1577  1.9985  1.2746
 2983SOL     OW20407   1.543   2.266   7.918 -0.6088  0.1455 -0.2597
 2983SOL    HW120408   1.449   2.267   7.902 -0.5619 -0.8225 -0.5850
 2983SOL    HW220409   1.570   2.349   7.879 -2.3792  0.9617  0.2289
 2984SOL     OW20410   1.337   1.378   4.477  0.8038  0.5580 -0.5885
 2984SOL    HW120411   1.392   1.326   4.536 -0.1636 -1.6366 -1.6227
 2984SOL    HW220412   1.395   1.384   4.401 -0.1591  1.0131 -1.2750
 2985SOL     OW20413   2.247   1.404   8.146  0.3327 -0.0455  0.4125
 2985SOL    HW120414   2.276   1.319   8.114 -0.4802  0.2217 -1.0311
 2985SOL    HW220415   2.271   1.404   8.238  1.9680  0.9964 -0.0095
 2986SOL     OW20416   3.566   1.449   1.027 -0.0201 -0.3575  0.5393
 2986SOL    HW120417   3.632   1.499   0.978  0.2846 -0.0158  1.2986
 2986SOL    HW220418   3.538   1.387   0.961  2.5913 -1.8131  0.7932
 2987SOL     OW20419   0.243   4.432   6.912 -0.0174  0.0926  0.8642
 2987SOL    HW120420   0.277   4.521   6.924  0.4348  0.1309 -0.7010
 2987SOL    HW220421   0.245   4.432   6.816  2.3336 -0.6342  0.9046
 2988SOL     OW20422   1.446   0.565   2.242  0.6725 -0.2945 -0.5682
 2988SOL    HW120423   1.508   0.563   2.315 -0.5228 -1.7447  0.4095
 2988SOL    HW220424   1.457   0.659   2.228  0.0062 -0.1398 -0.0523
 2989SOL     OW20425   1.396   0.272   0.329  0.4271 -0.3243 -0.1725
 2989SOL    HW120426   1.323   0.315   0.284  1.2948  0.3622 -0.9265
 2989SOL    HW220427   1.382   0.300   0.419 -0.2236 -0.6588 -0.1638
 2990SOL     OW20428   0.795   4.399   6.071 -0.3002 -0.1452  0.0363
 2990SOL    HW120429   0.872   4.453   6.092  0.4298 -1.8171  1.6264
 2990SOL    HW220430   0.743   4.474   6.041 -2.5102 -1.8632 -0.3881
 2991SOL     OW20431   4.719   1.594   8.484 -0.0280  0.2638  0.0042
 2991SOL    HW120432   4.694   1.571   8.395 -0.0798  1.0296 -0.1815
 2991SOL    HW220433   0.061   1.667   8.477 -0.4327  0.8622  2.7234
 2992SOL     OW20434   1.751   0.654   7.653 -0.2647 -0.3420 -0.3909
 2992SOL    HW120435   1.685   0.586   7.639 -1.2251  0.3374  0.9055
 2992SOL    HW220436   1.687   0.724   7.640  0.6402  0.7086  0.8055
 2993SOL     OW20437   4.448   2.581   4.373 -0.5380 -0.2877  0.7992
 2993SOL    HW120438   4.408   2.592   4.287 -1.7473  0.0045  1.3961
 2993SOL    HW220439   4.531   2.539   4.353  0.1586  1.3684  0.2574
 2994SOL     OW20440   3.787   4.583   8.367 -0.0215  0.0443  0.1306
 2994SOL    HW120441   3.697   4.553   8.384 -0.8403  1.9570 -0.8333
 2994SOL    HW220442   3.827   4.579   8.454 -0.1667  0.7934  0.2387
 2995SOL     OW20443   2.566   3.336   7.512 -0.2016 -0.0141 -0.0727
 2995SOL    HW120444   2.470   3.338   7.512 -0.2000 -0.0551  0.1923
 2995SOL    HW220445   2.580   3.244   7.531  2.0770  0.5416  0.8690
 2996SOL     OW20446   2.718   2.796   1.920 -0.7592  0.0793 -0.1685
 2996SOL    HW120447   2.648   2.861   1.924 -2.2953 -1.5715 -0.4634
 2996SOL    HW220448   2.665   2.719   1.941 -0.7750  0.5698  1.5963
 2997SOL     OW20449   0.265   0.790   2.103  0.1618  0.0464 -0.0005
 2997SOL    HW120450   0.248   0.737   2.025  0.8669 -1.3152  0.7707
 2997SOL    HW220451   0.353   0.765   2.131  0.0777 -0.9961 -0.6319
 2998SOL     OW20452   0.564   1.449   7.482  0.1203  0.0846  0.5077
 2998SOL    HW120453   0.557   1.372   7.539  1.3334 -0.9311 -0.6991
 2998SOL    HW220454   0.491   1.421   7.426  0.0071 -2.3785  1.8786
 2999SOL     OW20455   2.252   0.136  17.265 -0.5015 -0.0363  0.2890
 2999SOL    HW120456   2.317   0.173  17.325  0.2901  1.2247 -1.3404
 2999SOL    HW220457   2.178   0.118  17.322  1.4509 -0.7146  2.5799
 3000SOL     OW20458   1.120   2.643  15.771 -0.0075 -0.4809  0.3521
 3000SOL    HW120459   1.078   2.671  15.690  3.1733  1.8093 -0.5354
 3000SOL    HW220460   1.051   2.667  15.833 -0.0205 -0.4404  0.3222
 3001SOL     OW20461   0.165   0.033   2.543  0.0385  0.4287 -0.4445
 3001SOL    HW120462   0.090   0.068   2.590  0.0402 -1.9242  1.2883
 3001SOL    HW220463   0.147   0.069   2.456 -0.5639  0.6484 -0.2250
 3002SOL     OW20464   3.870   2.184  11.298 -0.1105 -0.0552  0.2961
 3002SOL    HW120465   3.842   2.135  11.376  0.6760  0.8852  1.1645
 3002SOL    HW220466   3.788   2.234  11.291 -0.1047  0.2396  2.2442
 3003SOL     OW20467   2.425   3.789   1.010  0.1550 -0.0154  0.0429
 3003SOL    HW120468   2.440   3.777   1.104 -3.2936 -1.1620  0.4723
 3003SOL    HW220469   2.378   3.872   1.002  2.3394  1.3836  1.7935
 3004SOL     OW20470   0.799   0.451  15.214  0.5187  0.3669 -0.0285
 3004SOL    HW120471   0.812   0.538  15.250 -0.2521  0.5165 -0.1040
 3004SOL    HW220472   0.704   0.456  15.204  0.4368 -1.2786 -0.2097
 3005SOL     OW20473   2.493   0.005   6.520  0.1117 -0.6967  0.5675
 3005SOL    HW120474   2.509   0.025   6.428  1.9240  0.1278  1.0709
 3005SOL    HW220475   2.407   4.682   6.510 -0.5292  1.2685 -2.1739
 3006SOL     OW20476   3.455   3.134   5.193  0.0641 -0.1679  0.6469
 3006SOL    HW120477   3.541   3.154   5.229  0.7463 -1.6088 -0.1863
 3006SOL    HW220478   3.433   3.211   5.140  0.4932 -0.1401  0.5085
 3007SOL     OW20479   4.509   1.168   6.072 -0.0999 -0.1468 -0.3775
 3007SOL    HW120480   4.603   1.153   6.077  0.5017  3.0120 -1.6136
 3007SOL    HW220481   4.476   1.137   6.156 -1.7112  0.4105 -0.8073
 3008SOL     OW20482   4.017   1.302   3.979 -0.3771 -0.0652  0.4253
 3008SOL    HW120483   4.061   1.374   3.933  1.6156 -2.2424 -1.0824
 3008SOL    HW220484   3.995   1.343   4.063 -3.8426 -0.3400 -0.3220
 3009SOL     OW20485   3.718   2.622   5.033  0.3961 -0.2748 -0.1327
 3009SOL    HW120486   3.812   2.608   5.035  0.3546 -0.4773  0.3163
 3009SOL    HW220487   3.711   2.694   5.095  0.0720 -0.9889  0.6615
 3010SOL     OW20488   3.770   0.602   0.329  0.0846 -0.5926 -0.1238
 3010SOL    HW120489   3.748   0.577   0.239 -1.4436  1.1952 -0.2697
 3010SOL    HW220490   3.865   0.597   0.321  0.1392  0.6346 -0.3020
 3011SOL     OW20491   3.181   0.969  16.056  0.6236  0.0518  0.1976
 3011SOL    HW120492   3.098   0.925  16.034  1.4291 -1.3659 -0.0392
 3011SOL    HW220493   3.186   1.046  16.000  2.0565 -0.4313 -0.3407
 3012SOL     OW20494   1.770   2.908   4.070 -0.0560 -0.3455 -0.1751
 3012SOL    HW120495   1.835   2.874   4.131 -2.4363 -0.8821  2.0675
 3012SOL    HW220496   1.799   2.869   3.987  3.0426 -1.4946  1.4327
 3013SOL     OW20497   4.359   2.726  11.267  0.0124 -0.7852  0.5355
 3013SOL    HW120498   4.313   2.642  11.270  0.0813 -0.8464 -0.2046
 3013SOL    HW220499   4.427   2.700  11.205 -1.8026 -2.4946 -0.7379
 3014SOL     OW20500   4.329   0.368   7.633 -0.8903 -0.1098 -0.1866
 3014SOL    HW120501   4.420   0.385   7.612 -0.9809  0.0804 -0.4297
 3014SOL    HW220502   4.298   0.316   7.559  0.7160 -2.8848  1.1067
 3015SOL     OW20503   4.608   1.665   4.531  0.3589  0.0080 -0.2490
 3015SOL    HW120504   4.674   1.598   4.549 -1.3700 -1.8572 -0.8410
 3015SOL    HW220505   4.612   1.675   4.436 -0.6720  1.5481 -0.1281
 3016SOL     OW20506   1.762   0.927   6.907  0.5425 -0.1184 -0.4583
 3016SOL    HW120507   1.768   0.847   6.854 -0.1082  0.1607 -0.9480
 3016SOL    HW220508   1.796   0.905   6.993 -0.1644 -0.2063 -0.2035
 3017SOL     OW20509   3.825   3.326   5.017  0.8131 -0.8769  0.1758
 3017SOL    HW120510   3.917   3.345   4.995  0.4358 -0.7351 -1.2741
 3017SOL    HW220511   3.816   3.356   5.107 -0.4859  1.4675 -0.7451
 3018SOL     OW20512   0.121   2.305   7.513 -0.5342  0.1673 -0.0155
 3018SOL    HW120513   0.045   2.260   7.550 -2.0142  1.5578 -1.3758
 3018SOL    HW220514   0.144   2.250   7.438 -0.5024  1.2714 -0.8130
 3019SOL     OW20515   2.796   3.341   4.339 -0.1999  0.2852 -0.3151
 3019SOL    HW120516   2.856   3.289   4.285 -2.9660 -0.5847 -2.5107
 3019SOL    HW220517   2.720   3.288   4.364 -1.5960  2.1401 -0.6753
 3020SOL     OW20518   2.333   2.506   2.238  0.1647  0.1180 -0.4745
 3020SOL    HW120519   2.304   2.491   2.148 -0.4996  0.5348 -0.3361
 3020SOL    HW220520   2.282   2.436   2.277  0.5556  0.7176  1.1003
 3021SOL     OW20521   2.487   1.411   5.078  1.0619 -0.1189  0.0705
 3021SOL    HW120522   2.558   1.352   5.054 -0.4178 -0.8588 -2.4772
 3021SOL    HW220523   2.434   1.362   5.140  0.0425  0.4823 -0.3336
 3022SOL     OW20524   0.824   2.463  16.679 -0.0072  0.5586 -0.2700
 3022SOL    HW120525   0.801   2.457  16.771  3.0511  0.5224  0.4825
 3022SOL    HW220526   0.742   2.428  16.644  0.1043 -0.2130  0.2512
 3023SOL     OW20527   4.365   0.057   5.339 -0.0101 -0.1970  0.3437
 3023SOL    HW120528   4.334   4.688   5.363 -3.1778  0.1868 -2.4266
 3023SOL    HW220529   4.301   0.082   5.272  0.5820 -1.0466 -0.5430
 3024SOL     OW20530   3.715   3.894   7.460 -0.3965 -0.3062  0.3078
 3024SOL    HW120531   3.645   3.889   7.395  0.7502 -2.3734 -0.7806
 3024SOL    HW220532   3.676   3.834   7.522  0.2569 -1.0901 -0.0419
 3025SOL     OW20533   1.476   0.674   2.548 -0.1237  0.2750  0.3670
 3025SOL    HW120534   1.406   0.609   2.552 -0.2949  0.6028  3.2365
 3025SOL    HW220535   1.432   0.755   2.519  1.1366  1.5951  2.1452
 3026SOL     OW20536   0.012   0.145   2.722  0.2323  0.0528 -0.0206
 3026SOL    HW120537   0.082   0.183   2.775 -1.6214 -0.0301  2.5342
 3026SOL    HW220538   4.699   0.085   2.791 -2.2831 -2.1238 -3.0858
 3027SOL     OW20539   1.292   4.700   2.108  0.4858  0.2410  0.0916
 3027SOL    HW120540   1.245   0.056   2.144  0.5536 -0.4593  1.6201
 3027SOL    HW220541   1.221   4.640   2.086 -0.8954  1.3667  1.4756
 3028SOL     OW20542   4.059   0.375   5.929  0.0370 -0.9161  0.3501
 3028SOL    HW120543   4.055   0.307   5.996 -1.2980 -0.8379  0.3502
 3028SOL    HW220544   3.997   0.329   5.871  0.3924  1.1562 -1.6677
 3029SOL     OW20545   0.472   0.563   3.688 -0.4874 -0.8302  0.2768
 3029SOL    HW120546   0.493   0.656   3.677 -0.2938 -1.0459 -1.1667
 3029SOL    HW220547   0.560   0.529   3.706  0.2061  0.3311 -0.9345
 3030SOL     OW20548   3.870   4.427   2.130 -0.2200  0.5241  1.0455
 3030SOL    HW120549   3.796   4.423   2.190 -1.3258 -1.0395 -0.4378
 3030SOL    HW220550   3.894   4.335   2.121 -2.4047  0.1287 -0.6528
 3031SOL     OW20551   1.459   0.338   2.855 -0.1426  0.0179 -0.0171
 3031SOL    HW120552   1.372   0.313   2.822 -0.0228  0.9702 -1.0462
 3031SOL    HW220553   1.520   0.273   2.820 -1.2739 -1.3695  0.5792
 3032SOL     OW20554   4.160   4.361   9.938  0.2643  0.0895 -0.0292
 3032SOL    HW120555   4.075   4.377   9.897  0.9094 -0.2540 -1.5263
 3032SOL    HW220556   4.130   4.355  10.029  0.4198 -0.8231 -0.0423
 3033SOL     OW20557   3.776   2.247   0.491  0.3890 -0.0081 -0.2171
 3033SOL    HW120558   3.717   2.273   0.420 -0.4651  0.4739  0.6760
 3033SOL    HW220559   3.850   2.306   0.475  0.2225  0.2057 -0.1898
 3034SOL     OW20560   2.489   2.227   8.051  0.5322 -0.0320  0.2874
 3034SOL    HW120561   2.489   2.188   7.963  1.2410 -1.5071  0.9329
 3034SOL    HW220562   2.446   2.311   8.037  0.1259 -0.2870  0.0138
 3035SOL     OW20563   2.459   2.833  17.544 -0.2615 -0.4299 -0.1552
 3035SOL    HW120564   2.421   2.780  17.473  1.4596  0.0260 -1.4043
 3035SOL    HW220565   2.546   2.799  17.563  0.3296 -0.3018 -2.6325
 3036SOL     OW20566   2.155   4.266   2.605 -0.0435 -0.1277 -0.1631
 3036SOL    HW120567   2.107   4.270   2.687 -1.7654 -1.0432 -1.1194
 3036SOL    HW220568   2.092   4.207   2.563  0.6393 -0.1058 -1.2325
 3037SOL     OW20569   3.560   0.517   6.533 -0.3767 -0.3601  0.3248
 3037SOL    HW120570   3.597   0.494   6.619  0.7192 -1.1330 -0.3642
 3037SOL    HW220571   3.604   0.600   6.519 -0.4824 -0.3426  0.1061
 3038SOL     OW20572   2.457   4.096   4.653 -0.7454  0.2358 -0.5500
 3038SOL    HW120573   2.407   4.172   4.683  2.2623  0.4886  3.7020
 3038SOL    HW220574   2.508   4.094   4.733 -2.8978 -0.9487  0.8075
 3039SOL     OW20575   4.430   0.867   7.044 -0.1119  0.0890 -0.2903
 3039SOL    HW120576   4.419   0.796   6.981  0.2719 -2.2839  2.3288
 3039SOL    HW220577   4.360   0.927   7.018 -0.8196 -0.3337  0.6622
 3040SOL     OW20578   0.666   3.546  12.906  0.4542 -0.1593  0.0216
 3040SOL    HW120579   0.668   3.564  13.000  0.3615 -0.2330  0.0385
 3040SOL    HW220580   0.705   3.621  12.861  1.5199 -0.5332  0.3368
 3041SOL     OW20581   0.253   1.075  15.739 -0.2994 -0.4270  0.0306
 3041SOL    HW120582   0.167   1.051  15.704 -0.2904  1.5916 -1.3672
 3041SOL    HW220583   0.302   0.999  15.708  0.1985 -0.2431  0.3625
 3042SOL     OW20584   0.484   1.978   2.520 -0.2794  0.0082 -0.2017
 3042SOL    HW120585   0.435   2.055   2.550 -0.2280 -0.2905  0.6290
 3042SOL    HW220586   0.460   1.974   2.427  0.6117  0.3328 -0.4508
 3043SOL     OW20587   1.738   0.059   8.553  0.2645  0.1193  0.5415
 3043SOL    HW120588   1.709   0.150   8.563 -1.8142 -0.5306  0.3873
 3043SOL    HW220589   1.687   0.009   8.616  0.6934 -1.3581 -0.2946
 3044SOL     OW20590   0.497   2.153   6.499  0.2659  0.0177 -0.4245
 3044SOL    HW120591   0.520   2.241   6.470  1.0193  0.3744  1.2447
 3044SOL    HW220592   0.407   2.144   6.466 -1.0125  0.3622  2.9262
 3045SOL     OW20593   4.532   2.039   1.499  0.2960  0.2162  0.0212
 3045SOL    HW120594   4.572   2.114   1.544  0.1111  0.0876  0.4042
 3045SOL    HW220595   4.447   2.078   1.479  0.8304  1.5298  0.3155
 3046SOL     OW20596   0.427   3.586   3.863 -0.1458  0.3603 -0.4113
 3046SOL    HW120597   0.456   3.495   3.873  1.3732  0.7820 -0.9678
 3046SOL    HW220598   0.462   3.612   3.778  0.2224  1.6557  0.1357
 3047SOL     OW20599   1.930   3.038   5.577  0.0316  0.0216  0.5056
 3047SOL    HW120600   1.889   3.104   5.634 -2.2899 -0.6817 -0.3448
 3047SOL    HW220601   1.849   2.989   5.564  0.6797 -0.7731 -0.5259
 3048SOL     OW20602   0.497   0.364  16.670  0.5556  0.0199 -0.4560
 3048SOL    HW120603   0.578   0.331  16.709  0.5458  0.2998 -0.1927
 3048SOL    HW220604   0.531   0.367  16.581 -0.6161 -1.1076 -0.9451
 3049SOL     OW20605   2.148   0.352   8.974  0.8042  0.1544 -0.0886
 3049SOL    HW120606   2.084   0.317   9.035  1.4669  1.2281  1.2258
 3049SOL    HW220607   2.216   0.285   8.982  2.1621  1.3599 -1.4698
 3050SOL     OW20608   4.359   2.180   8.965  0.7161  0.0391  1.2295
 3050SOL    HW120609   4.359   2.160   9.058 -1.2223 -2.3711  0.7097
 3050SOL    HW220610   4.311   2.106   8.927  2.6195 -0.7267  0.2960
 3051SOL     OW20611   0.002   1.012   8.714 -0.6369 -0.0135  0.3012
 3051SOL    HW120612   4.641   1.028   8.663  0.6543 -0.1803 -1.7947
 3051SOL    HW220613   0.066   1.034   8.646 -0.5208 -0.3768  0.2945
 3052SOL     OW20614   0.523   2.272  10.388  0.8042  0.6793 -0.0419
 3052SOL    HW120615   0.463   2.332  10.433  1.8685  1.5344  0.2267
 3052SOL    HW220616   0.600   2.290  10.441 -0.7214  0.7029  2.1467
 3053SOL     OW20617   3.251   1.598  14.129 -0.6076  0.2244 -0.4429
 3053SOL    HW120618   3.313   1.667  14.107  2.3454 -2.7652 -1.5244
 3053SOL    HW220619   3.187   1.604  14.058 -1.6308 -2.4896  0.2470
 3054SOL     OW20620   3.780   2.028   3.787 -0.2381  0.3895 -0.1212
 3054SOL    HW120621   3.749   2.033   3.696 -2.2643  0.2225  0.5464
 3054SOL    HW220622   3.780   1.933   3.801 -2.2958  0.5875  1.2321
 3055SOL     OW20623   4.193   3.232   2.430 -0.2284 -0.0913 -0.4359
 3055SOL    HW120624   4.155   3.320   2.437  0.1085 -0.1044  1.3888
 3055SOL    HW220625   4.196   3.203   2.521 -0.8942  1.3914  0.0501
 3056SOL     OW20626   3.212   0.875   4.426  0.8226 -0.1900  0.0029
 3056SOL    HW120627   3.206   0.970   4.426  1.4193 -0.1523 -0.2851
 3056SOL    HW220628   3.136   0.857   4.371  1.8907 -1.0087 -1.1829
 3057SOL     OW20629   1.573   2.171   6.967  0.2096  0.3297  0.4447
 3057SOL    HW120630   1.605   2.106   7.030 -1.3163 -1.8772 -1.0625
 3057SOL    HW220631   1.589   2.115   6.891  0.5043  1.2157 -0.1402
 3058SOL     OW20632   1.759   0.324   6.542  0.0022  0.2660  0.0251
 3058SOL    HW120633   1.686   0.298   6.484 -0.4403 -5.5131  3.1791
 3058SOL    HW220634   1.724   0.269   6.612 -0.0780 -0.3021 -0.4535
 3059SOL     OW20635   0.841   1.701   4.704  0.3879  0.2226 -0.0112
 3059SOL    HW120636   0.936   1.709   4.700  0.2284  2.1905  0.2284
 3059SOL    HW220637   0.822   1.612   4.673  2.2740 -0.3042  0.3290
 3060SOL     OW20638   2.993   2.998   9.487 -0.0555  0.2717 -0.0367
 3060SOL    HW120639   2.950   3.027   9.568  0.3738  2.5809 -0.6390
 3060SOL    HW220640   2.991   3.085   9.446  0.1346  0.6585  0.7583
 3061SOL     OW20641   1.748   3.885   7.887 -0.2693 -0.7373  0.3875
 3061SOL    HW120642   1.747   3.975   7.919 -0.5186 -0.8483  0.6997
 3061SOL    HW220643   1.665   3.876   7.839  1.8079 -3.6071 -2.6607
 3062SOL     OW20644   3.166   2.557   3.164 -0.1544 -0.5439  0.2664
 3062SOL    HW120645   3.218   2.638   3.168  0.8660 -1.1621 -0.4664
 3062SOL    HW220646   3.217   2.506   3.101  0.9334  0.3800  0.3939
 3063SOL     OW20647   0.107   1.733   8.179 -0.2030  0.4665 -0.6137
 3063SOL    HW120648   0.131   1.770   8.264 -2.2442 -0.6248  0.4380
 3063SOL    HW220649   0.045   1.663   8.199 -0.2380  0.4523 -0.7718
 3064SOL     OW20650   0.140   2.007   7.794  0.4527  0.0913 -0.2973
 3064SOL    HW120651   0.184   1.927   7.765  1.6775  0.3033  1.0502
 3064SOL    HW220652   0.194   2.068   7.744  2.3622 -0.8078  0.6919
 3065SOL     OW20653   1.337   3.110   5.830  0.1549 -0.1883  0.2672
 3065SOL    HW120654   1.403   3.127   5.763  1.3694  1.4379  1.8713
 3065SOL    HW220655   1.300   3.199   5.836 -0.3288 -0.5025  2.1778
 3066SOL     OW20656   0.601   1.680  16.170  0.4127  0.2149 -0.2791
 3066SOL    HW120657   0.673   1.715  16.117 -1.5047  1.4419 -2.1061
 3066SOL    HW220658   0.534   1.748  16.165  0.1849 -0.0839 -1.4103
 3067SOL     OW20659   2.719   1.165   8.792  0.1404  0.5608  0.1571
 3067SOL    HW120660   2.747   1.147   8.881 -0.4957  1.3149  0.5039
 3067SOL    HW220661   2.748   1.089   8.740 -1.0045  1.6762 -2.1229
 3068SOL     OW20662   1.930   4.632  12.804  0.2049  0.6731 -0.0246
 3068SOL    HW120663   1.963   4.666  12.887 -1.3541  3.9921 -0.7570
 3068SOL    HW220664   1.995   4.566  12.778 -0.4338 -0.6904  1.8378
 3069SOL     OW20665   2.697   3.642   0.646  0.6292  0.3948 -0.0158
 3069SOL    HW120666   2.606   3.660   0.671  0.2891  1.3315 -1.8616
 3069SOL    HW220667   2.707   3.691   0.564 -2.3646  2.9610  1.1167
 3070SOL     OW20668   0.435   1.125   0.665 -0.5136 -0.3646 -0.0035
 3070SOL    HW120669   0.469   1.214   0.676 -0.8604  0.1049 -2.6589
 3070SOL    HW220670   0.450   1.113   0.571 -0.6809  0.7944 -0.1792
 3071SOL     OW20671   1.419   4.658   0.330 -0.0364  0.5458  0.4205
 3071SOL    HW120672   1.490   4.669   0.394 -0.4832 -0.8332  1.1575
 3071SOL    HW220673   1.398   0.029   0.304 -0.3178  0.1573 -0.7017
 3072SOL     OW20674   2.268   2.670   5.330  0.4241  0.5834  0.1435
 3072SOL    HW120675   2.181   2.706   5.349  0.5950  0.6442  0.7957
 3072SOL    HW220676   2.312   2.749   5.297  0.0252  1.7370  2.4163
 3073SOL     OW20677   2.937   3.795   6.621 -0.1493  0.7851  0.2769
 3073SOL    HW120678   2.912   3.786   6.529  1.0324  0.8815 -0.0576
 3073SOL    HW220679   2.865   3.835   6.669 -1.5551 -0.0267 -1.1617
 3074SOL     OW20680   1.036   0.945   5.017  0.3382  0.0011  0.2294
 3074SOL    HW120681   1.118   0.939   4.968  0.6084 -0.8830  0.8067
 3074SOL    HW220682   0.982   0.877   4.980 -1.0283  0.8993  0.5720
 3075SOL     OW20683   1.225   4.377  14.148 -0.0070  0.6533 -0.3222
 3075SOL    HW120684   1.151   4.329  14.185  1.0743 -0.0066  1.0176
 3075SOL    HW220685   1.232   4.445  14.214  0.3417  1.5951 -1.3360
 3076SOL     OW20686   2.900   1.475   0.752  0.2809 -0.2497  0.4738
 3076SOL    HW120687   2.960   1.546   0.775  1.0250 -0.2009 -1.6439
 3076SOL    HW220688   2.871   1.464   0.843  2.0793 -1.6517  0.8614
 3077SOL     OW20689   3.552   0.862   3.569  0.0842 -0.9057  0.0696
 3077SOL    HW120690   3.599   0.877   3.487  0.9897 -0.3052  0.6965
 3077SOL    HW220691   3.588   0.775   3.585  3.2062  0.3498 -0.2094
 3078SOL     OW20692   3.367   0.206   6.621 -0.0687  0.1702 -0.5489
 3078SOL    HW120693   3.452   0.175   6.592  0.4486 -1.5712  2.7493
 3078SOL    HW220694   3.372   0.187   6.715  0.6930  0.6556 -0.4931
 3079SOL     OW20695   1.822   2.668   5.694 -0.0593 -0.2653  0.1500
 3079SOL    HW120696   1.880   2.650   5.768  0.9714  0.2148 -0.5564
 3079SOL    HW220697   1.763   2.592   5.696  0.2547 -0.5354 -0.8019
 3080SOL     OW20698   0.194   1.981   1.801  0.8524  0.4244  0.3358
 3080SOL    HW120699   0.153   2.066   1.813 -0.8894 -0.3798  0.0971
 3080SOL    HW220700   0.136   1.923   1.851  2.6213 -0.6627  1.1350
 3081SOL     OW20701   4.139   2.546   4.358 -1.2426  0.2489 -1.2518
 3081SOL    HW120702   4.166   2.614   4.419 -1.5953 -1.2178  0.5415
 3081SOL    HW220703   4.208   2.552   4.292 -0.5412 -0.2985 -0.5697
 3082SOL     OW20704   1.109   0.123   7.162 -0.4903  0.0714  0.8858
 3082SOL    HW120705   1.200   0.122   7.193 -0.4821  0.1429  0.8639
 3082SOL    HW220706   1.058   0.073   7.226  1.4295 -0.3988  2.0654
 3083SOL     OW20707   3.997   4.477   5.433 -0.1133 -0.5631 -0.1106
 3083SOL    HW120708   3.965   4.561   5.401  1.3268  1.1320  2.8437
 3083SOL    HW220709   3.931   4.409   5.428 -0.8802  0.1822 -0.0882
 3084SOL     OW20710   1.909   4.701  12.142  0.0378 -0.3177 -0.0783
 3084SOL    HW120711   1.957   4.714  12.060 -1.1903 -0.1904 -0.7847
 3084SOL    HW220712   1.966   4.636  12.182 -0.0118 -0.5934 -0.4581
 3085SOL     OW20713   3.229   1.106   8.669  0.0583 -0.0917  0.6641
 3085SOL    HW120714   3.251   1.197   8.690  0.2175 -0.1764  0.8598
 3085SOL    HW220715   3.320   1.087   8.648  0.1961  0.2398  0.9667
 3086SOL     OW20716   1.713   1.737   9.157 -0.0531  0.1563  0.1891
 3086SOL    HW120717   1.723   1.745   9.252 -0.4978  1.5432  0.1227
 3086SOL    HW220718   1.763   1.657   9.142 -0.5089  0.0718 -0.8587
 3087SOL     OW20719   2.293   0.476  11.036 -0.0616  0.3746  0.4414
 3087SOL    HW120720   2.331   0.526  10.964 -1.1701  2.6875  1.4266
 3087SOL    HW220721   2.203   0.463  11.007 -0.3582  3.0683  0.1427
 3088SOL     OW20722   0.777   3.030   1.837  0.4409 -0.3875 -0.0304
 3088SOL    HW120723   0.731   2.964   1.785 -0.1163 -0.5889  0.7113
 3088SOL    HW220724   0.849   3.043   1.776  2.0753  1.2152  2.2483
 3089SOL     OW20725   0.447   2.912   3.633  0.0347  0.0464 -0.5218
 3089SOL    HW120726   0.414   2.967   3.563 -0.7419  1.1727  0.7405
 3089SOL    HW220727   0.484   2.971   3.699 -0.0233  2.8820 -3.0625
 3090SOL     OW20728   3.679   3.812  12.994 -0.3341  0.0797  0.5702
 3090SOL    HW120729   3.660   3.759  12.917  0.2265 -1.7376  1.6811
 3090SOL    HW220730   3.597   3.798  13.041 -0.6082 -1.8236 -0.4533
 3091SOL     OW20731   1.956   1.939   8.626 -0.0141  0.7078 -0.0339
 3091SOL    HW120732   1.868   1.914   8.599 -0.0167 -0.4708  1.0541
 3091SOL    HW220733   1.937   1.945   8.720 -1.0913 -2.3101 -0.0539
 3092SOL     OW20734   2.343   3.762  10.342 -0.3610  0.0091  0.5494
 3092SOL    HW120735   2.385   3.719  10.416 -1.0997 -1.2080  0.2734
 3092SOL    HW220736   2.267   3.707  10.320 -0.1863 -0.3278  0.7933
 3093SOL     OW20737   1.543   1.285   4.679  0.2150 -0.2897 -0.2107
 3093SOL    HW120738   1.497   1.297   4.762 -0.5487 -2.1968 -0.3622
 3093SOL    HW220739   1.627   1.319   4.709 -0.3710 -0.0966  1.2444
 3094SOL     OW20740   1.491   3.289  15.644  0.5443  0.2394 -0.5311
 3094SOL    HW120741   1.522   3.278  15.554 -1.6448 -0.5796 -1.1754
 3094SOL    HW220742   1.512   3.198  15.667 -0.9176  0.4718  1.6806
 3095SOL     OW20743   4.034   0.913   4.667  0.0900 -0.3114  0.1552
 3095SOL    HW120744   4.022   0.853   4.594 -0.8131  0.7477 -0.5625
 3095SOL    HW220745   4.127   0.936   4.659  0.4990 -1.8108  0.6030
 3096SOL     OW20746   2.118   4.079   8.466 -0.4872  0.4544  0.0952
 3096SOL    HW120747   2.111   4.127   8.548 -1.3352 -0.1124  0.3581
 3096SOL    HW220748   2.213   4.074   8.456 -0.4161  1.4732  0.2014
 3097SOL     OW20749   2.976   3.219   1.182  0.3364  0.1128  0.2720
 3097SOL    HW120750   2.989   3.125   1.170 -2.4726 -0.1419 -0.6112
 3097SOL    HW220751   2.916   3.224   1.257 -1.5414  0.5384 -1.2762
 3098SOL     OW20752   1.204   3.869   7.728 -0.2069  0.5232 -0.0559
 3098SOL    HW120753   1.114   3.846   7.707 -0.7534 -0.1680  2.9709
 3098SOL    HW220754   1.209   3.877   7.824 -1.8956  1.0436 -0.0071
 3099SOL     OW20755   0.220   3.977  10.319  0.3599  0.0877  0.0204
 3099SOL    HW120756   0.219   3.896  10.267  2.5476  0.2714 -0.3011
 3099SOL    HW220757   0.238   4.041  10.250 -0.1735 -1.2244 -1.3404
 3100SOL     OW20758   3.448   0.018   7.519  0.4550 -1.0774  0.0113
 3100SOL    HW120759   3.416   0.009   7.608  0.2194 -0.5802 -0.0251
 3100SOL    HW220760   3.363   0.004   7.476  1.4183 -2.2346 -1.5109
 3101SOL     OW20761   3.765   4.130   4.192 -0.0433 -0.1197  1.1230
 3101SOL    HW120762   3.857   4.145   4.168  0.2209 -0.4691  1.9046
 3101SOL    HW220763   3.753   4.207   4.247  3.0206  0.6650  0.7386
 3102SOL     OW20764   4.282   1.480   1.241 -0.2997  0.3814  0.4651
 3102SOL    HW120765   4.295   1.486   1.146  0.9191 -1.3771  0.5060
 3102SOL    HW220766   4.249   1.568   1.255 -0.9150 -0.3025  3.2302
 3103SOL     OW20767   4.274   1.215  11.450  0.3548 -0.2716  0.0394
 3103SOL    HW120768   4.290   1.245  11.539  0.6318  0.8237 -0.3750
 3103SOL    HW220769   4.248   1.124  11.460  1.1826 -0.6604 -1.3796
 3104SOL     OW20770   0.209   3.189   4.116 -0.1879 -0.7055  0.1241
 3104SOL    HW120771   0.272   3.195   4.044  1.2095  0.8336  1.4856
 3104SOL    HW220772   0.165   3.274   4.110 -0.7863 -1.0869 -0.8670
 3105SOL     OW20773   1.906   3.492   7.106  0.3582  0.1343  0.4068
 3105SOL    HW120774   1.904   3.584   7.134  0.6430  0.9669 -2.3464
 3105SOL    HW220775   1.944   3.483   7.019 -1.6466 -2.5326 -0.1918
 3106SOL     OW20776   0.668   3.810   0.606 -0.0557 -0.4490 -0.4078
 3106SOL    HW120777   0.694   3.760   0.529 -2.3096 -0.0609 -1.4162
 3106SOL    HW220778   0.731   3.770   0.667  1.6913  1.7810 -0.7716
 3107SOL     OW20779   1.973   2.376   5.293 -0.1659  0.0145  0.0576
 3107SOL    HW120780   1.885   2.344   5.314  0.1563 -1.1804 -0.4030
 3107SOL    HW220781   1.981   2.448   5.355  2.9560  0.1329 -0.4856
 3108SOL     OW20782   3.006   0.358   3.426  0.1893 -0.0312  0.1621
 3108SOL    HW120783   2.911   0.364   3.415  0.3323  0.1003 -1.0642
 3108SOL    HW220784   3.034   0.412   3.352 -0.5371  1.7950  1.2301
 3109SOL     OW20785   3.040   1.046   4.698  0.5123  0.1924 -0.2226
 3109SOL    HW120786   2.991   0.979   4.651  1.5940  1.9736 -3.9944
 3109SOL    HW220787   3.010   1.127   4.657 -1.3449 -1.5616 -2.3378
 3110SOL     OW20788   1.825   3.927   4.408  0.2041  0.5885  0.6857
 3110SOL    HW120789   1.753   3.970   4.454 -0.5381  2.7608 -2.5136
 3110SOL    HW220790   1.768   3.888   4.343  0.3224  1.0627  0.2965
 3111SOL     OW20791   4.715   4.421   7.188  0.0148 -0.3828 -0.3624
 3111SOL    HW120792   0.020   4.336   7.150 -0.0573 -0.9935  0.9170
 3111SOL    HW220793   0.077   4.472   7.196  0.3145 -0.6339 -1.7484
 3112SOL     OW20794   0.154   4.564  15.023 -0.1503 -0.1843 -0.0249
 3112SOL    HW120795   0.152   4.474  15.057 -1.8870 -0.4211 -0.7463
 3112SOL    HW220796   0.059   4.567  15.009  0.0017  2.1286 -0.4951
 3113SOL     OW20797   2.410   3.314   8.976  0.1034 -0.5879 -0.2630
 3113SOL    HW120798   2.481   3.251   8.982  1.5538  1.1079  0.4675
 3113SOL    HW220799   2.434   3.372   8.903  1.4505  0.1453  0.7807
 3114SOL     OW20800   2.812   0.970  15.693 -0.3820  0.2452  0.2718
 3114SOL    HW120801   2.764   0.991  15.613 -1.8632  0.3050  1.1890
 3114SOL    HW220802   2.886   0.918  15.661 -1.5866 -1.8283  0.8126
 3115SOL     OW20803   4.483   3.363   9.099  0.1045  0.8033  0.0877
 3115SOL    HW120804   4.431   3.294   9.140 -0.7099  0.9582 -0.6959
 3115SOL    HW220805   4.545   3.310   9.048 -0.6010 -0.9115  1.0091
 3116SOL     OW20806   2.965   0.025   3.955  0.0296  0.1738 -0.3134
 3116SOL    HW120807   3.032   4.700   3.902  0.3842  2.0390 -1.4214
 3116SOL    HW220808   2.966   4.695   4.037 -3.4871 -0.5988 -0.7352
 3117SOL     OW20809   0.302   1.475   3.168  0.0286 -0.4047  0.4319
 3117SOL    HW120810   0.237   1.476   3.239 -1.0457 -0.1285 -0.5430
 3117SOL    HW220811   0.253   1.527   3.103 -0.0930 -2.9920 -1.5569
 3118SOL     OW20812   2.225   4.518  16.051  0.2598 -0.0014 -0.1469
 3118SOL    HW120813   2.229   4.497  16.144  0.8943  1.2406  0.1145
 3118SOL    HW220814   2.314   4.554  16.045  0.9084 -1.7959 -1.0148
 3119SOL     OW20815   2.586   1.682   0.224 -0.0980  0.1732  0.0686
 3119SOL    HW120816   2.615   1.772   0.232 -0.1588  0.1303  0.7731
 3119SOL    HW220817   2.495   1.680   0.253 -0.0409  0.6743  0.2698
 3120SOL     OW20818   4.628   1.208   7.457  0.1824  0.0940  0.3766
 3120SOL    HW120819   4.553   1.155   7.483 -0.3395  0.9201  0.5379
 3120SOL    HW220820   4.634   1.262   7.535  0.4402  1.0590 -0.3129
 3121SOL     OW20821   4.642   0.551   1.876  0.1496  0.2968 -0.0920
 3121SOL    HW120822   4.614   0.539   1.785 -0.9694  1.7369  0.0544
 3121SOL    HW220823   4.562   0.576   1.921  1.1535  0.5196  1.5696
 3122SOL     OW20824   3.775   0.233   8.630  0.8156 -0.2515  0.0774
 3122SOL    HW120825   3.749   0.212   8.720 -2.5280 -3.9491 -1.7574
 3122SOL    HW220826   3.868   0.208   8.633  0.2053 -2.4494  0.7301
 3123SOL     OW20827   1.721   2.066  16.928 -0.3251  0.7198  0.7332
 3123SOL    HW120828   1.667   2.095  16.854  1.0364 -0.2066 -0.6141
 3123SOL    HW220829   1.730   1.974  16.902  0.3219  1.0879 -0.3317
 3124SOL     OW20830   0.785   2.358   7.409 -0.2937 -0.0882 -0.2327
 3124SOL    HW120831   0.706   2.325   7.366  0.1954 -0.7360 -0.6250
 3124SOL    HW220832   0.757   2.446   7.435  0.6650  0.6903 -1.8260
 3125SOL     OW20833   2.437   3.474   0.562  0.5184 -0.0888 -0.2105
 3125SOL    HW120834   2.414   3.531   0.636 -0.2032  2.6411 -2.5364
 3125SOL    HW220835   2.382   3.399   0.586 -0.1203 -1.0882 -4.7179
 3126SOL     OW20836   4.555   1.992   6.062 -0.1752  0.2920  0.2063
 3126SOL    HW120837   4.586   2.010   5.973  2.8579 -2.1439  0.7422
 3126SOL    HW220838   4.482   2.053   6.060 -0.6149 -0.2348  0.0530
 3127SOL     OW20839   4.279   2.719  10.271 -0.0257 -0.1385 -0.0840
 3127SOL    HW120840   4.231   2.662  10.331 -0.1147 -1.1626 -1.1194
 3127SOL    HW220841   4.310   2.654  10.208 -1.0337 -0.2318 -0.4845
 3128SOL     OW20842   2.661   0.257  11.663 -0.2328 -0.5306 -0.0247
 3128SOL    HW120843   2.596   0.322  11.688 -0.5587 -0.4565 -1.0870
 3128SOL    HW220844   2.627   0.245  11.574 -0.4875 -2.4417  0.3154
 3129SOL     OW20845   1.275   1.382   7.043  0.0519  0.2716 -0.4079
 3129SOL    HW120846   1.295   1.412   7.131 -1.7704  0.1204  0.0581
 3129SOL    HW220847   1.334   1.424   6.980  2.0479 -0.7271  0.7756
 3130SOL     OW20848   0.774   0.517   7.466  0.2035 -0.2625  0.5067
 3130SOL    HW120849   0.767   0.595   7.412  0.8252  0.9590  2.2030
 3130SOL    HW220850   0.860   0.482   7.444 -0.1220  0.1008 -1.3350
 3131SOL     OW20851   2.526   0.618   3.699  0.0631  0.2728 -0.6134
 3131SOL    HW120852   2.444   0.582   3.665 -0.4916  0.7836  0.1917
 3131SOL    HW220853   2.550   0.536   3.742 -0.8022  1.3196  1.8557
 3132SOL     OW20854   1.065   3.693   8.613 -0.7070 -0.0089  0.5208
 3132SOL    HW120855   1.044   3.627   8.679  2.7116  0.6712  2.2747
 3132SOL    HW220856   1.088   3.768   8.667 -1.3627  0.8910 -0.4578
 3133SOL     OW20857   1.237   2.326  13.148  0.0138 -0.0906  0.1151
 3133SOL    HW120858   1.228   2.231  13.138 -2.2302 -0.1434  2.7482
 3133SOL    HW220859   1.196   2.351  13.065  0.0455  1.6050  0.6145
 3134SOL     OW20860   0.158   1.129  11.948 -0.1084  0.1345  0.2237
 3134SOL    HW120861   0.232   1.120  11.887 -0.1996  0.2145  0.1000
 3134SOL    HW220862   0.200   1.173  12.022 -1.7929 -0.3334  1.4494
 3135SOL     OW20863   1.090   2.795  12.256  0.0166 -0.0530  0.6223
 3135SOL    HW120864   1.180   2.798  12.224  0.0343  1.6473  0.8259
 3135SOL    HW220865   1.032   2.840  12.194  1.2647  1.2230  0.3739
 3136SOL     OW20866   1.693   0.797   3.956 -0.5654 -0.1949  0.5028
 3136SOL    HW120867   1.752   0.872   3.949 -0.3355 -0.4285 -0.0474
 3136SOL    HW220868   1.751   0.721   3.957  2.5602  2.1527 -0.0275
 3137SOL     OW20869   1.148   2.012   2.355  0.2598 -0.0823  0.5536
 3137SOL    HW120870   1.208   1.939   2.372  1.5669  0.6950 -0.7409
 3137SOL    HW220871   1.203   2.083   2.387 -0.5523  0.4674  0.7341
 3138SOL     OW20872   2.972   1.844   4.703  0.7732  0.1094  0.2052
 3138SOL    HW120873   2.997   1.882   4.787 -0.4785 -1.7748  1.4303
 3138SOL    HW220874   2.920   1.776   4.744  0.6663 -0.2513 -0.5330
 3139SOL     OW20875   0.449   3.959  13.384 -0.6528  0.5892  0.0011
 3139SOL    HW120876   0.517   3.923  13.328  0.2164  0.6326  1.0501
 3139SOL    HW220877   0.488   3.928  13.465 -0.1399  1.9836  0.2930
 3140SOL     OW20878   4.323   1.480  13.453 -0.1414  0.5483  0.6507
 3140SOL    HW120879   4.248   1.492  13.511 -1.9150 -0.2380 -1.4895
 3140SOL    HW220880   4.384   1.529  13.509 -0.8355  2.1959 -0.0264
 3141SOL     OW20881   3.727   3.699   1.468  0.2650 -0.4603  0.1326
 3141SOL    HW120882   3.642   3.690   1.424  0.5824 -0.0569 -0.5567
 3141SOL    HW220883   3.740   3.793   1.455 -1.7888 -0.1499  0.2849
 3142SOL     OW20884   3.436   3.410   5.358  0.1769  0.2178  0.2640
 3142SOL    HW120885   3.467   3.389   5.269 -0.9480 -0.0731 -0.0559
 3142SOL    HW220886   3.417   3.321   5.389  0.6005  0.4889  1.2898
 3143SOL     OW20887   0.802   3.256   3.005 -0.3184 -0.0777 -0.1492
 3143SOL    HW120888   0.854   3.175   3.001 -1.4683 -0.8357  0.4186
 3143SOL    HW220889   0.714   3.221   2.992  0.2937 -1.8549  0.3634
 3144SOL     OW20890   2.200   2.016   8.662 -0.4787 -0.7401 -0.2041
 3144SOL    HW120891   2.110   1.989   8.642 -1.2314  1.7704 -0.2732
 3144SOL    HW220892   2.209   1.978   8.749 -0.1777  0.8901  0.4780
 3145SOL     OW20893   0.866   3.477   2.451 -0.4993  0.4266  0.4044
 3145SOL    HW120894   0.853   3.463   2.357  0.7196  3.2150 -0.1874
 3145SOL    HW220895   0.952   3.520   2.450 -0.6111  0.6510  0.5903
 3146SOL     OW20896   1.624   0.149   1.321  0.1315 -0.0568  0.0976
 3146SOL    HW120897   1.533   0.175   1.334  0.3253  1.5079 -1.6996
 3146SOL    HW220898   1.645   0.209   1.249 -0.5248 -0.7103 -0.6340
 3147SOL     OW20899   2.262   3.344   6.813 -0.7950  0.1757  0.1182
 3147SOL    HW120900   2.192   3.385   6.762 -2.6183 -2.5218  0.4416
 3147SOL    HW220901   2.247   3.397   6.891  0.2161 -2.1576  1.8932
 3148SOL     OW20902   3.881   1.006   7.425  0.0657  0.1034  0.9160
 3148SOL    HW120903   3.815   1.011   7.493  0.6262  2.5272  1.2680
 3148SOL    HW220904   3.945   0.950   7.468  1.4460  1.2707  0.3692
 3149SOL     OW20905   4.072   3.306   8.868 -0.5238 -0.3788  0.4037
 3149SOL    HW120906   4.039   3.391   8.896  1.1124  0.5301 -0.4267
 3149SOL    HW220907   4.166   3.325   8.867 -0.5787 -0.1866 -1.8918
 3150SOL     OW20908   3.851   4.201   6.519  0.2385 -0.2137  0.2041
 3150SOL    HW120909   3.945   4.209   6.535  0.1111  1.0974  0.2500
 3150SOL    HW220910   3.854   4.188   6.424 -2.4101 -0.6213  0.1671
 3151SOL     OW20911   3.626   3.152   5.556  0.0611  0.5362  0.2496
 3151SOL    HW120912   3.615   3.193   5.642 -1.4367  0.6242  0.0305
 3151SOL    HW220913   3.538   3.151   5.518  0.5154  0.9989 -0.8056
 3152SOL     OW20914   0.267   1.959   1.516 -0.1988 -0.0521  0.3866
 3152SOL    HW120915   0.223   2.009   1.585  0.5146  0.2629  0.6077
 3152SOL    HW220916   0.191   1.934   1.462  1.0449  0.4686 -1.5793
 3153SOL     OW20917   4.564   1.357   9.827  0.4945 -0.2132 -0.2957
 3153SOL    HW120918   4.654   1.386   9.842 -0.3298  1.9128  0.4895
 3153SOL    HW220919   4.537   1.398   9.745  0.0711 -1.8722 -0.9903
 3154SOL     OW20920   0.975   0.304  15.047 -0.6504 -0.3895  0.0293
 3154SOL    HW120921   0.923   0.360  15.104 -0.4379 -0.6418  0.4663
 3154SOL    HW220922   1.066   0.319  15.073 -0.1196 -0.9989 -1.4458
 3155SOL     OW20923   1.930   1.057   2.565  0.1228 -0.2767  0.5738
 3155SOL    HW120924   1.988   1.014   2.502 -1.1977  0.2019 -0.9588
 3155SOL    HW220925   1.929   0.989   2.632 -0.4928 -0.9174 -0.0908
 3156SOL     OW20926   4.475   2.485   3.016  0.2269 -0.0529  0.3771
 3156SOL    HW120927   4.410   2.444   3.074 -0.3326  0.5348  0.1630
 3156SOL    HW220928   4.546   2.505   3.076 -0.9530 -1.4896  2.2537
 3157SOL     OW20929   0.930   2.727  15.959 -0.2785  1.0403 -0.0405
 3157SOL    HW120930   0.878   2.806  15.969 -0.6956  0.6465  0.8651
 3157SOL    HW220931   0.905   2.678  16.038 -0.2428  0.1303 -0.5973
 3158SOL     OW20932   2.218   2.270  12.977 -0.1379  0.3558 -0.3698
 3158SOL    HW120933   2.291   2.297  13.034  1.1043  0.7631 -2.1458
 3158SOL    HW220934   2.242   2.179  12.961 -0.1152  0.2063  0.5212
 3159SOL     OW20935   3.940   1.899   2.088 -0.0456  0.1745  0.4218
 3159SOL    HW120936   3.987   1.818   2.105  1.9156  1.0392 -0.8266
 3159SOL    HW220937   4.010   1.959   2.062  0.0213 -0.4904 -0.8973
 3160SOL     OW20938   0.890   3.804   3.452 -0.1982  0.7143  0.3758
 3160SOL    HW120939   0.960   3.750   3.487 -0.0526  2.2618  2.4496
 3160SOL    HW220940   0.886   3.772   3.362 -1.3008  3.4686 -0.5650
 3161SOL     OW20941   3.235   0.533   5.974  0.6200 -0.6443  0.3301
 3161SOL    HW120942   3.225   0.491   5.889  1.5931 -1.0087  0.3953
 3161SOL    HW220943   3.160   0.490   6.015  0.3721  0.3339  0.9138
 3162SOL     OW20944   4.569   1.702  17.065  0.0059 -0.2065 -0.0743
 3162SOL    HW120945   4.474   1.694  17.052 -0.3601  1.7350  1.3064
 3162SOL    HW220946   4.582   1.797  17.060  0.4495 -0.2218  0.7237
 3163SOL     OW20947   2.822   1.765  11.958  0.7882 -0.4313 -0.0432
 3163SOL    HW120948   2.831   1.822  12.035 -0.7066  1.5060 -1.2996
 3163SOL    HW220949   2.912   1.740  11.937  1.3094 -0.6203  2.4326
 3164SOL     OW20950   0.319   1.232   2.384  0.2227  0.3245  0.4451
 3164SOL    HW120951   0.333   1.208   2.292  2.7653 -2.3941  1.5314
 3164SOL    HW220952   0.225   1.219   2.390  0.1249  0.1509 -1.6121
 3165SOL     OW20953   1.955   2.705   1.171  0.0343  0.0289  0.2906
 3165SOL    HW120954   2.049   2.723   1.173 -0.6693  3.5680  1.6894
 3165SOL    HW220955   1.956   2.678   1.079 -1.6097  0.3742  0.1756
 3166SOL     OW20956   1.320   4.242  17.105 -0.1132  0.2001  0.0845
 3166SOL    HW120957   1.302   4.250  17.199 -1.5876  0.2647 -0.2017
 3166SOL    HW220958   1.309   4.333  17.077  0.4605  0.7273  1.5806
 3167SOL     OW20959   4.403   1.457   4.664 -0.0753 -0.6982 -0.1558
 3167SOL    HW120960   4.498   1.463   4.655  0.0132 -0.7416  0.7791
 3167SOL    HW220961   4.390   1.388   4.599 -0.7659 -1.0884  0.4000
 3168SOL     OW20962   3.062   0.276   9.159  0.1546 -0.2481  0.8827
 3168SOL    HW120963   2.994   0.229   9.112  0.7853  1.6723 -1.9291
 3168SOL    HW220964   3.104   0.302   9.077  1.3112 -0.1035  1.5275
 3169SOL     OW20965   3.932   2.623   9.172  0.2685  0.1174 -0.9747
 3169SOL    HW120966   3.841   2.602   9.195  0.8362  0.1634  1.2681
 3169SOL    HW220967   3.959   2.682   9.242 -0.0990 -0.8667 -0.0006
 3170SOL     OW20968   4.698   1.208   2.188 -0.0817 -0.1981 -0.3685
 3170SOL    HW120969   4.655   1.284   2.227  1.3256  0.9381 -1.0388
 3170SOL    HW220970   4.672   1.132   2.240 -1.4798 -0.3507 -1.2716
 3171SOL     OW20971   3.099   4.450   4.095 -0.1663  0.1776  0.2684
 3171SOL    HW120972   3.065   4.526   4.141 -2.3328 -2.3574  2.8827
 3171SOL    HW220973   3.064   4.454   4.006  3.1859 -1.9455 -1.1622
 3172SOL     OW20974   4.041   4.406   9.533  0.4056 -0.2968 -0.0817
 3172SOL    HW120975   4.021   4.487   9.579  0.6045  0.5726 -1.5182
 3172SOL    HW220976   3.955   4.364   9.543  0.3713 -0.3106 -0.4284
 3173SOL     OW20977   3.051   1.388   7.343 -0.0630 -0.4159  0.2781
 3173SOL    HW120978   2.993   1.442   7.397  1.8430  0.6448  1.2785
 3173SOL    HW220979   3.002   1.395   7.261  1.5313  1.2653 -0.5366
 3174SOL     OW20980   0.285   0.523   1.273  0.6890  0.1417  0.1894
 3174SOL    HW120981   0.214   0.565   1.321 -0.0925 -1.4889  0.4440
 3174SOL    HW220982   0.356   0.588   1.267  1.4532 -0.6701  0.3318
 3175SOL     OW20983   0.797   2.799   5.467  0.0478  0.2135 -0.7101
 3175SOL    HW120984   0.864   2.826   5.404 -1.1518 -0.8305 -2.4250
 3175SOL    HW220985   0.718   2.810   5.414  0.3904 -2.8726 -1.8668
 3176SOL     OW20986   3.998   3.473   7.375 -0.0671  0.1500 -0.1681
 3176SOL    HW120987   4.052   3.523   7.313 -2.0086  1.7987 -0.5206
 3176SOL    HW220988   4.029   3.384   7.357  0.9956  1.1511 -3.3040
 3177SOL     OW20989   3.481   3.058  15.587  0.2133 -0.3215 -0.4314
 3177SOL    HW120990   3.502   3.074  15.495 -2.8757 -1.4951 -1.3333
 3177SOL    HW220991   3.554   3.108  15.625  0.5997 -0.8908 -0.4206
 3178SOL     OW20992   3.343   1.528   2.865 -0.2481  0.0998  0.1432
 3178SOL    HW120993   3.268   1.558   2.812 -0.1943 -0.6584 -0.3667
 3178SOL    HW220994   3.382   1.609   2.898  2.3806 -0.3495 -1.9036
 3179SOL     OW20995   1.389   1.646  11.495  0.4269  0.2831 -0.6450
 3179SOL    HW120996   1.480   1.641  11.466 -0.1147 -2.9101 -1.8135
 3179SOL    HW220997   1.350   1.667  11.410  1.2434 -0.3757 -1.1867
 3180SOL     OW20998   3.043   0.061   8.777 -0.1917 -0.0970 -0.5475
 3180SOL    HW120999   3.112   0.009   8.818 -1.9506  0.6984  3.3986
 3180SOL    HW221000   2.986   4.712   8.744 -2.8087  1.8073  0.0273
 3181SOL     OW21001   1.593   2.877   2.823 -0.3826  0.4976  0.0742
 3181SOL    HW121002   1.501   2.852   2.835 -0.3133 -0.3696 -1.3293
 3181SOL    HW221003   1.636   2.794   2.802 -0.4702  1.0237 -2.1546
 3182SOL     OW21004   4.181   1.260   7.647  0.3275  0.5363 -0.7367
 3182SOL    HW121005   4.247   1.191   7.644 -0.9487 -0.6746 -1.0259
 3182SOL    HW221006   4.231   1.341   7.642 -1.2081  1.6026  1.0482
 3183SOL     OW21007   4.653   0.525  11.857 -0.2003  0.4021  0.1912
 3183SOL    HW121008   4.621   0.436  11.869 -0.4570  0.6874  1.6275
 3183SOL    HW221009   4.613   0.554  11.775  2.2589  1.3363 -0.6925
 3184SOL     OW21010   3.420   1.453   8.065  0.0615 -0.2681  0.6740
 3184SOL    HW121011   3.411   1.544   8.039  3.5788 -0.3257 -0.7881
 3184SOL    HW221012   3.329   1.425   8.079 -0.0277 -2.5954 -4.2110
 3185SOL     OW21013   4.197   3.776   2.697 -0.4522 -0.3460 -0.0311
 3185SOL    HW121014   4.270   3.766   2.758  0.5218 -0.2837 -1.1956
 3185SOL    HW221015   4.141   3.700   2.715 -0.2375 -0.4552  0.1669
 3186SOL     OW21016   0.653   3.444  12.646  0.0989  0.7799 -0.1312
 3186SOL    HW121017   0.564   3.410  12.647  0.2596  0.2894 -2.3251
 3186SOL    HW221018   0.676   3.432  12.738 -1.4417 -0.6021  0.0699
 3187SOL     OW21019   2.715   2.456   3.992 -0.0507 -0.1444  0.0216
 3187SOL    HW121020   2.780   2.424   4.055  0.0157 -0.0722 -0.0110
 3187SOL    HW221021   2.644   2.484   4.050  2.8535  1.5924  2.7419
 3188SOL     OW21022   3.540   4.013  10.336 -0.7696 -0.6842  0.1351
 3188SOL    HW121023   3.522   3.921  10.317 -2.4258 -0.9887  3.2054
 3188SOL    HW221024   3.489   4.047  10.262  1.9487  0.3955 -1.2363
 3189SOL     OW21025   1.429   2.773   1.380 -0.2041  0.2149 -0.0517
 3189SOL    HW121026   1.495   2.763   1.311  1.6015  0.3356  1.6781
 3189SOL    HW221027   1.481   2.782   1.459  0.6440 -1.5303 -0.3969
 3190SOL     OW21028   1.745   3.056   6.392 -0.1410  0.0097 -0.1274
 3190SOL    HW121029   1.764   2.962   6.388  1.8758  0.3447  1.6113
 3190SOL    HW221030   1.759   3.053   6.487 -1.0397 -0.0094  0.0075
 3191SOL     OW21031   0.771   2.090   7.990 -0.2492 -0.0457 -0.2149
 3191SOL    HW121032   0.813   2.172   7.963 -1.9561  1.0236  0.3691
 3191SOL    HW221033   0.710   2.132   8.050 -0.4856 -1.1359  0.3127
 3192SOL     OW21034   2.768   4.175   3.434 -0.1813 -0.0614 -0.0301
 3192SOL    HW121035   2.752   4.265   3.403 -0.3812  0.8016  2.5746
 3192SOL    HW221036   2.802   4.186   3.523  0.6994 -0.1428 -0.3580
 3193SOL     OW21037   2.638   2.459   1.049  0.4568 -0.2282 -0.3779
 3193SOL    HW121038   2.605   2.403   1.120  1.5419 -0.0717  0.2607
 3193SOL    HW221039   2.564   2.479   0.993 -0.5686  0.9626  1.4070
 3194SOL     OW21040   1.835   0.102  17.177 -0.1442 -0.5440 -0.2503
 3194SOL    HW121041   1.898   0.067  17.114  2.1973  0.8628  1.3258
 3194SOL    HW221042   1.783   0.159  17.120  0.8809  1.0793  0.4415
 3195SOL     OW21043   1.812   3.373   4.652 -0.4807 -0.0561  0.4758
 3195SOL    HW121044   1.762   3.292   4.664  0.8165 -0.6514  1.8407
 3195SOL    HW221045   1.866   3.396   4.727  0.6676  0.7799 -0.6091
 3196SOL     OW21046   4.487   2.455   5.348  0.4036  0.3719  0.3262
 3196SOL    HW121047   4.527   2.380   5.305 -2.7942 -0.1793 -1.6706
 3196SOL    HW221048   4.497   2.430   5.440  3.3524  0.4989  0.0412
 3197SOL     OW21049   3.096   2.614   3.951 -0.2030 -0.5606  0.3639
 3197SOL    HW121050   3.191   2.601   3.957 -0.3657 -2.5556 -1.6454
 3197SOL    HW221051   3.070   2.621   4.043 -0.6059 -3.4858  0.4568
 3198SOL     OW21052   2.455   3.315   1.503  0.0565 -0.0253 -0.2592
 3198SOL    HW121053   2.447   3.397   1.552 -2.0314  0.0829 -0.8009
 3198SOL    HW221054   2.550   3.314   1.493  0.3137  1.2785  2.1157
 3199SOL     OW21055   1.870   2.980   2.776  0.6530  0.2111  0.3073
 3199SOL    HW121056   1.933   2.919   2.814  2.3103  2.1132  0.6063
 3199SOL    HW221057   1.790   2.927   2.773  1.7255 -1.4797  1.6315
 3200SOL     OW21058   4.343   4.280   5.297 -0.1034  0.4823  0.4761
 3200SOL    HW121059   4.369   4.292   5.206 -1.0184  2.0658  0.4202
 3200SOL    HW221060   4.412   4.220   5.324  1.9022  1.4104 -2.6483
 3201SOL     OW21061   1.081   3.276   8.280 -0.2256  0.1887 -0.8033
 3201SOL    HW121062   1.125   3.346   8.231 -0.5932  0.1376 -1.2056
 3201SOL    HW221063   1.017   3.247   8.215 -0.4936  0.6227 -0.7315
 3202SOL     OW21064   1.969   1.071   5.780  0.2432 -0.2387  0.4814
 3202SOL    HW121065   2.005   1.145   5.732  0.8499  1.0830  2.9998
 3202SOL    HW221066   2.010   1.079   5.866 -0.0221 -1.0209  0.6821
 3203SOL     OW21067   3.993   4.597   4.520  0.2656  0.2002  0.0495
 3203SOL    HW121068   4.046   4.544   4.579 -0.2491  0.7248  0.9679
 3203SOL    HW221069   3.947   4.657   4.578  0.3828 -0.2867  0.6429
 3204SOL     OW21070   1.476   3.871   8.278 -0.0038  0.0315  0.0503
 3204SOL    HW121071   1.440   3.807   8.339 -0.6534  0.6142  0.2789
 3204SOL    HW221072   1.446   3.957   8.308  1.3583  1.1419 -1.8124
 3205SOL     OW21073   1.143   4.697   8.089  0.0952  0.3576 -0.2686
 3205SOL    HW121074   1.231   0.002   8.061  0.8905 -1.8002  0.3246
 3205SOL    HW221075   1.121   0.027   8.168 -3.1220 -1.4055 -0.0464
 3206SOL     OW21076   3.673   4.064   0.673 -0.3237  0.0218 -0.1327
 3206SOL    HW121077   3.586   4.037   0.702 -0.5907  0.6755 -0.3293
 3206SOL    HW221078   3.682   3.984   0.621 -0.3647 -0.4036  0.5144
 3207SOL     OW21079   0.802   0.251   8.502  0.3161 -0.4185  0.2273
 3207SOL    HW121080   0.792   0.161   8.469  2.4436 -0.6303  0.1246
 3207SOL    HW221081   0.803   0.231   8.596  1.9109  0.3007  0.3682
 3208SOL     OW21082   4.547   1.579   5.207 -0.3836  0.5446  0.6289
 3208SOL    HW121083   4.538   1.667   5.243 -1.0193 -0.7739  3.6428
 3208SOL    HW221084   4.529   1.590   5.114 -3.1453 -2.1430  0.8462
 3209SOL     OW21085   1.307   2.464   1.943 -0.3562 -0.1218  0.2524
 3209SOL    HW121086   1.339   2.391   1.995 -2.3775 -0.7602  0.5983
 3209SOL    HW221087   1.387   2.514   1.928 -0.6721 -0.0805 -1.3836
 3210SOL     OW21088   1.682   4.673   3.476  0.7871 -0.2837  0.4281
 3210SOL    HW121089   1.729   4.631   3.548  0.5637  1.6265  1.6858
 3210SOL    HW221090   1.750   0.004   3.430 -0.4541  0.5256 -0.5045
 3211SOL     OW21091   3.140   2.351  16.672  0.4448 -0.0567 -1.1025
 3211SOL    HW121092   3.187   2.287  16.618 -2.1639 -0.9035 -2.3690
 3211SOL    HW221093   3.088   2.399  16.608 -0.2112 -1.4288 -1.6045
 3212SOL     OW21094   0.448   1.900  10.663  0.8731 -0.0479  0.4364
 3212SOL    HW121095   0.526   1.846  10.670 -0.4561 -1.8604  1.3573
 3212SOL    HW221096   0.427   1.896  10.756  1.1448  0.6769  0.5312
 3213SOL     OW21097   1.823   3.063   2.239 -0.1838  0.3294 -0.1579
 3213SOL    HW121098   1.889   3.123   2.272 -0.1551 -0.8268  1.8361
 3213SOL    HW221099   1.770   3.118   2.181  1.9056  0.8891 -1.5420
 3214SOL     OW21100   2.201   2.747  14.551  0.3153  0.2074 -0.4164
 3214SOL    HW121101   2.108   2.731  14.569  0.5748 -0.1489  0.6267
 3214SOL    HW221102   2.248   2.729  14.632  0.0879  2.0026  0.1173
 3215SOL     OW21103   0.804   2.773   2.338 -0.6583  0.4594  0.4211
 3215SOL    HW121104   0.798   2.809   2.249 -2.9249 -1.7058 -0.3311
 3215SOL    HW221105   0.855   2.845   2.375  0.8372  0.1915 -1.1105
 3216SOL     OW21106   4.501   0.139  16.342 -0.0868 -0.3497 -0.0644
 3216SOL    HW121107   4.504   0.232  16.317  3.0437 -0.5441 -0.4096
 3216SOL    HW221108   4.512   0.155  16.436 -0.4582  2.0728 -0.4110
 3217SOL     OW21109   4.025   3.746   4.021 -0.5384  0.0524 -0.1397
 3217SOL    HW121110   4.103   3.768   4.071  0.1531 -1.0612 -0.7199
 3217SOL    HW221111   3.975   3.825   4.042  1.5949  1.0164  1.1897
 3218SOL     OW21112   0.414   0.495   0.341  0.4547  0.2687 -0.2488
 3218SOL    HW121113   0.439   0.466   0.429  0.4666  2.5126  0.4700
 3218SOL    HW221114   0.319   0.488   0.350  0.4708  1.0200  0.4783
 3219SOL     OW21115   4.466   0.949   6.650 -0.2929 -0.1071 -0.1505
 3219SOL    HW121116   4.373   0.969   6.636 -0.2120  0.8045  0.6454
 3219SOL    HW221117   4.467   0.854   6.660 -1.3814 -0.1062 -0.0333
 3220SOL     OW21118   3.026   1.275   2.423 -0.0850  0.1151  0.3216
 3220SOL    HW121119   3.001   1.268   2.515 -0.4403  2.4224  0.3959
 3220SOL    HW221120   3.027   1.185   2.390  1.6456  0.3483 -0.2923
 3221SOL     OW21121   4.426   4.292   8.275 -0.1987 -0.8723  0.0247
 3221SOL    HW121122   4.359   4.359   8.260  0.9694 -0.2317 -2.2677
 3221SOL    HW221123   4.377   4.236   8.335  0.8188  0.0963  1.7539
 3222SOL     OW21124   1.019   0.024   6.062 -0.7584  0.1659 -0.6323
 3222SOL    HW121125   1.066   0.088   6.115 -2.5980  0.0193  1.1870
 3222SOL    HW221126   1.037   0.059   5.975 -1.0772  0.0368 -0.7510
 3223SOL     OW21127   4.369   3.438   2.760  0.1739 -0.3155  0.0059
 3223SOL    HW121128   4.300   3.500   2.784 -0.5560 -1.6596  1.4243
 3223SOL    HW221129   4.308   3.375   2.721 -0.7213  0.1640  0.6274
 3224SOL     OW21130   3.019   4.110   6.642  0.7754  0.5918 -0.0596
 3224SOL    HW121131   2.951   4.046   6.621  3.9023 -2.3846 -1.1692
 3224SOL    HW221132   3.039   4.155   6.560 -1.1716 -1.3881 -1.6372
 3225SOL     OW21133   0.216   4.309   3.140 -0.3274  0.1372  0.0387
 3225SOL    HW121134   0.133   4.296   3.094  0.0918 -0.5862 -0.5235
 3225SOL    HW221135   0.184   4.344   3.223  0.1164  2.5619 -0.8352
 3226SOL     OW21136   0.097   1.626  11.807  0.1559  0.1773  0.6067
 3226SOL    HW121137   0.123   1.543  11.847  0.6323  0.9822  1.9453
 3226SOL    HW221138   0.112   1.680  11.885 -3.3623 -1.8050  2.6636
 3227SOL     OW21139   1.236   4.038  15.528 -0.0183 -0.3066 -0.1245
 3227SOL    HW121140   1.176   3.963  15.517  0.2543 -0.3931 -1.0429
 3227SOL    HW221141   1.296   3.995  15.589 -0.4044 -0.6854 -0.0096
 3228SOL     OW21142   3.224   0.441  11.442 -0.1240 -0.2714 -0.5356
 3228SOL    HW121143   3.194   0.351  11.425 -0.7614  0.2413 -2.1223
 3228SOL    HW221144   3.313   0.434  11.476 -0.3993 -0.4829  0.1557
 3229SOL     OW21145   1.887   2.827   3.810 -0.3772 -0.0190  0.2898
 3229SOL    HW121146   1.794   2.835   3.786 -0.2947  0.4639  0.1396
 3229SOL    HW221147   1.917   2.820   3.720  1.2098  1.9929  0.6719
 3230SOL     OW21148   2.852   1.609   4.845  0.1810  0.0496  0.0785
 3230SOL    HW121149   2.767   1.617   4.888  0.0619 -2.1327  0.2398
 3230SOL    HW221150   2.914   1.580   4.912 -1.8587  0.6640  2.2161
 3231SOL     OW21151   1.773   4.250   0.904  0.1234 -0.2505 -0.0622
 3231SOL    HW121152   1.696   4.296   0.871  0.6324  0.3475 -0.4182
 3231SOL    HW221153   1.790   4.273   0.996 -0.3299 -0.9344  0.1988
 3232SOL     OW21154   1.530   2.957  13.447 -0.4364  0.1737  0.0873
 3232SOL    HW121155   1.471   2.994  13.512 -0.0275  1.6586 -0.4033
 3232SOL    HW221156   1.592   3.029  13.436  1.9884 -1.6067  2.0535
 3233SOL     OW21157   3.121   3.639   4.612 -0.1076  0.0466  0.3880
 3233SOL    HW121158   3.187   3.704   4.635 -1.0195  0.3452  2.1412
 3233SOL    HW221159   3.085   3.678   4.532 -0.0417  0.5671  0.6124
 3234SOL     OW21160   4.616   4.520   5.053 -0.0142 -0.2928  0.5417
 3234SOL    HW121161   4.545   4.457   5.042  0.7944 -1.1126  0.0104
 3234SOL    HW221162   4.569   4.603   5.043  0.6016 -0.2640 -2.2115
 3235SOL     OW21163   1.039   2.994   7.621 -0.1108 -0.0557  0.1264
 3235SOL    HW121164   1.044   3.087   7.643 -1.0531  0.3978 -1.6105
 3235SOL    HW221165   0.972   2.967   7.684 -0.7661  0.7963 -0.2111
 3236SOL     OW21166   0.957   2.865  12.790 -0.5709  0.2132  0.5094
 3236SOL    HW121167   1.046   2.869  12.755  0.2403 -0.2144  2.5018
 3236SOL    HW221168   0.967   2.830  12.879  1.3604 -4.3877 -1.4714
 3237SOL     OW21169   1.261   4.569   8.906  0.3011 -0.3700  0.3718
 3237SOL    HW121170   1.296   4.482   8.891  0.3587 -0.0509 -1.3119
 3237SOL    HW221171   1.285   4.594   8.995  0.8308  1.2977 -0.2446
 3238SOL     OW21172   4.171   2.143   9.928  0.2980 -0.0295  0.5374
 3238SOL    HW121173   4.203   2.206   9.993  1.5393 -0.6063  0.4653
 3238SOL    HW221174   4.100   2.112   9.984  1.5517  1.1312  2.7503
 3239SOL     OW21175   0.549   0.699   4.781  0.0848 -0.2229  0.0380
 3239SOL    HW121176   0.531   0.646   4.858 -0.4628  1.2613  0.9234
 3239SOL    HW221177   0.461   0.697   4.744 -0.6072  0.7988  1.6555
 3240SOL     OW21178   3.907   0.057   6.514 -0.0223  0.4491 -0.0987
 3240SOL    HW121179   3.935   0.043   6.605  2.2374  0.7142 -0.7532
 3240SOL    HW221180   3.932   4.699   6.463  0.7992  1.6461 -1.4898
 3241SOL     OW21181   0.107   4.513   4.388  0.0855 -0.3040 -0.2458
 3241SOL    HW121182   0.057   4.507   4.306 -0.2475 -1.7707  0.0730
 3241SOL    HW221183   0.065   4.580   4.441 -1.1110 -0.8490 -0.5162
 3242SOL     OW21184   2.997   2.379  15.942  0.0980 -0.0263 -0.2363
 3242SOL    HW121185   3.032   2.302  15.898 -0.8895  0.0201 -1.0981
 3242SOL    HW221186   3.082   2.402  15.978 -1.8783  0.4603  4.0951
 3243SOL     OW21187   2.802   3.049   0.626  0.3320 -0.1262 -0.7125
 3243SOL    HW121188   2.821   2.957   0.641  1.0522 -0.1139 -1.5177
 3243SOL    HW221189   2.779   3.073   0.716 -0.4312 -0.1674 -0.8948
 3244SOL     OW21190   3.729   4.541   0.701 -0.4420  0.6295  0.3016
 3244SOL    HW121191   3.673   4.587   0.640  1.5962  2.9547  0.1899
 3244SOL    HW221192   3.801   4.516   0.643  0.2110 -0.1028  1.4147
 3245SOL     OW21193   4.172   3.969  11.072 -0.1820 -0.3911 -0.2571
 3245SOL    HW121194   4.092   4.000  11.114 -0.4791 -0.6587 -0.6239
 3245SOL    HW221195   4.168   3.883  11.115 -0.6921 -1.0828 -1.6702
 3246SOL     OW21196   3.171   1.599   1.884  0.5513  0.2317  0.1164
 3246SOL    HW121197   3.144   1.646   1.805  0.7258 -1.2506 -0.8343
 3246SOL    HW221198   3.088   1.564   1.916 -0.0899  3.0451  1.5562
 3247SOL     OW21199   3.770   1.777   5.673 -0.3714 -0.0327  0.2547
 3247SOL    HW121200   3.741   1.699   5.626 -0.7132  1.1353 -1.4431
 3247SOL    HW221201   3.766   1.746   5.764 -0.7279  2.0901  0.9605
 3248SOL     OW21202   2.714   1.683  10.723 -0.6928  0.4004  0.1809
 3248SOL    HW121203   2.729   1.769  10.685  1.6857 -0.2371 -0.3895
 3248SOL    HW221204   2.797   1.645  10.693  0.0321  2.5470 -0.4912
 3249SOL     OW21205   0.939   2.207   3.954  0.1080  0.1329 -0.0621
 3249SOL    HW121206   0.924   2.279   3.893  1.6762  1.1079  0.6708
 3249SOL    HW221207   0.983   2.251   4.027 -0.5238  1.2427 -0.3619
 3250SOL     OW21208   1.291   1.952   5.625 -0.5266 -0.2170 -0.5027
 3250SOL    HW121209   1.199   1.965   5.604 -0.3106 -0.0540 -1.3770
 3250SOL    HW221210   1.312   1.884   5.561 -0.5698 -0.4013 -0.3213
 3251SOL     OW21211   1.683   0.466   0.256 -0.4182  0.4475  0.0622
 3251SOL    HW121212   1.699   0.449   0.163 -0.1008 -1.9116  0.5436
 3251SOL    HW221213   1.760   0.515   0.283  0.1188  0.1035 -0.8842
 3252SOL     OW21214   3.271   2.249   3.124  0.0148 -0.1589 -0.1639
 3252SOL    HW121215   3.341   2.199   3.166  0.8306  1.7834  0.7964
 3252SOL    HW221216   3.197   2.246   3.185  0.9378 -1.1181  0.9120
 3253SOL     OW21217   4.271   2.587   9.510  0.0815 -0.3105 -0.0825
 3253SOL    HW121218   4.217   2.606   9.587  1.2615 -1.3234  0.9867
 3253SOL    HW221219   4.277   2.670   9.463  0.7216  1.1943  2.6304
 3254SOL     OW21220   4.206   1.932   6.290  0.0092 -0.3096 -0.1278
 3254SOL    HW121221   4.284   1.883   6.264  1.8350  2.7010 -0.2878
 3254SOL    HW221222   4.159   1.939   6.207 -0.2442  0.7704  0.0992
 3255SOL     OW21223   0.271   2.311  16.878 -0.5277 -0.5330  0.0151
 3255SOL    HW121224   0.318   2.254  16.939  0.6584  1.1451  0.6869
 3255SOL    HW221225   0.306   2.393  16.914 -2.7643  0.4062  0.0921
 3256SOL     OW21226   3.497   0.617  10.685 -0.1125  0.7896  1.1670
 3256SOL    HW121227   3.556   0.643  10.614 -0.9589 -1.0093 -0.2196
 3256SOL    HW221228   3.503   0.703  10.726 -0.4453  0.5311  1.7486
 3257SOL     OW21229   4.632   2.011   2.621  0.1312  0.1759  0.3490
 3257SOL    HW121230   4.595   1.956   2.553 -0.6799 -0.6986  1.5013
 3257SOL    HW221231   4.687   2.071   2.570  0.2593 -0.0174  0.2631
 3258SOL     OW21232   2.409   4.497   1.818  0.5133 -0.1486 -0.0060
 3258SOL    HW121233   2.338   4.454   1.866 -1.7998 -0.1691 -3.4323
 3258SOL    HW221234   2.475   4.508   1.886  1.0451  0.3536 -0.5955
 3259SOL     OW21235   3.731   1.049   0.554  0.6754 -0.2050 -0.3036
 3259SOL    HW121236   3.680   1.047   0.635 -0.1533 -0.6787 -0.8359
 3259SOL    HW221237   3.810   1.084   0.595  0.7575 -2.3882  1.4423
 3260SOL     OW21238   0.756   1.597   6.140  0.4174  0.1299  0.2201
 3260SOL    HW121239   0.757   1.650   6.220  0.2226  0.9310 -0.3052
 3260SOL    HW221240   0.819   1.531   6.170 -0.1363 -1.4996 -2.2120
 3261SOL     OW21241   0.576   0.164   0.725  0.1123 -0.5629  0.2721
 3261SOL    HW121242   0.537   0.091   0.773  2.2572 -0.0581  2.8135
 3261SOL    HW221243   0.662   0.172   0.767 -0.8948  0.5210  2.1185
 3262SOL     OW21244   1.838   0.096   8.234 -0.1646  0.3045 -0.4136
 3262SOL    HW121245   1.932   0.101   8.219 -0.3391  1.1629 -1.1752
 3262SOL    HW221246   1.815   0.184   8.263  0.3478 -0.1958  1.5580
 3263SOL     OW21247   0.989   3.227   5.076  0.0732  0.6862  0.6109
 3263SOL    HW121248   1.035   3.305   5.045  1.6307 -0.0970  0.9556
 3263SOL    HW221249   1.048   3.184   5.137 -0.6701 -1.0017  0.1186
 3264SOL     OW21250   0.994   3.203   2.821  0.0236  0.3297  0.2109
 3264SOL    HW121251   1.089   3.218   2.819  0.3346 -2.2404 -3.5788
 3264SOL    HW221252   0.958   3.285   2.855  0.6997  0.4472  0.6364
 3265SOL     OW21253   0.973   0.949   4.485  0.5870  0.5714  0.0631
 3265SOL    HW121254   0.950   0.921   4.396 -0.9387  1.0381  0.3129
 3265SOL    HW221255   1.060   0.911   4.497  0.3179  0.0400  0.3543
 3266SOL     OW21256   1.880   4.386   2.884  0.4273 -0.2995  0.5497
 3266SOL    HW121257   1.881   4.328   2.807 -0.2540 -0.2997  0.5375
 3266SOL    HW221258   1.787   4.412   2.880  0.4354  0.0354  3.0311
 3267SOL     OW21259   3.947   4.669   5.931  0.4090 -0.2727  0.3912
 3267SOL    HW121260   3.870   4.689   5.984  0.8309  1.5664  0.3016
 3267SOL    HW221261   4.014   4.719   5.977 -0.1725  1.8864 -1.0901
 3268SOL     OW21262   2.558   1.403  15.641  0.6061  0.2651 -0.3392
 3268SOL    HW121263   2.642   1.396  15.594  0.1535  0.1781 -1.1306
 3268SOL    HW221264   2.556   1.498  15.651  3.4660  0.1119  1.9185
 3269SOL     OW21265   3.837   4.402   9.174  0.8030 -0.1092  0.6484
 3269SOL    HW121266   3.849   4.455   9.253 -1.5901 -1.0528  1.6341
 3269SOL    HW221267   3.904   4.442   9.118 -0.2334  1.1545  0.3129
 3270SOL     OW21268   0.699   1.267  17.134  0.8453  0.1470 -0.2934
 3270SOL    HW121269   0.704   1.271  17.229  1.7213  0.9532 -0.3772
 3270SOL    HW221270   0.763   1.333  17.109  0.9738  0.4102  0.7515
 3271SOL     OW21271   0.731   1.645   4.992 -0.4433 -0.2719 -0.7124
 3271SOL    HW121272   0.675   1.638   5.069 -1.5255  0.6291 -1.4199
 3271SOL    HW221273   0.684   1.608   4.918  1.1248 -0.3131 -1.6771
 3272SOL     OW21274   1.572   1.428   1.220 -0.1275 -0.0720 -0.0384
 3272SOL    HW121275   1.605   1.509   1.258 -2.9948  1.8078 -1.5840
 3272SOL    HW221276   1.634   1.361   1.252 -0.8238 -0.4756  0.4773
 3273SOL     OW21277   2.008   0.649  15.764  0.8744 -0.2711  0.0239
 3273SOL    HW121278   2.099   0.662  15.792  0.8049  0.7841 -0.2616
 3273SOL    HW221279   1.995   0.555  15.749 -1.2842 -0.2255  1.5349
 3274SOL     OW21280   4.592   0.675   6.733 -0.0089  0.3200  0.4298
 3274SOL    HW121281   4.531   0.609   6.768  0.7612  0.1947  1.5072
 3274SOL    HW221282   4.633   0.634   6.656  0.8112  1.1270  0.4424
 3275SOL     OW21283   0.328   2.548   5.926 -0.4175 -0.6468  0.2604
 3275SOL    HW121284   0.397   2.572   5.865 -1.2160 -0.8369 -0.7137
 3275SOL    HW221285   0.254   2.603   5.899 -0.6557 -0.0271  2.1829
 3276SOL     OW21286   2.158   2.502  16.699  0.4720 -0.2629 -0.2567
 3276SOL    HW121287   2.186   2.468  16.614  0.5679 -0.7025 -0.0482
 3276SOL    HW221288   2.130   2.591  16.678  1.2690  0.0350 -0.0321
 3277SOL     OW21289   2.628   2.000   2.190 -0.0299  0.6622 -0.1372
 3277SOL    HW121290   2.658   1.911   2.211  0.2649  1.3298  2.1503
 3277SOL    HW221291   2.617   2.039   2.276 -1.0641  0.8943 -0.3724
 3278SOL     OW21292   2.223   1.375   5.823 -0.7873 -0.0361  0.2993
 3278SOL    HW121293   2.271   1.292   5.821  0.2851  0.5923  0.1054
 3278SOL    HW221294   2.144   1.352   5.773  0.7130 -0.3912 -1.8997
 3279SOL     OW21295   4.262   1.474   7.898 -0.4637  0.0972 -0.1040
 3279SOL    HW121296   4.297   1.502   7.814  1.2905  0.9095  0.9004
 3279SOL    HW221297   4.321   1.404   7.927 -0.3659 -1.0594 -3.1694
 3280SOL     OW21298   1.009   4.436   8.835  0.1180 -0.1278  0.3302
 3280SOL    HW121299   0.974   4.400   8.917  2.0613  1.3395  1.8165
 3280SOL    HW221300   1.084   4.477   8.879 -0.6382 -0.0400  1.5451
 3281SOL     OW21301   4.444   2.998   2.170 -0.2953  0.3571  0.0266
 3281SOL    HW121302   4.349   2.997   2.182 -0.5498  0.9671 -1.9785
 3281SOL    HW221303   4.460   3.092   2.172  2.0372 -0.1544  5.0380
 3282SOL     OW21304   4.111   4.055   0.622  0.3302  0.6337  0.1149
 3282SOL    HW121305   4.057   4.120   0.667  2.9091  1.7818  1.5898
 3282SOL    HW221306   4.078   3.972   0.658  5.2100 -1.0080  0.8197
 3283SOL     OW21307   2.941   4.402   6.424 -0.1828 -0.1945 -0.1531
 3283SOL    HW121308   2.987   4.325   6.390  0.4642 -0.2061  0.7309
 3283SOL    HW221309   3.016   4.443   6.467  0.0940 -0.2330 -0.6023
 3284SOL     OW21310   3.743   1.127   1.031 -0.2501 -0.2819 -0.1885
 3284SOL    HW121311   3.724   1.149   0.940 -1.0215 -2.8297 -0.6462
 3284SOL    HW221312   3.839   1.121   1.032 -0.2050  0.4587  0.4015
 3285SOL     OW21313   0.546   1.482   5.822 -0.0889 -0.2515 -0.2191
 3285SOL    HW121314   0.595   1.401   5.807 -1.7068 -1.3825  0.5822
 3285SOL    HW221315   0.608   1.552   5.801 -0.1104  0.1389  0.9781
 3286SOL     OW21316   3.375   1.910  10.142 -0.0911 -0.1332 -0.0611
 3286SOL    HW121317   3.340   1.824  10.122 -1.0166  0.0246  0.8598
 3286SOL    HW221318   3.468   1.892  10.157 -0.3834 -2.2767 -0.9240
 3287SOL     OW21319   1.594   3.145   4.638  0.4176  0.3753  0.2387
 3287SOL    HW121320   1.526   3.108   4.582 -0.7896 -0.8509  2.5106
 3287SOL    HW221321   1.541   3.207   4.687 -2.0407 -0.7078 -1.0351
 3288SOL     OW21322   2.765   4.203  13.594  0.4633 -0.1376 -0.3835
 3288SOL    HW121323   2.848   4.252  13.596  0.3763 -0.0518  1.1568
 3288SOL    HW221324   2.786   4.133  13.533  1.2644 -1.5184  1.4801
 3289SOL     OW21325   0.626   0.401   4.421  0.3316 -0.0294  0.5270
 3289SOL    HW121326   0.545   0.386   4.471  0.8949 -2.0584  0.8394
 3289SOL    HW221327   0.598   0.478   4.372  1.1329  0.9049  1.5275
 3290SOL     OW21328   4.617   1.101   3.695  0.2365 -0.6211 -0.0896
 3290SOL    HW121329   4.553   1.171   3.683  0.7788  0.1294  1.4217
 3290SOL    HW221330   4.566   1.021   3.683  2.7221 -2.0688 -0.9316
 3291SOL     OW21331   4.543   3.538  15.863  0.2153  0.3455  0.3796
 3291SOL    HW121332   4.453   3.549  15.831 -0.1859 -2.9571  0.4186
 3291SOL    HW221333   4.541   3.481  15.939  1.8341  0.1701  0.2798
 3292SOL     OW21334   4.542   2.258   7.178  0.6946 -0.0732  0.1644
 3292SOL    HW121335   4.466   2.315   7.194 -0.0083 -0.5749 -1.3317
 3292SOL    HW221336   4.572   2.293   7.094 -0.0016 -0.3754 -0.2147
 3293SOL     OW21337   4.016   1.119   2.463 -0.4815  0.2015  0.0875
 3293SOL    HW121338   4.079   1.083   2.402 -0.8941 -0.1174 -0.1527
 3293SOL    HW221339   4.049   1.105   2.552  0.0806  2.9012  0.3011
 3294SOL     OW21340   2.309   3.363   1.775  0.5061 -0.0651 -0.5083
 3294SOL    HW121341   2.339   3.422   1.705  0.6930  0.9086  0.4019
 3294SOL    HW221342   2.279   3.424   1.841 -0.6156  1.9901 -2.9033
 3295SOL     OW21343   3.694   0.420   3.993 -0.2111 -0.2830  0.4820
 3295SOL    HW121344   3.634   0.494   3.986  0.2057 -0.0224 -0.4366
 3295SOL    HW221345   3.628   0.353   4.011  0.3179 -1.0478 -0.3987
 3296SOL     OW21346   3.007   1.707   9.008 -0.2972 -0.1395  0.1573
 3296SOL    HW121347   2.965   1.782   9.050  2.9886  1.7808 -0.0300
 3296SOL    HW221348   2.958   1.638   9.054  0.5194 -1.3663 -0.7890
 3297SOL     OW21349   3.691   3.187   5.300 -0.7604 -0.0781 -0.0303
 3297SOL    HW121350   3.722   3.276   5.282 -0.8892 -0.1708 -0.7237
 3297SOL    HW221351   3.664   3.191   5.391  0.9040 -3.5478  0.6127
 3298SOL     OW21352   3.700   4.241   7.263 -0.4385 -0.0757  0.2346
 3298SOL    HW121353   3.694   4.298   7.339 -1.7582 -1.2244  0.9942
 3298SOL    HW221354   3.793   4.222   7.277 -0.3409  0.9773  0.9909
 3299SOL     OW21355   3.313   2.289   3.726 -0.2948 -0.9897 -0.4084
 3299SOL    HW121356   3.228   2.325   3.701  1.5988  3.3925 -0.5555
 3299SOL    HW221357   3.296   2.229   3.799 -2.4656  1.1188  0.8013
 3300SOL     OW21358   0.676   0.832   4.139 -0.0897 -0.0705 -0.1162
 3300SOL    HW121359   0.638   0.817   4.052  0.1761  0.1844 -0.2759
 3300SOL    HW221360   0.601   0.878   4.177  0.4174  0.8923 -0.2756
 3301SOL     OW21361   1.117   0.586   0.024  0.3007 -0.6050 -0.2014
 3301SOL    HW121362   1.145   0.542  17.622 -2.6169 -1.7448 -0.5778
 3301SOL    HW221363   1.179   0.660   0.029 -0.9300  0.5700 -2.3439
 3302SOL     OW21364   1.435   1.102   4.007 -0.2588  0.0482  0.4786
 3302SOL    HW121365   1.526   1.076   4.025 -0.8818 -1.7152  0.9863
 3302SOL    HW221366   1.449   1.191   3.974  0.0516 -0.0612  0.3125
 3303SOL     OW21367   3.553   3.631   0.615  0.2221 -0.2061  0.1269
 3303SOL    HW121368   3.558   3.538   0.590 -2.0529 -0.8459  1.9559
 3303SOL    HW221369   3.552   3.640   0.710  1.0775  1.2472 -0.0236
 3304SOL     OW21370   2.904   3.235   9.400  0.1344  0.0971 -0.1265
 3304SOL    HW121371   2.911   3.250   9.305 -0.8572 -0.5741 -0.2994
 3304SOL    HW221372   2.913   3.326   9.430 -0.8686  0.3740 -0.6650
 3305SOL     OW21373   2.761   4.685   5.293  0.2779 -0.0071  0.5389
 3305SOL    HW121374   2.726   4.671   5.381 -1.9825 -2.5669 -0.7426
 3305SOL    HW221375   2.702   4.629   5.242  1.0593 -1.2075  0.9565
 3306SOL     OW21376   3.060   0.223   3.155 -0.5994 -0.1033  0.5183
 3306SOL    HW121377   3.020   0.145   3.194  1.7804 -1.4399  0.3073
 3306SOL    HW221378   3.146   0.186   3.134 -1.4993 -0.9886 -1.7002
 3307SOL     OW21379   1.191   0.492  17.460 -0.1092 -0.0917  0.0279
 3307SOL    HW121380   1.174   0.422  17.397  1.2362 -0.3602 -0.0242
 3307SOL    HW221381   1.278   0.516  17.429 -0.7205  2.3877  0.1848
 3308SOL     OW21382   4.602   3.162  11.025  0.2452  0.4019 -0.0941
 3308SOL    HW121383   4.564   3.079  11.055 -0.4785  1.1633  1.1376
 3308SOL    HW221384   4.629   3.138  10.937 -2.1975 -0.4749 -0.6064
 3309SOL     OW21385   0.888   4.073   7.783  0.2816  0.9846  0.1941
 3309SOL    HW121386   0.909   4.034   7.698  0.6308  1.9091 -0.1555
 3309SOL    HW221387   0.795   4.092   7.769  0.5251  1.4458 -0.8447
 3310SOL     OW21388   1.504   1.915   5.103  0.4709 -0.3229  0.7303
 3310SOL    HW121389   1.503   1.921   5.008 -0.8304 -0.2463  0.7575
 3310SOL    HW221390   1.516   2.006   5.129  0.3092  0.1798 -0.9532
 3311SOL     OW21391   3.297   0.357  12.091  0.4671 -0.2465  0.1201
 3311SOL    HW121392   3.268   0.272  12.125  0.6378 -0.3291  0.0584
 3311SOL    HW221393   3.390   0.343  12.073 -0.1015 -1.7775 -1.5831
 3312SOL     OW21394   1.477   1.610  17.109 -0.2280  0.6202  0.2179
 3312SOL    HW121395   1.567   1.602  17.139 -0.6090 -1.7682  0.6719
 3312SOL    HW221396   1.487   1.606  17.014 -0.0882 -2.8430  0.3985
 3313SOL     OW21397   3.205   3.617   1.678  0.3779 -0.4989  0.0223
 3313SOL    HW121398   3.260   3.543   1.652 -1.8852 -1.3701 -2.2888
 3313SOL    HW221399   3.238   3.674   1.609  1.7433 -0.8245  0.4187
 3314SOL     OW21400   4.171   3.372  16.267  0.3487  0.2416  0.2974
 3314SOL    HW121401   4.173   3.281  16.238 -1.0723  0.4380 -0.4246
 3314SOL    HW221402   4.118   3.360  16.346  0.5164  0.0226  0.3757
 3315SOL     OW21403   1.455   4.239   4.165 -0.6841 -0.2301  0.2196
 3315SOL    HW121404   1.385   4.249   4.101 -0.2455  2.0417  0.0981
 3315SOL    HW221405   1.444   4.146   4.187 -2.6143  0.1422  0.7679
 3316SOL     OW21406   0.544   0.765   2.115  0.1599  0.3960  0.0977
 3316SOL    HW121407   0.577   0.854   2.107 -4.2262  1.9265 -0.8171
 3316SOL    HW221408   0.610   0.728   2.174 -0.0298  1.0800  0.7357
 3317SOL     OW21409   3.085   1.615   3.843 -0.0630 -0.3326  1.0003
 3317SOL    HW121410   3.099   1.683   3.909 -0.6716  2.5017 -1.7749
 3317SOL    HW221411   3.112   1.670   3.768  3.4331  1.9575  3.8999
 3318SOL     OW21412   4.012   3.851   2.211  0.1743  0.7175  0.3484
 3318SOL    HW121413   4.079   3.909   2.172  0.3308 -1.4259 -2.6225
 3318SOL    HW221414   4.002   3.781   2.146  0.4835  1.8194 -0.9048
 3319SOL     OW21415   4.462   1.189  10.080 -0.9603 -0.3840  0.0068
 3319SOL    HW121416   4.536   1.226  10.128 -1.6099  1.5357 -0.4943
 3319SOL    HW221417   4.420   1.274  10.065 -2.3115 -0.8960  0.8868
 3320SOL     OW21418   3.138   1.215   1.415 -0.2769 -0.4086  0.3528
 3320SOL    HW121419   3.154   1.122   1.400 -0.2810 -0.4072  0.3401
 3320SOL    HW221420   3.220   1.228   1.462  0.4821 -0.4058 -0.9986
 3321SOL     OW21421   0.107   2.164  10.422  0.2214  0.3463  0.3417
 3321SOL    HW121422   0.187   2.113  10.424  1.6446  2.5423 -0.7260
 3321SOL    HW221423   0.104   2.182  10.516 -2.4573 -0.0350  0.3508
 3322SOL     OW21424   4.568   0.722   7.606  0.3035  0.1374  0.4353
 3322SOL    HW121425   4.562   0.806   7.560  0.2245 -1.1087 -1.8027
 3322SOL    HW221426   4.528   0.743   7.691  0.2893  0.1914  0.4156
 3323SOL     OW21427   3.177   2.302   4.710  0.1524  0.1191 -0.2420
 3323SOL    HW121428   3.187   2.207   4.699  1.5899  0.4648 -1.8773
 3323SOL    HW221429   3.206   2.333   4.624 -2.5929  0.6078 -0.9926
 3324SOL     OW21430   0.546   1.711  15.249 -0.0003  0.0449 -0.8134
 3324SOL    HW121431   0.580   1.644  15.190  0.6580  0.3148 -0.7457
 3324SOL    HW221432   0.461   1.678  15.277 -0.4316 -0.2254 -2.4303
 3325SOL     OW21433   1.170   0.123   2.450  0.5451 -0.1155  0.3114
 3325SOL    HW121434   1.077   0.144   2.456  0.8421  1.0327  0.8990
 3325SOL    HW221435   1.201   0.158   2.534 -1.3339  0.0383  0.9393
 3326SOL     OW21436   0.755   0.612   0.982  0.0411  0.2423 -0.3115
 3326SOL    HW121437   0.700   0.689   1.002  0.2929  0.2938  0.1739
 3326SOL    HW221438   0.815   0.629   1.054 -0.0608 -2.5700  0.4070
 3327SOL     OW21439   4.071   1.006   7.843 -0.0882 -0.0881 -0.0949
 3327SOL    HW121440   4.061   1.088   7.795 -0.5380  0.2025  0.4986
 3327SOL    HW221441   4.140   0.961   7.794 -0.6224 -0.5981 -0.3710
 3328SOL     OW21442   2.266   1.118   1.430  0.3378 -0.2740  0.1773
 3328SOL    HW121443   2.287   1.176   1.357 -0.6794 -0.7404 -0.4852
 3328SOL    HW221444   2.189   1.160   1.469 -0.5470 -1.2918 -0.4929
 3329SOL     OW21445   0.327   0.011  15.137 -0.3804 -0.1470  0.4420
 3329SOL    HW121446   0.365   0.070  15.071  0.0837  1.3311  2.0152
 3329SOL    HW221447   0.263   4.682  15.085  0.1615  0.8461 -1.1865
 3330SOL     OW21448   1.766   3.474   6.589  0.3181 -0.4580 -0.0200
 3330SOL    HW121449   1.727   3.394   6.624  2.1133 -2.1921 -1.9343
 3330SOL    HW221450   1.694   3.536   6.599  0.5234 -0.5114  1.6690
 3331SOL     OW21451   0.370   3.322   6.220 -0.4809 -0.4005 -0.5445
 3331SOL    HW121452   0.407   3.272   6.147 -1.1089 -1.9106  0.1669
 3331SOL    HW221453   0.437   3.307   6.287 -0.8824 -2.4238 -0.6163
 3332SOL     OW21454   3.116   0.059   8.093  0.3877 -0.1474 -0.0416
 3332SOL    HW121455   3.158   4.713   8.037 -1.4953  0.1769 -1.8332
 3332SOL    HW221456   3.054   0.101   8.034  1.1205  0.6792 -0.2203
 3333SOL     OW21457   0.389   2.164   7.975  0.0401  0.2311 -0.3845
 3333SOL    HW121458   0.404   2.173   7.880  1.4041 -2.3772 -0.4106
 3333SOL    HW221459   0.344   2.080   7.974 -0.1313  0.3481 -2.3203
 3334SOL     OW21460   0.716   0.540  13.028 -0.7667  0.3462  0.1183
 3334SOL    HW121461   0.776   0.493  13.085  2.3347  3.0055 -0.9680
 3334SOL    HW221462   0.761   0.624  13.023 -0.6097  0.3813  2.5564
 3335SOL     OW21463   3.515   1.189  12.508 -0.0604  0.8344  0.0009
 3335SOL    HW121464   3.544   1.217  12.594 -1.4887 -0.3654  0.8695
 3335SOL    HW221465   3.596   1.163  12.465 -0.2777  0.3823 -0.1393
 3336SOL     OW21466   4.220   0.811   1.812 -0.4514  0.1298  0.1712
 3336SOL    HW121467   4.172   0.791   1.892  2.5028 -0.6565  1.7170
 3336SOL    HW221468   4.197   0.736   1.757 -1.4411 -0.2527  1.1126
 3337SOL     OW21469   4.402   4.028   0.005  0.5972 -0.3602  0.2617
 3337SOL    HW121470   4.439   4.099   0.058  2.2389  0.3481 -1.7984
 3337SOL    HW221471   4.465   3.957   0.020 -0.9082 -1.5713  0.8382
 3338SOL     OW21472   2.520   2.152   7.322 -0.1686  0.0883  0.2108
 3338SOL    HW121473   2.542   2.132   7.231  0.0896  1.3388 -0.0007
 3338SOL    HW221474   2.587   2.098   7.366 -0.3859  1.0903  1.7687
 3339SOL     OW21475   3.355   0.170   3.727  0.5118 -0.5443  0.3926
 3339SOL    HW121476   3.368   0.081   3.693 -0.1810 -0.2070 -0.7373
 3339SOL    HW221477   3.259   0.175   3.727  0.5866  0.6640 -1.9306
 3340SOL     OW21478   4.286   2.330   3.151 -0.0628  0.1034  0.1879
 3340SOL    HW121479   4.260   2.325   3.059  1.4034 -0.1188 -0.2106
 3340SOL    HW221480   4.212   2.388   3.171  0.6798  0.7502  1.0215
 3341SOL     OW21481   4.558   2.153   8.196 -0.3476 -0.1380  0.1143
 3341SOL    HW121482   4.570   2.243   8.166 -0.1605 -0.1365  0.1922
 3341SOL    HW221483   4.594   2.105   8.121  1.0061 -0.3052  0.8642
 3342SOL     OW21484   4.182   2.283   8.451 -0.1444  0.8559 -0.0302
 3342SOL    HW121485   4.143   2.197   8.434 -0.3588  0.8069  0.7364
 3342SOL    HW221486   4.272   2.274   8.418 -0.6479  0.3206 -1.2855
 3343SOL     OW21487   3.327   4.421   3.482 -0.0412  0.4687 -0.1832
 3343SOL    HW121488   3.416   4.392   3.458 -1.5823 -1.5428 -3.4806
 3343SOL    HW221489   3.341   4.501   3.532 -3.2000  0.4169  0.7242
 3344SOL     OW21490   2.183   1.872  13.394 -0.0819  0.0365 -0.2997
 3344SOL    HW121491   2.175   1.967  13.389  0.7560 -0.0230 -2.4329
 3344SOL    HW221492   2.277   1.864  13.384  0.0345  2.5375 -1.1721
 3345SOL     OW21493   1.291   3.356   6.001 -0.0713  0.2032 -0.1588
 3345SOL    HW121494   1.342   3.369   6.081  1.9140 -3.7602 -0.7886
 3345SOL    HW221495   1.325   3.414   5.933 -0.7351  1.2391  0.3859
 3346SOL     OW21496   4.178   3.299   7.116 -0.1343 -0.1005 -0.4018
 3346SOL    HW121497   4.205   3.261   7.032  3.3684 -1.4150  1.2992
 3346SOL    HW221498   4.083   3.293   7.109 -0.2192  0.0928  0.5991
 3347SOL     OW21499   3.379   1.758   3.016  0.2184 -0.6238 -0.4220
 3347SOL    HW121500   3.353   1.699   3.088  0.1668  0.2404  0.2651
 3347SOL    HW221501   3.453   1.805   3.054 -1.7038  1.5114  0.6722
 3348SOL     OW21502   3.614   4.219   8.088  0.1828 -0.6234  0.1734
 3348SOL    HW121503   3.598   4.207   7.994  1.8630  0.1015 -0.2025
 3348SOL    HW221504   3.647   4.309   8.086  1.0530 -1.0404 -3.8715
 3349SOL     OW21505   4.452   1.128   1.778 -0.3385 -0.3771 -0.3753
 3349SOL    HW121506   4.443   1.062   1.846  0.7374 -1.6613 -1.4977
 3349SOL    HW221507   4.361   1.150   1.760 -0.3021  0.2926  0.2550
 3350SOL     OW21508   3.503   1.836  12.540 -0.0278 -0.2314  0.0046
 3350SOL    HW121509   3.477   1.918  12.498 -1.1513  0.4191  1.9638
 3350SOL    HW221510   3.533   1.794  12.459 -0.2661  0.0273 -0.2188
 3351SOL     OW21511   2.903   0.599   6.036 -0.0539 -0.2726  0.5562
 3351SOL    HW121512   2.844   0.558   6.099 -2.1139 -2.0249 -2.5041
 3351SOL    HW221513   2.959   0.522   6.028  1.7575  1.1166 -0.2515
 3352SOL     OW21514   0.901   2.350   8.196 -0.3293 -0.6405 -0.1065
 3352SOL    HW121515   0.894   2.294   8.273  1.5121 -1.9038 -0.8622
 3352SOL    HW221516   0.994   2.360   8.178 -0.0493 -0.1973  1.6235
 3353SOL     OW21517   3.281   3.319   6.267 -0.3972 -0.1424  0.3955
 3353SOL    HW121518   3.322   3.388   6.319  0.1470  1.0537 -1.5909
 3353SOL    HW221519   3.279   3.261   6.342 -0.8387 -1.8672 -0.9539
 3354SOL     OW21520   0.514   0.404   0.581  0.5258 -0.4375  0.3739
 3354SOL    HW121521   0.535   0.336   0.645 -0.4460 -0.8063  0.3086
 3354SOL    HW221522   0.463   0.469   0.629  1.6615 -0.3446  1.4461
 3355SOL     OW21523   1.439   0.032  10.899 -0.1920  0.0701  0.0409
 3355SOL    HW121524   1.389   0.028  10.818 -1.6597 -3.1065  1.1122
 3355SOL    HW221525   1.376   0.005  10.966  0.4384 -0.5644  0.3760
 3356SOL     OW21526   3.136   0.289  12.543 -0.7054 -0.1419 -0.1797
 3356SOL    HW121527   3.206   0.281  12.607 -0.9402 -2.1795 -0.1692
 3356SOL    HW221528   3.053   0.262  12.582 -0.0493 -0.0001  1.2859
 3357SOL     OW21529   1.719   1.494   9.422  0.1389 -0.1506 -0.3242
 3357SOL    HW121530   1.631   1.509   9.456 -0.4007  1.5134 -2.4302
 3357SOL    HW221531   1.748   1.585   9.414  0.0760 -0.0973  0.0559
 3358SOL     OW21532   4.264   2.961   3.431 -0.2603 -0.1515  0.4322
 3358SOL    HW121533   4.196   2.961   3.364  0.2807 -0.1023 -0.1272
 3358SOL    HW221534   4.240   3.021   3.500 -0.5583 -0.2666  0.4289
 3359SOL     OW21535   0.513   4.053   4.572 -0.5092 -0.6463  0.1185
 3359SOL    HW121536   0.427   4.091   4.590  0.3454  1.1635  0.3876
 3359SOL    HW221537   0.540   3.992   4.640  0.0213 -0.5540 -0.0123
 3360SOL     OW21538   3.256   2.150  11.593  0.3207 -0.5271 -0.3697
 3360SOL    HW121539   3.250   2.067  11.639 -2.6333 -0.7824 -1.2434
 3360SOL    HW221540   3.179   2.206  11.602 -0.6450 -1.9986  0.3155
 3361SOL     OW21541   1.926   3.894  17.640 -0.1158 -0.0927  0.8846
 3361SOL    HW121542   2.007   3.909   0.010  0.5518 -2.2376  0.4335
 3361SOL    HW221543   1.939   3.926  17.551  1.1385 -1.5732  0.5425
 3362SOL     OW21544   3.530   3.855   9.871  0.5499  0.2407 -0.1345
 3362SOL    HW121545   3.443   3.888   9.849  0.1249 -0.0118  1.1142
 3362SOL    HW221546   3.587   3.901   9.810  1.0612 -1.2405 -0.7755
 3363SOL     OW21547   1.225   0.972   7.788 -0.2671  0.2039 -0.2442
 3363SOL    HW121548   1.276   0.940   7.714 -0.5428 -1.4723  0.2908
 3363SOL    HW221549   1.260   1.056   7.819 -0.3838 -0.7355  2.5081
 3364SOL     OW21550   0.513   4.352  11.101  0.4224 -0.3395  0.3089
 3364SOL    HW121551   0.508   4.418  11.170  1.1583  0.4699 -0.4274
 3364SOL    HW221552   0.583   4.306  11.147 -0.3815 -0.6331  1.2294
 3365SOL     OW21553   2.419   3.288   7.808  0.0759  0.1457 -0.1839
 3365SOL    HW121554   2.354   3.250   7.748 -1.2281  0.3941  1.0652
 3365SOL    HW221555   2.489   3.230   7.780  0.5579  0.1242  1.0545
 3366SOL     OW21556   2.020   0.386   4.565  0.4704  0.5487  0.0093
 3366SOL    HW121557   1.932   0.389   4.528  1.4302  1.2905 -2.2451
 3366SOL    HW221558   2.069   0.450   4.513  1.2047  0.0514  0.0843
 3367SOL     OW21559   2.162   1.518  13.553 -0.0886  0.5581 -0.2856
 3367SOL    HW121560   2.175   1.609  13.581 -0.8269  0.8533 -0.9292
 3367SOL    HW221561   2.123   1.524  13.466  0.1857 -1.8199 -0.5528
 3368SOL     OW21562   4.064   1.106   5.973 -0.2953  0.3568  0.3978
 3368SOL    HW121563   4.067   1.038   5.906  1.5691  0.2347  0.6107
 3368SOL    HW221564   4.065   1.186   5.921 -0.1567  1.2488  1.7658
 3369SOL     OW21565   4.593   1.915   9.246 -0.5689 -0.3954  0.1055
 3369SOL    HW121566   4.665   1.922   9.309 -0.0048  0.6896 -0.6628
 3369SOL    HW221567   4.516   1.906   9.303 -1.0385  3.4678  0.1041
 3370SOL     OW21568   3.114   2.354  14.469 -0.1535 -0.2042  0.5499
 3370SOL    HW121569   3.078   2.351  14.380 -1.5814  1.7201  1.0678
 3370SOL    HW221570   3.043   2.394  14.520  0.0981  1.8997 -0.7146
 3371SOL     OW21571   2.301   1.815   6.235  0.4528 -0.1492 -0.0826
 3371SOL    HW121572   2.300   1.720   6.227 -2.6088  0.0392 -1.8586
 3371SOL    HW221573   2.258   1.841   6.154 -0.3503  1.0322  0.7294
 3372SOL     OW21574   4.191   3.821   4.549 -0.2991  0.2614 -0.4866
 3372SOL    HW121575   4.099   3.809   4.525  0.2842 -0.8537 -2.1832
 3372SOL    HW221576   4.235   3.759   4.491 -2.1655 -0.8101 -0.7611
 3373SOL     OW21577   2.476   2.154   9.545 -0.4453 -0.2634 -0.0058
 3373SOL    HW121578   2.421   2.174   9.469  2.7405  0.4572 -2.1563
 3373SOL    HW221579   2.563   2.184   9.518 -1.4427  0.7661 -2.0637
 3374SOL     OW21580   2.031   3.205   3.820  0.4508  0.0308  0.1723
 3374SOL    HW121581   1.998   3.263   3.890 -0.8139 -0.2567 -0.1931
 3374SOL    HW221582   2.037   3.132   3.881  0.5140 -0.5047 -0.4792
 3375SOL     OW21583   0.288   0.490   7.221 -0.7587  0.1600  0.7495
 3375SOL    HW121584   0.333   0.542   7.287  0.1466 -0.7083  0.8203
 3375SOL    HW221585   0.208   0.541   7.233 -1.2938 -0.5568  0.2630
 3376SOL     OW21586   3.064   0.347   4.420 -0.2810  0.0751  0.1084
 3376SOL    HW121587   2.978   0.305   4.430 -0.0109 -0.2574  0.9832
 3376SOL    HW221588   3.067   0.373   4.328 -1.7262  1.0452  0.3342
 3377SOL     OW21589   0.196   4.249  10.564  0.2991 -0.7225  0.9064
 3377SOL    HW121590   0.243   4.168  10.544 -0.6550 -1.1183  0.2155
 3377SOL    HW221591   0.114   4.227  10.519 -0.8285  0.7778  2.2296
 3378SOL     OW21592   1.935   2.494   5.896 -0.8154  0.2047 -0.5173
 3378SOL    HW121593   1.876   2.418   5.901  2.4268 -2.4447 -2.5999
 3378SOL    HW221594   2.025   2.468   5.875  0.0555  1.1007  2.0573
 3379SOL     OW21595   1.811   0.522  13.308  0.1029  0.5875 -0.1885
 3379SOL    HW121596   1.747   0.454  13.287  0.4564 -0.3915  1.9835
 3379SOL    HW221597   1.759   0.537  13.387  0.5574 -2.6733  0.7328
 3380SOL     OW21598   4.635   0.354   3.550  0.2977  0.4004 -0.4282
 3380SOL    HW121599   0.010   0.368   3.565  0.4983 -0.5480 -0.7661
 3380SOL    HW221600   4.617   0.410   3.475 -0.8494  0.2216 -0.2819
 3381SOL     OW21601   2.727   3.804  12.537 -0.0499  0.2036 -0.5107
 3381SOL    HW121602   2.719   3.879  12.479  1.5064 -0.0609 -1.0652
 3381SOL    HW221603   2.791   3.837  12.601 -0.9431  1.4306 -0.2353
 3382SOL     OW21604   4.307   0.047   4.232 -0.2821  0.0710  0.3514
 3382SOL    HW121605   4.212   0.041   4.239 -0.4511 -1.2902 -2.9968
 3382SOL    HW221606   4.324   0.068   4.140 -0.3610 -2.7338 -0.2992
 3383SOL     OW21607   3.196   3.814   8.888 -0.2857 -0.0077  0.0592
 3383SOL    HW121608   3.217   3.782   8.975  2.0358  0.4306 -0.3384
 3383SOL    HW221609   3.138   3.885   8.915 -0.4842 -0.2681  0.3105
 3384SOL     OW21610   4.624   4.006   8.853  0.2563  0.2811  0.1913
 3384SOL    HW121611   4.547   3.958   8.882  0.7421 -0.4027  0.3560
 3384SOL    HW221612   4.610   3.993   8.759 -0.1538  0.4485  0.2302
 3385SOL     OW21613   1.097   1.256   3.719  0.4892 -0.4171 -0.4259
 3385SOL    HW121614   1.164   1.301   3.770 -0.4611 -1.8491  2.0853
 3385SOL    HW221615   1.036   1.326   3.694  0.7943 -0.0398 -0.0974
 3386SOL     OW21616   1.013   2.591   7.546 -0.3205 -0.1032  0.1204
 3386SOL    HW121617   1.056   2.664   7.501 -0.3339  0.7262  1.4664
 3386SOL    HW221618   1.079   2.522   7.554 -1.6358 -1.6122 -1.7652
 3387SOL     OW21619   0.183   3.646  13.827  0.6341  0.1245 -0.1340
 3387SOL    HW121620   0.200   3.643  13.921 -0.4349 -0.8221  0.0263
 3387SOL    HW221621   0.127   3.723  13.816 -0.5696 -1.1778 -3.0695
 3388SOL     OW21622   3.338   3.645  17.488 -0.9678 -0.2752 -0.1002
 3388SOL    HW121623   3.294   3.577  17.438  1.2060 -2.0454  0.4097
 3388SOL    HW221624   3.266   3.688  17.533  1.2241  2.4120  0.8895
 3389SOL     OW21625   3.258   0.771   8.369 -0.0183  0.3969  0.0859
 3389SOL    HW121626   3.348   0.797   8.389  0.3402 -0.0696 -0.9311
 3389SOL    HW221627   3.275   0.681   8.342 -1.6461  0.1584 -0.1819
 3390SOL     OW21628   0.504   3.489   0.392 -0.3666 -0.6496  0.0337
 3390SOL    HW121629   0.512   3.481   0.488  1.1160 -0.1477 -0.0409
 3390SOL    HW221630   0.415   3.523   0.396 -0.4979 -0.7902 -2.1154
 3391SOL     OW21631   1.254   1.417   6.711 -0.1397  0.7852 -0.1778
 3391SOL    HW121632   1.218   1.500   6.742  1.8752  1.5227  0.1810
 3391SOL    HW221633   1.344   1.425   6.741  0.2578 -0.0752 -1.1288
 3392SOL     OW21634   1.324   0.921   3.724  0.0354 -0.1311  0.2782
 3392SOL    HW121635   1.373   0.844   3.753  0.4463 -0.0955 -0.3195
 3392SOL    HW221636   1.391   0.989   3.709 -2.6591  2.4275 -0.1920
 3393SOL     OW21637   3.587   1.735  15.671 -0.6547  0.7144 -0.1709
 3393SOL    HW121638   3.607   1.770  15.757  1.0755 -0.9974  0.1356
 3393SOL    HW221639   3.529   1.660  15.686  0.4039 -0.2588 -0.9519
 3394SOL     OW21640   2.804   2.950   3.749  0.5731  0.5778 -0.1188
 3394SOL    HW121641   2.759   2.870   3.777  1.6597 -0.2224 -0.6552
 3394SOL    HW221642   2.889   2.943   3.792  0.2481  2.1002  0.7681
 3395SOL     OW21643   3.763   3.874   3.433  0.5445  0.0801 -0.1140
 3395SOL    HW121644   3.858   3.864   3.442  0.2892 -2.0651  0.0493
 3395SOL    HW221645   3.738   3.785   3.412  0.6068  0.2732 -0.9881
 3396SOL     OW21646   4.265   3.563   5.030 -0.3946 -0.0417  0.3496
 3396SOL    HW121647   4.350   3.526   5.053  0.5513  1.0960 -1.2975
 3396SOL    HW221648   4.227   3.584   5.115 -1.0276 -1.0393  0.3132
 3397SOL     OW21649   0.005   3.757   0.407 -0.0789  0.3071 -0.3337
 3397SOL    HW121650   4.629   3.751   0.405 -0.0631 -0.4904  1.2896
 3397SOL    HW221651   0.014   3.787   0.497 -0.9278  0.1623 -0.2060
 3398SOL     OW21652   1.402   2.713   8.368 -0.3296 -0.5441  0.1540
 3398SOL    HW121653   1.495   2.737   8.374 -1.3009  2.9698  1.2196
 3398SOL    HW221654   1.381   2.730   8.460 -1.2584 -0.7907 -0.0146
 3399SOL     OW21655   4.279   0.802  17.217  0.5333  0.1306 -0.0476
 3399SOL    HW121656   4.190   0.818  17.250  1.1860  0.7204  1.4378
 3399SOL    HW221657   4.289   0.870  17.151 -1.0477 -0.6014 -1.0446
 3400SOL     OW21658   3.888   1.480  16.776 -0.2851 -0.4388 -0.5881
 3400SOL    HW121659   3.813   1.538  16.767  2.2044  2.9734  0.7216
 3400SOL    HW221660   3.942   1.482  16.697 -0.1118 -1.3495 -0.4936
 3401SOL     OW21661   0.650   3.540   0.970  0.5345  0.2123 -0.4614
 3401SOL    HW121662   0.616   3.515   1.056  0.4333 -1.1419 -0.8983
 3401SOL    HW221663   0.744   3.560   0.970  0.4979  0.3777 -1.0270
 3402SOL     OW21664   2.647   0.310   8.908  0.4426  0.2850  0.1939
 3402SOL    HW121665   2.671   0.393   8.867  3.0901 -0.2127  0.7362
 3402SOL    HW221666   2.566   0.293   8.860 -0.7216  3.4148  1.0622
 3403SOL     OW21667   1.604   1.433   6.357  0.2135  0.4599  0.5206
 3403SOL    HW121668   1.590   1.421   6.263  1.0302  0.7926  0.3510
 3403SOL    HW221669   1.599   1.343   6.390  0.7037  0.5235  0.7764
 3404SOL     OW21670   4.360   2.422  17.252 -0.2721  0.5516 -0.2887
 3404SOL    HW121671   4.403   2.505  17.273  0.9502  0.1348 -1.1939
 3404SOL    HW221672   4.335   2.387  17.338  1.4935  3.1972  1.3202
 3405SOL     OW21673   4.195   4.228   7.139  0.1093 -0.5879  0.3179
 3405SOL    HW121674   4.206   4.222   7.234  0.1819 -2.7377  0.1673
 3405SOL    HW221675   4.283   4.253   7.112  0.4745 -1.4664  0.6889
 3406SOL     OW21676   4.299   3.588  16.209  0.2063 -0.0137  0.5277
 3406SOL    HW121677   4.239   3.520  16.239 -1.1567  1.9998  2.3608
 3406SOL    HW221678   4.290   3.656  16.276 -2.2072 -0.6692  0.8611
 3407SOL     OW21679   1.874   0.649   3.023 -0.3237  0.0341 -0.3306
 3407SOL    HW121680   1.832   0.688   3.099  1.8191 -0.4674  1.1164
 3407SOL    HW221681   1.962   0.630   3.057  0.2244  1.0182 -1.2238
 3408SOL     OW21682   1.459   3.244  15.160  0.4637 -0.1329  0.2860
 3408SOL    HW121683   1.481   3.263  15.069  2.5265  0.1958  0.8529
 3408SOL    HW221684   1.404   3.319  15.183 -1.8368 -0.7589 -3.1572
 3409SOL     OW21685   3.832   2.932   7.578 -0.2082  0.3577 -0.4566
 3409SOL    HW121686   3.922   2.954   7.603 -0.6142 -0.7034  1.9093
 3409SOL    HW221687   3.833   2.945   7.483 -1.2582  0.4127 -0.4573
 3410SOL     OW21688   2.265   1.244   4.884  0.3286 -0.3804 -0.2228
 3410SOL    HW121689   2.288   1.228   4.976 -1.6093  1.1932  0.5562
 3410SOL    HW221690   2.246   1.338   4.878 -1.8675 -0.7142  1.6888
 3411SOL     OW21691   3.507   0.651  12.014 -0.2747 -0.4833 -0.2720
 3411SOL    HW121692   3.527   0.664  11.922  1.1438  0.0073  0.1058
 3411SOL    HW221693   3.414   0.667  12.027 -0.0501  0.6882 -0.0577
 3412SOL     OW21694   2.902   2.592  11.003  0.1582 -0.4515  0.0582
 3412SOL    HW121695   2.958   2.587  11.080  0.4022 -0.3152 -0.1137
 3412SOL    HW221696   2.860   2.678  11.006  3.3438  1.0945 -0.0890
 3413SOL     OW21697   4.356   4.158   0.571  0.4920 -0.3789  0.1762
 3413SOL    HW121698   4.404   4.146   0.653  1.2919  0.0856 -0.2262
 3413SOL    HW221699   4.273   4.112   0.587 -0.0851  1.1702  1.5287
 3414SOL     OW21700   1.230   2.897  15.934 -0.2495  0.6070 -0.0794
 3414SOL    HW121701   1.156   2.847  15.900  0.1330 -0.2461  0.3420
 3414SOL    HW221702   1.308   2.871  15.886 -0.8659 -0.1825 -0.6474
 3415SOL     OW21703   1.419   3.868  11.388  0.8340 -0.3928 -0.1617
 3415SOL    HW121704   1.447   3.922  11.462 -0.6930  0.9565 -0.5816
 3415SOL    HW221705   1.376   3.796  11.435  0.6730  1.8363  3.0973
 3416SOL     OW21706   0.619   4.692  11.206 -0.6726  0.3447 -0.8030
 3416SOL    HW121707   0.589   4.619  11.261  0.9065  0.2817 -0.0132
 3416SOL    HW221708   0.659   4.650  11.130  1.8866 -0.2626  0.8825
 3417SOL     OW21709   0.093   2.138   2.455 -0.8589 -0.2467 -0.7678
 3417SOL    HW121710   0.103   2.228   2.425  0.8410  0.2577  1.3133
 3417SOL    HW221711   0.181   2.132   2.494 -0.8965  0.4990 -0.5760
 3418SOL     OW21712   2.303   3.627   2.161 -0.3964  0.3229 -0.0109
 3418SOL    HW121713   2.244   3.572   2.110 -0.3249  0.2941 -0.0627
 3418SOL    HW221714   2.298   3.709   2.112  2.0103 -0.5564 -1.6945
 3419SOL     OW21715   3.678   0.322  17.162  0.1792  0.5051 -0.0741
 3419SOL    HW121716   3.677   0.239  17.115  0.7740  0.8062 -0.6111
 3419SOL    HW221717   3.642   0.302  17.249  0.1026  0.4036 -0.1284
 3420SOL     OW21718   2.452   0.985   6.172  0.4967  0.1141 -0.2059
 3420SOL    HW121719   2.424   1.076   6.174 -0.5703 -0.2050 -0.4656
 3420SOL    HW221720   2.384   0.961   6.236 -0.2837 -2.0250 -1.8254
 3421SOL     OW21721   2.157   2.097  16.757 -0.0057  0.8140 -0.2060
 3421SOL    HW121722   2.172   2.004  16.743  0.6438  0.5329  2.1962
 3421SOL    HW221723   2.068   2.106  16.792  0.1190 -2.5428  0.9956
 3422SOL     OW21724   0.299   0.707  12.493  0.1056 -0.1834  0.0817
 3422SOL    HW121725   0.346   0.788  12.473  0.4114  0.3495  2.8547
 3422SOL    HW221726   0.368   0.644  12.474  0.3392  0.2023 -0.3488
 3423SOL     OW21727   0.820   3.277   7.059  0.0341  0.4036  0.3631
 3423SOL    HW121728   0.912   3.276   7.032 -0.4589 -0.7530 -1.2863
 3423SOL    HW221729   0.775   3.224   6.993  0.5897 -0.1722  0.4503
 3424SOL     OW21730   1.369   2.667   4.948  0.4336 -0.1801  0.5026
 3424SOL    HW121731   1.378   2.719   4.868 -1.3917  0.5241  0.7466
 3424SOL    HW221732   1.355   2.727   5.022 -0.2934 -0.9393  0.9814
 3425SOL     OW21733   4.127   1.206   3.445  0.4569  0.0675 -0.0241
 3425SOL    HW121734   4.160   1.214   3.356  1.0070  2.0932  0.3669
 3425SOL    HW221735   4.031   1.200   3.437  0.3267  1.9531 -0.0096
 3426SOL     OW21736   1.697   1.052  14.169  0.0481  0.1086 -0.0418
 3426SOL    HW121737   1.780   1.085  14.136  1.2975 -1.5265  1.4809
 3426SOL    HW221738   1.715   1.038  14.262  1.6145  0.5329 -0.2785
 3427SOL     OW21739   3.193   4.411  12.722  0.3665 -0.6990 -0.1440
 3427SOL    HW121740   3.267   4.376  12.773 -0.5938 -1.7453  0.5268
 3427SOL    HW221741   3.189   4.333  12.667 -1.5892 -0.2847 -0.5547
 3428SOL     OW21742   0.092   2.179   6.527 -0.0146  0.3848  1.1693
 3428SOL    HW121743   0.079   2.154   6.618 -0.5785 -1.3949  0.5958
 3428SOL    HW221744   0.053   2.101   6.487 -0.5431  1.4397 -0.3580
 3429SOL     OW21745   4.408   4.438   3.414  0.5970  0.5447 -0.0587
 3429SOL    HW121746   4.474   4.503   3.392  1.6069 -0.0128  1.3020
 3429SOL    HW221747   4.332   4.484   3.378 -0.7145 -0.8163  0.9541
 3430SOL     OW21748   0.615   1.674   3.421  0.1394 -0.4027  0.2882
 3430SOL    HW121749   0.633   1.725   3.342  1.2155  0.9015  1.3709
 3430SOL    HW221750   0.601   1.588   3.382  2.1429 -0.7888  0.4396
 3431SOL     OW21751   3.576   4.424   4.576  0.0890  0.4333 -0.2612
 3431SOL    HW121752   3.497   4.376   4.553  0.3447  0.4033 -1.0596
 3431SOL    HW221753   3.574   4.422   4.672  3.8255 -1.2481 -0.2232
 3432SOL     OW21754   3.905   0.343   7.637 -0.3991 -0.7123 -0.0694
 3432SOL    HW121755   3.831   0.377   7.688 -1.5786  0.3897 -2.5593
 3432SOL    HW221756   3.976   0.399   7.668  0.4245 -1.4290 -0.6614
 3433SOL     OW21757   3.140   0.896   8.828  0.5094  0.4626  0.2116
 3433SOL    HW121758   3.124   0.860   8.741 -2.4211 -1.8245  1.7212
 3433SOL    HW221759   3.175   0.982   8.802  1.7303 -0.3775 -0.9142
 3434SOL     OW21760   3.758   0.721   7.368 -0.1808 -0.4558  0.1038
 3434SOL    HW121761   3.787   0.720   7.460 -2.8924 -0.9289  0.9619
 3434SOL    HW221762   3.663   0.707   7.377 -0.3742  1.2054  0.5414
 3435SOL     OW21763   0.607   1.944  14.358  0.5829 -0.2177 -0.1667
 3435SOL    HW121764   0.539   1.913  14.297  0.4288  1.0452 -0.6410
 3435SOL    HW221765   0.569   2.015  14.410 -1.2398 -2.6211  1.7978
 3436SOL     OW21766   2.347   1.685   3.517  0.2311  0.4665  0.4015
 3436SOL    HW121767   2.423   1.675   3.460 -2.6099 -0.2399 -3.3069
 3436SOL    HW221768   2.375   1.653   3.602 -0.6065  0.7370  0.7777
 3437SOL     OW21769   4.629   1.716   7.434  0.9029  0.5280  0.2671
 3437SOL    HW121770   4.637   1.647   7.500 -1.1921 -0.4715 -0.5277
 3437SOL    HW221771   4.654   1.667   7.356  0.0503  0.5181 -0.0052
 3438SOL     OW21772   0.578   0.874  11.276 -0.3360  0.4530 -0.1950
 3438SOL    HW121773   0.560   0.781  11.264  1.6594  0.0460 -0.0134
 3438SOL    HW221774   0.640   0.898  11.207 -0.5646 -1.2366 -0.9815
 3439SOL     OW21775   2.034   2.044  11.807  0.5756  0.4042  0.0688
 3439SOL    HW121776   2.084   2.044  11.888 -3.2987 -0.2570  2.4617
 3439SOL    HW221777   1.968   2.108  11.834  2.3608  1.2832  2.3102
 3440SOL     OW21778   1.164   2.141  12.872  0.6095  0.0940 -0.4521
 3440SOL    HW121779   1.147   2.092  12.953  1.0283  1.6833  0.5984
 3440SOL    HW221780   1.144   2.081  12.800  0.8798 -0.1302 -0.3388
 3441SOL     OW21781   3.817   3.818   8.075  0.0026 -0.3129  0.3441
 3441SOL    HW121782   3.857   3.747   8.024  1.7064  2.5083 -2.2744
 3441SOL    HW221783   3.724   3.805   8.053  0.0402  0.4385 -0.2702
 3442SOL     OW21784   2.356   0.011   0.832 -0.0046  0.1277  0.3278
 3442SOL    HW121785   2.417   0.012   0.759 -0.4406  1.2162 -0.0172
 3442SOL    HW221786   2.307   4.652   0.805  0.2768 -0.6123  1.9527
 3443SOL     OW21787   0.958   3.486  12.718 -0.3506 -0.2595 -0.5743
 3443SOL    HW121788   0.950   3.548  12.790  2.7150  0.3353 -0.7504
 3443SOL    HW221789   0.942   3.405  12.767 -1.2077 -0.7135 -1.6026
 3444SOL     OW21790   1.270   1.059   1.286 -0.3916  0.2201  0.7154
 3444SOL    HW121791   1.308   1.068   1.198 -0.8258 -0.0489  0.5042
 3444SOL    HW221792   1.354   1.063   1.333  0.0325 -1.3695  0.1002
 3445SOL     OW21793   1.358   3.004   4.559  0.0140  0.4287  0.3243
 3445SOL    HW121794   1.373   3.029   4.468  0.5273 -0.6701  0.1025
 3445SOL    HW221795   1.283   3.052   4.595 -1.2441 -0.5302 -1.0470
 3446SOL     OW21796   0.045   4.481   4.094  0.0026  0.3382  0.2374
 3446SOL    HW121797   4.679   4.447   4.067  0.7075 -0.1640 -1.4043
 3446SOL    HW221798   0.103   4.456   4.021 -0.8106  0.8178 -0.5808
 3447SOL     OW21799   4.277   2.617   5.184 -0.1998 -0.4320  0.1527
 3447SOL    HW121800   4.345   2.585   5.243  2.0310  0.8981 -1.7081
 3447SOL    HW221801   4.335   2.614   5.108 -0.1549  0.1209  0.1638
 3448SOL     OW21802   3.816   3.520   5.497 -0.2550 -0.0495  0.2761
 3448SOL    HW121803   3.830   3.614   5.492 -0.5863  0.0031  0.2985
 3448SOL    HW221804   3.868   3.499   5.574 -0.1644 -1.6763 -0.2183
 3449SOL     OW21805   1.434   1.450   5.179 -0.5358  0.2901 -0.5205
 3449SOL    HW121806   1.498   1.422   5.114 -0.2514 -1.5802  0.5648
 3449SOL    HW221807   1.419   1.370   5.230  1.1694  0.2971 -0.0294
 3450SOL     OW21808   3.337   4.032   4.662 -0.1510  0.2554 -0.1868
 3450SOL    HW121809   3.350   4.126   4.647 -0.3149 -0.0060 -1.9558
 3450SOL    HW221810   3.391   4.017   4.739 -0.9357  1.6182  0.6267
 3451SOL     OW21811   2.774   0.545   2.636  0.4122  0.2087 -0.5268
 3451SOL    HW121812   2.847   0.543   2.698  0.9461 -1.1146 -1.1877
 3451SOL    HW221813   2.711   0.580   2.700 -0.1585  0.9827 -1.5104
 3452SOL     OW21814   0.136   3.833   6.894 -0.1137  0.1609  0.3538
 3452SOL    HW121815   0.125   3.750   6.940  2.8105  0.2883  1.3388
 3452SOL    HW221816   0.069   3.877   6.947 -0.2634 -0.3402  0.5743
 3453SOL     OW21817   1.331   3.926  17.649 -0.3613 -0.4429  0.1444
 3453SOL    HW121818   1.319   4.016   0.002  1.7325  0.5996 -1.9945
 3453SOL    HW221819   1.426   3.929  17.633 -0.1795 -0.8642  1.1888
 3454SOL     OW21820   1.262   0.789   7.521  0.2268  0.2831  0.1821
 3454SOL    HW121821   1.175   0.827   7.532 -0.5169 -0.9948 -1.2929
 3454SOL    HW221822   1.262   0.807   7.427  0.7807  0.5697  0.2340
 3455SOL     OW21823   0.457   3.609   8.831 -0.3685 -0.3702 -0.1647
 3455SOL    HW121824   0.507   3.567   8.761  0.3191 -1.4673  0.9876
 3455SOL    HW221825   0.371   3.570   8.815  0.1683 -2.4489  1.9019
 3456SOL     OW21826   0.606   4.475   4.383  0.4661 -0.4268  0.6021
 3456SOL    HW121827   0.606   4.503   4.474 -1.4364 -1.1572  0.8395
 3456SOL    HW221828   0.513   4.471   4.359  0.7469  0.0183 -0.5634
 3457SOL     OW21829   1.951   2.370  14.930 -0.4754  0.5641 -0.0181
 3457SOL    HW121830   1.958   2.365  14.835  0.8355 -0.7408  0.1503
 3457SOL    HW221831   1.875   2.426  14.946  0.1983  1.0242  1.5255
 3458SOL     OW21832   0.790   4.044   9.447 -0.3301  0.0031  0.7855
 3458SOL    HW121833   0.835   3.965   9.477  1.9519  1.1750  0.4916
 3458SOL    HW221834   0.860   4.084   9.395  0.7000 -1.8577  0.7342
 3459SOL     OW21835   0.534   4.600   1.831 -0.4589 -0.0311  0.1153
 3459SOL    HW121836   0.523   4.686   1.792  1.1178 -0.8190 -2.1062
 3459SOL    HW221837   0.614   4.568   1.788  1.0731  2.5016  1.0502
 3460SOL     OW21838   0.865   2.810  13.260 -0.0587  0.1330  0.1680
 3460SOL    HW121839   0.869   2.715  13.251 -0.9083  0.2654 -1.4604
 3460SOL    HW221840   0.928   2.833  13.192  0.0040  3.6611  1.4379
 3461SOL     OW21841   0.677   1.861   3.609  0.0283 -0.4971  0.7216
 3461SOL    HW121842   0.754   1.881   3.556 -0.4271  2.9469  1.3583
 3461SOL    HW221843   0.644   1.787   3.558  0.3537 -1.7535  2.3366
 3462SOL     OW21844   1.626   0.205   1.048 -0.3639  0.2422 -0.0965
 3462SOL    HW121845   1.664   0.196   0.961  1.1945 -0.3265  0.6478
 3462SOL    HW221846   1.552   0.145   1.043  1.3403 -1.5482 -3.9313
 3463SOL     OW21847   3.375   4.449   3.897 -0.0762 -0.3702  0.2990
 3463SOL    HW121848   3.451   4.393   3.882 -0.0434 -0.0397 -0.7633
 3463SOL    HW221849   3.430   4.516   3.937 -1.3813 -0.0934  1.6218
 3464SOL     OW21850   0.718   4.012  12.462  0.5720 -0.2250 -1.0429
 3464SOL    HW121851   0.807   4.015  12.496 -0.3174  0.0576  1.2400
 3464SOL    HW221852   0.703   3.918  12.448  0.1482 -0.4002  0.5505
 3465SOL     OW21853   3.635   0.599   2.500 -0.7865  0.4534 -0.0491
 3465SOL    HW121854   3.625   0.633   2.411 -0.3220 -0.3276 -0.3937
 3465SOL    HW221855   3.545   0.575   2.521 -0.1684 -0.1913  1.8700
 3466SOL     OW21856   3.811   2.347   8.899  0.2556  0.0177 -0.2260
 3466SOL    HW121857   3.742   2.351   8.965 -1.5459  2.0790 -2.2699
 3466SOL    HW221858   3.889   2.347   8.955 -1.1437 -2.0110  1.7186
 3467SOL     OW21859   0.587   3.420   7.194 -0.2282  0.3097 -0.1665
 3467SOL    HW121860   0.668   3.381   7.163 -0.9656  0.6795 -2.5413
 3467SOL    HW221861   0.620   3.474   7.266  1.3544  0.7761 -1.2446
 3468SOL     OW21862   2.588   2.441  15.541 -0.2071  0.3944  0.4863
 3468SOL    HW121863   2.624   2.364  15.585  1.1664  0.3540 -0.7109
 3468SOL    HW221864   2.610   2.414  15.452  0.7650  1.0214  0.5254
 3469SOL     OW21865   4.462   4.650   6.813 -0.1156 -0.1480 -0.0514
 3469SOL    HW121866   4.522   4.598   6.866  0.1580  1.2427  1.0095
 3469SOL    HW221867   4.432   4.718   6.874 -0.0608  0.0822 -0.2786
 3470SOL     OW21868   0.415   1.662   8.558 -0.2248  0.0538 -0.2153
 3470SOL    HW121869   0.409   1.598   8.629  1.0093  0.9842  0.7209
 3470SOL    HW221870   0.419   1.602   8.484  0.9044  0.5866 -0.5701
 3471SOL     OW21871   2.962   3.473   3.297 -0.0566  0.2787 -0.3435
 3471SOL    HW121872   2.884   3.492   3.244 -0.2463 -0.8697 -0.4753
 3471SOL    HW221873   2.953   3.379   3.314  1.3340 -0.1905 -2.1663
 3472SOL     OW21874   1.833   2.205  11.839 -0.1673  0.6535  0.8569
 3472SOL    HW121875   1.890   2.276  11.810  2.0131 -0.9277  1.3083
 3472SOL    HW221876   1.751   2.250  11.859 -0.6889  1.0048 -2.0269
 3473SOL     OW21877   4.687   4.306  12.237  0.3535  0.2824 -0.5700
 3473SOL    HW121878   0.058   4.325  12.213  0.9245 -0.5185  0.9203
 3473SOL    HW221879   4.637   4.319  12.156 -1.0563  3.3146  0.7871
 3474SOL     OW21880   3.712   1.824   9.251  0.0511  0.3583  0.0493
 3474SOL    HW121881   3.618   1.839   9.263 -0.2027 -0.4743 -0.9159
 3474SOL    HW221882   3.745   1.899   9.302  0.7322 -0.2727  0.5323
 3475SOL     OW21883   2.762   3.597  11.283 -0.0951  0.0996 -0.7418
 3475SOL    HW121884   2.736   3.683  11.314  0.2157  0.1337 -0.5716
 3475SOL    HW221885   2.784   3.556  11.367 -0.7970 -0.3764 -0.7926
 3476SOL     OW21886   1.680   0.616   9.950  0.0789 -0.2326 -0.4076
 3476SOL    HW121887   1.645   0.680   9.888 -0.7125 -1.5873 -1.3689
 3476SOL    HW221888   1.773   0.633   9.941  0.2571 -1.9937 -1.9455
 3477SOL     OW21889   1.875   0.078   4.719 -0.3666  0.2785  0.1073
 3477SOL    HW121890   1.820   0.147   4.683  0.4388  1.4300  1.0601
 3477SOL    HW221891   1.827   0.005   4.681  0.2655 -0.0677 -0.0366
 3478SOL     OW21892   0.627   3.770   6.060  0.7056 -0.1468  0.0948
 3478SOL    HW121893   0.557   3.783   5.996  1.9771  0.3205 -1.1926
 3478SOL    HW221894   0.627   3.675   6.047  0.7762 -0.2690  1.0080
 3479SOL     OW21895   4.030   3.840   3.465 -0.4002 -0.2700 -0.8508
 3479SOL    HW121896   4.118   3.847   3.501 -1.0672 -2.0933  1.0980
 3479SOL    HW221897   4.044   3.870   3.375 -0.6281  1.3275 -0.3648
 3480SOL     OW21898   2.497   1.510   4.114  0.3520 -0.0195  0.1119
 3480SOL    HW121899   2.564   1.443   4.125  1.4997  0.9012 -1.2363
 3480SOL    HW221900   2.423   1.453   4.091 -0.5198  0.8688  0.6900
 3481SOL     OW21901   4.291   4.284   3.608 -0.0938  0.4219 -0.3077
 3481SOL    HW121902   4.311   4.327   3.525 -0.9716  0.8592 -0.2988
 3481SOL    HW221903   4.281   4.367   3.655  1.3156 -0.0604  0.8515
 3482SOL     OW21904   0.383   0.087  11.663 -0.2460 -0.3089 -0.0630
 3482SOL    HW121905   0.333   0.072  11.743  2.9689 -0.4397  1.9316
 3482SOL    HW221906   0.423   0.173  11.675  0.6397 -0.7167 -0.1240
 3483SOL     OW21907   3.440   0.266   4.269 -0.1257 -0.5236  0.5227
 3483SOL    HW121908   3.432   0.269   4.173  2.5578  2.6040  0.3947
 3483SOL    HW221909   3.464   0.358   4.283  0.9442 -0.9255  1.2018
 3484SOL     OW21910   0.232   1.338   8.123 -0.4702  0.4001  0.0513
 3484SOL    HW121911   0.265   1.360   8.035 -1.9723 -1.5923 -1.0021
 3484SOL    HW221912   0.139   1.330   8.101 -0.7487  2.9851  0.3466
 3485SOL     OW21913   2.576   1.218  12.153  0.1125  0.4882 -0.0769
 3485SOL    HW121914   2.657   1.214  12.103  0.6866 -1.0874  0.9819
 3485SOL    HW221915   2.589   1.139  12.205 -0.0344  0.0789 -0.6605
 3486SOL     OW21916   0.316   1.891   6.319  0.0867  0.2907  0.3400
 3486SOL    HW121917   0.276   1.928   6.241 -0.2495  0.8222  0.7618
 3486SOL    HW221918   0.240   1.843   6.353 -1.5430  0.2625 -3.3537
 3487SOL     OW21919   2.031   0.805  14.052  0.5758  0.3567  0.8342
 3487SOL    HW121920   2.121   0.805  14.087  1.1283  1.6470 -0.5484
 3487SOL    HW221921   1.981   0.782  14.130 -2.1956  1.4812 -0.6265
 3488SOL     OW21922   3.432   2.130   5.679 -0.6397  0.0949 -0.2918
 3488SOL    HW121923   3.371   2.056   5.673 -0.5503  0.0066 -0.1338
 3488SOL    HW221924   3.504   2.084   5.723 -1.0307  0.5161  0.8006
 3489SOL     OW21925   3.402   0.177   4.554 -0.2512  0.0634 -0.3613
 3489SOL    HW121926   3.430   0.220   4.473 -2.6182  0.3863 -1.0183
 3489SOL    HW221927   3.460   0.102   4.560  1.2707  1.1783 -1.1704
 3490SOL     OW21928   4.460   1.522  17.557 -0.0242  0.8872  0.3787
 3490SOL    HW121929   4.417   1.447  17.599  1.2229  1.9084  3.4580
 3490SOL    HW221930   4.546   1.499  17.592 -0.4007  2.0532  2.0591
 3491SOL     OW21931   0.386   2.898   3.102  0.1496 -0.6662  0.3272
 3491SOL    HW121932   0.391   2.804   3.118 -2.0810 -0.9242 -0.5557
 3491SOL    HW221933   0.411   2.903   3.010 -0.8194  0.9978  0.1626
 3492SOL     OW21934   0.038   3.805   5.024  0.5518 -0.0443  0.0025
 3492SOL    HW121935   0.097   3.852   5.083 -0.9027  1.5230  0.2023
 3492SOL    HW221936   0.012   3.730   5.077  1.5436 -1.2175 -1.1797
 3493SOL     OW21937   3.916   0.466   4.825 -0.0628 -0.3845 -0.3644
 3493SOL    HW121938   3.852   0.484   4.894 -0.3561  2.0862 -1.2546
 3493SOL    HW221939   3.977   0.540   4.829 -0.2657 -0.3258  1.7102
 3494SOL     OW21940   0.167   1.819  14.976 -0.1103 -0.0378  0.6174
 3494SOL    HW121941   0.179   1.730  15.006  1.6999 -0.5063 -1.5032
 3494SOL    HW221942   0.256   1.841  14.950  1.2168 -2.6979  2.9871
 3495SOL     OW21943   1.408   0.418  13.415 -0.9195  0.5732  0.4547
 3495SOL    HW121944   1.440   0.452  13.499 -2.8494 -2.0036  2.2244
 3495SOL    HW221945   1.485   0.434  13.361  0.2445 -0.4792  1.7851
 3496SOL     OW21946   1.523   0.508   1.763  0.6706 -0.5642 -0.6262
 3496SOL    HW121947   1.565   0.544   1.842  0.6942 -1.1425 -0.3782
 3496SOL    HW221948   1.545   0.576   1.700  1.4107  0.1849  0.4228
 3497SOL     OW21949   4.070   3.499   3.909 -0.6974 -0.3770  0.3701
 3497SOL    HW121950   4.076   3.582   3.955 -1.1703 -0.1172 -0.0381
 3497SOL    HW221951   3.977   3.477   3.913 -1.2302  1.9611  0.7945
 3498SOL     OW21952   4.121   2.637   2.529 -0.4071 -0.7727  0.3712
 3498SOL    HW121953   4.153   2.719   2.565 -2.4600  0.3279 -0.3161
 3498SOL    HW221954   4.129   2.654   2.435  1.0242  1.2468  0.8512
 3499SOL     OW21955   0.796   4.216   7.126 -0.2994  0.8367 -0.3572
 3499SOL    HW121956   0.814   4.248   7.037  0.0175 -1.0254 -0.9711
 3499SOL    HW221957   0.851   4.264   7.188 -3.0326  0.4177  2.3214
 3500SOL     OW21958   0.673   1.664  16.450 -0.2395 -0.2722 -0.4040
 3500SOL    HW121959   0.738   1.605  16.411  0.5069 -0.1001  0.5717
 3500SOL    HW221960   0.619   1.673  16.371 -1.1217  1.1503  0.3694
 3501SOL     OW21961   3.739   0.342   2.034 -0.3979 -0.1752 -0.8446
 3501SOL    HW121962   3.684   0.340   2.113  0.3922  1.4157 -0.2636
 3501SOL    HW221963   3.781   0.257   2.043  1.6964  0.8558 -1.0636
 3502SOL     OW21964   3.522   1.910   7.470 -0.2322  0.1367  0.0490
 3502SOL    HW121965   3.510   1.816   7.458 -1.1285  0.3997 -1.0628
 3502SOL    HW221966   3.569   1.916   7.387 -2.4975  1.6624 -1.1332
 3503SOL     OW21967   3.597   2.534   5.371 -0.0712  0.0642 -0.1372
 3503SOL    HW121968   3.661   2.520   5.441 -0.7434  0.1714  0.4859
 3503SOL    HW221969   3.513   2.509   5.408  0.5900 -0.6838  0.8392
 3504SOL     OW21970   2.852   0.049  16.306  0.2539 -0.4085  1.1031
 3504SOL    HW121971   2.880   0.140  16.314 -1.1479  0.1258 -0.1366
 3504SOL    HW221972   2.800   0.049  16.226  1.5269 -1.2709  0.2747
 3505SOL     OW21973   3.092   1.816   7.211 -0.2819  0.1615  0.1705
 3505SOL    HW121974   3.143   1.745   7.171 -1.0611 -0.2421 -0.1206
 3505SOL    HW221975   3.044   1.763   7.274  0.3542  0.5857  0.9954
 3506SOL     OW21976   2.998   1.484  11.129 -0.4312 -0.3259 -0.0439
 3506SOL    HW121977   2.955   1.433  11.198  0.7766  0.8990  1.6093
 3506SOL    HW221978   2.983   1.571  11.166 -0.0389 -0.3617  0.1966
 3507SOL     OW21979   2.480   2.456  10.205 -0.2510  0.1388 -0.1690
 3507SOL    HW121980   2.399   2.489  10.244  0.8955  1.2409  1.2584
 3507SOL    HW221981   2.536   2.530  10.226 -2.0527  1.0649  1.4423
 3508SOL     OW21982   1.909   4.548   4.498 -0.0194  0.2369  0.0228
 3508SOL    HW121983   1.888   4.552   4.405 -2.4106 -2.5851  0.4528
 3508SOL    HW221984   1.843   4.491   4.535  0.9153 -0.8553 -0.0063
 3509SOL     OW21985   3.257   2.197  15.510  0.2516 -0.1054 -0.3970
 3509SOL    HW121986   3.336   2.161  15.468 -0.2644  0.0845 -1.5236
 3509SOL    HW221987   3.277   2.290  15.521 -0.0124 -0.2172  1.0012
 3510SOL     OW21988   3.204   0.759  11.767  0.0864  0.0076  0.5936
 3510SOL    HW121989   3.204   0.767  11.862  1.5756 -0.6789  0.6470
 3510SOL    HW221990   3.252   0.676  11.762  0.5346  0.1843  2.0110
 3511SOL     OW21991   0.321   1.880   6.629  0.7996 -0.0199  0.0924
 3511SOL    HW121992   0.344   1.868   6.537 -1.0815  0.0249 -0.3856
 3511SOL    HW221993   0.381   1.815   6.666 -0.6406 -2.2717 -1.5108
 3512SOL     OW21994   2.368   0.256  17.485 -0.0018  0.1904  0.1234
 3512SOL    HW121995   2.324   0.340  17.471 -0.0518  0.1024 -0.2503
 3512SOL    HW221996   2.450   0.268  17.533 -0.6841  2.1004  0.8187
 3513SOL     OW21997   3.704   1.271   8.338  0.4009 -0.3236  0.3445
 3513SOL    HW121998   3.785   1.309   8.305 -0.4405  1.5289  0.4175
 3513SOL    HW221999   3.710   1.258   8.432 -1.3744 -1.2308  0.3334
 3514SOL     OW22000   0.485   2.762   4.271 -0.4132 -0.1131 -0.5089
 3514SOL    HW122001   0.398   2.781   4.234 -0.7434  1.1778  0.9102
 3514SOL    HW222002   0.511   2.683   4.224  0.6603  1.7682 -3.0815
 3515SOL     OW22003   3.132   2.920   2.619  0.1087 -0.0808 -0.6049
 3515SOL    HW122004   3.068   2.914   2.548 -0.8728  0.4584  0.2367
 3515SOL    HW222005   3.212   2.881   2.584  0.3452  0.7644 -0.9970
 3516SOL     OW22006   3.850   3.329   6.577  0.5424 -0.4553 -0.1010
 3516SOL    HW122007   3.939   3.356   6.598 -0.1185  1.2045  0.5358
 3516SOL    HW222008   3.805   3.342   6.660  1.2671  0.2382  0.1804
 3517SOL     OW22009   0.080   2.052  17.228  0.2095  0.1332  0.4407
 3517SOL    HW122010   0.129   1.979  17.190 -2.0717 -1.3215  0.2832
 3517SOL    HW222011   0.012   1.992  17.260  0.3857 -0.2362  0.1155
 3518SOL     OW22012   4.384   3.349  14.902  0.4426  0.3204 -0.1724
 3518SOL    HW122013   4.472   3.357  14.865  1.1290  0.4976  1.4894
 3518SOL    HW222014   4.346   3.284  14.843  1.2395  0.6409 -1.0221
 3519SOL     OW22015   0.294   0.409   6.421 -0.7016 -0.4077 -0.1620
 3519SOL    HW122016   0.346   0.353   6.363 -2.0180 -1.1717 -0.6196
 3519SOL    HW222017   0.233   0.343   6.454 -1.2955  0.3979  0.3480
 3520SOL     OW22018   4.025   1.362   7.983  0.2630 -0.5734  0.4317
 3520SOL    HW122019   4.114   1.391   7.963 -0.0911 -0.2962 -0.7294
 3520SOL    HW222020   3.973   1.387   7.907  0.8986 -1.1900 -0.2074
 3521SOL     OW22021   3.078   2.712   7.997  0.4057  0.0920  0.5205
 3521SOL    HW122022   3.017   2.654   8.044  0.9367 -1.8619 -1.2113
 3521SOL    HW222023   3.164   2.692   8.034  0.0926 -3.1782 -0.4809
 3522SOL     OW22024   2.673   0.071   9.383  0.6667 -0.7436 -0.4543
 3522SOL    HW122025   2.662   0.058   9.478  0.6007  0.7028 -0.2663
 3522SOL    HW222026   2.581   0.082   9.357  1.8148 -0.4981 -4.2924
 3523SOL     OW22027   0.158   0.195   6.165  0.3320  0.0930  0.1473
 3523SOL    HW122028   0.178   0.139   6.240  2.3232  0.6642  0.0291
 3523SOL    HW222029   0.067   0.166   6.155  0.1456  1.9093 -3.4621
 3524SOL     OW22030   0.206   0.324   4.846  0.4973  0.2234 -0.5046
 3524SOL    HW122031   0.182   0.254   4.907 -1.3777  2.1021  0.9051
 3524SOL    HW222032   0.288   0.288   4.812  0.4209 -0.5546  0.1160
 3525SOL     OW22033   1.119   1.548   0.634  0.0228 -0.0954  0.1530
 3525SOL    HW122034   1.166   1.618   0.588 -0.7837  1.1575  1.2139
 3525SOL    HW222035   1.182   1.476   0.636 -1.7901 -1.7047 -0.8666
 3526SOL     OW22036   3.798   3.454   3.208  0.7260 -0.5110 -0.0037
 3526SOL    HW122037   3.793   3.498   3.293 -0.2815 -1.7626  0.5812
 3526SOL    HW222038   3.875   3.496   3.170 -0.1408  0.5031 -0.6538
 3527SOL     OW22039   3.832   1.670   2.297  0.2959  0.5670  0.4309
 3527SOL    HW122040   3.773   1.609   2.253  0.4046  1.1645 -0.5345
 3527SOL    HW222041   3.812   1.651   2.389  0.5329 -1.4013  0.0705
 3528SOL     OW22042   4.575   2.237  10.305  0.6788  0.0545 -0.1291
 3528SOL    HW122043   4.583   2.309  10.367 -1.5859 -1.9692  2.5006
 3528SOL    HW222044   4.656   2.187  10.320  1.6323  1.3180 -1.1339
 3529SOL     OW22045   2.396   2.655   8.466 -0.1254 -0.5415  0.2039
 3529SOL    HW122046   2.345   2.735   8.480  1.1779  0.9316 -3.2732
 3529SOL    HW222047   2.382   2.602   8.544 -3.1494 -0.1629 -0.1066
 3530SOL     OW22048   0.173   3.395   4.656 -0.2644 -0.5025  0.5634
 3530SOL    HW122049   0.159   3.309   4.695  0.4799 -1.1729 -0.6481
 3530SOL    HW222050   0.166   3.451   4.733  1.9741  0.3054  0.1898
 3531SOL     OW22051   1.476   1.467   0.489  0.2643  0.1262  0.0178
 3531SOL    HW122052   1.436   1.405   0.549 -1.2263  0.0824 -1.0161
 3531SOL    HW222053   1.538   1.515   0.544  0.4528 -0.8730  0.6786
 3532SOL     OW22054   3.107   0.486  13.308 -0.1047  0.2664  0.2051
 3532SOL    HW122055   3.190   0.438  13.315 -0.3895 -0.4522 -1.2458
 3532SOL    HW222056   3.134   0.568  13.267  1.9256 -0.5693 -0.1605
 3533SOL     OW22057   0.872   0.189   6.522  0.4221  0.8896 -0.3076
 3533SOL    HW122058   0.850   0.184   6.429 -1.5127  3.3039  0.0304
 3533SOL    HW222059   0.783   0.183   6.556  1.5117  0.7247  2.5285
 3534SOL     OW22060   3.573   0.467   9.753  0.6347 -0.3261 -0.2985
 3534SOL    HW122061   3.641   0.417   9.708 -0.0549 -0.3648 -1.2863
 3534SOL    HW222062   3.619   0.522   9.816 -2.0928  0.2189  1.1994
 3535SOL     OW22063   3.182   2.573   9.437  0.0883  0.2077 -0.3355
 3535SOL    HW122064   3.150   2.498   9.387 -1.1752  0.5929 -0.0987
 3535SOL    HW222065   3.108   2.632   9.428  0.6745  1.1903  1.2533
 3536SOL     OW22066   4.183   3.238   0.465  0.3252  0.0395  0.4915
 3536SOL    HW122067   4.246   3.181   0.421 -1.0640 -0.6332 -0.6323
 3536SOL    HW222068   4.203   3.323   0.425 -1.7109 -1.0251 -2.7680
 3537SOL     OW22069   1.753   1.274   9.590 -0.2885 -0.1694 -0.4704
 3537SOL    HW122070   1.724   1.338   9.655  1.6171 -1.6903  1.8956
 3537SOL    HW222071   1.757   1.331   9.513  0.7487 -1.4334 -1.3599
 3538SOL     OW22072   2.050   3.539  11.706  0.1640 -0.3326 -1.1315
 3538SOL    HW122073   2.108   3.495  11.768 -0.4237 -1.9432 -1.7045
 3538SOL    HW222074   2.113   3.605  11.677  1.2581 -0.8223  0.1526
 3539SOL     OW22075   0.843   2.215   4.730 -0.2448  0.4484 -0.5220
 3539SOL    HW122076   0.826   2.121   4.721  1.9030  0.1922 -2.1308
 3539SOL    HW222077   0.883   2.235   4.645  0.0384  2.2180  0.0419
 3540SOL     OW22078   3.348   1.463   3.197 -0.4761  0.1098  0.1827
 3540SOL    HW122079   3.280   1.529   3.199 -0.7839 -0.1623 -1.9767
 3540SOL    HW222080   3.417   1.498   3.253 -1.8400  2.0020  0.6481
 3541SOL     OW22081   0.865   2.289   5.837  0.1344 -0.0514  1.2234
 3541SOL    HW122082   0.955   2.298   5.868  1.1006 -2.3927 -0.8925
 3541SOL    HW222083   0.839   2.205   5.875 -0.5262 -1.2789 -1.8486
 3542SOL     OW22084   0.351   0.300   1.999  0.2111 -0.1260 -0.4863
 3542SOL    HW122085   0.291   0.303   2.074 -0.0734  1.0880 -0.7700
 3542SOL    HW222086   0.311   0.230   1.948 -2.0041  0.9892 -0.3001
 3543SOL     OW22087   0.122   0.608  16.716  0.3255  0.0585 -0.1330
 3543SOL    HW122088   0.146   0.587  16.806  1.5293 -0.8199 -0.6610
 3543SOL    HW222089   0.110   0.525  16.670  0.7149 -0.0962  0.0457
 3544SOL     OW22090   0.862   4.152   0.335  0.1169 -0.5238  0.1537
 3544SOL    HW122091   0.907   4.070   0.356 -0.6313 -1.2613 -1.1924
 3544SOL    HW222092   0.771   4.124   0.326  0.0741 -1.0073  2.0466
 3545SOL     OW22093   0.976   1.772  13.638 -0.4116  0.6052  0.3298
 3545SOL    HW122094   1.070   1.773  13.619 -0.1020 -4.6243  1.6347
 3545SOL    HW222095   0.974   1.698  13.698  2.9502  0.7697  0.6158
 3546SOL     OW22096   0.867   0.283   8.787 -0.1729 -0.3227  0.3495
 3546SOL    HW122097   0.913   0.329   8.858 -1.0536 -0.4786  1.0179
 3546SOL    HW222098   0.781   0.273   8.828 -1.2062  2.4899 -1.1165
 3547SOL     OW22099   1.330   3.882   7.480 -0.5775  0.1598  0.4370
 3547SOL    HW122100   1.301   3.873   7.571  0.3002 -1.9930  0.4974
 3547SOL    HW222101   1.328   3.794   7.444  0.2872 -0.7600  2.6242
 3548SOL     OW22102   4.182   2.880   2.618  0.3529 -0.0686 -0.2870
 3548SOL    HW122103   4.107   2.933   2.591 -0.7967 -1.7842 -0.4915
 3548SOL    HW222104   4.207   2.924   2.699 -0.1186  0.9012 -0.6722
 3549SOL     OW22105   1.386   1.182   7.894 -0.1937  0.3307 -0.1401
 3549SOL    HW122106   1.372   1.276   7.904  2.4329  0.7595 -0.5320
 3549SOL    HW222107   1.475   1.174   7.926 -0.5463 -0.8070  0.5772
 3550SOL     OW22108   1.172   0.416   6.400 -0.3596 -0.6645 -0.0652
 3550SOL    HW122109   1.164   0.366   6.319 -1.0268 -0.3503 -0.1870
 3550SOL    HW222110   1.082   0.444   6.411 -0.6254 -1.5934  0.1094
 3551SOL     OW22111   3.840   1.548   5.275  0.3568  0.1979 -0.2997
 3551SOL    HW122112   3.791   1.566   5.355 -0.4466 -0.1999 -0.7053
 3551SOL    HW222113   3.797   1.616   5.222 -0.6900  0.6862  1.1748
 3552SOL     OW22114   4.386   2.359  11.721  0.3453 -0.0948  0.7338
 3552SOL    HW122115   4.365   2.292  11.786 -1.1182 -0.2014  0.1535
 3552SOL    HW222116   4.460   2.409  11.754 -1.9943  2.3367  2.2337
 3553SOL     OW22117   3.416   3.575   8.855 -0.2480  0.0976  0.3329
 3553SOL    HW122118   3.413   3.653   8.801  1.2383  0.3299  0.5980
 3553SOL    HW222119   3.444   3.603   8.942  1.1539 -2.1201  0.5949
 3554SOL     OW22120   3.144   2.366  13.959  0.2319  0.2120  0.6679
 3554SOL    HW122121   3.172   2.388  13.870 -0.5206 -0.2939  0.3133
 3554SOL    HW222122   3.130   2.456  13.990  1.3332  0.4292  0.5395
 3555SOL     OW22123   4.265   2.559   2.809 -0.0300 -0.1025 -0.1235
 3555SOL    HW122124   4.285   2.483   2.864 -0.5983 -0.3925 -0.3199
 3555SOL    HW222125   4.177   2.541   2.775 -0.4960  0.9862  0.5250
 3556SOL     OW22126   1.546   2.150   3.583 -0.1833 -0.2043 -0.5169
 3556SOL    HW122127   1.576   2.200   3.507  2.0932 -1.4899 -0.4548
 3556SOL    HW222128   1.570   2.200   3.661  0.9714 -1.3805 -0.1173
 3557SOL     OW22129   0.707   0.011  12.603  0.3440  0.3088 -0.2066
 3557SOL    HW122130   0.688   4.665  12.671  1.4585  1.1935  0.9581
 3557SOL    HW222131   0.701   4.673  12.527 -1.3268 -0.6318  0.6136
 3558SOL     OW22132   3.104   3.902   5.951  0.3886  0.1552 -0.1024
 3558SOL    HW122133   3.041   3.929   5.885 -0.0311 -0.2125  0.1420
 3558SOL    HW222134   3.116   3.811   5.923 -0.3302 -0.3793  1.2986
 3559SOL     OW22135   2.389   1.211   7.239 -0.1784 -0.0016  0.0194
 3559SOL    HW122136   2.480   1.237   7.258 -0.5629  0.4062  1.3000
 3559SOL    HW222137   2.389   1.193   7.145  1.1289  5.6183 -1.0648
 3560SOL     OW22138   4.046   2.872   1.582 -0.0192 -0.0774  0.3416
 3560SOL    HW122139   4.029   2.796   1.638  0.0014 -0.2534  0.1085
 3560SOL    HW222140   4.082   2.943   1.635 -0.5462  1.0596 -0.8314
 3561SOL     OW22141   1.568   3.696  14.563  0.2884  0.4649  0.6612
 3561SOL    HW122142   1.643   3.637  14.553 -1.5670 -1.9225  1.1573
 3561SOL    HW222143   1.582   3.768  14.501  0.1184  0.5823  0.7607
 3562SOL     OW22144   4.705   4.419  13.680 -0.4617 -0.3638  0.3641
 3562SOL    HW122145   0.024   4.393  13.763 -1.0055 -1.7767  0.1665
 3562SOL    HW222146   4.611   4.427  13.697 -0.3648  0.1610  0.6622
 3563SOL     OW22147   2.661   3.423   9.420 -0.5561 -0.6964  0.0279
 3563SOL    HW122148   2.698   3.387   9.501  1.5172  0.0363 -0.6013
 3563SOL    HW222149   2.736   3.407   9.363 -1.2874  0.5635 -1.2657
 3564SOL     OW22150   2.137   3.465   7.902  0.2461 -0.2813  0.1155
 3564SOL    HW122151   2.185   3.538   7.865  2.0311 -1.2724  0.4968
 3564SOL    HW222152   2.200   3.446   7.971 -0.1484  2.6806  1.2749
 3565SOL     OW22153   1.119   3.056   0.940  0.2399  0.9245  0.0439
 3565SOL    HW122154   1.056   2.998   0.896  0.1347 -1.4094  3.2292
 3565SOL    HW222155   1.060   3.123   0.973 -0.1296  1.8632 -2.5497
 3566SOL     OW22156   4.625   3.003   4.870 -0.5668  0.1680  0.4569
 3566SOL    HW122157   4.560   2.937   4.848  0.3743 -0.3193 -0.8023
 3566SOL    HW222158   4.693   2.947   4.908  0.0458 -0.5980 -1.7779
 3567SOL     OW22159   2.941   1.594  16.421 -0.3326  0.0747  0.4290
 3567SOL    HW122160   2.862   1.629  16.381 -0.0839  1.3618  1.0729
 3567SOL    HW222161   2.899   1.538  16.487 -1.0090  0.7415  0.5627
 3568SOL     OW22162   4.571   0.235   3.858 -0.3956 -0.0752  0.1630
 3568SOL    HW122163   4.556   0.321   3.817  0.4692 -0.2430 -0.5113
 3568SOL    HW222164   4.636   0.193   3.802  0.1893  1.8077 -0.5689
 3569SOL     OW22165   1.008   4.313   3.675  0.6107  0.1846 -0.2083
 3569SOL    HW122166   0.950   4.308   3.599 -0.3778  0.7623  0.4988
 3569SOL    HW222167   1.091   4.275   3.646  0.8695  0.1479  0.5615
 3570SOL     OW22168   0.883   0.009  15.345  0.3888 -0.1720  0.7879
 3570SOL    HW122169   0.873   4.638  15.376  2.2543 -0.1826  1.3760
 3570SOL    HW222170   0.812   0.015  15.281 -0.6441  1.9572  2.1205
 3571SOL     OW22171   2.389   3.708  17.145  0.4220 -0.5497 -0.5769
 3571SOL    HW122172   2.311   3.763  17.131  1.2467  0.8859  0.4459
 3571SOL    HW222173   2.371   3.649  17.072  0.7898  0.3211 -1.3779
 3572SOL     OW22174   1.359   4.068   2.751 -0.6808  0.1074 -0.3930
 3572SOL    HW122175   1.421   4.128   2.710 -1.3701  1.5127  0.6607
 3572SOL    HW222176   1.308   4.040   2.675 -2.2432 -0.9411  1.0335
 3573SOL     OW22177   0.402   4.193  14.468  0.9617 -0.6903  0.2850
 3573SOL    HW122178   0.497   4.190  14.483  1.1083 -0.0533 -0.5648
 3573SOL    HW222179   0.373   4.266  14.522  2.7426 -0.1379  0.5096
 3574SOL     OW22180   1.254   2.727  15.497  0.1937  0.2933 -0.1195
 3574SOL    HW122181   1.282   2.777  15.420 -1.1376  0.8451 -0.2262
 3574SOL    HW222182   1.161   2.736  15.480  0.2204  1.9712  0.6057
 3575SOL     OW22183   4.717   2.394  12.527  0.1872  0.2393 -0.4383
 3575SOL    HW122184   0.025   2.304  12.545  1.9650  0.8160 -0.1395
 3575SOL    HW222185   4.717   2.422  12.618 -0.7105 -0.6467 -0.1634
 3576SOL     OW22186   0.022   1.598   3.696 -0.4171  0.4076 -0.3705
 3576SOL    HW122187   4.677   1.614   3.765  0.8976  1.4019  0.6117
 3576SOL    HW222188   0.062   1.684   3.688 -1.3391  1.0514  1.7246
 3577SOL     OW22189   1.861   3.487   8.990 -0.2325 -0.5722  0.1209
 3577SOL    HW122190   1.861   3.519   9.080  0.3814 -1.3309  0.3960
 3577SOL    HW222191   1.823   3.401   9.010  0.5904 -1.3147 -1.4452
 3578SOL     OW22192   1.710   0.650   2.745  0.4954 -0.2356 -0.3869
 3578SOL    HW122193   1.648   0.633   2.674 -2.0157 -0.7610  1.9603
 3578SOL    HW222194   1.669   0.703   2.813 -1.2687 -2.7364  0.4937
 3579SOL     OW22195   2.645   1.885   4.450 -0.4242 -0.0930  0.0523
 3579SOL    HW122196   2.602   1.799   4.444  1.5564 -1.1438  0.7660
 3579SOL    HW222197   2.645   1.907   4.543  0.4059 -2.2616  0.5627
 3580SOL     OW22198   2.933   3.448   2.484  0.2713  0.2038 -0.1621
 3580SOL    HW122199   2.922   3.368   2.432 -1.4769 -0.4450  1.2035
 3580SOL    HW222200   2.861   3.495   2.442  1.6567  1.4777 -1.0792
 3581SOL     OW22201   4.239   1.856   4.232  0.1878  0.3623  0.0346
 3581SOL    HW122202   4.279   1.875   4.317  2.1752  1.3496 -1.0925
 3581SOL    HW222203   4.291   1.776   4.220 -2.4693 -1.2070 -0.8516
 3582SOL     OW22204   0.352   2.577   2.180 -0.8195 -0.2977  0.4623
 3582SOL    HW122205   0.271   2.627   2.192 -0.6933  0.2293 -0.9022
 3582SOL    HW222206   0.409   2.595   2.255  0.8592  1.1861 -1.1772
 3583SOL     OW22207   3.500   4.487   6.534 -0.3378 -0.6149  0.2565
 3583SOL    HW122208   3.441   4.513   6.605 -1.7374 -1.5989 -0.5599
 3583SOL    HW222209   3.583   4.461   6.574  0.6646  0.5241 -1.0677
 3584SOL     OW22210   2.454   3.346  13.754  0.1647 -0.4966 -0.0412
 3584SOL    HW122211   2.459   3.403  13.831  4.1789 -0.1844 -0.5135
 3584SOL    HW222212   2.464   3.257  13.789  0.1021  0.2520  1.8760
 3585SOL     OW22213   2.542   3.715   6.437  0.2821  0.0715 -0.7325
 3585SOL    HW122214   2.508   3.708   6.348 -0.4995 -1.9063 -0.2756
 3585SOL    HW222215   2.515   3.806   6.455  0.2021 -0.0622 -0.1604
 3586SOL     OW22216   2.295   4.356  14.902 -0.2923 -0.3546 -0.2301
 3586SOL    HW122217   2.352   4.292  14.945  2.8557  1.4557 -1.6671
 3586SOL    HW222218   2.314   4.433  14.954  1.8314  0.0412 -1.5570
 3587SOL     OW22219   1.939   0.451   8.167  0.0754 -0.1322 -0.1413
 3587SOL    HW122220   1.880   0.418   8.236 -0.5194  2.1031  0.4303
 3587SOL    HW222221   1.988   0.370   8.155  0.0696 -0.3465  1.2992
 3588SOL     OW22222   2.183   4.464   5.335  0.1728 -0.2341 -0.0190
 3588SOL    HW122223   2.220   4.552   5.324  0.3781 -0.4062 -0.7008
 3588SOL    HW222224   2.106   4.467   5.391 -1.0524  1.0646 -1.7802
 3589SOL     OW22225   3.247   2.397   1.137  0.3439  0.3439  0.8659
 3589SOL    HW122226   3.324   2.394   1.195  1.6532  1.2250 -0.8210
 3589SOL    HW222227   3.195   2.465   1.180  0.9163  1.5262 -0.2966
 3590SOL     OW22228   0.869   2.160  10.859  0.3918 -0.1312  0.6195
 3590SOL    HW122229   0.841   2.161  10.950  0.5406  0.0330  0.6637
 3590SOL    HW222230   0.875   2.255  10.847  0.9631 -0.4208 -1.4763
 3591SOL     OW22231   1.903   4.443  11.570  0.3359 -0.5006 -0.0202
 3591SOL    HW122232   1.951   4.403  11.498  0.2123 -0.6203 -0.0378
 3591SOL    HW222233   1.845   4.373  11.600  0.4373 -1.3931 -1.9097
 3592SOL     OW22234   2.393   2.207   4.996 -0.6386 -0.1014  0.0059
 3592SOL    HW122235   2.312   2.241   5.033 -0.3629 -0.9165  1.3486
 3592SOL    HW222236   2.365   2.115   5.003  0.8920 -0.6817 -1.4470
 3593SOL     OW22237   3.094   2.762   4.511 -0.6284  0.0135 -0.3404
 3593SOL    HW122238   3.045   2.799   4.438 -0.5107  0.7788 -0.0294
 3593SOL    HW222239   3.170   2.733   4.461  0.4475  0.7688  0.8625
 3594SOL     OW22240   3.471   3.023   2.635 -0.3453 -0.2333  0.2071
 3594SOL    HW122241   3.444   2.940   2.595  0.5151 -0.8319  0.8503
 3594SOL    HW222242   3.388   3.050   2.673 -0.8606  0.4232 -1.3929
 3595SOL     OW22243   4.136   0.821  10.266  1.0087  0.2899 -0.0188
 3595SOL    HW122244   4.129   0.775  10.182  0.8655 -0.7251  0.5538
 3595SOL    HW222245   4.135   0.911  10.233  2.4045  0.6287  0.8405
 3596SOL     OW22246   4.311   3.547  11.357  0.0412  0.4392  0.1985
 3596SOL    HW122247   4.339   3.486  11.289 -0.4885 -0.4275  0.7625
 3596SOL    HW222248   4.234   3.498  11.385  1.0780  0.0280  2.3473
 3597SOL     OW22249   3.080   3.634  15.498 -0.1125  0.1959 -0.0535
 3597SOL    HW122250   3.156   3.679  15.535  0.3791 -2.4081  2.0803
 3597SOL    HW222251   3.034   3.612  15.579  0.0398 -2.2133 -0.6056
 3598SOL     OW22252   4.317   0.646   2.156 -0.0553  1.0857 -0.5807
 3598SOL    HW122253   4.296   0.555   2.133  1.0900  1.0825 -1.6579
 3598SOL    HW222254   4.250   0.683   2.099 -1.3937  0.0687  0.3282
 3599SOL     OW22255   0.719   1.822   2.923 -0.0677 -0.4136 -0.3778
 3599SOL    HW122256   0.633   1.790   2.894  0.0760 -0.7483 -0.4299
 3599SOL    HW222257   0.755   1.836   2.835  1.1141  2.3448  0.5687
 3600SOL     OW22258   4.445   0.407   6.297 -0.4412 -0.3701  0.0101
 3600SOL    HW122259   4.402   0.368   6.220 -1.0290  1.4058 -0.5656
 3600SOL    HW222260   4.535   0.416   6.268 -0.3078 -2.4320 -0.2254
 3601SOL     OW22261   3.991   2.070   9.129 -0.5141  0.1339  0.7933
 3601SOL    HW122262   4.083   2.056   9.154 -0.6764 -0.1952  1.2146
 3601SOL    HW222263   3.959   2.130   9.196 -0.0600 -0.7841  1.8266
 3602SOL     OW22264   2.891   2.397   4.208  0.4569  0.3180 -0.8074
 3602SOL    HW122265   2.905   2.310   4.247 -1.4551  0.1391 -0.5126
 3602SOL    HW222266   2.973   2.446   4.216 -1.1853  3.5928 -4.2625
 3603SOL     OW22267   3.194   1.398  14.402 -0.4280 -0.3510  0.2855
 3603SOL    HW122268   3.219   1.306  14.403  1.3313  0.1232  0.8811
 3603SOL    HW222269   3.145   1.405  14.484 -2.3318 -0.8904 -0.8139
 3604SOL     OW22270   0.414   3.290   5.910  0.8316 -0.3569 -0.0667
 3604SOL    HW122271   0.320   3.272   5.904  0.5011  1.6158 -0.9790
 3604SOL    HW222272   0.433   3.277   5.817 -0.6869  0.0415 -0.4354
 3605SOL     OW22273   1.038   4.494   6.159  0.4481  0.4080  0.0025
 3605SOL    HW122274   1.037   4.578   6.113  0.8415  1.2151  1.4768
 3605SOL    HW222275   1.053   4.531   6.246  0.8597  0.7925 -0.2316
 3606SOL     OW22276   2.249   0.307   4.751 -0.3434  0.2430  0.3808
 3606SOL    HW122277   2.169   0.297   4.698 -1.0321  1.5178  1.1902
 3606SOL    HW222278   2.315   0.260   4.700 -1.8277 -1.2830 -0.1185
 3607SOL     OW22279   3.927   2.853   6.326 -0.8382  0.0247 -0.1842
 3607SOL    HW122280   3.852   2.912   6.326 -1.5644 -0.9018 -1.9075
 3607SOL    HW222281   3.943   2.858   6.232 -0.8951  0.9861 -0.1456
 3608SOL     OW22282   2.791   1.198  15.849 -0.1941 -0.9281  0.5667
 3608SOL    HW122283   2.748   1.131  15.901 -1.6132 -0.8336 -0.4871
 3608SOL    HW222284   2.791   1.144  15.770 -0.8165  0.7197 -0.5751
 3609SOL     OW22285   4.386   0.895   8.361  0.1439  0.1741 -0.3516
 3609SOL    HW122286   4.362   0.962   8.425  1.6878 -2.4933  3.0129
 3609SOL    HW222287   4.383   0.814   8.411  1.3818 -0.5899 -1.5038
 3610SOL     OW22288   2.087   3.318   3.016  0.3850 -0.8876  0.4434
 3610SOL    HW122289   2.013   3.271   2.977  0.3556 -1.2282  0.9047
 3610SOL    HW222290   2.050   3.406   3.016 -1.1323 -1.5180  2.0016
 3611SOL     OW22291   4.413   1.088   6.307  0.2698  0.3980  0.4963
 3611SOL    HW122292   4.498   1.058   6.339  0.0468  0.7150  1.3782
 3611SOL    HW222293   4.384   1.143   6.380 -0.9838 -0.4956  0.6678
 3612SOL     OW22294   0.677   3.045  11.569  0.4012  0.2766  0.7013
 3612SOL    HW122295   0.742   2.978  11.586 -0.0247 -0.0590  0.9920
 3612SOL    HW222296   0.609   3.023  11.633 -1.0174 -0.6145 -1.0944
 3613SOL     OW22297   4.671   0.291  17.214 -0.2292  0.0281  0.1025
 3613SOL    HW122298   0.040   0.272  17.182 -0.5948 -1.9397  0.2952
 3613SOL    HW222299   4.661   0.223  17.281  0.1597 -0.1869 -0.0553
 3614SOL     OW22300   1.735   2.272   9.147  0.0819 -0.5637  0.5690
 3614SOL    HW122301   1.764   2.346   9.200  1.8943 -0.8252 -0.0644
 3614SOL    HW222302   1.712   2.202   9.208  1.7420 -2.3977 -0.9278
 3615SOL     OW22303   4.604   4.620   3.356  0.1320 -0.3230  0.4107
 3615SOL    HW122304   4.633   4.692   3.301  0.7572  0.3086  1.5712
 3615SOL    HW222305   4.662   4.619   3.433  1.9170  1.2712 -0.9395
 3616SOL     OW22306   2.046   3.797  14.168  0.5014 -0.6386  0.0455
 3616SOL    HW122307   2.062   3.865  14.234  3.9858 -0.1386 -1.3055
 3616SOL    HW222308   1.986   3.834  14.104  0.7094 -1.0369 -0.3788
 3617SOL     OW22309   0.410   0.495  16.935  0.8379 -0.2657 -0.0352
 3617SOL    HW122310   0.393   0.429  16.868 -3.2106  1.1846 -0.3962
 3617SOL    HW222311   0.323   0.528  16.955  0.7232 -0.7999  0.3417
 3618SOL     OW22312   2.223   0.081   3.832  0.5595 -0.1529  0.0294
 3618SOL    HW122313   2.189   0.168   3.855  0.8272 -0.3722  1.2503
 3618SOL    HW222314   2.310   0.098   3.796 -0.6143 -0.2855 -2.8007
 3619SOL     OW22315   1.388   3.860   1.785 -0.0487  0.1307 -0.5397
 3619SOL    HW122316   1.436   3.791   1.740  0.1528 -1.2232  1.7685
 3619SOL    HW222317   1.359   3.912   1.710  0.2770  1.0633 -0.0177
 3620SOL     OW22318   3.609   0.489  17.523 -0.2692  0.1835 -0.3829
 3620SOL    HW122319   3.550   0.442  17.464  0.3512  0.5753 -1.3054
 3620SOL    HW222320   3.690   0.438  17.535 -1.8281 -1.9957  0.7957
 3621SOL     OW22321   2.792   1.373   6.175  0.0553 -0.0211 -0.3471
 3621SOL    HW122322   2.804   1.315   6.100  0.1446 -0.6628  0.1631
 3621SOL    HW222323   2.882   1.380   6.208  0.0891  0.6639 -0.5850
 3622SOL     OW22324   2.262   1.939  16.284  0.1128  0.1202 -0.3565
 3622SOL    HW122325   2.271   1.846  16.266 -0.5171  0.5736 -2.9988
 3622SOL    HW222326   2.191   1.957  16.222  0.3531  0.0781 -0.6479
 3623SOL     OW22327   4.500   2.777   6.226 -0.4425  0.3966  0.2478
 3623SOL    HW122328   4.580   2.800   6.178 -1.1254 -0.8435 -1.4764
 3623SOL    HW222329   4.515   2.684   6.245  1.5736  0.5701 -0.4434
 3624SOL     OW22330   0.507   3.893   5.397  0.7332  0.2373 -0.0882
 3624SOL    HW122331   0.491   3.974   5.349 -0.8131 -0.9387 -1.5251
 3624SOL    HW222332   0.596   3.867   5.374  1.0905 -1.0662  2.7299
 3625SOL     OW22333   1.319   4.621   9.187  0.2371  1.1467  0.0854
 3625SOL    HW122334   1.286   4.531   9.191  1.8611  0.4945 -0.9984
 3625SOL    HW222335   1.265   4.663   9.253  1.3487  0.8707  1.1599
 3626SOL     OW22336   0.533   2.663  14.193  0.5309  0.8388 -0.3678
 3626SOL    HW122337   0.496   2.645  14.107  0.8178  3.2102 -1.0025
 3626SOL    HW222338   0.618   2.690  14.157  0.4746  2.0852  0.4311
 3627SOL     OW22339   0.937   1.462   5.509 -0.2272 -0.0881 -0.2293
 3627SOL    HW122340   0.950   1.556   5.492 -1.5797 -0.2919 -2.3725
 3627SOL    HW222341   0.862   1.444   5.452  1.0269  1.2101 -2.2921
 3628SOL     OW22342   3.285   3.243   8.040 -0.7778  0.6123 -0.3034
 3628SOL    HW122343   3.273   3.211   7.950  1.2560 -2.4612  0.5269
 3628SOL    HW222344   3.330   3.325   8.021 -1.4498  1.8095  3.3671
 3629SOL     OW22345   1.738   0.545   3.357 -0.4710 -0.5529 -0.6513
 3629SOL    HW122346   1.680   0.571   3.428 -0.4507  0.4355 -1.0003
 3629SOL    HW222347   1.700   0.461   3.329 -0.8197 -1.0779  1.3427
 3630SOL     OW22348   2.120   0.601   4.425  0.1228  0.5660 -0.0683
 3630SOL    HW122349   2.187   0.655   4.465  0.1721 -0.3483  1.0785
 3630SOL    HW222350   2.180   0.558   4.363 -2.1536  0.6650 -2.3607
 3631SOL     OW22351   1.603   3.676  10.658 -0.4520  0.0175  0.1073
 3631SOL    HW122352   1.566   3.662  10.745 -0.6205  1.2238  0.2306
 3631SOL    HW222353   1.667   3.745  10.678  0.7222 -1.3859  1.1208
 3632SOL     OW22354   0.438   1.648   6.508  0.1906 -0.3466  0.5463
 3632SOL    HW122355   0.346   1.628   6.522 -0.0087 -0.5196 -1.0321
 3632SOL    HW222356   0.433   1.663   6.414  2.1560 -0.4285  0.4327
 3633SOL     OW22357   3.253   1.301   3.921 -0.0308 -0.1753  0.8213
 3633SOL    HW122358   3.254   1.214   3.881  2.4047 -0.8324  2.3284
 3633SOL    HW222359   3.345   1.330   3.918  0.3895 -1.3502  2.9627
 3634SOL     OW22360   4.005   0.555  12.553 -0.0194 -0.1927 -0.0931
 3634SOL    HW122361   4.061   0.517  12.620  1.7326  0.0192 -1.4606
 3634SOL    HW222362   3.940   0.489  12.527 -0.4867 -0.0191  0.6301
 3635SOL     OW22363   0.741   0.096   2.016 -0.2390  0.2722  0.0784
 3635SOL    HW122364   0.833   0.073   2.005 -0.7637 -1.9264  0.3543
 3635SOL    HW222365   0.695   0.016   2.039 -1.4894  0.9505 -0.0408
 3636SOL     OW22366   3.207   0.052  12.399 -0.2306  0.0884  0.0773
 3636SOL    HW122367   3.166   0.133  12.429 -0.2023 -0.5506  1.7930
 3636SOL    HW222368   3.157   4.713  12.456 -0.6558 -1.8396 -2.2814
 3637SOL     OW22369   3.358   1.788  11.947  0.2357  0.3959  0.1686
 3637SOL    HW122370   3.356   1.804  12.042  1.9182  0.1864  0.2444
 3637SOL    HW222371   3.443   1.745  11.950  0.3950  0.6848 -0.3142
 3638SOL     OW22372   0.192   2.279   3.961 -0.0639  0.0136 -0.4011
 3638SOL    HW122373   0.247   2.357   3.968 -1.3866  1.0637 -1.5433
 3638SOL    HW222374   0.167   2.272   4.053 -0.7628  1.7778 -0.4392
 3639SOL     OW22375   1.866   1.988   3.720 -0.6409 -0.6568 -0.1829
 3639SOL    HW122376   1.910   2.072   3.713  1.1326 -1.3815  2.2346
 3639SOL    HW222377   1.890   1.942   3.640 -0.0353 -0.4597 -0.1119
 3640SOL     OW22378   0.693   1.139   9.720  0.1177  0.1520 -0.1700
 3640SOL    HW122379   0.745   1.219   9.728 -1.6226  1.4622 -1.8028
 3640SOL    HW222380   0.700   1.111   9.811 -0.7360 -2.6562 -0.9927
 3641SOL     OW22381   1.263   0.019   3.114  0.1533  0.0032 -0.0944
 3641SOL    HW122382   1.340   0.004   3.059 -0.7264 -0.3547 -1.2210
 3641SOL    HW222383   1.233   4.649   3.136  0.3044 -0.5197 -2.0090
 3642SOL     OW22384   2.903   3.068   6.418 -0.1702  0.4567  0.2560
 3642SOL    HW122385   2.880   3.032   6.332 -0.1221  0.2996  0.3098
 3642SOL    HW222386   2.846   3.146   6.410 -0.4162  0.1797 -0.7150
 3643SOL     OW22387   1.410   3.984   3.968 -0.0953  0.0476  0.5288
 3643SOL    HW122388   1.435   3.995   4.060 -1.3870 -0.4479  0.9514
 3643SOL    HW222389   1.455   3.904   3.941  0.5115  0.8404 -0.7934
 3644SOL     OW22390   3.321   3.135  10.211  0.1047 -0.6261  0.4828
 3644SOL    HW122391   3.348   3.222  10.238 -1.7966  0.7787 -2.1909
 3644SOL    HW222392   3.390   3.119  10.147 -1.8646 -0.5205 -1.7083
 3645SOL     OW22393   0.361   1.441   3.809  0.0279 -0.0364  0.1695
 3645SOL    HW122394   0.283   1.492   3.786  0.2362 -0.0631 -0.6113
 3645SOL    HW222395   0.380   1.411   3.720 -2.1081 -1.0916  0.0744
 3646SOL     OW22396   4.286   2.178   1.464  0.3397 -0.1650 -0.0591
 3646SOL    HW122397   4.218   2.111   1.465 -0.9162  1.1316  2.9343
 3646SOL    HW222398   4.233   2.258   1.470 -2.3539 -2.0231  1.0004
 3647SOL     OW22399   1.498   3.578   6.552  0.1137  0.1218  0.0928
 3647SOL    HW122400   1.464   3.540   6.471 -0.6044  0.6621  0.1403
 3647SOL    HW222401   1.418   3.610   6.595 -0.4018 -1.1996  0.1080
 3648SOL     OW22402   2.164   2.037   7.428  0.6172  0.1542  0.0509
 3648SOL    HW122403   2.136   2.076   7.345  0.6538 -2.0214 -0.9866
 3648SOL    HW222404   2.149   1.943   7.417  2.9174 -0.1835 -0.0424
 3649SOL     OW22405   0.890   1.341  13.213 -0.6065 -0.9246  0.2310
 3649SOL    HW122406   0.804   1.338  13.172 -0.1230  1.5260 -0.9535
 3649SOL    HW222407   0.870   1.322  13.305 -1.9303  1.8571  0.5120
 3650SOL     OW22408   0.130   2.153   3.034 -0.2332  0.4249  0.0753
 3650SOL    HW122409   0.085   2.208   3.098 -0.1748 -1.6089  1.8850
 3650SOL    HW222410   0.123   2.070   3.081 -1.8036 -0.0237 -0.9537
 3651SOL     OW22411   4.466   1.013   4.121  0.3143  0.2587 -0.3328
 3651SOL    HW122412   4.539   0.952   4.108  0.3055 -0.1476  1.5222
 3651SOL    HW222413   4.435   0.973   4.202 -0.3940  1.9953  0.2596
 3652SOL     OW22414   0.477   2.839   7.238 -0.2574  0.5045 -0.1927
 3652SOL    HW122415   0.556   2.797   7.206 -1.7285 -0.5963 -2.4061
 3652SOL    HW222416   0.506   2.868   7.324  2.1029  0.0017 -0.8295
 3653SOL     OW22417   0.175   2.047   6.102  0.4425  0.0082  0.0067
 3653SOL    HW122418   0.202   2.127   6.057  0.1858  0.9901  1.5960
 3653SOL    HW222419   0.161   1.989   6.028 -0.2928  0.8947 -0.5384
 3654SOL     OW22420   4.054   2.045   4.735 -0.5227  0.4381 -0.2460
 3654SOL    HW122421   4.009   1.986   4.674  1.0655  1.8538 -2.7880
 3654SOL    HW222422   4.022   2.132   4.713 -1.7706 -0.2242 -1.0339
 3655SOL     OW22423   3.968   1.807  15.792 -0.0910 -0.3879  0.2905
 3655SOL    HW122424   3.946   1.867  15.721  1.6318  1.6859  1.5320
 3655SOL    HW222425   3.898   1.833  15.853 -1.2729  0.2840 -1.3459
 3656SOL     OW22426   2.685   2.462   2.875  0.1224 -0.0364  0.2488
 3656SOL    HW122427   2.626   2.413   2.818 -0.4799  1.6716 -0.5898
 3656SOL    HW222428   2.647   2.444   2.961  2.2218 -2.8278  0.6172
 3657SOL     OW22429   3.919   0.355   9.075  0.7778  0.0748  0.4726
 3657SOL    HW122430   3.988   0.365   9.140 -0.2130  0.7679  1.4082
 3657SOL    HW222431   3.968   0.333   8.996 -1.0858 -0.4668 -0.5438
 3658SOL     OW22432   2.439   3.401   5.039 -0.2506 -0.0243 -0.6900
 3658SOL    HW122433   2.394   3.319   5.021 -1.9222  0.8036 -0.2654
 3658SOL    HW222434   2.367   3.450   5.078  1.6646  1.2113  1.3225
 3659SOL     OW22435   4.298   0.870   9.508 -0.1795  0.0502  0.0758
 3659SOL    HW122436   4.351   0.915   9.442  0.4801 -0.4082  0.2893
 3659SOL    HW222437   4.217   0.920   9.503  0.5438  1.2744  0.5515
 3660SOL     OW22438   0.552   1.423  15.865  0.1696 -0.4672  0.0981
 3660SOL    HW122439   0.524   1.431  15.956  0.7452 -1.6650  0.3907
 3660SOL    HW222440   0.569   1.516  15.848 -0.6030  0.0822  2.3080
 3661SOL     OW22441   0.722   3.292  11.451  0.2081 -0.5527 -0.5443
 3661SOL    HW122442   0.641   3.257  11.412 -0.9356 -2.0070  3.1672
 3661SOL    HW222443   0.757   3.218  11.501 -2.3397 -1.5991 -0.3089
 3662SOL     OW22444   2.790   3.458   5.318 -0.2060 -0.1572 -0.2037
 3662SOL    HW122445   2.797   3.520   5.245 -1.5202  0.9450  0.6071
 3662SOL    HW222446   2.870   3.405   5.310 -0.6714 -0.5443 -2.1457
 3663SOL     OW22447   0.287   3.068   5.203 -0.3918  0.4868  0.5423
 3663SOL    HW122448   0.293   3.038   5.112 -1.6880 -2.0229  1.2684
 3663SOL    HW222449   0.301   2.989   5.255  1.7817 -0.2362 -1.1773
 3664SOL     OW22450   4.480   1.992   2.271  0.6982  0.8425  0.0981
 3664SOL    HW122451   4.541   1.919   2.278 -1.7447 -1.2898 -0.6995
 3664SOL    HW222452   4.398   1.948   2.292  0.5976  0.6281 -0.7186
 3665SOL     OW22453   0.984   2.899   2.795 -0.4865 -0.0382 -0.2568
 3665SOL    HW122454   1.028   2.866   2.873 -0.1008  1.4285  0.1432
 3665SOL    HW222455   0.971   2.990   2.822 -1.7414  0.3880 -2.2617
 3666SOL     OW22456   0.964   2.825   5.193 -0.2874 -0.1614  0.4436
 3666SOL    HW122457   0.979   2.820   5.099 -1.9025  0.2023  0.1598
 3666SOL    HW222458   1.054   2.817   5.222  0.3289 -2.9583 -2.1875
 3667SOL     OW22459   0.844   0.153   0.808 -0.5453 -0.4530 -0.0160
 3667SOL    HW122460   0.866   0.165   0.900 -1.3786 -1.7558  0.3576
 3667SOL    HW222461   0.930   0.132   0.772  0.5156  1.1710  1.6121
 3668SOL     OW22462   3.815   2.344  11.744 -0.1818 -0.1496 -0.0204
 3668SOL    HW122463   3.767   2.427  11.741  0.4219  0.2401  0.8104
 3668SOL    HW222464   3.847   2.348  11.834  1.3663 -1.3855 -0.5245
 3669SOL     OW22465   4.390   3.989   6.802 -0.3512  0.0764 -0.0835
 3669SOL    HW122466   4.387   3.939   6.883  0.5218  0.4613  0.1882
 3669SOL    HW222467   4.484   3.975   6.788 -0.5353 -0.1852 -1.1056
 3670SOL     OW22468   3.726   0.057  16.336 -0.1242 -0.2983 -0.0503
 3670SOL    HW122469   3.721   0.137  16.284  0.4220  1.0483  1.9422
 3670SOL    HW222470   3.687   4.716  16.273  0.5415 -1.7284  0.9061
 3671SOL     OW22471   4.136   2.875   0.451  0.0555 -0.1501 -0.0163
 3671SOL    HW122472   4.230   2.878   0.434  0.2310  1.1758  1.1738
 3671SOL    HW222473   4.127   2.787   0.488  0.5949  0.2271  1.0226
 3672SOL     OW22474   3.066   1.744   6.546 -0.6198  0.2722 -0.7725
 3672SOL    HW122475   3.112   1.791   6.476 -2.5855  2.0044 -0.8843
 3672SOL    HW222476   2.989   1.717   6.495  1.1578 -1.6123 -2.5102
 3673SOL     OW22477   1.825   0.989   8.795  0.2801  0.0368  0.0148
 3673SOL    HW122478   1.733   0.971   8.779  1.0055 -2.3315 -1.4789
 3673SOL    HW222479   1.841   1.046   8.720 -1.7881 -0.1779 -0.5939
 3674SOL     OW22480   1.726   2.392   6.844  0.0131  0.9896  0.3380
 3674SOL    HW122481   1.700   2.305   6.872 -1.7941  1.1656 -0.7506
 3674SOL    HW222482   1.787   2.416   6.914 -0.8560 -1.3779  1.8743
 3675SOL     OW22483   2.739   3.009   7.007 -0.1601 -0.5680  0.2402
 3675SOL    HW122484   2.802   3.013   7.079  0.3155 -0.2988 -0.1872
 3675SOL    HW222485   2.664   3.044   7.056 -0.0406  1.8879 -1.3614
 3676SOL     OW22486   3.956   2.410  11.498  0.1070 -0.4430  0.0639
 3676SOL    HW122487   3.926   2.365  11.419 -1.7939  1.5525 -0.3641
 3676SOL    HW222488   3.918   2.350  11.562  2.2997 -1.5597  0.3255
 3677SOL     OW22489   3.994   2.865   6.054  0.1474  0.3066  0.5453
 3677SOL    HW122490   4.047   2.848   5.977  1.5422  2.5058  1.0224
 3677SOL    HW222491   3.908   2.886   6.018 -0.5665 -0.5612  1.7062
 3678SOL     OW22492   4.366   1.272   7.154  0.1570  0.8292  0.3163
 3678SOL    HW122493   4.407   1.230   7.078 -0.0944  0.1991  0.5269
 3678SOL    HW222494   4.374   1.367   7.145 -1.3201  0.8777 -0.4548
 3679SOL     OW22495   3.770   4.142   9.177  0.6283 -0.1715 -0.1684
 3679SOL    HW122496   3.771   4.233   9.208  0.9053 -0.0747 -0.4550
 3679SOL    HW222497   3.834   4.156   9.107 -1.8998 -3.1864 -3.0783
 3680SOL     OW22498   2.670   0.757  10.869  0.4197  0.3444  0.0323
 3680SOL    HW122499   2.702   0.739  10.957 -1.2005 -0.4858  0.4610
 3680SOL    HW222500   2.660   0.852  10.876 -3.6118 -0.2469  2.6834
 3681SOL     OW22501   3.066   2.628  11.224 -0.3412 -0.0025 -0.2364
 3681SOL    HW122502   3.117   2.709  11.230  0.1267 -0.3241  0.1222
 3681SOL    HW222503   3.036   2.611  11.313  0.0200  3.8642  0.6333
 3682SOL     OW22504   0.765   2.739   2.722  0.0547  1.1747 -0.1038
 3682SOL    HW122505   0.710   2.811   2.690  0.0799  1.1828 -0.1286
 3682SOL    HW222506   0.847   2.782   2.745  1.2188 -0.5403 -1.0844
 3683SOL     OW22507   1.624   1.717   4.121 -0.3606  0.3306  0.0774
 3683SOL    HW122508   1.538   1.675   4.131 -0.2050  0.1577  0.6424
 3683SOL    HW222509   1.624   1.736   4.027 -0.5090 -0.7899 -0.1490
 3684SOL     OW22510   2.115   2.267   9.728 -0.0788 -0.3675  0.5665
 3684SOL    HW122511   2.112   2.188   9.782 -1.3398 -0.6598  0.0598
 3684SOL    HW222512   2.091   2.233   9.641 -1.3386  2.4729 -0.1860
 3685SOL     OW22513   1.521   2.855  14.892  0.4206 -0.0554 -0.5206
 3685SOL    HW122514   1.506   2.904  14.812 -0.1832  1.1990  0.3609
 3685SOL    HW222515   1.534   2.767  14.856  0.4836 -0.7334  1.1644
 3686SOL     OW22516   3.224   2.416  15.195  0.2959 -0.0909 -0.2307
 3686SOL    HW122517   3.203   2.509  15.203  0.5869 -0.1958  1.8401
 3686SOL    HW222518   3.141   2.368  15.193 -0.5010  1.2508  0.9672
 3687SOL     OW22519   0.698   3.482   5.182 -0.2931  0.4420 -0.1252
 3687SOL    HW122520   0.691   3.425   5.259 -0.1523  1.2062  0.4507
 3687SOL    HW222521   0.789   3.512   5.191  0.7050 -2.3284 -0.9489
 3688SOL     OW22522   3.646   4.005  10.611 -0.1490  0.1021 -0.1503
 3688SOL    HW122523   3.608   4.027  10.526 -0.6701  0.1390  0.0918
 3688SOL    HW222524   3.611   3.916  10.618 -1.0926  0.4927  0.0432
 3689SOL     OW22525   4.267   4.352   0.226  0.1503 -0.5751  0.3390
 3689SOL    HW122526   4.339   4.339   0.164  1.8868  2.9498  1.5662
 3689SOL    HW222527   4.190   4.367   0.172  0.5133  1.0040  0.2557
 3690SOL     OW22528   1.257   1.607   1.061 -0.1186 -0.1101  0.4085
 3690SOL    HW122529   1.221   1.649   0.984 -0.0747  0.8198  0.8982
 3690SOL    HW222530   1.236   1.514   1.047  0.9256 -0.5628  1.7885
 3691SOL     OW22531   0.189   0.990   1.401 -0.5973 -0.1226  0.3934
 3691SOL    HW122532   0.195   1.068   1.455 -0.8233  0.9502 -1.1223
 3691SOL    HW222533   0.253   0.940   1.452 -1.7462 -0.3875  1.5652
 3692SOL     OW22534   0.297   1.310  13.939  0.0643  0.7513  0.1677
 3692SOL    HW122535   0.229   1.331  13.876 -2.1042 -1.7361  1.7172
 3692SOL    HW222536   0.372   1.300  13.880 -1.6317  0.7825 -1.9998
 3693SOL     OW22537   1.274   4.650   7.814  0.2397 -0.4206  0.4840
 3693SOL    HW122538   1.341   4.702   7.858  1.7746 -0.6687 -1.5281
 3693SOL    HW222539   1.286   4.568   7.862  0.8297 -0.9136 -0.4952
 3694SOL     OW22540   3.163   3.944   4.891  0.2883 -0.0744  0.2844
 3694SOL    HW122541   3.118   3.949   4.807 -0.5685  0.9751  0.8091
 3694SOL    HW222542   3.112   3.883   4.943 -0.5712  1.3168  1.0647
 3695SOL     OW22543   0.994   2.794   4.934  0.1366  0.4560  0.6619
 3695SOL    HW122544   1.019   2.724   4.874  1.9165  0.8640  0.9316
 3695SOL    HW222545   0.954   2.853   4.870 -1.8489 -2.1440 -0.5202
 3696SOL     OW22546   2.383   3.370   2.868  0.0800  0.0392 -0.5119
 3696SOL    HW122547   2.390   3.363   2.773  0.5498 -1.7106 -0.3400
 3696SOL    HW222548   2.309   3.430   2.870 -0.3989 -0.5928  1.0977
 3697SOL     OW22549   1.256   0.236   4.367 -0.2752  0.1259 -1.0972
 3697SOL    HW122550   1.175   0.185   4.374 -0.0809  0.1314  1.1645
 3697SOL    HW222551   1.316   0.162   4.372 -1.6316 -0.7332  2.1442
 3698SOL     OW22552   2.609   2.898   0.872 -0.1345 -0.1847 -0.7581
 3698SOL    HW122553   2.549   2.942   0.932 -1.3177  0.9131 -2.7669
 3698SOL    HW222554   2.588   2.933   0.786 -0.4688 -0.0120 -0.6049
 3699SOL     OW22555   3.331   2.992   8.565  0.4253  0.1219 -0.5044
 3699SOL    HW122556   3.416   3.033   8.581 -0.9464  3.0158 -0.6481
 3699SOL    HW222557   3.353   2.946   8.484  0.2728 -1.5010  0.3879
 3700SOL     OW22558   4.569   0.230   9.740  0.1311  0.4595  0.7786
 3700SOL    HW122559   4.488   0.188   9.768  0.5306 -0.3173  0.7772
 3700SOL    HW222560   4.610   0.233   9.827  1.5143  0.9437  0.1063
 3701SOL     OW22561   1.890   2.340   3.038  0.2594 -0.4543 -0.2432
 3701SOL    HW122562   1.879   2.277   3.110  1.8635 -0.5407 -0.0896
 3701SOL    HW222563   1.820   2.303   2.984 -0.4445 -0.9664  1.0361
 3702SOL     OW22564   2.618   3.064   7.537 -0.3428  0.4143  0.4561
 3702SOL    HW122565   2.640   3.063   7.630  3.5239  1.4832 -0.4498
 3702SOL    HW222566   2.709   3.063   7.509 -0.2312 -2.7525  0.8302
 3703SOL     OW22567   0.128   4.434  14.299  0.1302 -0.9097  0.2155
 3703SOL    HW122568   0.125   4.396  14.386 -3.1119 -1.5020 -0.1495
 3703SOL    HW222569   0.047   4.393  14.270  1.6391 -2.5942 -1.6770
 3704SOL     OW22570   3.139   3.694   3.857 -0.0592 -0.3902  0.0759
 3704SOL    HW122571   3.227   3.657   3.859  0.7827  1.5823 -1.1112
 3704SOL    HW222572   3.095   3.615   3.824 -2.2890  1.0614 -0.4137
 3705SOL     OW22573   3.019   2.411  14.896 -0.4495 -0.1136 -0.1427
 3705SOL    HW122574   3.073   2.489  14.909 -1.1437  0.1697  1.0557
 3705SOL    HW222575   3.013   2.407  14.800 -0.2951  0.6270 -0.1881
 3706SOL     OW22576   3.485   0.684   7.349  0.4312  0.0768  0.3691
 3706SOL    HW122577   3.471   0.774   7.320 -1.4708 -0.5428 -0.6672
 3706SOL    HW222578   3.420   0.681   7.419  0.8470 -0.2577  0.7465
 3707SOL     OW22579   3.100   3.221   1.919 -0.1893  0.7574  0.3466
 3707SOL    HW122580   3.048   3.234   1.840 -0.3469  0.5403  0.4144
 3707SOL    HW222581   3.190   3.228   1.888 -0.6245  0.3113 -0.9831
 3708SOL     OW22582   0.678   3.657  15.370  0.5840 -0.0475 -0.3063
 3708SOL    HW122583   0.711   3.745  15.383 -0.4215 -0.0114  2.2125
 3708SOL    HW222584   0.597   3.675  15.322 -0.9305  3.5827  3.5919
 3709SOL     OW22585   0.729   4.101  15.270  0.4494  0.4321 -0.3968
 3709SOL    HW122586   0.777   4.054  15.201  1.3941  1.3728 -0.3820
 3709SOL    HW222587   0.795   4.166  15.294 -0.7916  0.7585  2.1308
 3710SOL     OW22588   1.754   4.081   5.605 -0.6229 -0.5519  0.1403
 3710SOL    HW122589   1.748   4.027   5.684 -3.1413  0.7072  0.8090
 3710SOL    HW222590   1.672   4.129   5.600 -0.1765  0.0923 -1.1367
 3711SOL     OW22591   0.483   4.479  16.482  0.4160 -0.1924  0.3368
 3711SOL    HW122592   0.449   4.558  16.440  0.3272  0.0059  0.7789
 3711SOL    HW222593   0.418   4.411  16.463 -0.3354  1.2822 -2.3940
 3712SOL     OW22594   2.093   2.157   3.716 -0.3491 -0.6454  0.1491
 3712SOL    HW122595   2.120   2.234   3.666  3.7907 -0.9559  1.8959
 3712SOL    HW222596   2.173   2.104   3.710 -0.5630 -1.0591  0.9300
 3713SOL     OW22597   4.714   4.086   4.067 -0.0526 -0.6262 -0.0021
 3713SOL    HW122598   4.697   4.088   4.162 -0.0431  1.2948 -0.0410
 3713SOL    HW222599   0.090   4.094   4.077 -0.0823 -0.1715 -0.0566
 3714SOL     OW22600   3.622   1.145   1.947  0.7432  0.1615 -0.3932
 3714SOL    HW122601   3.560   1.105   1.887  0.7187  0.8008 -0.7866
 3714SOL    HW222602   3.676   1.199   1.890  1.5364 -0.2508 -0.0472
 3715SOL     OW22603   1.442   0.370   1.541 -0.1628  0.3454  0.3707
 3715SOL    HW122604   1.465   0.284   1.575  2.0261  0.1325 -1.6432
 3715SOL    HW222605   1.464   0.422   1.619 -0.5364  0.6286  0.2840
 3716SOL     OW22606   1.677   2.382   0.517  0.2632 -0.1624 -0.2890
 3716SOL    HW122607   1.630   2.464   0.502 -1.7802 -0.6753  3.4193
 3716SOL    HW222608   1.762   2.411   0.486  0.5069 -0.1297  0.4269
 3717SOL     OW22609   3.542   0.897   6.758 -0.5396 -0.5705 -0.5733
 3717SOL    HW122610   3.558   0.929   6.847  0.0359  3.2501 -2.0457
 3717SOL    HW222611   3.447   0.888   6.761 -0.6114  1.0880  1.8485
 3718SOL     OW22612   1.383   2.111  11.791  0.3040 -0.6060 -0.1154
 3718SOL    HW122613   1.437   2.056  11.734 -1.5337 -0.6176 -1.8617
 3718SOL    HW222614   1.448   2.142  11.854 -1.7624  1.9020  0.8031
 3719SOL     OW22615   1.184   0.543   0.854  0.5095  0.5200  0.1967
 3719SOL    HW122616   1.150   0.569   0.768 -1.3467 -0.0095  0.7870
 3719SOL    HW222617   1.117   0.581   0.911 -0.6600 -1.4189  0.0902
 3720SOL     OW22618   0.437   4.160   3.908  0.2287 -0.6485  0.1477
 3720SOL    HW122619   0.472   4.132   3.823 -0.7840 -0.2195 -0.4231
 3720SOL    HW222620   0.516   4.187   3.955  0.8919  0.3307 -1.5401
 3721SOL     OW22621   1.173   3.322  13.189 -0.6558  0.4382 -0.2214
 3721SOL    HW122622   1.164   3.259  13.118 -1.3286  0.3656 -0.0735
 3721SOL    HW222623   1.268   3.335  13.191 -1.2422  4.9420  0.4730
 3722SOL     OW22624   4.268   0.729  11.569 -0.4853  0.2758 -0.0544
 3722SOL    HW122625   4.291   0.648  11.615 -0.1687  0.1636 -0.4052
 3722SOL    HW222626   4.286   0.697  11.480 -3.7430 -4.0634  0.8436
 3723SOL     OW22627   4.333   0.613   9.625  0.1847  0.8493 -0.8783
 3723SOL    HW122628   4.364   0.697   9.660  2.6220 -0.1795 -0.5512
 3723SOL    HW222629   4.412   0.559   9.628  0.1657  0.9179  1.0091
 3724SOL     OW22630   0.295   4.180   0.004 -0.6088  0.5428 -0.5404
 3724SOL    HW122631   0.386   4.180   0.035 -0.6809  1.6585 -0.3394
 3724SOL    HW222632   0.298   4.094  17.641 -0.9321  0.5370 -0.5467
 3725SOL     OW22633   0.123   2.050   4.222  0.1857 -0.5312 -0.2510
 3725SOL    HW122634   0.185   1.995   4.175 -0.4543 -3.5280  2.4035
 3725SOL    HW222635   0.179   2.106   4.275  0.2510  1.0173 -1.9667
 3726SOL     OW22636   4.516   2.049  15.921  0.0266 -0.0736 -0.5776
 3726SOL    HW122637   4.511   1.957  15.893  0.4857  0.5212 -2.6035
 3726SOL    HW222638   4.531   2.093  15.837 -0.0647 -0.5445 -0.8421
 3727SOL     OW22639   0.397   1.164   5.778  0.0100 -0.0574 -0.3415
 3727SOL    HW122640   0.387   1.255   5.806  0.5204  0.1399 -0.8139
 3727SOL    HW222641   0.492   1.160   5.763  0.0687  1.3298 -0.3451
 3728SOL     OW22642   3.165   1.770   1.662 -0.1878 -0.2009  0.2346
 3728SOL    HW122643   3.135   1.855   1.694  0.2958 -0.2500  0.8143
 3728SOL    HW222644   3.118   1.768   1.579 -0.1731  0.2439  0.2174
 3729SOL     OW22645   2.206   1.657   4.410  0.1401  0.3626  0.2884
 3729SOL    HW122646   2.117   1.690   4.397 -0.4393 -1.6654 -0.8536
 3729SOL    HW222647   2.253   1.723   4.359  2.0932 -3.1393 -2.4704
 3730SOL     OW22648   3.849   0.479   9.428  0.7885  0.3168  0.0867
 3730SOL    HW122649   3.818   0.535   9.357 -0.2012  1.6159  1.5278
 3730SOL    HW222650   3.941   0.479   9.404  0.3422 -2.1905 -1.5719
 3731SOL     OW22651   4.535   1.909  12.066  0.3986  0.6245  0.2135
 3731SOL    HW122652   4.587   1.986  12.090 -0.2298  0.4770  2.0143
 3731SOL    HW222653   4.489   1.879  12.145  0.9771  1.8995  1.0378
 3732SOL     OW22654   3.626   3.852   4.626  0.4778  0.6215 -0.4313
 3732SOL    HW122655   3.647   3.911   4.698  0.7174  0.8998 -0.7336
 3732SOL    HW222656   3.619   3.912   4.552 -2.7989 -0.9436 -1.4224
 3733SOL     OW22657   1.958   0.599   2.231 -0.1244 -0.0873  0.0223
 3733SOL    HW122658   1.983   0.660   2.301  0.3758 -1.1921  0.8136
 3733SOL    HW222659   2.033   0.539   2.221 -1.0943 -1.2819 -0.1192
 3734SOL     OW22660   2.334   0.346   1.353  0.5066  0.0811 -0.9092
 3734SOL    HW122661   2.257   0.371   1.301 -0.3051  0.8343  0.6672
 3734SOL    HW222662   2.392   0.323   1.281  0.8119 -1.2123 -0.2406
 3735SOL     OW22663   4.169   3.339  16.551 -0.5344 -0.9201 -0.2948
 3735SOL    HW122664   4.208   3.425  16.567 -1.1305 -0.9542  1.3427
 3735SOL    HW222665   4.227   3.281  16.601  0.0311 -1.8079 -1.9671
 3736SOL     OW22666   4.221   4.648  11.995  0.1794  0.1001  0.0666
 3736SOL    HW122667   4.232   4.556  11.971 -1.4081 -0.9251  3.2927
 3736SOL    HW222668   4.206   4.643  12.089 -1.5054  1.9130 -0.0817
 3737SOL     OW22669   2.667   1.629   5.067 -0.0250  0.1125  0.0216
 3737SOL    HW122670   2.602   1.562   5.042  0.8902  0.6605 -3.8042
 3737SOL    HW222671   2.704   1.595   5.148  1.6578 -2.8551 -1.9772
 3738SOL     OW22672   1.302   4.088   6.225 -0.4062 -0.3410 -1.0110
 3738SOL    HW122673   1.230   4.034   6.258  1.1659  0.6733  4.1477
 3738SOL    HW222674   1.333   4.028   6.157  0.6256 -0.7503 -0.1877
 3739SOL     OW22675   3.844   3.606  12.060  0.1678  0.0763  0.1180
 3739SOL    HW122676   3.779   3.559  12.008  0.2777  0.4416 -0.3505
 3739SOL    HW222677   3.903   3.538  12.091  1.0845  0.6574 -0.3370
 3740SOL     OW22678   1.434   2.046   9.807  0.2130  0.0415 -0.5090
 3740SOL    HW122679   1.372   2.001   9.750 -1.8004  2.0384  0.1337
 3740SOL    HW222680   1.488   1.977   9.845  1.5372  2.5938  2.1966
 3741SOL     OW22681   0.561   3.846   4.767 -0.1446  0.5544  0.0327
 3741SOL    HW122682   0.594   3.763   4.734  0.0211  1.3342 -1.7734
 3741SOL    HW222683   0.628   3.865   4.833 -0.6518  2.6293 -0.0457
 3742SOL     OW22684   2.943   1.446   3.645  0.0225 -0.7819  0.1811
 3742SOL    HW122685   2.890   1.440   3.724  1.0444 -1.6501  0.7979
 3742SOL    HW222686   3.022   1.487   3.678  0.1982 -0.0552 -1.1490
 3743SOL     OW22687   0.577   3.800  12.705 -0.4406 -0.5409 -0.4710
 3743SOL    HW122688   0.650   3.810  12.766 -0.2394 -2.9656 -0.2841
 3743SOL    HW222689   0.526   3.732  12.749 -0.6586 -0.2981 -0.3498
 3744SOL     OW22690   4.416   1.271  16.045 -0.6397  0.4844 -0.3924
 3744SOL    HW122691   4.470   1.259  16.123 -0.6144  0.1751 -0.4601
 3744SOL    HW222692   4.459   1.212  15.983 -3.2177 -3.5072  1.6230
 3745SOL     OW22693   0.030   0.114  17.394  0.3908  0.1752  0.1272
 3745SOL    HW122694   0.030   0.018  17.395  4.0627  0.1868 -1.4384
 3745SOL    HW222695   0.118   0.145  17.415  0.7529 -0.4209 -0.5182
 3746SOL     OW22696   4.035   2.357   0.758  0.4132  0.0672  0.2741
 3746SOL    HW122697   4.105   2.390   0.816 -0.3188  2.6949 -0.3169
 3746SOL    HW222698   3.955   2.373   0.808  0.6276 -0.9259  0.9358
 3747SOL     OW22699   3.014   3.918   3.722  0.1227  0.0472 -0.0763
 3747SOL    HW122700   3.043   3.852   3.785 -0.3118  0.6403  0.7398
 3747SOL    HW222701   2.927   3.941   3.752  0.2454  0.0863  0.2464
 3748SOL     OW22702   3.294   3.787  17.180 -0.0249  0.2933  0.1196
 3748SOL    HW122703   3.241   3.855  17.139  0.4579  0.0272 -0.9339
 3748SOL    HW222704   3.348   3.840  17.238  0.1273 -0.1964  0.4241
 3749SOL     OW22705   3.052   0.069   2.885 -0.4555 -0.4597  0.2546
 3749SOL    HW122706   3.012   0.040   2.803 -0.6254 -0.2867  0.2791
 3749SOL    HW222707   3.041   4.704   2.930 -2.1175 -0.3043  0.1115
 3750SOL     OW22708   4.645   3.962   7.032  0.7326  0.0357 -0.4537
 3750SOL    HW122709   4.671   3.982   7.122  0.9544 -1.2833 -0.2198
 3750SOL    HW222710   4.558   4.000   7.039  0.4422 -0.2572 -2.5441
 3751SOL     OW22711   4.125   1.040   2.712 -0.3096  0.0933 -0.0976
 3751SOL    HW122712   4.205   1.051   2.762 -0.3303 -3.0726  0.6412
 3751SOL    HW222713   4.110   0.946   2.719 -2.7274  0.5465  0.7183
 3752SOL     OW22714   3.869   1.582  15.573  0.1473 -0.1843  0.0801
 3752SOL    HW122715   3.843   1.517  15.638  2.3874 -1.5995 -0.4412
 3752SOL    HW222716   3.799   1.646  15.584  0.5226 -0.2567  2.9281
 3753SOL     OW22717   3.313   1.927   2.517 -0.0291 -0.1543 -0.2875
 3753SOL    HW122718   3.359   2.011   2.506 -0.8572 -0.1458 -3.4572
 3753SOL    HW222719   3.230   1.959   2.552 -0.0792 -0.3333 -0.2443
 3754SOL     OW22720   4.342   2.414  13.809 -0.0963  0.0115 -0.0275
 3754SOL    HW122721   4.257   2.452  13.830 -0.4092 -0.6830 -0.0632
 3754SOL    HW222722   4.305   2.340  13.761  0.1250 -0.8814  1.1883
 3755SOL     OW22723   3.571   1.874   8.702  0.1099 -0.9341 -0.2563
 3755SOL    HW122724   3.573   1.833   8.788  2.6871 -1.5413 -0.5923
 3755SOL    HW222725   3.658   1.852   8.667 -0.1744  1.1988 -2.3668
 3756SOL     OW22726   4.075   2.346   5.026 -0.1172 -0.4694  0.0375
 3756SOL    HW122727   4.132   2.286   4.978  0.4045  1.7425 -2.1076
 3756SOL    HW222728   3.994   2.333   4.976 -0.5631  1.3103  0.2724
 3757SOL     OW22729   2.697   0.609  16.394  0.0731 -0.5163 -0.7303
 3757SOL    HW122730   2.602   0.608  16.407  0.1406 -1.9006 -0.3617
 3757SOL    HW222731   2.710   0.522  16.431  1.0863  0.3513  0.9586
 3758SOL     OW22732   3.879   2.004   6.462  0.5349  0.5257 -0.0737
 3758SOL    HW122733   3.887   1.939   6.392 -0.7350 -1.4245  1.5780
 3758SOL    HW222734   3.867   2.078   6.403 -1.7889  0.2823  0.0840
 3759SOL     OW22735   2.452   0.451   7.300 -0.5897 -0.3264  0.2576
 3759SOL    HW122736   2.416   0.370   7.264 -2.3165  0.8976 -0.7890
 3759SOL    HW222737   2.536   0.462   7.256 -0.7659 -2.3239 -0.5610
 3760SOL     OW22738   1.185   4.377   9.198  0.1175 -0.1136 -0.1284
 3760SOL    HW122739   1.174   4.358   9.291 -0.4641 -1.1369 -0.4145
 3760SOL    HW222740   1.095   4.393   9.170 -0.2035 -1.9881 -0.1360
 3761SOL     OW22741   0.179   2.528   3.624 -0.0850  0.5625  0.3147
 3761SOL    HW122742   0.269   2.534   3.656 -0.1258  1.5968  0.2464
 3761SOL    HW222743   0.158   2.435   3.615 -0.6313  0.6788  0.3270
 3762SOL     OW22744   4.676   3.682  14.912 -0.3808 -0.4641  0.3975
 3762SOL    HW122745   4.621   3.699  14.989  1.4046  2.4971  0.9853
 3762SOL    HW222746   4.680   3.768  14.871 -0.2033 -0.0904  1.1910
 3763SOL     OW22747   1.045   0.624   8.247 -0.5280  0.3493  0.3908
 3763SOL    HW122748   1.006   0.539   8.231  1.7771 -0.9888  1.9311
 3763SOL    HW222749   1.116   0.607   8.309  0.2492  1.4026 -0.2151
 3764SOL     OW22750   0.967   0.840   0.489  0.0857 -0.5154  0.2668
 3764SOL    HW122751   0.972   0.840   0.393  1.7508 -0.7485  0.3508
 3764SOL    HW222752   1.058   0.849   0.517 -0.1813  0.7422  0.7229
 3765SOL     OW22753   4.709   1.039  14.501 -0.0562 -0.2036 -0.3073
 3765SOL    HW122754   4.696   0.950  14.534 -0.8560  0.7127  1.8350
 3765SOL    HW222755   4.646   1.095  14.546  1.5539 -0.8680  2.7521
 3766SOL     OW22756   3.465   0.510   8.120  0.2562 -0.1632 -0.0640
 3766SOL    HW122757   3.549   0.467   8.139  0.4059  0.2200  0.1453
 3766SOL    HW222758   3.407   0.500   8.196 -0.1968 -0.1157 -0.4056
 3767SOL     OW22759   1.409   3.687   2.555 -0.0116 -0.1031  0.0347
 3767SOL    HW122760   1.377   3.699   2.644 -1.1215  2.8242 -0.7458
 3767SOL    HW222761   1.468   3.762   2.550 -0.5319  0.4638  2.5515
 3768SOL     OW22762   2.752   4.415   3.300 -0.6968 -0.4779 -0.8737
 3768SOL    HW122763   2.795   4.434   3.217 -0.9837  1.8678 -0.4854
 3768SOL    HW222764   2.663   4.395   3.271 -0.9615 -2.3655  1.2445
 3769SOL     OW22765   0.642   2.740   5.724 -0.0151 -0.2020 -0.1622
 3769SOL    HW122766   0.613   2.650   5.706 -1.5571 -0.5023  3.8968
 3769SOL    HW222767   0.682   2.760   5.639  0.2664 -1.9647 -0.4598
 3770SOL     OW22768   2.826   2.821   1.347 -0.3463  0.0019  0.7179
 3770SOL    HW122769   2.833   2.762   1.272  1.2212  2.5749 -1.1655
 3770SOL    HW222770   2.769   2.770   1.404 -0.6309 -0.6944 -0.1803
 3771SOL     OW22771   4.078   2.594   7.562  0.3657  0.8524  0.3583
 3771SOL    HW122772   4.014   2.525   7.543  1.4255  0.0917 -0.4519
 3771SOL    HW222773   4.034   2.632   7.638 -0.7639 -0.0300  0.1434
 3772SOL     OW22774   2.030   0.198   9.162  0.8129  0.0928  0.1524
 3772SOL    HW122775   2.068   0.180   9.248 -1.9924  0.8390  1.5257
 3772SOL    HW222776   2.035   0.113   9.118  1.9558  0.7064 -0.8987
 3773SOL     OW22777   3.865   0.828   1.308 -0.0372 -0.3020 -0.0610
 3773SOL    HW122778   3.777   0.833   1.345 -0.2642  1.5876 -0.8424
 3773SOL    HW222779   3.885   0.920   1.327  0.6746 -0.6236  0.7156
 3774SOL     OW22780   0.326   2.443   1.810 -0.7859  0.7276  0.3711
 3774SOL    HW122781   0.346   2.530   1.845  0.1222 -0.4528  2.7379
 3774SOL    HW222782   0.238   2.468   1.782 -0.7234  0.1774 -0.3138
 3775SOL     OW22783   4.280   0.288  12.122 -0.3628  0.5812  0.4054
 3775SOL    HW122784   4.214   0.334  12.071 -0.2001  1.2591  0.8061
 3775SOL    HW222785   4.329   0.236  12.058  0.8899  2.2013  0.0301
 3776SOL     OW22786   3.122   1.375   0.589 -0.0812  0.0159  0.1040
 3776SOL    HW122787   3.189   1.402   0.652 -1.6649  1.7414  1.0598
 3776SOL    HW222788   3.058   1.436   0.623 -0.1513 -0.2349  0.4218
 3777SOL     OW22789   4.654   1.370   0.378  0.3330 -1.2808 -0.3019
 3777SOL    HW122790   4.689   1.347   0.464 -1.0120  0.3647  0.6693
 3777SOL    HW222791   4.683   1.461   0.383 -0.0508 -1.1336 -0.7845
 3778SOL     OW22792   4.050   1.291   0.335  0.0480  0.5945  0.7338
 3778SOL    HW122793   3.971   1.287   0.281  1.4342  1.5271 -1.3607
 3778SOL    HW222794   4.106   1.329   0.268  0.3437 -0.1780  0.5428
 3779SOL     OW22795   1.443   1.033   4.638  0.0258  0.0163 -0.1802
 3779SOL    HW122796   1.532   1.000   4.628 -0.8250 -1.9403 -1.3278
 3779SOL    HW222797   1.468   1.119   4.672 -0.2455  1.4785 -3.6253
 3780SOL     OW22798   3.485   4.135   1.575 -0.8510 -0.2653 -0.2285
 3780SOL    HW122799   3.422   4.099   1.513 -0.0926 -0.4175 -0.9101
 3780SOL    HW222800   3.457   4.105   1.662  1.4195  1.6731  1.1992
 3781SOL     OW22801   4.004   0.753   5.207  0.1546 -0.2626  0.1944
 3781SOL    HW122802   3.950   0.800   5.270 -0.8702  1.2710 -1.8402
 3781SOL    HW222803   4.000   0.821   5.140 -0.2237 -0.1376  0.3433
 3782SOL     OW22804   1.984   3.885   7.385  0.0304 -0.0499  0.2194
 3782SOL    HW122805   1.935   3.865   7.464  0.7075 -0.1376  0.6199
 3782SOL    HW222806   2.020   3.970   7.411 -1.3085  0.9718 -1.2725
 3783SOL     OW22807   2.682   2.632   7.668  0.1997 -0.9094  0.0876
 3783SOL    HW122808   2.628   2.700   7.626  0.6167 -1.5146 -1.4325
 3783SOL    HW222809   2.624   2.612   7.741  0.7723 -0.9312  0.5291
 3784SOL     OW22810   2.071   1.404   8.753  0.1748 -0.1590 -0.2234
 3784SOL    HW122811   2.088   1.313   8.729  0.0287 -0.4600  0.8126
 3784SOL    HW222812   2.118   1.406   8.837 -0.1484  0.8916 -0.0645
 3785SOL     OW22813   3.514   2.064   4.493  0.3954 -0.7166 -0.2168
 3785SOL    HW122814   3.589   2.004   4.487  0.6212 -0.4342 -0.1825
 3785SOL    HW222815   3.512   2.106   4.407 -2.1204  0.9183  0.6295
 3786SOL     OW22816   1.185   0.483  14.699  0.1874  0.6822 -0.5208
 3786SOL    HW122817   1.259   0.541  14.718 -0.3429  1.0169  0.5257
 3786SOL    HW222818   1.119   0.525  14.754  1.3833 -1.9136  2.8882
 3787SOL     OW22819   2.414   2.364   9.139  0.0542  0.2099 -0.4189
 3787SOL    HW122820   2.323   2.391   9.142 -0.0593 -0.4992  2.7138
 3787SOL    HW222821   2.428   2.309   9.062 -1.4707 -2.3867  1.1874
 3788SOL     OW22822   2.771   0.399   8.052 -0.1743  0.1628 -0.3517
 3788SOL    HW122823   2.679   0.372   8.046 -0.5163  0.9497  1.1684
 3788SOL    HW222824   2.781   0.380   8.146 -1.1294  0.9639 -0.0793
 3789SOL     OW22825   2.203   0.121   4.248 -0.4243 -0.9439  0.2695
 3789SOL    HW122826   2.138   0.113   4.178  0.9730  2.1002 -1.3873
 3789SOL    HW222827   2.164   0.090   4.330  2.1086  2.0549  2.6036
 3790SOL     OW22828   0.897   1.105   3.172 -0.1676  0.5710 -0.4900
 3790SOL    HW122829   0.899   1.187   3.124  0.7783  0.5092 -0.5655
 3790SOL    HW222830   0.836   1.056   3.117 -0.1843 -0.3277  0.3037
 3791SOL     OW22831   2.988   3.597  10.059 -0.3886 -0.2641  0.1063
 3791SOL    HW122832   2.921   3.663  10.075  0.2990  0.1822  1.1689
 3791SOL    HW222833   3.024   3.586  10.147 -0.3763 -0.3116  0.0956
 3792SOL     OW22834   0.977   2.976   6.690 -0.0657 -0.0941 -0.2729
 3792SOL    HW122835   1.059   3.012   6.657 -0.2093  0.4121 -0.0872
 3792SOL    HW222836   0.937   2.954   6.606  0.5492 -1.0856 -0.3079
 3793SOL     OW22837   1.354   2.506   5.307 -0.0149 -0.7199 -0.0794
 3793SOL    HW122838   1.330   2.599   5.310  3.5311  0.2470 -2.2902
 3793SOL    HW222839   1.420   2.498   5.376 -1.3357  2.6151  1.5644
 3794SOL     OW22840   1.333   2.724   3.423  0.4785  0.9752  0.8125
 3794SOL    HW122841   1.425   2.728   3.449  1.1373 -1.3580 -1.1949
 3794SOL    HW222842   1.310   2.633   3.445  1.7480  1.0719  2.5280
 3795SOL     OW22843   2.822   2.719   2.515  0.1182  0.4719 -0.3861
 3795SOL    HW122844   2.791   2.755   2.432  0.7698 -0.4803 -1.0425
 3795SOL    HW222845   2.907   2.683   2.492  0.5343  0.7517  0.7039
 3796SOL     OW22846   2.386   4.016  11.388 -0.1778  0.4003  0.3648
 3796SOL    HW122847   2.331   3.944  11.418 -0.3251 -0.1827 -1.2609
 3796SOL    HW222848   2.374   3.987  11.297 -2.2724  0.2169  0.6809
 3797SOL     OW22849   3.822   1.993   6.033 -0.0109 -0.7386 -0.2383
 3797SOL    HW122850   3.916   2.011   6.025 -0.0364 -1.3661 -1.9065
 3797SOL    HW222851   3.793   2.049   6.105  0.8878 -0.8012  0.1740
 3798SOL     OW22852   3.963   3.349  10.167  0.9490 -0.5875 -0.0653
 3798SOL    HW122853   4.002   3.394  10.243 -1.4856 -0.0299  0.8453
 3798SOL    HW222854   3.874   3.381  10.177 -0.4174 -3.5567 -2.8034
 3799SOL     OW22855   2.476   3.034   3.268 -0.4014  0.0676  0.0321
 3799SOL    HW122856   2.571   3.041   3.269 -0.4023  0.1421 -0.3960
 3799SOL    HW222857   2.462   3.083   3.187 -0.9067 -1.8985 -1.0531
 3800SOL     OW22858   3.688   4.054   6.716  0.3005  0.1949  0.0407
 3800SOL    HW122859   3.739   4.073   6.638 -0.6408  0.9239 -0.3915
 3800SOL    HW222860   3.603   4.090   6.692  0.7665  0.0433 -1.8393
 3801SOL     OW22861   0.083   1.520  16.835 -0.8216 -0.4531  0.1064
 3801SOL    HW122862   0.096   1.596  16.778  0.3481  0.6111  1.7826
 3801SOL    HW222863   0.134   1.454  16.788 -1.4499  0.1707 -1.4464
 3802SOL     OW22864   1.754   2.422   1.206 -0.1938 -0.1068 -0.5935
 3802SOL    HW122865   1.841   2.426   1.168 -0.5855  1.0387 -1.3747
 3802SOL    HW222866   1.714   2.339   1.181 -0.2337 -0.4230  0.5105
 3803SOL     OW22867   3.113   1.325   4.428 -0.6810 -0.1473  0.0522
 3803SOL    HW122868   3.194   1.280   4.452  0.3087  0.6142 -1.9306
 3803SOL    HW222869   3.142   1.416   4.416 -2.5075  0.4779  0.3640
 3804SOL     OW22870   2.327   2.053   3.667 -0.2515  0.2786 -0.7200
 3804SOL    HW122871   2.348   2.071   3.758 -2.0336  0.2640 -0.3221
 3804SOL    HW222872   2.404   2.003   3.638 -0.4551 -1.0235  0.9604
 3805SOL     OW22873   3.037   1.220   9.577 -0.0297  0.3139 -0.0825
 3805SOL    HW122874   3.077   1.306   9.568  0.0293  0.6105  3.0394
 3805SOL    HW222875   3.118   1.171   9.591 -0.6560 -1.2921 -2.0439
 3806SOL     OW22876   3.124   2.950   3.029  0.3272  0.1074 -0.3763
 3806SOL    HW122877   3.200   2.937   3.086  0.1419  0.6905 -0.0033
 3806SOL    HW222878   3.114   3.045   3.034  0.5881  0.0856  0.4704
 3807SOL     OW22879   2.175   4.274   3.741 -0.1772  0.1250  1.0037
 3807SOL    HW122880   2.245   4.302   3.682 -0.4183  0.0380  0.6736
 3807SOL    HW222881   2.090   4.289   3.699 -0.5789 -0.1212  1.7245
 3808SOL     OW22882   0.408   4.486   5.145 -0.5554  0.3508  0.1682
 3808SOL    HW122883   0.318   4.458   5.131 -0.1760 -0.9192  0.2830
 3808SOL    HW222884   0.400   4.550   5.216 -0.5297  1.1863 -0.5727
 3809SOL     OW22885   3.000   3.801   9.506  0.1948 -0.3915 -0.3666
 3809SOL    HW122886   3.091   3.830   9.508  0.1271  0.0145 -2.6630
 3809SOL    HW222887   3.000   3.721   9.559 -3.0937  1.5297  2.5237
 3810SOL     OW22888   4.480   3.176   2.436  0.2618  0.5934  0.4594
 3810SOL    HW122889   4.389   3.173   2.465  0.0689  1.0503 -0.1188
 3810SOL    HW222890   4.481   3.220   2.351  0.1745  0.1473  0.2259
 3811SOL     OW22891   2.104   2.141   9.466  0.1000  0.1411  0.1024
 3811SOL    HW122892   2.125   2.162   9.375  0.4324 -3.6021 -0.6916
 3811SOL    HW222893   2.143   2.054   9.476  0.3779  0.3543  0.9209
 3812SOL     OW22894   2.126   4.157   1.890 -0.1696 -0.1477  0.7088
 3812SOL    HW122895   2.159   4.076   1.852  0.0949  0.2164  0.1540
 3812SOL    HW222896   2.121   4.199   1.804  0.2767 -2.0278 -0.2309
 3813SOL     OW22897   0.792   3.900   4.133 -0.3717  0.1543 -0.5131
 3813SOL    HW122898   0.727   3.880   4.066  1.9170  0.2899 -2.7638
 3813SOL    HW222899   0.745   3.882   4.215  0.4776 -1.0927 -0.3071
 3814SOL     OW22900   2.455   3.036   1.060  0.0299  0.2960  0.2910
 3814SOL    HW122901   2.496   3.088   1.129 -0.7949 -0.7875  1.5905
 3814SOL    HW222902   2.380   3.093   1.043  0.6327  0.8429 -0.5799
 3815SOL     OW22903   1.086   3.842  12.399  0.0703 -0.2139 -0.5444
 3815SOL    HW122904   1.027   3.774  12.368  1.4070 -1.5568 -0.1026
 3815SOL    HW222905   1.026   3.902  12.443  2.0663  1.5013 -0.1731
 3816SOL     OW22906   0.978   0.960   8.438  0.0533 -0.0849 -0.1514
 3816SOL    HW122907   0.993   1.054   8.449 -1.5310  0.4247 -2.2826
 3816SOL    HW222908   1.036   0.932   8.367 -2.3508  0.4066 -2.3076
 3817SOL     OW22909   1.483   0.693   5.096 -0.0839 -0.6462  0.5222
 3817SOL    HW122910   1.470   0.608   5.053  0.0344 -1.7021  2.5690
 3817SOL    HW222911   1.540   0.733   5.030 -1.0910 -0.7604 -0.4319
 3818SOL     OW22912   3.315   3.686   8.592 -0.3790 -0.1521 -0.0364
 3818SOL    HW122913   3.249   3.649   8.535 -0.9001  1.0429 -0.2007
 3818SOL    HW222914   3.283   3.774   8.612  1.8606  0.2065  1.9548
 3819SOL     OW22915   3.689   0.785   6.546  0.2979 -0.5072  0.0331
 3819SOL    HW122916   3.667   0.835   6.468  3.2011  2.2647  0.9974
 3819SOL    HW222917   3.635   0.822   6.616  1.5216  0.5922  0.3883
 3820SOL     OW22918   2.365   0.537   3.350 -0.0496  0.1257 -0.0889
 3820SOL    HW122919   2.416   0.497   3.420 -1.0073 -1.0153 -0.0473
 3820SOL    HW222920   2.303   0.583   3.406 -0.2200 -2.2572  1.6467
 3821SOL     OW22921   2.342   2.526  14.409  0.4010  0.0563 -0.3192
 3821SOL    HW122922   2.281   2.534  14.483 -0.0645  0.3875 -0.7360
 3821SOL    HW222923   2.360   2.616  14.382  1.5871  0.0263  0.3641
 3822SOL     OW22924   0.145   1.043   1.884 -0.1861  0.4902 -0.3827
 3822SOL    HW122925   0.206   1.113   1.857  1.6321  0.1706  2.8969
 3822SOL    HW222926   0.197   0.985   1.940 -2.2542 -2.1835 -1.2673
 3823SOL     OW22927   2.576   3.090  17.449  0.7084 -0.2378 -0.3800
 3823SOL    HW122928   2.556   3.175  17.489  1.1396  0.3281 -1.3736
 3823SOL    HW222929   2.520   3.030  17.499  0.4831  0.2756 -0.0134
 3824SOL     OW22930   1.311   0.623   4.686  0.0617  0.2421  0.5775
 3824SOL    HW122931   1.245   0.567   4.645  1.4841 -0.6649 -0.4950
 3824SOL    HW222932   1.388   0.575   4.658  0.3018  1.2375 -0.4805
 3825SOL     OW22933   0.141   2.992   1.354 -0.4888 -0.3328 -0.2872
 3825SOL    HW122934   0.202   3.061   1.381 -0.4930 -1.1048  1.6915
 3825SOL    HW222935   0.107   2.968   1.441  0.3823  1.0828  0.4509
 3826SOL     OW22936   1.484   0.895  11.473  0.2683 -0.0290  0.0819
 3826SOL    HW122937   1.544   0.962  11.508  0.1509 -0.5524  1.3054
 3826SOL    HW222938   1.509   0.883  11.382 -1.2498  0.5302 -0.4110
 3827SOL     OW22939   0.784   1.248   7.966  0.2340  0.1007  0.1526
 3827SOL    HW122940   0.815   1.310   7.901 -2.5675  0.5212 -0.7878
 3827SOL    HW222941   0.854   1.265   8.029 -0.6061  2.5062  0.4370
 3828SOL     OW22942   3.337   1.359   7.122  0.4388  0.4615 -0.0159
 3828SOL    HW122943   3.431   1.350   7.105  0.2074  0.9342 -1.4679
 3828SOL    HW222944   3.311   1.278   7.080  1.7741  0.5294 -0.9550
 3829SOL     OW22945   0.030   4.087   0.447 -0.0088 -0.0369  0.0000
 3829SOL    HW122946   4.673   4.107   0.393  1.6988  1.1312 -2.0197
 3829SOL    HW222947   0.021   3.994   0.467  2.4119 -0.0261  1.1848
 3830SOL     OW22948   0.310   2.968   7.750  0.6217  0.8291  0.2970
 3830SOL    HW122949   0.290   3.058   7.725 -2.2799  0.4392  1.1814
 3830SOL    HW222950   0.278   2.918   7.674  0.1576 -0.3064  1.2295
 3831SOL     OW22951   4.128   3.014   6.485 -0.0962 -0.2435 -0.3427
 3831SOL    HW122952   4.050   2.992   6.434  0.1675 -0.9712 -0.4401
 3831SOL    HW222953   4.175   2.932   6.467 -0.3524 -0.9537  2.2002
 3832SOL     OW22954   1.739   3.803   4.170 -0.0448 -0.1435  0.5011
 3832SOL    HW122955   1.715   3.852   4.092  0.0733  1.2205  1.3173
 3832SOL    HW222956   1.694   3.721   4.150  0.5113 -0.4619  0.5495
 3833SOL     OW22957   3.995   3.815  13.033  0.1622 -0.1963  0.3665
 3833SOL    HW122958   3.907   3.785  13.053  0.4940 -1.3989  0.0195
 3833SOL    HW222959   4.051   3.747  13.071  3.7886  1.8511 -1.2224
 3834SOL     OW22960   3.721   4.708   9.626 -0.1535 -0.5296  0.1897
 3834SOL    HW122961   3.632   0.002   9.659  0.4280  1.2130  1.0454
 3834SOL    HW222962   3.743   0.082   9.625 -0.2738 -0.4921  1.1980
 3835SOL     OW22963   4.589   2.175  12.921  0.2635 -0.6594  0.3395
 3835SOL    HW122964   4.596   2.079  12.913  0.2914 -0.7180  1.0125
 3835SOL    HW222965   4.557   2.189  13.010  0.5702  0.5765  0.2540
 3836SOL     OW22966   2.211   1.490   6.976  0.2424  0.1683 -1.1873
 3836SOL    HW122967   2.146   1.439   6.929 -1.1077  0.1250  0.7235
 3836SOL    HW222968   2.178   1.489   7.066  0.4193  2.6687 -1.0857
 3837SOL     OW22969   0.297   1.698  15.834  0.4397  0.6404  0.1920
 3837SOL    HW122970   0.207   1.730  15.826  0.3756  0.4123 -0.0403
 3837SOL    HW222971   0.318   1.694  15.740  1.1258  1.9309  0.2972
 3838SOL     OW22972   4.229   3.949   7.438  0.0964  0.5256 -0.4638
 3838SOL    HW122973   4.215   3.916   7.526  2.3751  0.5647 -0.0981
 3838SOL    HW222974   4.147   3.922   7.397 -0.2608 -1.6441  1.7141
 3839SOL     OW22975   3.687   2.102   8.458 -0.2706  0.2109  0.2213
 3839SOL    HW122976   3.768   2.096   8.507 -0.2773 -1.7040 -0.0167
 3839SOL    HW222977   3.612   2.133   8.508 -1.0567  0.8155 -1.3171
 3840SOL     OW22978   1.906   4.150   8.270  0.0079 -0.0911  0.2114
 3840SOL    HW122979   1.973   4.135   8.337  0.1059 -2.4894 -0.4115
 3840SOL    HW222980   1.963   4.203   8.213 -0.9676 -0.3892 -1.0320
 3841SOL     OW22981   2.872   1.519   5.532 -0.3602  0.1608 -0.1461
 3841SOL    HW122982   2.888   1.611   5.514  2.3651  0.1164  2.0782
 3841SOL    HW222983   2.849   1.513   5.625  0.1633  1.4910  0.0609
 3842SOL     OW22984   0.357   0.181  11.044 -1.0323  0.3311  0.1593
 3842SOL    HW122985   0.445   0.183  11.006 -1.7714 -0.0481 -1.5799
 3842SOL    HW222986   0.313   0.186  10.959 -1.5533  0.6880  0.4534
 3843SOL     OW22987   3.663   2.319   3.646  0.5150  0.0722  0.2988
 3843SOL    HW122988   3.742   2.350   3.602  1.5718 -1.7904  0.8569
 3843SOL    HW222989   3.628   2.265   3.575  0.3070  0.3878  0.1664
 3844SOL     OW22990   0.559   0.706   8.502 -0.4495 -0.0659 -1.0581
 3844SOL    HW122991   0.490   0.749   8.553 -0.4707 -2.0828  0.6264
 3844SOL    HW222992   0.630   0.770   8.492 -0.9925  0.0839 -3.7502
 3845SOL     OW22993   0.170   0.377  11.761  0.0386 -0.0649 -0.5648
 3845SOL    HW122994   0.138   0.323  11.689  0.3115 -1.3124  0.2546
 3845SOL    HW222995   0.126   0.461  11.746  0.1440 -0.0387 -0.7357
 3846SOL     OW22996   0.868   0.324   1.096 -0.0377 -0.4433 -0.5940
 3846SOL    HW122997   0.850   0.410   1.059 -0.3698  0.4059  1.5751
 3846SOL    HW222998   0.932   0.345   1.164  0.3149  1.1916 -1.4261
 3847SOL     OW22999   3.798   1.182   3.862 -0.5122  0.4499  0.4445
 3847SOL    HW123000   3.863   1.218   3.923 -1.5119 -0.0462  1.8147
 3847SOL    HW223001   3.853   1.109   3.836 -0.6513  0.8694 -1.0144
 3848SOL     OW23002   3.992   3.021   5.431 -0.2641 -0.0177  0.4965
 3848SOL    HW123003   3.984   3.112   5.401  2.6128  0.0241 -0.1418
 3848SOL    HW223004   4.080   2.994   5.407  0.6663  2.5890  1.0331
 3849SOL     OW23005   3.416   2.992   5.813 -0.1452  0.4873 -0.7604
 3849SOL    HW123006   3.416   3.065   5.875  0.9960  0.0921 -0.2959
 3849SOL    HW223007   3.346   3.023   5.756 -0.1644 -0.7961 -1.4326
 3850SOL     OW23008   1.951   0.553   4.863  0.1302 -0.2657 -0.3673
 3850SOL    HW123009   1.972   0.625   4.804 -0.1130 -0.6733 -0.9513
 3850SOL    HW223010   1.948   0.597   4.948  1.0653  1.5667 -1.2712
 3851SOL     OW23011   3.851   0.678   8.899  0.4083  0.9668  0.1454
 3851SOL    HW123012   3.864   0.634   8.815  0.0582  1.7552 -0.3286
 3851SOL    HW223013   3.800   0.613   8.948  0.5350 -0.0439 -1.0650
 3852SOL     OW23014   0.207   0.183  15.305  0.3804  0.2822 -0.6428
 3852SOL    HW123015   0.189   0.237  15.228  1.3163 -0.6689 -1.5280
 3852SOL    HW223016   0.248   0.106  15.265  1.3057  0.9327 -0.9489
 3853SOL     OW23017   1.265   3.101   2.493 -0.2754 -0.0127  0.0095
 3853SOL    HW123018   1.257   3.124   2.586  0.4361 -1.7566  0.5228
 3853SOL    HW223019   1.178   3.132   2.470 -0.1780  0.5844  0.4527
 3854SOL     OW23020   1.852   3.195   0.649  0.3738  0.0248  0.6568
 3854SOL    HW123021   1.877   3.281   0.614 -0.9543  0.4746  0.8188
 3854SOL    HW223022   1.798   3.215   0.725  1.3708  1.7563  0.9245
 3855SOL     OW23023   4.160   2.776   5.402 -0.5772 -0.1623 -0.4215
 3855SOL    HW123024   4.120   2.706   5.453 -0.0901 -0.6447 -0.6966
 3855SOL    HW223025   4.175   2.735   5.316 -1.5519 -0.5227 -0.4213
 3856SOL     OW23026   1.914   1.923   1.796 -0.2632 -0.3405 -0.3695
 3856SOL    HW123027   2.004   1.899   1.771 -0.5184 -1.8746  0.1883
 3856SOL    HW223028   1.874   1.859   1.737 -0.8838  0.2598 -0.5925
 3857SOL     OW23029   4.359   0.299   5.431 -0.2484  0.5837  0.2803
 3857SOL    HW123030   4.384   0.212   5.401  0.2645  0.3515  1.3532
 3857SOL    HW223031   4.265   0.296   5.447 -0.5035  2.5014 -0.7985
 3858SOL     OW23032   1.949   1.289   3.208  0.0616  0.1490  0.1928
 3858SOL    HW123033   1.921   1.197   3.203 -0.3459  0.1441  2.6086
 3858SOL    HW223034   1.869   1.338   3.192 -1.4591 -2.8311 -1.3238
 3859SOL     OW23035   1.065   3.313   6.311  0.3365 -0.4187  0.2860
 3859SOL    HW123036   1.021   3.300   6.227 -0.0506 -0.2808  0.4682
 3859SOL    HW223037   1.088   3.406   6.302 -1.2183  0.0176  0.7905
 3860SOL     OW23038   2.370   2.971   7.203 -0.0060  0.1214 -0.4876
 3860SOL    HW123039   2.439   2.923   7.248  0.4021  1.9575  0.8402
 3860SOL    HW223040   2.337   2.916   7.132 -1.7720 -0.1152  0.5154
 3861SOL     OW23041   1.065   0.699   2.373  0.3838  0.2198 -0.2712
 3861SOL    HW123042   1.076   0.608   2.346  1.0278  0.9231 -2.4174
 3861SOL    HW223043   1.083   0.684   2.465 -0.5032  0.5212 -0.0475
 3862SOL     OW23044   1.817   1.057   3.123 -0.6666  0.5827  0.4014
 3862SOL    HW123045   1.785   1.032   3.210 -0.4932  0.9719  0.5789
 3862SOL    HW223046   1.734   1.046   3.077  0.0222  0.1965 -0.7442
 3863SOL     OW23047   4.432   4.083   5.693 -0.3624  0.2562 -0.0185
 3863SOL    HW123048   4.456   4.053   5.605  2.9357  1.3907  0.5011
 3863SOL    HW223049   4.339   4.063   5.701 -0.8441  2.1918 -0.6893
 3864SOL     OW23050   4.683   0.486  11.255  0.0231 -0.3345  0.3398
 3864SOL    HW123051   0.004   0.405  11.224 -0.0194 -1.4193  3.0789
 3864SOL    HW223052   0.035   0.513  11.314 -0.1435 -0.9319  0.8133
 3865SOL     OW23053   3.279   0.580  10.548  0.2891 -0.6747 -0.6187
 3865SOL    HW123054   3.285   0.670  10.517  1.3713 -0.8296 -0.8866
 3865SOL    HW223055   3.364   0.587  10.593 -0.6338 -0.5800  1.1067
 3866SOL     OW23056   0.126   4.036  14.517 -0.0377 -0.4552  0.4309
 3866SOL    HW123057   0.106   4.124  14.551 -1.5216 -1.6464  2.5819
 3866SOL    HW223058   0.169   4.065  14.436 -0.5688 -1.8625 -0.3433
 3867SOL     OW23059   2.196   3.904  17.080 -0.4130 -0.1998  0.0759
 3867SOL    HW123060   2.198   3.949  16.995  0.1985  0.2642  0.3395
 3867SOL    HW223061   2.103   3.884  17.094 -0.7016 -0.7982 -2.5680
 3868SOL     OW23062   1.853   1.683   1.644  0.4125  0.0971  0.5445
 3868SOL    HW123063   1.790   1.623   1.685  0.9407 -0.8154  0.0389
 3868SOL    HW223064   1.930   1.631   1.668  1.4113  0.9743 -0.7389
 3869SOL     OW23065   2.368   3.788   9.438 -0.7777 -0.2188  0.1898
 3869SOL    HW123066   2.389   3.695   9.437  2.6654  0.5427 -0.0222
 3869SOL    HW223067   2.308   3.791   9.364 -2.3517 -0.2664  1.4651
 3870SOL     OW23068   0.425   1.827  11.725  0.2556 -0.1851 -0.0588
 3870SOL    HW123069   0.390   1.867  11.805 -0.6442  2.0506 -1.5760
 3870SOL    HW223070   0.499   1.785  11.770  0.2658 -0.7729 -0.6280
 3871SOL     OW23071   4.621   0.225   1.694 -0.7523  0.0587 -0.5559
 3871SOL    HW123072   4.621   0.218   1.599 -0.0418 -0.8858 -0.4877
 3871SOL    HW223073   4.691   0.290   1.705 -1.2924  0.6741 -0.7773
 3872SOL     OW23074   3.304   2.614   0.262  0.0948 -0.1836  0.0489
 3872SOL    HW123075   3.370   2.645   0.323  0.4008 -1.0689  0.1677
 3872SOL    HW223076   3.327   2.522   0.250 -0.2382 -0.6832  3.2228
 3873SOL     OW23077   4.056   0.120   8.694  0.3740  0.0282  0.7554
 3873SOL    HW123078   4.064   0.078   8.780  1.0169  1.4628  1.4137
 3873SOL    HW223079   4.057   0.211   8.726  0.8111 -0.1808  1.3277
 3874SOL     OW23080   2.807   4.256   4.523 -0.3259 -0.4319  0.1319
 3874SOL    HW123081   2.894   4.291   4.505 -1.0298  2.1434  1.6889
 3874SOL    HW223082   2.781   4.301   4.604 -0.8207  0.0861 -0.3130
 3875SOL     OW23083   3.912   2.955   4.936  0.2487 -0.4272  0.4252
 3875SOL    HW123084   3.857   2.965   5.013  0.2790 -0.0730  0.4014
 3875SOL    HW223085   3.892   3.034   4.885  1.2585 -0.7252 -0.4463
 3876SOL     OW23086   0.759   1.735   6.367  0.2452  0.0035 -0.0464
 3876SOL    HW123087   0.816   1.729   6.443  1.2797  1.8810 -0.6924
 3876SOL    HW223088   0.672   1.761   6.396 -0.4496  0.1151 -2.2309
 3877SOL     OW23089   3.880   1.394   0.768  0.1446 -0.5739 -0.2558
 3877SOL    HW123090   3.939   1.417   0.840 -1.9561 -0.0647  1.3147
 3877SOL    HW223091   3.948   1.378   0.703 -1.2511 -1.4074 -1.5001
 3878SOL     OW23092   4.184   2.926   4.725  0.6888 -0.9146  0.1559
 3878SOL    HW123093   4.129   3.001   4.701 -0.0363 -0.9999  1.5485
 3878SOL    HW223094   4.184   2.923   4.820  0.9730  0.0296  0.1788
 3879SOL     OW23095   3.669   4.078   5.958 -0.7225 -0.1354  0.2046
 3879SOL    HW123096   3.739   4.043   6.014 -0.5415 -0.5445 -0.2800
 3879SOL    HW223097   3.687   4.029   5.878  1.8542 -0.8034  1.1762
 3880SOL     OW23098   1.303   2.659  13.440 -0.1221  0.1446  0.3890
 3880SOL    HW123099   1.325   2.724  13.506 -0.4202  1.6361 -0.9749
 3880SOL    HW223100   1.385   2.611  13.430 -0.2891  0.2398 -1.4638
 3881SOL     OW23101   2.652   2.597  15.737  0.0240  0.3332 -0.2861
 3881SOL    HW123102   2.605   2.558  15.811  0.5796  1.3407  0.5913
 3881SOL    HW223103   2.627   2.535  15.669 -0.2928  0.3405 -0.1787
 3882SOL     OW23104   0.694   0.952   7.547  0.3672  0.3075  0.7496
 3882SOL    HW123105   0.640   0.873   7.554 -1.6666  1.3901 -3.0125
 3882SOL    HW223106   0.631   1.023   7.533  0.5626  0.3393  0.0232
 3883SOL     OW23107   2.134   0.618   3.112  0.5069  0.5502  0.8780
 3883SOL    HW123108   2.199   0.561   3.153  0.7631  1.1611  1.3222
 3883SOL    HW223109   2.187   0.639   3.035  0.9051 -0.2904  0.9186
 3884SOL     OW23110   2.403   3.073   3.659 -0.3024  0.4616 -0.4135
 3884SOL    HW123111   2.443   3.069   3.746  2.1762 -0.8568 -1.6122
 3884SOL    HW223112   2.449   3.149   3.622  0.7950  1.0946  2.2318
 3885SOL     OW23113   1.477   0.732   3.802 -0.2237 -0.0768  0.1693
 3885SOL    HW123114   1.433   0.658   3.844  0.8660 -0.3582  0.8194
 3885SOL    HW223115   1.560   0.742   3.849 -0.6254 -0.6513  0.9976
 3886SOL     OW23116   0.710   3.863   5.013  0.1459  0.0091 -0.3088
 3886SOL    HW123117   0.732   3.867   5.107 -0.9371  0.1817 -0.0681
 3886SOL    HW223118   0.750   3.948   4.992  0.2912  0.0493  0.1143
 3887SOL     OW23119   1.999   2.068   9.117 -0.1685 -0.2819 -0.2357
 3887SOL    HW123120   1.919   2.032   9.079 -1.0129  1.5792 -0.2218
 3887SOL    HW223121   2.021   2.008   9.189 -1.0066  1.7310  1.7165
 3888SOL     OW23122   3.346   4.658   1.011  0.1717 -0.7214  0.3658
 3888SOL    HW123123   3.291   0.017   1.011  0.7484 -0.3209  0.0196
 3888SOL    HW223124   3.429   4.699   0.987  0.7420 -1.7934  0.4637
 3889SOL     OW23125   4.299   0.942   4.686 -0.6112 -0.1765  0.0858
 3889SOL    HW123126   4.370   0.882   4.707 -0.1835 -0.1163 -1.2090
 3889SOL    HW223127   4.299   1.000   4.762 -3.5155 -0.8774  0.6204
 3890SOL     OW23128   2.014   0.843   8.986 -0.0880 -0.1773  0.3414
 3890SOL    HW123129   1.948   0.848   8.917  0.5797 -0.5700 -0.3418
 3890SOL    HW223130   2.010   0.750   9.008 -3.0098 -0.0718  0.2319
 3891SOL     OW23131   1.772   2.809  14.685 -0.0717  0.6167 -0.6413
 3891SOL    HW123132   1.702   2.747  14.706 -0.9516  1.2587 -1.7015
 3891SOL    HW223133   1.764   2.872  14.758 -0.3311  0.9057 -0.9187
 3892SOL     OW23134   2.256   1.350  14.796 -0.1075 -0.2032 -0.6754
 3892SOL    HW123135   2.206   1.407  14.855  0.4031  1.7100 -2.0739
 3892SOL    HW223136   2.308   1.297  14.857  0.5353  0.3336 -0.7552
 3893SOL     OW23137   2.035   1.485   8.018 -0.0666 -0.0441 -0.7424
 3893SOL    HW123138   2.111   1.435   8.047 -0.5191  0.1308  0.7522
 3893SOL    HW223139   2.004   1.536   8.093 -1.2393  2.0441 -2.6427
 3894SOL     OW23140   3.708   2.995   5.099 -0.0097  0.0575  0.0019
 3894SOL    HW123141   3.633   2.948   5.136  1.8538 -1.6970  1.6178
 3894SOL    HW223142   3.717   3.057   5.171 -3.2245  0.7151 -0.1492
 3895SOL     OW23143   2.074   0.083  17.071 -0.0537 -0.0254 -0.5900
 3895SOL    HW123144   2.124   0.045  16.999  0.7954 -0.2908  0.1441
 3895SOL    HW223145   2.142   0.080  17.138 -0.6122 -0.9408 -0.0733
 3896SOL     OW23146   4.717   1.430   2.736  0.6758 -0.0678 -0.5420
 3896SOL    HW123147   0.009   1.525   2.738  2.7061 -0.3168  0.4842
 3896SOL    HW223148   0.046   1.405   2.657  1.5727 -1.1664  0.3368
 3897SOL     OW23149   3.295   2.648   8.164 -0.0284 -0.3536  0.0622
 3897SOL    HW123150   3.330   2.736   8.149 -0.5165 -0.3381 -1.0081
 3897SOL    HW223151   3.295   2.637   8.259 -0.0698 -0.3753  0.0594
 3898SOL     OW23152   3.218   2.995   9.095 -0.4519  0.6799 -0.6436
 3898SOL    HW123153   3.228   2.974   9.187  0.6817  5.3081  0.2810
 3898SOL    HW223154   3.305   2.975   9.060 -1.2083 -0.9529 -1.5883
 3899SOL     OW23155   3.257   3.842  13.386  0.0019 -0.6529 -0.0118
 3899SOL    HW123156   3.187   3.907  13.378 -0.4086 -0.9995  0.8020
 3899SOL    HW223157   3.268   3.845  13.481 -0.3624  0.3768  0.0024
 3900SOL     OW23158   2.004   2.990   1.917  0.4351 -0.4896 -0.3308
 3900SOL    HW123159   1.920   2.983   1.872 -0.2775 -0.5225  0.9915
 3900SOL    HW223160   2.068   3.027   1.857  0.7358  0.3938  0.5368
 3901SOL     OW23161   4.528   1.147   8.582 -0.0412  0.4440  0.3687
 3901SOL    HW123162   4.507   1.138   8.489  2.5178  1.1961 -0.2661
 3901SOL    HW223163   4.489   1.233   8.597 -1.3252 -0.4224  2.0577
 3902SOL     OW23164   2.440   0.924  16.250  0.3623  0.6693  0.7210
 3902SOL    HW123165   2.447   0.852  16.187 -2.9984  0.2102  0.9159
 3902SOL    HW223166   2.360   0.970  16.228 -0.6699 -0.3525  2.3104
 3903SOL     OW23167   4.249   1.882   7.617 -0.0393  0.5270 -0.5960
 3903SOL    HW123168   4.302   1.884   7.697 -3.4664 -3.5514  1.7456
 3903SOL    HW223169   4.255   1.797   7.574 -0.9563  0.3944 -0.4530
 3904SOL     OW23170   1.196   4.543  14.372 -0.1862  0.6309  0.1421
 3904SOL    HW123171   1.188   4.510  14.461 -0.3002 -0.3262 -0.2306
 3904SOL    HW223172   1.151   4.628  14.375  1.4065  1.4563  0.8018
 3905SOL     OW23173   2.012   1.960  15.171 -0.2571 -0.0901 -0.4576
 3905SOL    HW123174   1.988   1.998  15.256  0.5825 -0.1648 -0.1827
 3905SOL    HW223175   1.962   2.017  15.113 -0.6236  2.5880  2.4446
 3906SOL     OW23176   2.849   3.444   8.505 -0.6073 -0.5639 -0.3392
 3906SOL    HW123177   2.764   3.486   8.491 -0.2352 -0.5206 -2.3711
 3906SOL    HW223178   2.839   3.365   8.453 -1.7928 -1.1016  0.6990
 3907SOL     OW23179   0.538   1.879   8.181  0.4791 -0.3377  0.3410
 3907SOL    HW123180   0.532   1.974   8.168  0.2997 -0.2122  1.3100
 3907SOL    HW223181   0.553   1.877   8.276 -3.0720  0.0068  0.8876
 3908SOL     OW23182   4.407   2.418   6.795 -0.1660  0.1455  0.1474
 3908SOL    HW123183   4.500   2.411   6.818 -0.5906 -0.0795  1.8068
 3908SOL    HW223184   4.387   2.325   6.788  0.2994  0.0795 -0.2967
 3909SOL     OW23185   3.603   2.347  17.582  0.1480  0.0737 -0.0113
 3909SOL    HW123186   3.586   2.441  17.592 -2.6163 -0.6599  2.0492
 3909SOL    HW223187   3.631   2.319  17.669 -1.9379 -1.9048  0.0242
 3910SOL     OW23188   3.599   3.971   7.209 -0.9031  0.0538  0.4709
 3910SOL    HW123189   3.674   3.976   7.150 -0.7582  1.1671  0.7474
 3910SOL    HW223190   3.586   4.061   7.241 -0.0065  0.5210 -0.4939
 3911SOL     OW23191   0.061   2.508   9.532 -0.1062  0.1511 -0.0247
 3911SOL    HW123192   0.099   2.532   9.448  0.3735 -0.6523 -0.0432
 3911SOL    HW223193   0.043   2.416   9.512  0.0970  0.6493 -2.4288
 3912SOL     OW23194   2.914   3.546  11.085 -0.0978  0.0949  0.2858
 3912SOL    HW123195   2.847   3.564  11.151 -0.4574 -1.9603  0.4888
 3912SOL    HW223196   2.915   3.450  11.082  1.4563  0.1358 -0.6713
 3913SOL     OW23197   0.479   4.194  13.175  0.4768  0.4405  0.3388
 3913SOL    HW123198   0.557   4.159  13.131 -0.2260  0.9748 -1.3390
 3913SOL    HW223199   0.411   4.141  13.134 -1.4178  1.0934  2.6624
 3914SOL     OW23200   0.753   1.294   2.252 -0.0640 -0.2169  0.4563
 3914SOL    HW123201   0.704   1.301   2.334 -1.3294  2.5299 -0.5279
 3914SOL    HW223202   0.766   1.199   2.258 -1.4562 -0.2906  2.2245
 3915SOL     OW23203   1.646   3.736   7.632 -0.1295 -0.0803  0.1705
 3915SOL    HW123204   1.662   3.654   7.584 -0.6497 -0.9246  1.4418
 3915SOL    HW223205   1.732   3.778   7.626  0.4315 -0.9802  1.9852
 3916SOL     OW23206   1.253   1.726   6.163  0.3099  0.3235 -0.1024
 3916SOL    HW123207   1.171   1.775   6.175  1.2373  2.3151 -1.9261
 3916SOL    HW223208   1.281   1.711   6.253 -0.4113  0.6823  0.1843
 3917SOL     OW23209   3.543   4.206   7.840  0.1015  0.2322 -0.6892
 3917SOL    HW123210   3.586   4.134   7.793  0.0775  0.2347 -0.7148
 3917SOL    HW223211   3.518   4.270   7.773 -1.1301  0.6011  0.1199
 3918SOL     OW23212   3.713   4.039   3.930  0.1397  0.0230 -0.5072
 3918SOL    HW123213   3.694   4.067   4.020  1.3521 -1.2086  0.1336
 3918SOL    HW223214   3.685   3.947   3.922  1.7629 -0.3700 -1.6196
 3919SOL     OW23215   3.977   0.007   6.767 -0.1670  0.0011 -0.7651
 3919SOL    HW123216   3.965   0.029   6.859 -1.5848  2.8672 -1.6313
 3919SOL    HW223217   4.033   4.649   6.779  0.4387  0.3638 -1.2174
 3920SOL     OW23218   4.116   0.175  14.254  0.1112  0.7324 -0.4363
 3920SOL    HW123219   4.021   0.186  14.260 -0.0437 -0.4423 -0.6387
 3920SOL    HW223220   4.135   0.112  14.324  0.3939  1.6455  0.3051
 3921SOL     OW23221   2.041   3.468   4.790  0.4004 -0.1985 -0.3502
 3921SOL    HW123222   2.081   3.388   4.824 -0.7263 -0.3674  0.5799
 3921SOL    HW223223   2.088   3.478   4.708  0.1471 -0.3374 -0.5141
 3922SOL     OW23224   1.918   2.978   6.101 -0.6743  0.4036  0.1863
 3922SOL    HW123225   1.940   2.888   6.126 -0.7956 -0.2448 -2.0667
 3922SOL    HW223226   1.833   2.962   6.061 -1.8950  1.4872  2.3283
 3923SOL     OW23227   1.609   3.939  17.639  0.1525  0.0117  0.6744
 3923SOL    HW123228   1.703   3.960  17.633  0.2993 -0.5012  1.1297
 3923SOL    HW223229   1.616   3.860   0.014  1.6447  0.7728  1.5946
 3924SOL     OW23230   1.809   4.593   9.172 -0.3126  0.5435  0.0792
 3924SOL    HW123231   1.893   4.613   9.129  0.0217  1.5899  1.2362
 3924SOL    HW223232   1.849   4.556   9.250 -1.3075 -2.7622 -0.9896
 3925SOL     OW23233   2.149   1.273   2.021  0.2028 -0.1649  0.2696
 3925SOL    HW123234   2.210   1.281   1.948  0.6356  1.9914  0.8777
 3925SOL    HW223235   2.077   1.237   1.970 -0.6019  2.2856 -0.3060
 3926SOL     OW23236   1.275   1.351  13.474  0.4241  0.5183  0.7603
 3926SOL    HW123237   1.195   1.301  13.457  0.5788  0.5315 -0.0114
 3926SOL    HW223238   1.291   1.332  13.566  0.1370  2.1838  1.1540
 3927SOL     OW23239   1.807   1.282  14.381 -0.0774  0.2172  0.2361
 3927SOL    HW123240   1.901   1.298  14.372 -0.0588 -0.3059 -0.5516
 3927SOL    HW223241   1.806   1.189  14.401  2.6475 -0.3473 -2.3242
 3928SOL     OW23242   4.087   3.674   8.306  0.1058  0.1515 -0.2249
 3928SOL    HW123243   4.175   3.655   8.275  0.2664  0.4727  0.0290
 3928SOL    HW223244   4.068   3.592   8.353  2.5723 -1.1995 -1.6119
 3929SOL     OW23245   0.897   3.835   9.580 -0.0599  0.0384  0.6837
 3929SOL    HW123246   0.894   3.868   9.670 -0.2129 -0.4086  0.8425
 3929SOL    HW223247   0.981   3.790   9.591  0.2954  0.5368  0.0065
 3930SOL     OW23248   2.167   0.654   8.040  0.1353  0.7424  0.8517
 3930SOL    HW123249   2.236   0.589   8.023 -0.1159  0.5572  0.5364
 3930SOL    HW223250   2.215   0.734   8.063  0.1079  1.1101 -0.3579
 3931SOL     OW23251   4.479   4.139   0.323 -0.2866  0.3139 -0.2819
 3931SOL    HW123252   4.446   4.168   0.408  1.3374  1.7621 -0.1552
 3931SOL    HW223253   4.463   4.216   0.269  0.5568 -0.2011 -1.2662
 3932SOL     OW23254   0.481   0.012  10.798  0.6082 -0.4347  0.2883
 3932SOL    HW123255   0.512   0.071  10.729  0.2521  0.8217  1.2016
 3932SOL    HW223256   0.392   0.048  10.805  1.2129  1.2498 -0.6786
 3933SOL     OW23257   2.049   3.503   2.389 -0.4620  0.2907  0.4295
 3933SOL    HW123258   2.119   3.537   2.444 -1.2248  2.9789 -0.2821
 3933SOL    HW223259   2.010   3.585   2.359  0.6568  0.9590  0.8268
 3934SOL     OW23260   1.176   1.732   2.075 -0.5572 -0.3530  0.4820
 3934SOL    HW123261   1.248   1.709   2.135 -0.1815 -2.3392 -0.7435
 3934SOL    HW223262   1.105   1.738   2.139 -1.0886 -0.0900 -0.1370
 3935SOL     OW23263   0.019   1.291   9.576 -0.1577 -0.6017  0.2612
 3935SOL    HW123264   0.100   1.332   9.545 -1.6316  2.7440  0.7906
 3935SOL    HW223265   4.676   1.359   9.548 -0.2641 -0.4719  0.8031
 3936SOL     OW23266   1.787   3.180   4.161 -0.3288  0.4837  0.1221
 3936SOL    HW123267   1.795   3.087   4.138  0.5132  0.2855  1.2002
 3936SOL    HW223268   1.792   3.185   4.256  0.0966  0.7799  0.0823
 3937SOL     OW23269   0.291   2.294   4.992 -0.6840 -0.1543 -0.3307
 3937SOL    HW123270   0.319   2.295   5.084 -2.1627  0.5536  0.1051
 3937SOL    HW223271   0.334   2.217   4.953  0.7727 -0.5469  2.0356
 3938SOL     OW23272   2.051   0.398  12.003 -0.6276  0.1364  0.4464
 3938SOL    HW123273   2.119   0.377  11.939 -0.7842 -0.6048  0.5268
 3938SOL    HW223274   2.098   0.373  12.083 -0.7415  0.3758  0.5863
 3939SOL     OW23275   3.539   3.103   4.323 -0.4695  0.8692  0.7793
 3939SOL    HW123276   3.558   3.163   4.394  1.4411 -0.0334  1.0395
 3939SOL    HW223277   3.519   3.025   4.375 -2.0801  1.0554  0.4290
 3940SOL     OW23278   0.757   1.261  10.890  0.1702 -0.2788  0.5179
 3940SOL    HW123279   0.679   1.312  10.866  1.2469  1.2149  0.2259
 3940SOL    HW223280   0.792   1.239  10.804 -0.9193  3.0530 -0.7373
 3941SOL     OW23281   1.571   2.218   1.395 -0.0080 -0.1821 -0.2649
 3941SOL    HW123282   1.617   2.137   1.416  2.3999  1.9208  2.5111
 3941SOL    HW223283   1.624   2.238   1.318 -1.8482  0.9976 -1.2390
 3942SOL     OW23284   2.894   4.064   9.559 -0.0972 -0.6315 -0.1273
 3942SOL    HW123285   2.928   4.094   9.644  1.3988 -0.8425 -0.6414
 3942SOL    HW223286   2.932   3.976   9.561 -0.6967 -0.8769  0.4941
 3943SOL     OW23287   3.674   0.771   3.880  0.2744 -0.5016 -0.2901
 3943SOL    HW123288   3.718   0.751   3.962 -0.4652  1.4119  0.5658
 3943SOL    HW223289   3.605   0.705   3.888 -0.6410  0.4416 -0.2694
 3944SOL     OW23290   4.332   1.090   2.895  0.4545  0.4840 -0.1227
 3944SOL    HW123291   4.295   1.096   2.983  0.3164 -2.8253  0.0297
 3944SOL    HW223292   4.364   1.180   2.884  1.6216 -0.3250 -3.4459
 3945SOL     OW23293   4.382   2.410   5.638  0.1407  0.3516 -0.6929
 3945SOL    HW123294   4.320   2.347   5.602 -1.1929  0.2867  1.6710
 3945SOL    HW223295   4.345   2.417   5.726  0.3096 -0.1107 -0.5871
 3946SOL     OW23296   4.339   0.525   7.974  0.0277 -0.5765 -0.0966
 3946SOL    HW123297   4.422   0.541   8.019  0.6472  0.6963 -1.7300
 3946SOL    HW223298   4.278   0.535   8.047 -0.2544 -1.4657 -0.2054
 3947SOL     OW23299   2.835   0.799   8.285  0.0453  0.3258 -0.0333
 3947SOL    HW123300   2.915   0.844   8.261 -0.5698  0.2084 -2.3513
 3947SOL    HW223301   2.775   0.826   8.215 -0.0856 -0.9621 -0.4218
 3948SOL     OW23302   4.341   3.179  16.677  0.2982  0.1361  0.5232
 3948SOL    HW123303   4.309   3.101  16.723  1.2669 -0.7276 -0.2741
 3948SOL    HW223304   4.436   3.172  16.693  0.3559 -2.0944 -0.7453
 3949SOL     OW23305   2.226   1.139   1.796 -0.4088 -0.3483 -0.2369
 3949SOL    HW123306   2.172   1.075   1.750  0.9142 -1.5718 -0.1008
 3949SOL    HW223307   2.247   1.096   1.879 -1.5715  0.2075  0.3500
 3950SOL     OW23308   3.850   2.823  10.499  0.1791  0.0561 -0.1763
 3950SOL    HW123309   3.925   2.880  10.481 -0.4612  0.6259 -1.0494
 3950SOL    HW223310   3.796   2.835  10.421  0.1840 -1.6134 -0.4327
 3951SOL     OW23311   3.827   1.447   7.776  0.2638  0.1608  0.1136
 3951SOL    HW123312   3.772   1.389   7.829  1.1735 -0.1103  0.7618
 3951SOL    HW223313   3.777   1.529   7.781 -2.9088 -1.6673 -1.1309
 3952SOL     OW23314   0.267   0.963   4.547 -0.3777  0.2963  0.3438
 3952SOL    HW123315   0.268   0.906   4.624 -0.7934 -1.3068 -0.8176
 3952SOL    HW223316   0.303   0.900   4.483 -0.9805  0.0020  0.2925
 3953SOL     OW23317   1.833   0.725   5.904  0.6781  0.2902  0.2755
 3953SOL    HW123318   1.894   0.699   5.973 -1.1779 -4.7454  0.0181
 3953SOL    HW223319   1.788   0.792   5.956  0.3437 -1.7716  2.6833
 3954SOL     OW23320   1.928   1.602   1.366 -0.2725  0.0910 -0.0407
 3954SOL    HW123321   1.907   1.648   1.447  1.4473 -0.4867  0.7381
 3954SOL    HW223322   1.992   1.534   1.390 -0.6670 -0.2759 -0.0256
 3955SOL     OW23323   0.511   0.850   8.181  0.7228 -0.3324 -0.6075
 3955SOL    HW123324   0.564   0.773   8.201  0.0667 -1.2506 -2.4822
 3955SOL    HW223325   0.546   0.906   8.251 -2.8629  2.2658 -0.9064
 3956SOL     OW23326   3.768   1.125  16.606 -0.1148  0.3001 -0.2218
 3956SOL    HW123327   3.857   1.159  16.616 -0.9312  2.3450  0.0360
 3956SOL    HW223328   3.732   1.187  16.543 -0.4770  0.0362 -0.2678
 3957SOL     OW23329   0.154   3.775   9.865 -0.2606  0.0976  0.1969
 3957SOL    HW123330   0.062   3.782   9.839 -0.4049  0.7275  0.8776
 3957SOL    HW223331   0.139   3.834   9.938 -1.0314  1.1928 -0.8373
 3958SOL     OW23332   0.454   1.447  15.175  0.3322 -0.3895 -0.5261
 3958SOL    HW123333   0.516   1.390  15.128 -0.5379 -1.7715  0.0148
 3958SOL    HW223334   0.458   1.408  15.262 -1.4224 -0.0485 -0.3031
 3959SOL     OW23335   3.090   3.547  10.761  0.2839 -0.4991 -0.1460
 3959SOL    HW123336   3.140   3.485  10.814 -0.0624  0.0108  0.7740
 3959SOL    HW223337   3.005   3.509  10.740  1.1853 -2.1206 -0.8604
 3960SOL     OW23338   0.066   1.464   4.606  0.2974  0.0797 -0.1530
 3960SOL    HW123339   0.162   1.467   4.614  0.2321  2.3861 -0.1091
 3960SOL    HW223340   0.049   1.389   4.550  1.1714  1.7638 -2.6753
 3961SOL     OW23341   3.478   2.355  16.812 -0.3383 -0.3527 -0.2168
 3961SOL    HW123342   3.383   2.341  16.812  0.0393 -2.8274 -0.1674
 3961SOL    HW223343   3.502   2.363  16.904 -3.3399 -0.4700  0.6053
 3962SOL     OW23344   0.429   2.131   4.449  0.0749 -0.1940  0.3748
 3962SOL    HW123345   0.479   2.137   4.531 -1.8895 -0.1886  1.5765
 3962SOL    HW223346   0.503   2.115   4.391 -0.6986  0.0416 -0.6818
 3963SOL     OW23347   1.253   0.019  17.586  0.1004  0.0598  0.4861
 3963SOL    HW123348   1.166   0.058  17.589  0.0196  0.1002 -2.1068
 3963SOL    HW223349   1.319   0.076  17.546 -1.6001  2.3060  0.9254
 3964SOL     OW23350   4.631   2.994  16.946 -0.2633  0.7526  0.4154
 3964SOL    HW123351   4.545   3.025  16.975 -0.5467  0.0043  0.3915
 3964SOL    HW223352   4.689   3.038  17.007  1.2147  1.7768 -1.7271
 3965SOL     OW23353   2.043   2.657   8.835 -0.2793 -0.7265  0.3153
 3965SOL    HW123354   1.983   2.662   8.761  0.1993 -1.4746 -0.1311
 3965SOL    HW223355   2.083   2.744   8.831 -0.0547 -0.7872  1.2668
 3966SOL     OW23356   0.812   4.003   8.516  0.8307 -0.7971  0.2169
 3966SOL    HW123357   0.761   3.924   8.496 -2.5456  1.0213  1.7610
 3966SOL    HW223358   0.825   4.037   8.428  0.4897  0.1389  0.5308
 3967SOL     OW23359   2.396   1.955   6.970  0.3108  0.0465 -0.4995
 3967SOL    HW123360   2.307   1.922   6.954 -0.2958  0.2149  2.5194
 3967SOL    HW223361   2.440   1.871   6.982  1.2115  0.5192 -0.5513
 3968SOL     OW23362   3.209   4.595   7.474 -0.1561 -0.2068  0.4233
 3968SOL    HW123363   3.147   4.593   7.547 -1.0592  1.0662 -0.3009
 3968SOL    HW223364   3.143   4.609   7.406 -0.0519 -0.0990  0.3435
 3969SOL     OW23365   4.001   0.502   2.290 -0.3108  0.0763 -0.3479
 3969SOL    HW123366   4.017   0.426   2.234  3.2202  0.0534  0.6847
 3969SOL    HW223367   3.952   0.562   2.235 -1.5487  1.1490  1.9393
 3970SOL     OW23368   1.267   4.160   8.276  0.6725  0.5598  0.7644
 3970SOL    HW123369   1.221   4.190   8.198 -0.8276  0.4818  1.6084
 3970SOL    HW223370   1.190   4.128   8.324  0.2710 -1.7698 -1.4342
 3971SOL     OW23371   4.608   3.390   0.465  0.1192 -0.4120 -0.3088
 3971SOL    HW123372   4.643   3.476   0.488  1.0319 -1.0090  0.5367
 3971SOL    HW223373   4.591   3.402   0.372  1.5655  2.4872 -0.2175
 3972SOL     OW23374   0.916   2.456   3.856 -0.0508  0.3788 -0.2045
 3972SOL    HW123375   0.860   2.532   3.867  0.7635  0.5900  2.5616
 3972SOL    HW223376   0.999   2.499   3.877  0.3591 -0.2346 -0.5618
 3973SOL     OW23377   0.679   0.008   3.531 -0.0694 -0.3874  0.3591
 3973SOL    HW123378   0.679   4.715   3.626  2.1950 -1.4744  0.2341
 3973SOL    HW223379   0.701   0.101   3.521 -2.4526  0.1171 -0.1330
 3974SOL     OW23380   4.472   1.138   0.344 -1.0378 -0.3421 -0.7500
 3974SOL    HW123381   4.523   1.219   0.343 -0.8356 -0.4389  1.9658
 3974SOL    HW223382   4.509   1.087   0.272  2.3203  2.6810 -1.1137
 3975SOL     OW23383   3.470   4.079   0.156 -0.0125  0.3171  0.3559
 3975SOL    HW123384   3.406   4.127   0.208  0.0225  1.4036 -0.5934
 3975SOL    HW223385   3.489   4.006   0.214  2.1917  1.2485  0.8158
 3976SOL     OW23386   2.693   2.016   7.501 -0.1545  0.0359 -0.4874
 3976SOL    HW123387   2.777   1.998   7.543 -1.0041 -0.6317  0.9171
 3976SOL    HW223388   2.655   2.065   7.575  2.2673 -2.3114  2.2797
 3977SOL     OW23389   0.297   0.172  14.558 -0.2898  0.8708  0.6729
 3977SOL    HW123390   0.274   0.126  14.477  0.0517  1.4109  0.2662
 3977SOL    HW223391   0.362   0.112  14.595 -0.9825 -0.2829  0.0187
 3978SOL     OW23392   1.983   0.824   0.859  0.4736  0.4145 -0.0769
 3978SOL    HW123393   2.024   0.740   0.836  0.1383 -0.0560  1.0764
 3978SOL    HW223394   1.928   0.793   0.930 -0.9553  1.4253 -0.7440
 3979SOL     OW23395   3.088   3.590  16.233 -0.1459  0.1555  0.0825
 3979SOL    HW123396   2.997   3.606  16.259 -0.3926 -0.5954 -0.3294
 3979SOL    HW223397   3.101   3.583  16.138  1.3662  0.3646  0.2651
 3980SOL     OW23398   2.945   2.628   7.059 -1.1536  0.0016  0.0884
 3980SOL    HW123399   2.971   2.720   7.051 -0.8429 -0.0959 -0.0119
 3980SOL    HW223400   2.998   2.612   7.137  0.8357  1.4195 -0.9656
 3981SOL     OW23401   2.493   1.200   7.908 -0.3089  0.0635 -0.3493
 3981SOL    HW123402   2.532   1.239   7.987 -1.2576 -1.1253  0.7106
 3981SOL    HW223403   2.401   1.203   7.934 -0.5991  0.0351 -1.4008
 3982SOL     OW23404   4.041   3.528   5.656 -0.1674  0.3065  0.2599
 3982SOL    HW123405   4.043   3.435   5.679 -2.5205  0.6095  1.6447
 3982SOL    HW223406   4.039   3.562   5.745 -1.5194  0.0524  0.3336
 3983SOL     OW23407   2.620   0.365   4.196 -0.4541  0.1242 -0.5887
 3983SOL    HW123408   2.703   0.336   4.158 -0.9828 -3.5975  1.0574
 3983SOL    HW223409   2.554   0.309   4.154  0.0398 -2.6969  2.4154
 3984SOL     OW23410   3.276   1.122   6.981  0.0322  0.5375 -0.0480
 3984SOL    HW123411   3.330   1.047   7.006  1.5080  1.0105 -1.8117
 3984SOL    HW223412   3.199   1.097   7.032 -0.4693 -0.0349 -1.0727
 3985SOL     OW23413   0.125   3.656   0.179  0.2727  0.2166  0.2180
 3985SOL    HW123414   0.096   3.707   0.254  3.2663  1.1686  0.7119
 3985SOL    HW223415   0.209   3.699   0.163 -0.1666  0.3067 -1.8738
 3986SOL     OW23416   3.145   3.503   4.944 -0.2458  0.0565  0.2897
 3986SOL    HW123417   3.175   3.418   4.911 -0.9764 -1.3585  3.3041
 3986SOL    HW223418   3.227   3.551   4.930  0.8033 -1.5098  1.0764
 3987SOL     OW23419   1.088   4.111   8.491 -0.0814  0.1683  0.0271
 3987SOL    HW123420   1.113   4.186   8.545  2.0834 -1.0639  0.7456
 3987SOL    HW223421   0.995   4.098   8.511 -0.5693 -0.6083 -2.7468
 3988SOL     OW23422   0.238   4.425   4.809  0.4649  0.1276  0.6296
 3988SOL    HW123423   0.228   4.416   4.904 -0.4996  3.1072  0.8190
 3988SOL    HW223424   0.151   4.393   4.785 -0.2369  1.9358  0.7331
 3989SOL     OW23425   0.910   2.549   3.114  0.0858  0.1603 -0.7425
 3989SOL    HW123426   0.826   2.578   3.080 -1.0515 -3.4585 -0.9853
 3989SOL    HW223427   0.883   2.470   3.160  1.5411 -0.1222 -0.3651
 3990SOL     OW23428   1.266   1.395   4.096 -0.6935 -0.2994  0.5975
 3990SOL    HW123429   1.193   1.456   4.085  1.5579  2.1547 -0.7330
 3990SOL    HW223430   1.312   1.417   4.014  0.8509  0.1065  1.5626
 3991SOL     OW23431   0.930   1.507   8.753  0.2578  0.1326  0.7946
 3991SOL    HW123432   0.841   1.480   8.774 -0.1050  1.4599  0.9164
 3991SOL    HW223433   0.923   1.601   8.769  1.0176  0.0822  1.4722
 3992SOL     OW23434   0.639   2.373   1.865  0.1168 -0.3053  0.2090
 3992SOL    HW123435   0.548   2.390   1.841 -0.6304 -0.7715  2.7780
 3992SOL    HW223436   0.666   2.457   1.900  0.6538 -0.2506 -0.3248
 3993SOL     OW23437   4.473   1.198   4.553  0.0338  0.2998 -0.1867
 3993SOL    HW123438   4.393   1.154   4.583  0.5746  0.1110  0.9533
 3993SOL    HW223439   4.541   1.133   4.568  1.0839  1.9052  1.9359
 3994SOL     OW23440   3.505   1.838   9.478 -0.4110  0.2435 -0.7839
 3994SOL    HW123441   3.456   1.787   9.413  0.1477  0.4585 -1.3742
 3994SOL    HW223442   3.516   1.764   9.538 -1.6725  0.4137 -0.3260
 3995SOL     OW23443   1.371   3.277   2.313  0.5941 -0.1159  0.1167
 3995SOL    HW123444   1.322   3.215   2.367  0.5289 -0.5107 -0.3901
 3995SOL    HW223445   1.453   3.274   2.363  0.2460 -1.4059  0.6108
 3996SOL     OW23446   0.294   2.946   4.923  0.3720 -0.7246  0.0128
 3996SOL    HW123447   0.348   2.904   4.856  0.5089 -0.0975 -0.2723
 3996SOL    HW223448   0.239   2.874   4.955 -0.9452  0.8891  1.3898
 3997SOL     OW23449   2.041   4.061   6.081  0.1293 -0.1200 -0.1811
 3997SOL    HW123450   2.044   4.152   6.054  0.5804 -0.8643 -2.6140
 3997SOL    HW223451   2.112   4.061   6.146  0.6428 -3.1014 -0.7383
 3998SOL     OW23452   2.493   3.577   7.151  0.4378  0.4508 -0.0592
 3998SOL    HW123453   2.435   3.564   7.076 -0.5324  1.2963  0.5392
 3998SOL    HW223454   2.453   3.525   7.221  2.4962 -1.3794 -0.2478
 3999SOL     OW23455   4.391   0.421   1.372 -0.4029  0.1486 -0.1779
 3999SOL    HW123456   4.437   0.345   1.406  0.1522 -0.2175 -1.7511
 3999SOL    HW223457   4.462   0.460   1.321 -0.9298 -0.9196 -1.7467
 4000SOL     OW23458   1.731   1.864  11.300  0.0770 -0.3287  0.3784
 4000SOL    HW123459   1.822   1.837  11.293  0.8374  2.6485 -1.2773
 4000SOL    HW223460   1.735   1.950  11.342  0.6467 -0.2441  0.1508
 4001SOL     OW23461   1.879   4.561   5.024  0.0192 -0.5866  0.0248
 4001SOL    HW123462   1.797   4.533   4.984  0.0928 -0.0773 -0.4791
 4001SOL    HW223463   1.934   4.483   5.023  0.2723 -0.4144  0.4999
 4002SOL     OW23464   2.653   0.158  14.410  0.2701  0.3737 -0.2016
 4002SOL    HW123465   2.686   0.145  14.499  3.2713 -2.3459 -1.7071
 4002SOL    HW223466   2.558   0.153  14.414  0.4969 -3.4117  0.7549
 4003SOL     OW23467   1.863   1.091   5.291 -0.1892  0.5843  0.1746
 4003SOL    HW123468   1.827   1.080   5.203 -0.6467 -1.7197  0.6382
 4003SOL    HW223469   1.877   0.997   5.299  2.0200  0.8520 -0.3786
 4004SOL     OW23470   1.848   0.502   1.215 -0.1794  0.6092  0.3862
 4004SOL    HW123471   1.756   0.518   1.234 -0.1180  1.7625 -0.2456
 4004SOL    HW223472   1.858   0.411   1.186 -0.1535  1.0072 -0.8618
 4005SOL     OW23473   3.578   3.197   4.808  0.2584 -0.6762 -0.5750
 4005SOL    HW123474   3.561   3.109   4.772  1.8529 -1.0854 -0.3462
 4005SOL    HW223475   3.589   3.186   4.903 -0.5518  3.5158 -0.0186
 4006SOL     OW23476   0.621   2.608   7.525  0.3285  0.1291  0.3582
 4006SOL    HW123477   0.534   2.568   7.520  0.2502  0.2657  0.6467
 4006SOL    HW223478   0.617   2.682   7.465  1.8422 -2.5493 -3.0454
 4007SOL     OW23479   4.479   4.023   2.777 -0.5807 -0.1203  0.3276
 4007SOL    HW123480   4.552   4.081   2.757 -1.3751  0.3290 -1.2268
 4007SOL    HW223481   4.402   4.079   2.788 -0.5109  0.0937 -0.2584
 4008SOL     OW23482   1.657   4.612   4.623  0.0487  0.2971 -0.1247
 4008SOL    HW123483   1.593   4.626   4.693 -0.0672  0.3621 -0.2434
 4008SOL    HW223484   1.642   4.520   4.601 -0.8760  0.6232 -0.8209
 4009SOL     OW23485   0.433   1.988   7.458 -0.3887 -0.3738  0.4917
 4009SOL    HW123486   0.508   1.929   7.461  1.5869  2.2111  1.8468
 4009SOL    HW223487   0.413   2.009   7.367  1.0699  0.0914  0.2885
 4010SOL     OW23488   2.769   2.872   2.287  0.9341  0.2556 -0.7438
 4010SOL    HW123489   2.798   2.944   2.230 -1.4305  0.6025 -1.4770
 4010SOL    HW223490   2.725   2.808   2.232  1.9871 -0.3523 -0.8757
 4011SOL     OW23491   0.649   1.725   8.882 -0.3775 -0.5989 -0.4305
 4011SOL    HW123492   0.597   1.645   8.886  0.4426 -1.0390  1.4819
 4011SOL    HW223493   0.728   1.683   8.916 -0.9954  0.1797  1.9503
 4012SOL     OW23494   4.287   2.234  13.604  0.3717 -0.4092  0.2328
 4012SOL    HW123495   4.247   2.187  13.677 -2.3027 -0.0281 -0.9879
 4012SOL    HW223496   4.216   2.257  13.544 -0.3756 -0.8743  0.9345
 4013SOL     OW23497   3.650   3.107   3.879  0.1157 -0.5967  0.1899
 4013SOL    HW123498   3.739   3.106   3.844  0.1048 -2.2252  0.2309
 4013SOL    HW223499   3.599   3.051   3.820 -1.1279  0.4850  0.2378
 4014SOL     OW23500   1.163   2.093   6.662 -0.6912 -0.4202  0.0727
 4014SOL    HW123501   1.123   2.029   6.721 -1.9886  1.3372  1.1007
 4014SOL    HW223502   1.181   2.039   6.585  3.5981  0.9145  0.1398
 4015SOL     OW23503   0.568   4.701   8.463 -0.1324 -0.1709 -0.0015
 4015SOL    HW123504   0.512   0.054   8.491  3.3622  2.0736  1.1756
 4015SOL    HW223505   0.513   4.625   8.485  0.3671 -0.3398  0.6664
 4016SOL     OW23506   2.848   2.407   2.148 -0.5558  0.3243  0.3431
 4016SOL    HW123507   2.861   2.334   2.088  1.0965 -0.6638  1.8889
 4016SOL    HW223508   2.884   2.475   2.091 -0.5951  0.4907  0.5166
 4017SOL     OW23509   1.249   1.775   7.656 -0.0547 -0.0083 -0.3466
 4017SOL    HW123510   1.219   1.853   7.609  0.2370  0.4251  0.1940
 4017SOL    HW223511   1.325   1.801   7.708 -2.2395  1.6935  1.9962
 4018SOL     OW23512   2.058   0.988   3.486 -0.8190  0.5286 -0.7462
 4018SOL    HW123513   1.962   0.991   3.489 -0.6877  0.7090  3.1595
 4018SOL    HW223514   2.087   0.910   3.439 -2.8956 -0.0519 -1.0784
 4019SOL     OW23515   3.226   3.845   7.215  0.6157  0.4454  0.0605
 4019SOL    HW123516   3.164   3.799   7.159  0.4439 -1.6220  1.9600
 4019SOL    HW223517   3.183   3.837   7.300  1.6397  1.7523  0.7029
 4020SOL     OW23518   2.935   0.680   4.868 -0.0529  0.5287  0.2230
 4020SOL    HW123519   2.882   0.704   4.791  0.0316  0.6370  0.1975
 4020SOL    HW223520   2.979   0.600   4.838  0.6694  0.7124  0.7852
 4021SOL     OW23521   3.461   2.025   4.769 -0.1522  0.4030 -0.7064
 4021SOL    HW123522   3.477   2.074   4.688 -0.3498 -0.6179 -1.3687
 4021SOL    HW223523   3.428   1.944   4.729 -0.1951 -0.3085  0.7917
 4022SOL     OW23524   3.066   2.550   7.285 -0.3341 -0.4150 -0.1799
 4022SOL    HW123525   3.158   2.529   7.268  0.2703  1.3809  0.9823
 4022SOL    HW223526   3.031   2.484   7.224 -1.2525  0.8642 -1.0298
 4023SOL     OW23527   2.922   3.269   4.873  0.0140  0.3329 -0.2207
 4023SOL    HW123528   2.858   3.290   4.805  0.0796 -1.2925 -0.7866
 4023SOL    HW223529   2.866   3.212   4.926 -1.4925  3.0591  1.1208
 4024SOL     OW23530   4.711   0.933  11.914 -0.0912  0.0208 -0.0366
 4024SOL    HW123531   4.696   0.941  11.819  0.2218 -2.5224 -0.3111
 4024SOL    HW223532   0.066   0.990  11.935  0.7048 -0.9821 -0.0855
 4025SOL     OW23533   1.170   1.602   8.510 -0.3018  0.2754  0.0104
 4025SOL    HW123534   1.205   1.658   8.580  0.8809 -1.6707  0.9934
 4025SOL    HW223535   1.080   1.612   8.540 -0.2468  1.3823 -0.2201
 4026SOL     OW23536   1.684   0.977  10.592  0.0502 -0.1577  0.1315
 4026SOL    HW123537   1.703   0.944  10.504  1.3736 -0.6916  0.6157
 4026SOL    HW223538   1.589   0.986  10.593  0.1046  0.2503  1.5775
 4027SOL     OW23539   2.052   0.581   3.829 -0.6446 -0.1943  0.2953
 4027SOL    HW123540   1.962   0.580   3.861 -0.0528 -0.0741  1.9749
 4027SOL    HW223541   2.086   0.639   3.897  0.5599  0.3616 -0.7719
 4028SOL     OW23542   3.271   0.263  12.808 -0.4330  0.3033 -0.2192
 4028SOL    HW123543   3.240   0.212  12.883  0.8790  0.0120  0.1186
 4028SOL    HW223544   3.288   0.347  12.852  1.2523 -0.7680  1.1868
 4029SOL     OW23545   3.272   3.887   8.290  0.3581 -0.4871  0.0084
 4029SOL    HW123546   3.265   3.928   8.376 -1.5443  2.1425 -1.3852
 4029SOL    HW223547   3.341   3.941   8.252  0.9060 -0.6504  0.7932
 4030SOL     OW23548   0.258   0.868  12.063  0.0765 -0.4913  0.1528
 4030SOL    HW123549   0.300   0.841  11.982 -0.3950  1.8521 -0.8879
 4030SOL    HW223550   0.252   0.964  12.060 -1.1980 -0.5583  0.6146
 4031SOL     OW23551   4.489   2.863   0.405 -0.4384 -0.0201 -0.3448
 4031SOL    HW123552   4.485   2.838   0.497 -0.1579  0.8535 -0.0970
 4031SOL    HW223553   4.576   2.901   0.402 -0.3417 -0.3391 -1.5184
 4032SOL     OW23554   1.946   0.635  13.074 -0.4335  0.1723  0.2829
 4032SOL    HW123555   1.925   0.723  13.105  0.9526  0.0475  1.5739
 4032SOL    HW223556   1.929   0.586  13.154 -0.7626 -0.7556 -0.3587
 4033SOL     OW23557   2.629   4.251   7.349  0.3659  0.0333  0.3903
 4033SOL    HW123558   2.662   4.339   7.329  2.3410 -0.2882  2.1667
 4033SOL    HW223559   2.658   4.249   7.440  0.9411  0.5524  0.2211
 4034SOL     OW23560   3.067   0.804   3.956  0.3667  0.0968 -0.3181
 4034SOL    HW123561   3.091   0.713   3.940 -2.4424 -1.0851  2.1534
 4034SOL    HW223562   2.975   0.808   3.930 -0.5910  0.8324  3.2042
 4035SOL     OW23563   1.111   1.167   6.962 -0.2504  0.0425  0.0074
 4035SOL    HW123564   1.029   1.203   6.995 -2.5352 -3.1771 -2.2490
 4035SOL    HW223565   1.174   1.234   6.989 -2.8887  3.3146 -1.9862
 4036SOL     OW23566   1.513   1.389   3.650 -0.1331 -0.1748 -0.0452
 4036SOL    HW123567   1.434   1.420   3.606  0.0822  1.9996  1.0928
 4036SOL    HW223568   1.575   1.435   3.594 -1.7457 -0.7960 -2.3490
 4037SOL     OW23569   2.445   1.104   7.653  0.5680  0.1470 -0.8939
 4037SOL    HW123570   2.375   1.162   7.621 -0.5679 -0.7482 -0.0527
 4037SOL    HW223571   2.480   1.162   7.720 -1.0309 -0.9029  0.8714
 4038SOL     OW23572   3.258   3.909   6.537 -0.7597 -0.3580 -0.0322
 4038SOL    HW123573   3.184   3.898   6.477 -2.0497 -0.7333  1.6240
 4038SOL    HW223574   3.212   3.874   6.614 -0.0202 -0.1793  0.4821
 4039SOL     OW23575   4.616   1.071   9.641  0.0863  0.3444 -0.8164
 4039SOL    HW123576   4.660   1.155   9.630 -2.6037  1.9841  1.1444
 4039SOL    HW223577   4.580   1.058   9.553 -2.9434  0.6743  0.3910
 4040SOL     OW23578   0.603   2.907   7.465 -0.4044 -0.0614 -0.0169
 4040SOL    HW123579   0.592   2.918   7.559 -0.8891  0.9836 -0.1932
 4040SOL    HW223580   0.592   2.997   7.437  1.7628 -0.4660 -2.1698
 4041SOL     OW23581   4.132   2.765   2.290 -0.1742 -0.2833 -0.0938
 4041SOL    HW123582   4.173   2.777   2.205 -1.0538  0.3679 -0.4259
 4041SOL    HW223583   4.128   2.856   2.319  0.6307 -0.1784 -0.3298
 4042SOL     OW23584   1.927   0.729   5.062  0.1735  0.2393  0.4436
 4042SOL    HW123585   1.992   0.788   5.025  0.8858  0.2728  1.7436
 4042SOL    HW223586   1.953   0.736   5.154  1.0153  0.3114  0.1990
 4043SOL     OW23587   0.587   1.487   4.548  0.0685  0.7332 -0.0804
 4043SOL    HW123588   0.561   1.395   4.550 -0.5154  0.9027  0.0437
 4043SOL    HW223589   0.671   1.482   4.594  0.9626 -0.4344 -1.7932
 4044SOL     OW23590   1.478   0.763   5.701 -0.1060  0.2329 -0.1979
 4044SOL    HW123591   1.438   0.720   5.626  1.7425 -2.3034  0.2946
 4044SOL    HW223592   1.441   0.711   5.772  0.7595  0.0891  0.1525
 4045SOL     OW23593   0.841   1.678   9.800 -0.0570 -0.1213  0.9946
 4045SOL    HW123594   0.757   1.721   9.816  0.3017  0.3017  1.7225
 4045SOL    HW223595   0.875   1.732   9.729  1.2138 -0.1734  1.5616
 4046SOL     OW23596   3.067   3.164   1.631  0.1500  0.3576 -0.1633
 4046SOL    HW123597   3.022   3.082   1.608  3.1449 -1.2459 -0.2917
 4046SOL    HW223598   3.155   3.140   1.660  0.1833 -0.1542 -0.6760
 4047SOL     OW23599   0.474   0.533  11.541 -0.2546  0.1969 -0.6991
 4047SOL    HW123600   0.548   0.594  11.539 -1.3408  1.4653 -2.1025
 4047SOL    HW223601   0.494   0.486  11.460  0.9149  2.1776 -1.5411
 4048SOL     OW23602   0.892   1.957   1.540 -0.6215 -0.3530 -0.3925
 4048SOL    HW123603   0.905   1.867   1.510 -1.1001  0.0973 -1.9139
 4048SOL    HW223604   0.803   1.971   1.508 -1.3121  0.6314  1.9320
 4049SOL     OW23605   3.523   2.556   7.492  0.0332 -0.0578  0.0194
 4049SOL    HW123606   3.557   2.508   7.417  0.5269 -2.7696  1.9862
 4049SOL    HW223607   3.601   2.600   7.526  0.6822 -2.3270  1.4639
 4050SOL     OW23608   0.695   1.957   4.652  0.0367  0.4896  0.2492
 4050SOL    HW123609   0.770   1.900   4.671  0.9264  1.2270 -1.0184
 4050SOL    HW223610   0.659   1.911   4.576  0.0475  0.8288  0.0364
 4051SOL     OW23611   2.789   2.277   8.964 -0.0171  0.1579 -0.4358
 4051SOL    HW123612   2.756   2.189   8.946  0.5161 -0.2260  0.4787
 4051SOL    HW223613   2.715   2.327   8.931 -1.9973 -1.3053  1.7390
 4052SOL     OW23614   4.208   3.714   0.297  0.2468  0.3885 -1.2480
 4052SOL    HW123615   4.199   3.807   0.320  0.7042  0.0088  0.5172
 4052SOL    HW223616   4.268   3.720   0.223  0.5837 -0.4820 -1.0472
 4053SOL     OW23617   2.290   2.748   2.343  0.0548  0.7011  0.7455
 4053SOL    HW123618   2.359   2.795   2.296  0.3393 -0.0231  0.4415
 4053SOL    HW223619   2.321   2.665   2.307 -0.7603  0.1571  1.2856
 4054SOL     OW23620   3.159   3.821   4.128  0.4002 -0.0222  0.1589
 4054SOL    HW123621   3.200   3.849   4.046  0.3424  0.4184  0.2770
 4054SOL    HW223622   3.123   3.904   4.161  1.3601  1.1608 -1.7883
 4055SOL     OW23623   2.524   2.820  14.570 -0.1335 -0.5058  0.1716
 4055SOL    HW123624   2.538   2.911  14.596  2.1445 -0.9969  0.6605
 4055SOL    HW223625   2.429   2.808  14.583  0.2928 -3.1595  0.8405
 4056SOL     OW23626   1.756   1.628  17.519 -0.5950  0.9009  0.1062
 4056SOL    HW123627   1.713   1.632  17.604 -2.3361  0.3672 -0.7344
 4056SOL    HW223628   1.681   1.632  17.459  0.3478 -2.7952 -1.3141
 4057SOL     OW23629   3.519   3.713   1.277 -0.3666  0.3228 -0.2772
 4057SOL    HW123630   3.499   3.629   1.235  0.6529  0.7957 -1.7163
 4057SOL    HW223631   3.504   3.771   1.202 -0.8820 -1.1768 -1.3326
 4058SOL     OW23632   1.781   0.833   1.774  0.1670 -0.0508  0.1412
 4058SOL    HW123633   1.829   0.764   1.729 -2.5908 -1.3540 -0.8535
 4058SOL    HW223634   1.844   0.892   1.815 -0.7263  0.3506  0.9586
 4059SOL     OW23635   3.782   2.825  10.237 -0.3874  0.1359 -0.1914
 4059SOL    HW123636   3.745   2.831  10.149 -0.2736 -1.7955 -0.3765
 4059SOL    HW223637   3.818   2.737  10.228 -0.6527  0.2047 -1.8623
 4060SOL     OW23638   1.312   3.313   0.486 -0.5875 -0.0535  0.0978
 4060SOL    HW123639   1.387   3.371   0.498 -2.4566  2.5393 -0.7954
 4060SOL    HW223640   1.340   3.268   0.406  0.5238 -1.1872  1.1118
 4061SOL     OW23641   0.785   1.775   8.167  0.0715  0.3006 -0.4327
 4061SOL    HW123642   0.845   1.849   8.155  0.9170  0.1537  2.9266
 4061SOL    HW223643   0.701   1.814   8.192 -0.8091 -1.3029 -0.9015
 4062SOL     OW23644   0.645   1.924   2.176  0.2624 -0.4930  0.3722
 4062SOL    HW123645   0.561   1.969   2.188  1.2036  0.6936  2.3421
 4062SOL    HW223646   0.707   1.994   2.194  0.2120 -0.0686 -1.0951
 4063SOL     OW23647   1.775   2.137   8.379 -1.1990  0.9371 -0.6165
 4063SOL    HW123648   1.819   2.218   8.353 -1.4252  0.3511 -2.7621
 4063SOL    HW223649   1.705   2.170   8.435  0.3090 -1.1526  2.5012
 4064SOL     OW23650   4.048   2.255  10.173  0.0784 -0.3342 -0.0940
 4064SOL    HW123651   4.066   2.250  10.267  3.4513  3.7382 -0.5349
 4064SOL    HW223652   4.135   2.275  10.140 -0.4938 -0.8980 -1.9908
 4065SOL     OW23653   4.439   3.132   3.976  0.0773 -0.8234 -0.2455
 4065SOL    HW123654   4.380   3.184   4.030 -1.0305 -0.9555 -1.3507
 4065SOL    HW223655   4.486   3.080   4.042 -0.2724  0.1559  0.7727
 4066SOL     OW23656   3.509   0.197   3.433 -0.2912 -0.4255 -0.2777
 4066SOL    HW123657   3.601   0.174   3.419 -0.8409 -0.9964 -3.0229
 4066SOL    HW223658   3.496   0.283   3.391  0.1466  0.6493  1.8041
 4067SOL     OW23659   0.891   4.514   5.722 -0.0547 -0.1731 -0.2178
 4067SOL    HW123660   0.943   4.471   5.790 -0.9155 -1.0700 -0.1279
 4067SOL    HW223661   0.890   4.606   5.746 -0.7019 -0.1875 -0.1920
 4068SOL     OW23662   1.917   3.976  11.679  0.1373  0.1563  0.1405
 4068SOL    HW123663   2.009   3.968  11.704  0.0749 -1.1228 -0.0188
 4068SOL    HW223664   1.872   3.981  11.763 -0.9889 -0.2837 -0.4431
 4069SOL     OW23665   3.362   1.540   2.331  0.3674  0.4634  0.1809
 4069SOL    HW123666   3.352   1.446   2.320  3.0291  0.2293 -0.2262
 4069SOL    HW223667   3.279   1.556   2.376  0.9189 -0.2124  1.4269
 4070SOL     OW23668   3.419   2.711   0.518  0.8175 -0.3097 -0.1667
 4070SOL    HW123669   3.489   2.776   0.509 -0.2629  0.8707 -0.0301
 4070SOL    HW223670   3.348   2.775   0.510 -0.2812 -1.4463  0.5622
 4071SOL     OW23671   3.582   0.744   5.427  0.1417 -0.1659 -0.4903
 4071SOL    HW123672   3.547   0.660   5.398  0.8844 -0.2676 -1.0989
 4071SOL    HW223673   3.521   0.794   5.374  1.0412  0.4521 -0.9363
 4072SOL     OW23674   2.716   0.038   0.942  0.5830  0.3619 -0.8591
 4072SOL    HW123675   2.661   0.020   0.866 -3.0281 -1.6458  2.2585
 4072SOL    HW223676   2.643   0.076   0.990 -2.0822 -1.3458 -3.5907
 4073SOL     OW23677   1.099   2.759  16.733 -0.3956 -0.0703  0.2368
 4073SOL    HW123678   1.167   2.793  16.791 -0.3211  1.4421 -0.7297
 4073SOL    HW223679   1.027   2.813  16.768 -0.3346  0.3013 -0.2119
 4074SOL     OW23680   1.352   1.511   9.897  0.0549 -0.0396  0.2648
 4074SOL    HW123681   1.273   1.520   9.844 -0.6059  0.2409  1.2996
 4074SOL    HW223682   1.380   1.600   9.917 -3.0845  0.5325  2.2138
 4075SOL     OW23683   4.414   2.987   3.733  0.5417  0.0063 -0.5906
 4075SOL    HW123684   4.433   3.052   3.801  0.4260 -0.7176  0.1380
 4075SOL    HW223685   4.449   3.035   3.658  1.8298  0.3633  0.2457
 4076SOL     OW23686   2.090   2.398   8.677 -0.2920 -0.3587  0.7870
 4076SOL    HW123687   2.007   2.371   8.715 -0.1543 -2.9666 -0.7765
 4076SOL    HW223688   2.140   2.316   8.675 -1.1711 -0.8366 -1.8974
 4077SOL     OW23689   0.321   3.090  16.070 -0.1854 -0.0479 -0.7845
 4077SOL    HW123690   0.257   3.055  16.132  1.1503 -0.1762  0.5162
 4077SOL    HW223691   0.394   3.030  16.088  0.5353  0.4764 -1.9776
 4078SOL     OW23692   4.638   4.562   2.380  0.4435 -0.1980  0.1627
 4078SOL    HW123693   4.632   4.501   2.307 -1.1230 -0.7260  0.7453
 4078SOL    HW223694   4.548   4.595   2.382  1.7225  3.4152 -1.2962
 4079SOL     OW23695   4.701   1.828  15.794  0.5296  0.1897 -0.6604
 4079SOL    HW123696   0.055   1.890  15.786  1.8485 -1.1647  0.6927
 4079SOL    HW223697   4.693   1.815  15.700 -1.1429  0.3153 -0.5380
 4080SOL     OW23698   1.297   0.247   9.305 -0.6314 -0.0337 -0.2364
 4080SOL    HW123699   1.266   0.166   9.347 -3.2971  1.9090  1.5070
 4080SOL    HW223700   1.358   0.204   9.245  0.9320 -0.7763  1.9038
 4081SOL     OW23701   2.018   4.670   9.007 -0.0096 -0.3784  0.2958
 4081SOL    HW123702   2.074   4.599   8.976  1.1301  0.9043 -0.5486
 4081SOL    HW223703   2.025   0.006   8.929  0.3048 -0.0575  0.5530
 4082SOL     OW23704   1.869   2.591  16.414  0.8393  0.8114  0.5003
 4082SOL    HW123705   1.839   2.642  16.339  1.6383 -3.6574 -2.8975
 4082SOL    HW223706   1.888   2.504  16.379  1.3198  1.1083  0.0255
 4083SOL     OW23707   0.905   1.469   3.710  0.8100  0.1268 -0.2458
 4083SOL    HW123708   0.945   1.554   3.692  0.9038 -0.4438 -2.8307
 4083SOL    HW223709   0.885   1.472   3.803  2.6852  0.1235  0.1393
 4084SOL     OW23710   1.040   0.826  17.244  0.2004  0.0217  0.7444
 4084SOL    HW123711   1.011   0.791  17.160  0.8236  1.1620  0.0457
 4084SOL    HW223712   1.074   0.744  17.278 -1.4061 -0.9716 -0.0374
 4085SOL     OW23713   2.568   3.966  12.991  0.2643  0.3058  0.4289
 4085SOL    HW123714   2.652   3.988  13.030  0.3547  0.7815 -0.0435
 4085SOL    HW223715   2.564   3.999  12.901  4.9478  1.1298  0.5444
 4086SOL     OW23716   3.105   4.293   7.295  0.1084 -0.0075  0.1505
 4086SOL    HW123717   3.143   4.230   7.357 -1.2025 -2.9404 -2.0134
 4086SOL    HW223718   3.053   4.231   7.243 -0.6424 -0.1015  1.0120
 4087SOL     OW23719   1.748   2.060   5.591  0.6111 -0.2737  0.4141
 4087SOL    HW123720   1.831   2.073   5.637  0.2212 -0.8252  1.2713
 4087SOL    HW223721   1.708   1.991   5.644 -1.1670  0.0773 -0.4522
 4088SOL     OW23722   1.947   3.157   6.902 -0.0074  0.3899 -0.5484
 4088SOL    HW123723   1.940   3.242   6.858  1.7825  2.1981  2.7063
 4088SOL    HW223724   1.855   3.132   6.906 -0.5087  2.1551 -1.1210
 4089SOL     OW23725   4.508   1.118   6.866  0.6921 -0.8842 -0.8183
 4089SOL    HW123726   4.565   1.067   6.924  1.5139  1.6590  0.6436
 4089SOL    HW223727   4.480   1.053   6.802 -3.1213 -0.7990  0.7630
 4090SOL     OW23728   4.316   1.809  10.338 -0.7862  0.2142  0.6700
 4090SOL    HW123729   4.343   1.889  10.384  0.7471 -0.5703  1.1526
 4090SOL    HW223730   4.391   1.795  10.280 -2.5280  2.9427 -2.1637
 4091SOL     OW23731   4.673   3.452   4.145 -0.2869  0.1101  0.5479
 4091SOL    HW123732   0.036   3.497   4.123 -0.8046  0.4880 -0.6392
 4091SOL    HW223733   4.692   3.419   4.232 -1.1634 -0.2189  0.6131
 4092SOL     OW23734   2.171   0.353   5.960 -0.1729  0.0261  0.1237
 4092SOL    HW123735   2.206   0.317   6.042  0.9547  1.5405  0.3104
 4092SOL    HW223736   2.238   0.420   5.944 -0.6491 -0.2931 -3.1717
 4093SOL     OW23737   3.682   4.342   3.044 -0.1704 -0.3981  0.1745
 4093SOL    HW123738   3.694   4.436   3.033  0.3228 -0.7348 -2.2145
 4093SOL    HW223739   3.771   4.310   3.063  0.8923  0.5055 -3.1399
 4094SOL     OW23740   1.225   2.205  15.847 -0.2659 -0.7484  0.6998
 4094SOL    HW123741   1.246   2.290  15.885 -0.8537 -0.1712 -0.2450
 4094SOL    HW223742   1.166   2.238  15.779  0.8442  2.2087  1.1680
 4095SOL     OW23743   0.080   3.409   2.766 -0.5691  0.3149 -0.1635
 4095SOL    HW123744   0.161   3.435   2.722 -1.5790  2.3740 -0.8404
 4095SOL    HW223745   0.063   3.325   2.723  1.8838  1.1416 -2.7462
 4096SOL     OW23746   3.224   4.656   9.538  0.2711  0.0172  0.3161
 4096SOL    HW123747   3.192   4.718   9.471 -0.9095 -0.2342  0.6424
 4096SOL    HW223748   3.228   4.577   9.484 -2.1739 -1.3218  2.0850
 4097SOL     OW23749   1.236   2.948   8.257 -0.5114  0.2785  0.0017
 4097SOL    HW123750   1.292   3.017   8.291  1.4622 -1.7911  0.9050
 4097SOL    HW223751   1.274   2.861   8.266 -0.4211  0.2739 -0.4553
 4098SOL     OW23752   1.186   1.554   8.793  0.4284 -0.4788 -0.2920
 4098SOL    HW123753   1.104   1.512   8.768  0.3788  0.2607 -1.4187
 4098SOL    HW223754   1.167   1.614   8.865 -0.2065  0.4866 -1.2592
 4099SOL     OW23755   2.351   2.508   7.648 -0.2966 -0.2545  0.0227
 4099SOL    HW123756   2.270   2.544   7.684 -0.1645 -0.3928  0.4541
 4099SOL    HW223757   2.365   2.577   7.583 -0.9879 -0.1233  0.0165
 4100SOL     OW23758   3.405   1.862   7.755  0.2460  0.3831 -0.1516
 4100SOL    HW123759   3.357   1.933   7.797  1.5787  2.3543 -1.9571
 4100SOL    HW223760   3.415   1.900   7.668  0.6671  2.6652  0.8968
 4101SOL     OW23761   3.221   3.077   7.127 -0.3915  0.1465  0.9427
 4101SOL    HW123762   3.162   3.028   7.070  0.3717 -1.3503  1.4274
 4101SOL    HW223763   3.286   3.112   7.066 -1.5455 -0.3638 -0.5741
 4102SOL     OW23764   1.511   0.199   5.648  0.0393  0.1845  0.0291
 4102SOL    HW123765   1.572   0.125   5.645  0.2316  0.3285  0.5095
 4102SOL    HW223766   1.570   0.273   5.661 -0.4729  1.0125 -2.3014
 4103SOL     OW23767   1.773   1.425  13.312  0.1348  0.5264  0.0794
 4103SOL    HW123768   1.770   1.416  13.217  0.2135  1.2515  0.0044
 4103SOL    HW223769   1.697   1.374  13.338 -0.8896  1.4808 -1.0363
 4104SOL     OW23770   4.028   1.870  14.366 -0.7415  0.0586  0.4590
 4104SOL    HW123771   4.079   1.911  14.436 -2.5291  0.3697  1.5890
 4104SOL    HW223772   3.997   1.785  14.398  0.9934 -1.0050 -0.7262
 4105SOL     OW23773   4.125   3.858  15.638 -0.3933  0.1115 -0.1326
 4105SOL    HW123774   4.084   3.897  15.561 -1.5189 -2.6448 -0.9534
 4105SOL    HW223775   4.065   3.893  15.704  0.1172 -2.8801  1.9371
 4106SOL     OW23776   4.654   0.078   5.301 -0.6039  0.1388  0.1612
 4106SOL    HW123777   4.568   0.039   5.318 -0.9964  1.1097  0.4181
 4106SOL    HW223778   4.711   0.017   5.349 -1.7245  1.0108  2.6405
 4107SOL     OW23779   0.593   1.855  12.175 -0.4188  0.1820  0.2601
 4107SOL    HW123780   0.521   1.816  12.125  0.9192  0.3636 -1.8387
 4107SOL    HW223781   0.625   1.930  12.125 -0.1402 -1.3692 -1.9240
 4108SOL     OW23782   0.124   4.445  11.092 -0.6524 -0.2372 -0.2327
 4108SOL    HW123783   0.193   4.488  11.041 -2.1808  1.4021 -0.9125
 4108SOL    HW223784   0.158   4.364  11.130  2.1215 -0.0420 -2.2734
 4109SOL     OW23785   3.598   1.075  14.340  0.6067 -0.9387  0.2985
 4109SOL    HW123786   3.615   1.052  14.431 -0.8802 -1.4000  0.4529
 4109SOL    HW223787   3.582   0.991  14.297  1.4303 -0.6377 -0.6122
 4110SOL     OW23788   1.189   2.613   7.302 -0.4786  0.0375 -0.0020
 4110SOL    HW123789   1.222   2.560   7.375 -3.1828 -2.3418 -0.5144
 4110SOL    HW223790   1.203   2.701   7.338  1.2953 -0.9598  1.7871
 4111SOL     OW23791   0.061   3.354  17.325  0.0511  0.5132 -0.5867
 4111SOL    HW123792   0.009   3.392  17.395  0.6639 -0.6718  0.5124
 4111SOL    HW223793   0.107   3.436  17.303  2.4461 -0.5996  0.2373
 4112SOL     OW23794   3.961   1.676  14.564  0.4396 -0.2674 -0.1025
 4112SOL    HW123795   3.947   1.742  14.632  3.3178  1.4518 -1.1607
 4112SOL    HW223796   3.880   1.626  14.579  0.4352 -0.7141 -1.6522
 4113SOL     OW23797   2.598   4.499   2.348 -0.3386  0.1384 -0.1181
 4113SOL    HW123798   2.537   4.454   2.405 -1.0639 -2.1228 -2.6491
 4113SOL    HW223799   2.617   4.426   2.288 -2.5716  0.1228 -0.8160
 4114SOL     OW23800   4.398   0.783  15.464  0.0113 -0.8408 -0.5484
 4114SOL    HW123801   4.384   0.688  15.461  3.5734 -1.4003  0.2704
 4114SOL    HW223802   4.342   0.801  15.389  1.4007 -1.7757 -1.8305
 4115SOL     OW23803   1.741   3.539   6.140  0.2026 -1.0369  0.5883
 4115SOL    HW123804   1.752   3.626   6.179  0.0274 -1.0312  0.6236
 4115SOL    HW223805   1.710   3.494   6.218  0.1559 -2.4373 -0.2468
 4116SOL     OW23806   1.552   0.233  10.688  0.2359 -0.1119 -0.6259
 4116SOL    HW123807   1.469   0.274  10.665 -0.7673 -1.3318  0.7785
 4116SOL    HW223808   1.529   0.172  10.758  2.5953  1.8426  1.8493
 4117SOL     OW23809   3.565   1.135   9.482 -0.8231  0.2935 -0.3675
 4117SOL    HW123810   3.553   1.040   9.484 -1.6397  0.3902 -0.6361
 4117SOL    HW223811   3.619   1.146   9.561 -1.0845 -0.9183 -0.0141
 4118SOL     OW23812   3.971   4.401  12.029  0.5151  0.3473  0.0848
 4118SOL    HW123813   4.060   4.386  11.998  0.9247 -1.9892  2.4131
 4118SOL    HW223814   3.965   4.372  12.120 -0.3103 -0.1158 -0.1167
 4119SOL     OW23815   4.574   0.877   4.770  0.4296  0.0998 -0.1028
 4119SOL    HW123816   4.584   0.938   4.843  2.4790 -1.5908  1.0195
 4119SOL    HW223817   4.635   0.915   4.707  1.1799  0.0212  0.5886
 4120SOL     OW23818   2.006   3.950   3.603  0.2271 -0.0318 -0.4324
 4120SOL    HW123819   2.029   3.857   3.601  1.3586  0.2193  0.4282
 4120SOL    HW223820   2.088   3.988   3.634 -0.7947  1.4340  0.4575
 4121SOL     OW23821   0.226   0.388   3.580  0.6774  0.0425  0.4955
 4121SOL    HW123822   0.311   0.384   3.537  0.5262 -0.4593  0.2356
 4121SOL    HW223823   0.223   0.478   3.612  3.1970  0.5147 -0.6338
 4122SOL     OW23824   0.768   4.101   8.276  0.1998  0.3255 -0.6878
 4122SOL    HW123825   0.676   4.128   8.275 -0.1753 -0.9523 -0.1910
 4122SOL    HW223826   0.776   4.059   8.190  0.7333 -0.1876 -0.3932
 4123SOL     OW23827   1.032   4.449  16.961  0.1049 -0.1196  0.3069
 4123SOL    HW123828   1.070   4.534  16.939 -0.0099 -0.1490 -0.0016
 4123SOL    HW223829   0.968   4.430  16.893 -0.6674  0.9114  0.7404
 4124SOL     OW23830   2.709   4.613   3.490 -0.0067 -0.4788 -0.4041
 4124SOL    HW123831   2.749   4.558   3.423  0.5050  0.3476 -0.7758
 4124SOL    HW223832   2.673   4.545   3.549  3.2309 -0.3797  1.6789
 4125SOL     OW23833   0.285   3.774  13.230 -0.1479 -0.0505  0.8951
 4125SOL    HW123834   0.246   3.739  13.310 -1.2146 -1.7334 -0.3570
 4125SOL    HW223835   0.320   3.859  13.257 -0.8010  0.6531 -0.4394
 4126SOL     OW23836   2.480   1.647   5.583  0.4009  0.2088 -0.2230
 4126SOL    HW123837   2.483   1.629   5.677  1.4173 -0.9187 -0.4617
 4126SOL    HW223838   2.391   1.679   5.570  0.2415 -0.1399 -0.0097
 4127SOL     OW23839   3.695   4.067   5.541 -0.0724  0.3540  0.2200
 4127SOL    HW123840   3.605   4.092   5.559  0.1029  0.7073  0.6157
 4127SOL    HW223841   3.709   4.012   5.617 -1.8552 -0.9586 -0.4198
 4128SOL     OW23842   0.969   4.093  13.027  0.1162 -0.0063 -0.1180
 4128SOL    HW123843   0.879   4.117  13.004 -0.1085 -0.1254  0.6637
 4128SOL    HW223844   0.991   4.043  12.948  1.2607  0.6051 -0.1862
 4129SOL     OW23845   3.245   4.294  11.146  0.4249  0.2523  0.3919
 4129SOL    HW123846   3.329   4.250  11.160  0.7084  1.0395  1.1904
 4129SOL    HW223847   3.179   4.249  11.199 -0.7395  3.2575  1.5147
 4130SOL     OW23848   0.398   4.457   2.355 -0.7681 -0.4513  0.5120
 4130SOL    HW123849   0.383   4.497   2.269  0.9518  1.3128  1.0424
 4130SOL    HW223850   0.478   4.409   2.334  0.4231  1.3619  0.9097
 4131SOL     OW23851   1.699   1.135   4.112  0.1768 -0.0937 -0.2175
 4131SOL    HW123852   1.756   1.072   4.067 -0.7692 -1.2574  0.2035
 4131SOL    HW223853   1.759   1.208   4.120  0.2741 -0.2325  0.3265
 4132SOL     OW23854   4.159   0.154   1.894 -0.1994 -0.2529 -0.6386
 4132SOL    HW123855   4.115   0.139   1.810 -0.8031  1.8461 -0.7146
 4132SOL    HW223856   4.248   0.122   1.880  1.7641  3.4325  3.5105
 4133SOL     OW23857   0.320   1.829   7.647 -0.4837  0.4935  0.0083
 4133SOL    HW123858   0.338   1.875   7.566 -1.2120 -0.8535 -0.9157
 4133SOL    HW223859   0.406   1.830   7.689 -0.3444  1.5571 -0.3073
 4134SOL     OW23860   2.369   4.212   7.326  0.4360  0.2880  0.9292
 4134SOL    HW123861   2.459   4.233   7.350  0.3095  0.8523  0.9043
 4134SOL    HW223862   2.331   4.298   7.339 -1.8840 -0.7722  1.1786
 4135SOL     OW23863   1.926   2.418   0.418  0.3906 -0.1797  0.5105
 4135SOL    HW123864   1.976   2.434   0.338  0.3434 -1.6533  0.1809
 4135SOL    HW223865   1.923   2.322   0.412  0.7006 -0.2287  1.1238
 4136SOL     OW23866   1.759   2.556   2.587 -0.4000  0.0676 -0.1189
 4136SOL    HW123867   1.766   2.623   2.656  1.4637  1.1865 -1.3898
 4136SOL    HW223868   1.728   2.617   2.520 -0.9779 -0.0865  0.0023
 4137SOL     OW23869   3.292   4.118   7.916  0.4820  0.3291 -0.1712
 4137SOL    HW123870   3.232   4.191   7.900 -0.7401 -0.6420  0.0235
 4137SOL    HW223871   3.379   4.159   7.918  0.7844 -0.3693  1.2689
 4138SOL     OW23872   4.446   1.832   6.969 -0.0459 -0.2477 -0.5666
 4138SOL    HW123873   4.436   1.886   6.891 -0.8070  0.7241  0.1984
 4138SOL    HW223874   4.477   1.898   7.032  1.2527 -1.9182  0.5410
 4139SOL     OW23875   3.563   1.207  11.219 -0.1319 -0.7757  0.6971
 4139SOL    HW123876   3.524   1.267  11.283  1.0722 -2.5739  3.1409
 4139SOL    HW223877   3.520   1.223  11.135 -0.7273  2.0645  1.5241
 4140SOL     OW23878   0.241   2.883   2.710  0.0821 -0.1398 -0.4883
 4140SOL    HW123879   0.211   2.806   2.759  0.1790 -0.0492 -0.2874
 4140SOL    HW223880   0.219   2.862   2.619  2.0358  1.2459 -1.2760
 4141SOL     OW23881   1.733   1.693   3.586 -0.2878 -0.1058  0.0445
 4141SOL    HW123882   1.766   1.604   3.574  0.1193  0.2658 -1.5408
 4141SOL    HW223883   1.792   1.751   3.539  0.0727 -1.0603 -0.6867
 4142SOL     OW23884   4.261   2.483  11.239  0.2500  0.3665 -0.4419
 4142SOL    HW123885   4.279   2.419  11.308  0.5181 -2.1881 -2.9202
 4142SOL    HW223886   4.336   2.475  11.180 -1.8178  2.2499 -3.3098
 4143SOL     OW23887   4.507   2.783   3.907  0.2398 -0.6036 -0.2466
 4143SOL    HW123888   4.495   2.709   3.848 -1.4666  1.5112 -2.5178
 4143SOL    HW223889   4.477   2.854   3.851 -0.6602  1.3049  2.6376
 4144SOL     OW23890   2.140   0.164  14.286 -0.5385  0.3612 -0.4033
 4144SOL    HW123891   2.164   0.107  14.214 -2.2808 -0.2054 -0.5365
 4144SOL    HW223892   2.100   0.234  14.234 -2.4498  0.5856  1.3481
 4145SOL     OW23893   2.250   1.889   5.976  0.4324  0.0884  0.0605
 4145SOL    HW123894   2.158   1.883   6.002  0.9969  1.4384  2.4323
 4145SOL    HW223895   2.243   1.847   5.891  1.5967 -0.0806  0.0450
 4146SOL     OW23896   3.974   3.141   3.454 -0.2007  0.3787 -0.5438
 4146SOL    HW123897   3.978   3.230   3.420 -1.6851  0.6015 -0.1194
 4146SOL    HW223898   3.911   3.118   3.385 -0.1355 -0.5567 -0.2961
 4147SOL     OW23899   1.825   3.899   8.725 -0.3846  0.5950  0.0632
 4147SOL    HW123900   1.794   3.984   8.695 -0.7642  0.6147  0.5198
 4147SOL    HW223901   1.875   3.866   8.650  0.3905 -0.8599  1.2165
 4148SOL     OW23902   1.295   0.889   8.652  0.3912 -0.1770  0.3781
 4148SOL    HW123903   1.203   0.878   8.676  0.6741  0.6271  1.8264
 4148SOL    HW223904   1.287   0.958   8.587  2.3996  0.7827  1.1174
 4149SOL     OW23905   2.292   2.435   3.970 -0.3061  0.3097  0.1858
 4149SOL    HW123906   2.290   2.339   3.976 -3.0816  0.3194 -0.2185
 4149SOL    HW223907   2.383   2.450   3.993  0.1590 -1.2235 -0.6528
 4150SOL     OW23908   1.168   0.222   9.978  0.5148 -0.5983  0.2641
 4150SOL    HW123909   1.242   0.244   9.920  0.4863 -1.3310 -0.0510
 4150SOL    HW223910   1.083   0.238   9.936 -0.0846  1.3199  2.2098
 4151SOL     OW23911   0.617   0.339   5.768 -0.1565  0.2957  0.0527
 4151SOL    HW123912   0.679   0.319   5.698  0.8836 -0.0008  1.0569
 4151SOL    HW223913   0.541   0.281   5.762  0.8831 -1.1133  0.4241
 4152SOL     OW23914   3.105   2.965   4.966  0.6771 -0.1207 -0.4138
 4152SOL    HW123915   3.073   2.953   4.876  1.2578  1.6007 -0.8495
 4152SOL    HW223916   3.126   3.058   4.967 -1.6560  0.4530 -3.9152
 4153SOL     OW23917   0.056   3.684   3.453 -0.0348  0.0829 -0.4766
 4153SOL    HW123918   0.050   3.602   3.503  1.0099  0.4974  0.3231
 4153SOL    HW223919   4.711   3.673   3.383 -1.7486  2.8101  0.6402
 4154SOL     OW23920   2.894   0.384   8.558 -0.0973  0.3585 -0.2298
 4154SOL    HW123921   2.844   0.304   8.542  1.9410 -1.2530  1.4147
 4154SOL    HW223922   2.877   0.428   8.475 -1.1584  1.1732  0.4176
 4155SOL     OW23923   3.748   2.709   7.988 -0.2414  0.3896 -0.3193
 4155SOL    HW123924   3.667   2.689   7.940  0.2182  0.5636 -1.1569
 4155SOL    HW223925   3.808   2.669   7.926 -1.6732  2.6132 -3.1175
 4156SOL     OW23926   1.590   2.324   2.736  0.1126 -0.3999 -0.1098
 4156SOL    HW123927   1.637   2.406   2.719  0.5146 -0.7905 -0.8769
 4156SOL    HW223928   1.575   2.293   2.647 -0.0732  1.8120 -0.8300
 4157SOL     OW23929   1.611   4.684  13.527 -0.8094 -0.0047  0.1917
 4157SOL    HW123930   1.543   0.026  13.500  0.2986  0.8799 -0.6310
 4157SOL    HW223931   1.665   0.019  13.584 -1.2831 -0.8884  1.4604
 4158SOL     OW23932   2.344   1.573   0.355  0.4065  0.8714 -0.3722
 4158SOL    HW123933   2.338   1.561   0.449 -1.4487  0.6178 -0.5300
 4158SOL    HW223934   2.267   1.518   0.342  1.6554 -1.0992  0.5861
 4159SOL     OW23935   1.692   0.676   8.143  0.2579 -0.0747  0.2766
 4159SOL    HW123936   1.607   0.640   8.122  0.8510 -1.5281  0.3759
 4159SOL    HW223937   1.680   0.715   8.230  1.6690  0.9258  0.0415
 4160SOL     OW23938   2.258   2.466  16.283 -0.0320 -0.3339 -0.0648
 4160SOL    HW123939   2.258   2.371  16.291  2.0299 -0.2952  0.3865
 4160SOL    HW223940   2.214   2.473  16.198 -0.1728  4.8710  0.3925
 4161SOL     OW23941   4.561   0.194   4.333  0.2168  0.0009 -0.5100
 4161SOL    HW123942   4.501   0.158   4.269 -1.3050  0.3041  0.7463
 4161SOL    HW223943   4.630   0.237   4.282  0.0020 -0.0744 -0.8572
 4162SOL     OW23944   2.499   1.314   6.767 -0.3065  0.1236 -0.1926
 4162SOL    HW123945   2.468   1.271   6.688 -0.3623 -0.6413  0.2432
 4162SOL    HW223946   2.490   1.408   6.751  0.7361  0.0262 -1.2918
 4163SOL     OW23947   3.171   1.603   8.798 -0.1802 -0.3641 -0.2137
 4163SOL    HW123948   3.107   1.642   8.858  1.5536  3.6783 -0.9715
 4163SOL    HW223949   3.233   1.676   8.810 -1.4419  1.0048 -2.1281
 4164SOL     OW23950   0.854   2.258  14.608 -0.4444  0.2079  0.2395
 4164SOL    HW123951   0.909   2.259  14.530 -3.6841 -1.2913 -2.0814
 4164SOL    HW223952   0.835   2.351  14.613  0.7193  0.3655  1.4434
 4165SOL     OW23953   4.262   1.505   6.613  0.2048  0.2626  0.1300
 4165SOL    HW123954   4.193   1.550   6.662  1.1445  1.7228  0.1103
 4165SOL    HW223955   4.309   1.584   6.585  2.9532 -0.5328  2.5392
 4166SOL     OW23956   0.751   0.489   3.716  0.2859  0.3205 -0.0645
 4166SOL    HW123957   0.742   0.468   3.809  0.1767 -1.4265 -0.4715
 4166SOL    HW223958   0.841   0.520   3.725 -0.0002  1.0986  0.0869
 4167SOL     OW23959   3.260   3.213  15.071 -0.5628  0.2059  0.1233
 4167SOL    HW123960   3.191   3.203  15.005 -1.3551  0.7768  0.8606
 4167SOL    HW223961   3.343   3.181  15.035  0.4571  1.7472  1.1286
 4168SOL     OW23962   1.432   2.772   3.980  0.6284  0.5044 -0.1703
 4168SOL    HW123963   1.410   2.751   4.071 -0.3057 -1.0753 -0.7646
 4168SOL    HW223964   1.344   2.764   3.943  0.7314 -1.1401 -0.0509
 4169SOL     OW23965   4.287   0.722   2.867  0.0693  0.0655 -0.2357
 4169SOL    HW123966   4.359   0.784   2.876  1.2295 -1.5153  1.3931
 4169SOL    HW223967   4.339   0.653   2.828  0.4403 -0.3966  1.0557
 4170SOL     OW23968   1.061   3.102  11.992 -0.0009 -0.1651 -0.1722
 4170SOL    HW123969   1.041   3.017  11.953  0.1247 -0.9424  1.4458
 4170SOL    HW223970   0.970   3.128  12.006  0.0569 -0.9223  1.6181
 4171SOL     OW23971   2.281   3.580   3.331  0.6500  0.2123  0.8222
 4171SOL    HW123972   2.295   3.492   3.297 -2.1866  0.2252 -0.3243
 4171SOL    HW223973   2.188   3.595   3.317  0.7843  0.7627  0.5411
 4172SOL     OW23974   4.690   0.421   5.570 -0.6498 -0.3299 -0.7727
 4172SOL    HW123975   4.670   0.402   5.479  1.7359 -1.2986 -1.0816
 4172SOL    HW223976   4.603   0.447   5.602 -0.5283  0.6027 -1.2177
 4173SOL     OW23977   0.654   0.157  15.128 -0.5948 -0.7868  0.1319
 4173SOL    HW123978   0.646   0.246  15.164 -0.5988 -0.6701 -0.1592
 4173SOL    HW223979   0.575   0.157  15.074 -0.4725 -0.6412 -0.0468
 4174SOL     OW23980   4.643   2.680   5.303  0.5882  0.3067 -0.0812
 4174SOL    HW123981   4.588   2.620   5.354 -0.4140 -0.2442 -1.8040
 4174SOL    HW223982   4.686   2.623   5.239 -0.7237  0.4006 -1.0634
 4175SOL     OW23983   0.501   2.681   8.596 -0.1840 -0.2552  0.5867
 4175SOL    HW123984   0.414   2.680   8.555  0.3617 -3.1338 -0.5105
 4175SOL    HW223985   0.554   2.666   8.518 -1.3651  2.9434 -0.8127
 4176SOL     OW23986   2.594   0.827   2.638 -0.2182 -0.2921 -1.5247
 4176SOL    HW123987   2.617   0.783   2.720 -0.2088  5.7438  1.7272
 4176SOL    HW223988   2.622   0.762   2.574 -1.8487 -0.3164 -2.2090
 4177SOL     OW23989   1.584   1.324   6.092  0.0665  0.0674  0.4316
 4177SOL    HW123990   1.653   1.348   6.029  1.4506  1.0389  2.3204
 4177SOL    HW223991   1.512   1.339   6.031  1.1807  1.2202 -0.6042
 4178SOL     OW23992   0.060   3.350   6.802 -0.4586  0.0089  0.3827
 4178SOL    HW123993   4.684   3.344   6.795 -0.4420 -0.2147  0.3257
 4178SOL    HW223994   0.058   3.430   6.854 -0.1577  0.1384  0.1993
 4179SOL     OW23995   4.420   1.532   7.121 -0.3926  0.9403  0.0811
 4179SOL    HW123996   4.451   1.585   7.047 -2.2657 -2.1657 -2.9126
 4179SOL    HW223997   4.328   1.549   7.099  0.2765  3.3991 -0.8827
 4180SOL     OW23998   2.663   0.673   4.112  0.0570 -0.0332 -0.1637
 4180SOL    HW123999   2.626   0.588   4.089 -0.0038 -0.2972  0.9089
 4180SOL    HW224000   2.580   0.719   4.126  0.4171  1.0724 -1.6588
 4181SOL     OW24001   3.302   1.656  14.395 -0.3135  0.4922 -0.5672
 4181SOL    HW124002   3.295   1.654  14.300  1.6402  1.3810 -0.7402
 4181SOL    HW224003   3.279   1.565  14.411  1.8774 -0.2640 -1.7091
 4182SOL     OW24004   0.020   1.994   6.306 -0.4691  0.2646 -0.3972
 4182SOL    HW124005   0.082   2.025   6.239 -0.2963 -1.4675 -1.0426
 4182SOL    HW224006   4.657   1.992   6.257 -0.3315 -1.2576 -0.5401
 4183SOL     OW24007   3.232   0.788   4.677 -0.0707 -0.6649  0.0046
 4183SOL    HW124008   3.243   0.797   4.582  1.6386  1.4091  0.4076
 4183SOL    HW224009   3.166   0.857   4.690  2.0267  0.9769  1.9566
 4184SOL     OW24010   2.562   4.061  17.184 -0.0001  0.3595  0.2849
 4184SOL    HW124011   2.610   4.131  17.227  0.7006  2.0963 -3.3457
 4184SOL    HW224012   2.634   4.010  17.148  1.5217  1.3709  1.9253
 4185SOL     OW24013   2.851   3.104   7.267  0.1209  0.7360 -0.7098
 4185SOL    HW124014   2.834   3.197   7.282 -3.5106 -0.4393  2.4772
 4185SOL    HW224015   2.871   3.074   7.356 -0.2350 -2.1868 -1.6028
 4186SOL     OW24016   1.555   4.600   9.059 -0.4541  0.0256  0.0389
 4186SOL    HW124017   1.610   4.579   9.135 -1.9998 -1.3717  0.7597
 4186SOL    HW224018   1.487   4.639   9.114 -1.1248  1.7191 -2.0103
 4187SOL     OW24019   1.668   2.159   2.957 -0.0239  0.6335  0.3860
 4187SOL    HW124020   1.634   2.220   2.891  1.5518  1.5050  0.3859
 4187SOL    HW224021   1.606   2.183   3.026 -0.8586 -2.1792  0.6127
 4188SOL     OW24022   2.167   4.127  16.893 -0.4162 -0.2897 -0.0810
 4188SOL    HW124023   2.214   4.172  16.823 -0.3252 -1.9092 -1.0598
 4188SOL    HW224024   2.109   4.069  16.843  0.4098 -2.3421  1.3463
 4189SOL     OW24025   3.150   4.468   6.182  0.0910  0.1909 -0.1557
 4189SOL    HW124026   3.158   4.414   6.104 -0.1030  1.5798 -1.1208
 4189SOL    HW224027   3.113   4.402   6.241  2.1626 -0.5422  0.3624
 4190SOL     OW24028   4.474   0.533   1.620 -0.0246  0.6018 -0.3517
 4190SOL    HW124029   4.449   0.508   1.531  0.0454  0.5101 -0.3457
 4190SOL    HW224030   4.465   0.628   1.610  2.6365  0.8094 -0.9271
 4191SOL     OW24031   2.494   3.178   6.507 -0.1698 -0.6572 -0.6231
 4191SOL    HW124032   2.536   3.214   6.585 -2.5292  0.2274  0.2512
 4191SOL    HW224033   2.400   3.180   6.526  0.1155  1.3953  0.5389
 4192SOL     OW24034   3.014   2.275   7.459 -0.3164 -0.1264  0.1774
 4192SOL    HW124035   2.972   2.326   7.528 -1.8946  0.4292 -1.2026
 4192SOL    HW224036   3.000   2.336   7.387 -0.4835 -1.9251 -1.3108
 4193SOL     OW24037   0.008   3.679   3.000  0.1974  0.3982  0.3386
 4193SOL    HW124038   4.662   3.666   2.931 -2.2110  0.2150  2.6256
 4193SOL    HW224039   0.082   3.711   2.949  0.7644 -0.2325  0.7600
 4194SOL     OW24040   1.782   3.172   5.212 -0.3790  0.3744  0.6524
 4194SOL    HW124041   1.781   3.085   5.173 -1.7562  0.8808 -0.4201
 4194SOL    HW224042   1.860   3.217   5.180  1.2464 -3.2607 -0.4410
 4195SOL     OW24043   0.596   4.037   0.484  0.3211  0.2209  0.3108
 4195SOL    HW124044   0.503   4.017   0.498  0.1215  0.1458 -1.1324
 4195SOL    HW224045   0.639   3.960   0.522  0.1183 -0.8703 -1.6861
 4196SOL     OW24046   0.118   1.900   5.875 -0.1739 -0.0479 -0.5521
 4196SOL    HW124047   0.171   1.899   5.794  1.2044  1.0107  0.3286
 4196SOL    HW224048   0.034   1.919   5.834 -0.5050  1.7873  0.9906
 4197SOL     OW24049   2.139   0.541  12.872  0.0550  0.2054  0.6336
 4197SOL    HW124050   2.088   0.574  12.946  0.6164  1.7762  0.3396
 4197SOL    HW224051   2.204   0.484  12.913  0.1733  0.7738  1.2407
 4198SOL     OW24052   4.271   3.970   2.092  0.1559 -0.7591 -0.7146
 4198SOL    HW124053   4.256   4.042   2.030 -0.4717 -2.0668 -2.0865
 4198SOL    HW224054   4.326   4.009   2.160  0.2627  0.5060 -1.5181
 4199SOL     OW24055   0.710   2.714   7.137  0.3596  0.4210  0.2990
 4199SOL    HW124056   0.749   2.774   7.074  0.5483 -0.7028 -0.6696
 4199SOL    HW224057   0.767   2.637   7.131 -0.2716  0.1113 -1.9268
 4200SOL     OW24058   2.090   0.014   4.525  0.2514 -0.1331  0.2079
 4200SOL    HW124059   2.038   0.080   4.571  0.1880 -1.0695  1.4730
 4200SOL    HW224060   2.015   4.676   4.506 -0.2346  0.8707 -0.9508
 4201SOL     OW24061   0.773   3.226   0.809  0.4403 -0.7084 -0.6749
 4201SOL    HW124062   0.746   3.216   0.718 -2.5371 -2.3309  0.3760
 4201SOL    HW224063   0.858   3.261   0.783  1.3710 -0.8659  2.1505
 4202SOL     OW24064   0.543   4.080   3.682  0.3416  0.0692 -0.6422
 4202SOL    HW124065   0.557   4.025   3.604  1.2975  2.4807 -2.1766
 4202SOL    HW224066   0.568   4.166   3.649 -0.6950  0.4279 -0.4916
 4203SOL     OW24067   2.677   1.364  17.003  0.1134 -0.1388  0.4033
 4203SOL    HW124068   2.646   1.273  17.001 -2.3009  0.6759  0.1671
 4203SOL    HW224069   2.591   1.406  17.013 -0.5942 -0.9781 -2.2106
 4204SOL     OW24070   3.782   0.046  15.467  0.7487 -0.0950  0.0418
 4204SOL    HW124071   3.846   4.715  15.518  0.4258  0.4096  0.9383
 4204SOL    HW224072   3.721   0.079  15.533  0.6844  1.3088 -0.7165
 4205SOL     OW24073   2.827   3.368   2.807 -0.2682 -0.4736 -0.4769
 4205SOL    HW124074   2.877   3.301   2.761 -0.4469 -1.1118  0.2582
 4205SOL    HW224075   2.853   3.360   2.899 -0.3856 -1.9259 -0.5773
 4206SOL     OW24076   3.607   4.419   3.500  0.4985  0.3466  0.1275
 4206SOL    HW124077   3.636   4.485   3.438 -0.5626  1.8743  1.2434
 4206SOL    HW224078   3.686   4.367   3.512  0.4547  0.2449 -0.0169
 4207SOL     OW24079   3.568   3.429  12.803  0.5003 -0.3366 -0.0303
 4207SOL    HW124080   3.558   3.425  12.708 -2.5020  0.6324  0.2673
 4207SOL    HW224081   3.586   3.522  12.816  2.3759 -0.4895 -1.4249
 4208SOL     OW24082   1.874   0.839   7.941  0.3093 -0.0815 -0.1359
 4208SOL    HW124083   1.890   0.835   7.847 -1.1219 -1.0848 -0.3390
 4208SOL    HW224084   1.779   0.848   7.949 -0.0628 -2.9510 -1.3126
 4209SOL     OW24085   4.685   0.714  17.524 -0.1336 -0.3314 -0.2362
 4209SOL    HW124086   4.596   0.742  17.501 -1.0624 -2.0936  1.2701
 4209SOL    HW224087   4.686   0.628  17.482  1.9429  0.1163 -1.1204
 4210SOL     OW24088   4.014   1.112   1.865  0.3605 -0.0843  0.5480
 4210SOL    HW124089   3.946   1.177   1.848  0.7726  0.4088  0.7942
 4210SOL    HW224090   3.967   1.038   1.905  0.7678  0.4008  1.9050
 4211SOL     OW24091   0.032   1.762   8.956 -0.1239  0.7825  0.2981
 4211SOL    HW124092   0.009   1.744   8.865 -0.0038  1.8140  0.0590
 4211SOL    HW224093   4.668   1.773   9.004 -0.8719 -0.4547 -0.7311
 4212SOL     OW24094   1.560   1.077   2.990  0.1989  0.1388  0.2923
 4212SOL    HW124095   1.476   1.104   3.026 -0.3369  1.3593 -1.8786
 4212SOL    HW224096   1.540   1.068   2.898  0.4911  1.0802  0.1300
 4213SOL     OW24097   2.072   1.249   7.749  0.3046 -0.0715  0.3089
 4213SOL    HW124098   1.997   1.287   7.702 -0.5960 -1.9053  0.2714
 4213SOL    HW224099   2.141   1.267   7.685 -0.5118  0.4235 -0.4276
 4214SOL     OW24100   1.752   0.384   4.755 -0.0529  0.3686  0.3929
 4214SOL    HW124101   1.818   0.452   4.769 -0.3204  0.7930 -0.4100
 4214SOL    HW224102   1.735   0.350   4.843 -2.0746  1.2779  0.3619
 4215SOL     OW24103   0.115   3.915   3.160 -0.4566 -0.4727  0.0581
 4215SOL    HW124104   0.072   3.834   3.132  0.5704 -0.9923 -0.0374
 4215SOL    HW224105   0.204   3.892   3.131 -0.3727 -2.5979  2.0260
 4216SOL     OW24106   3.085   3.067   2.174 -0.2684  0.3573 -0.3363
 4216SOL    HW124107   3.088   2.973   2.153 -1.2092 -0.1362  1.7001
 4216SOL    HW224108   3.081   3.097   2.083  2.1872  1.6436 -0.0139
 4217SOL     OW24109   3.924   1.100   6.956 -0.2113  0.5336 -0.1751
 4217SOL    HW124110   3.904   1.021   7.006  2.4496  1.0599  1.7210
 4217SOL    HW224111   3.958   1.157   7.025 -0.5995  0.3425  0.1728
 4218SOL     OW24112   1.931   4.011   6.491 -0.1946 -0.0807  0.0511
 4218SOL    HW124113   1.922   4.011   6.587  2.8228  1.0299  0.3216
 4218SOL    HW224114   1.996   3.943   6.475  0.6738  0.5089  1.0646
 4219SOL     OW24115   2.439   4.397   7.729  0.7643 -0.2482  0.0370
 4219SOL    HW124116   2.406   4.480   7.695  1.0930 -0.6633 -1.2775
 4219SOL    HW224117   2.495   4.418   7.804  0.2318  0.7298  0.1604
 4220SOL     OW24118   0.880   0.765   4.861 -0.0795  0.0413 -0.3912
 4220SOL    HW124119   0.854   0.838   4.805 -3.2070 -1.6757 -1.1742
 4220SOL    HW224120   0.877   0.693   4.798 -1.1922 -0.4317  0.2123
 4221SOL     OW24121   3.431   1.998   3.691 -0.0811 -0.8672 -0.2318
 4221SOL    HW124122   3.385   2.046   3.621 -1.4158 -2.6602 -0.5756
 4221SOL    HW224123   3.478   2.073   3.728  1.5501 -0.7894 -2.4470
 4222SOL     OW24124   3.098   0.478   3.175 -0.0711 -0.2248  0.3659
 4222SOL    HW124125   3.186   0.485   3.139 -0.1158 -1.1459  0.0807
 4222SOL    HW224126   3.082   0.385   3.159  0.4447 -0.1830 -0.3780
 4223SOL     OW24127   0.394   1.690  12.040 -0.7112 -0.4550  0.0291
 4223SOL    HW124128   0.365   1.608  12.000  0.5693  0.5890 -3.0566
 4223SOL    HW224129   0.308   1.728  12.053 -1.0067 -0.0798 -3.1858
 4224SOL     OW24130   2.702   4.292  12.564  0.0090  0.2266  0.0113
 4224SOL    HW124131   2.711   4.352  12.637  0.4808  1.2977 -0.9163
 4224SOL    HW224132   2.766   4.334  12.505 -1.3160  0.9046 -0.9389
 4225SOL     OW24133   3.068   0.589  10.721  0.1876  0.7632 -0.4065
 4225SOL    HW124134   3.047   0.681  10.741 -2.2241 -0.4369  2.6536
 4225SOL    HW224135   3.134   0.595  10.652  2.0565 -0.0576  1.3418
 4226SOL     OW24136   2.440   2.357   9.955 -0.1788  0.1337 -0.1393
 4226SOL    HW124137   2.518   2.303   9.965  0.3791  0.4984 -2.5688
 4226SOL    HW224138   2.437   2.387  10.046  0.2429  1.3424 -0.5238
 4227SOL     OW24139   3.508   0.501  14.928 -0.1237 -0.4313 -0.4780
 4227SOL    HW124140   3.579   0.564  14.936  0.2228 -1.0251  1.0604
 4227SOL    HW224141   3.530   0.425  14.982 -0.6514  0.2255  0.6749
 4228SOL     OW24142   4.420   3.504   9.499  0.2262 -0.0714 -0.0639
 4228SOL    HW124143   4.500   3.543   9.465  0.5771  0.1336  1.0011
 4228SOL    HW224144   4.427   3.513   9.595  1.1420  2.1845 -0.3385
 4229SOL     OW24145   3.689   1.852   4.388 -0.2825  0.2973  0.4745
 4229SOL    HW124146   3.691   1.762   4.419  1.4493  0.4912  0.8943
 4229SOL    HW224147   3.779   1.881   4.373 -0.8394  1.4040 -0.7811
 4230SOL     OW24148   4.712   0.765   8.283  0.1583  0.2274  0.4982
 4230SOL    HW124149   0.059   0.703   8.313  0.2571 -0.3139 -0.8193
 4230SOL    HW224150   4.635   0.711   8.298  0.1879  0.8760  2.9337
 4231SOL     OW24151   1.409   0.959   6.428 -0.1540  0.4745  0.2622
 4231SOL    HW124152   1.457   0.910   6.494  1.5023  0.5265 -0.9280
 4231SOL    HW224153   1.366   0.880   6.395  1.3883  0.1863 -1.0154
 4232SOL     OW24154   4.302   4.486   6.207  0.1600  0.7638  0.3243
 4232SOL    HW124155   4.224   4.430   6.209 -0.3354  1.4702  0.7738
 4232SOL    HW224156   4.371   4.426   6.234 -0.5268  0.1024  0.6180
 4233SOL     OW24157   4.492   2.893   2.821 -0.2533 -0.2241 -0.0595
 4233SOL    HW124158   4.554   2.844   2.875 -3.1515 -1.7331  1.9252
 4233SOL    HW224159   4.459   2.829   2.758  1.3949 -2.1847  1.0744
 4234SOL     OW24160   0.292   4.402   3.973 -0.1425  0.1157 -0.4295
 4234SOL    HW124161   0.370   4.406   4.029 -0.6739  0.9501  0.2504
 4234SOL    HW224162   0.292   4.308   3.960  2.2218  0.0430  0.1428
 4235SOL     OW24163   2.938   3.868   9.260  0.1893 -0.0921  0.2320
 4235SOL    HW124164   2.925   3.961   9.277 -2.5649 -0.7526  1.6751
 4235SOL    HW224165   2.961   3.842   9.349 -2.3232 -0.6522  0.6998
 4236SOL     OW24166   1.204   4.095  16.784  0.0379  0.5556 -0.2587
 4236SOL    HW124167   1.255   4.074  16.706  0.3380 -2.1409  0.6553
 4236SOL    HW224168   1.239   4.182  16.805  0.3964  0.3678 -0.0731
 4237SOL     OW24169   1.049   2.352   2.887 -0.4384  1.1347  0.6063
 4237SOL    HW124170   0.979   2.411   2.859 -2.0463 -1.7418 -1.3931
 4237SOL    HW224171   1.099   2.345   2.806  0.7908  1.6366  1.3321
 4238SOL     OW24172   1.765   3.918   8.314 -0.2334 -0.1073 -0.0622
 4238SOL    HW124173   1.676   3.920   8.280 -0.6153  0.4712  0.9659
 4238SOL    HW224174   1.775   4.013   8.313 -0.8356 -0.0585 -2.8443
 4239SOL     OW24175   2.315   2.702   0.794  0.0654 -0.3086 -0.7478
 4239SOL    HW124176   2.357   2.655   0.722  0.8182 -0.5000 -0.1892
 4239SOL    HW224177   2.375   2.686   0.866 -1.6355 -0.6946  0.5769
 4240SOL     OW24178   3.952   4.434  15.860  0.1576  0.0680  0.0712
 4240SOL    HW124179   4.039   4.401  15.883  0.8890  1.1705 -1.0971
 4240SOL    HW224180   3.914   4.436  15.948 -1.1852 -0.9259 -0.4888
 4241SOL     OW24181   1.623   2.494   7.167  0.0023 -0.3768 -0.3064
 4241SOL    HW124182   1.540   2.474   7.124 -0.6386 -1.4986  1.4575
 4241SOL    HW224183   1.607   2.442   7.245  2.1438  0.8247  0.9432
 4242SOL     OW24184   4.373   4.292   1.997 -0.2999 -0.0663  0.4121
 4242SOL    HW124185   4.443   4.246   2.044 -0.1003 -0.7146 -0.5086
 4242SOL    HW224186   4.359   4.232   1.924  1.2176 -1.2933  1.1201
 4243SOL     OW24187   1.579   1.975   2.188 -0.1040 -0.0733 -0.2930
 4243SOL    HW124188   1.515   2.001   2.122 -0.6696  0.3648  0.4305
 4243SOL    HW224189   1.661   2.007   2.151  0.0443  1.2743  1.2196
 4244SOL     OW24190   0.792   2.249  10.583  0.5051 -0.1249 -0.3900
 4244SOL    HW124191   0.824   2.293  10.662  0.7413 -0.7299 -0.1469
 4244SOL    HW224192   0.862   2.251  10.518 -1.1247  0.0014 -2.1336
 4245SOL     OW24193   1.066   0.010   5.275  0.0575 -0.2214 -0.4595
 4245SOL    HW124194   1.140   0.065   5.300  0.8962 -1.2268 -0.7305
 4245SOL    HW224195   1.031   4.713   5.363 -1.3832  0.0915 -0.9819
 4246SOL     OW24196   2.105   1.783   5.757 -0.3197  0.3899 -0.8107
 4246SOL    HW124197   2.019   1.770   5.717 -1.0605 -0.5945  1.1010
 4246SOL    HW224198   2.166   1.748   5.693  1.3687 -1.6948  1.9277
 4247SOL     OW24199   1.212   3.923   5.798 -0.3673  0.5579  0.0706
 4247SOL    HW124200   1.156   3.997   5.776 -1.1815  0.0148  0.3173
 4247SOL    HW224201   1.150   3.857   5.766  0.0464  0.4607 -0.5290
 4248SOL     OW24202   2.753   2.552  17.180  0.2152  0.0832 -0.0363
 4248SOL    HW124203   2.727   2.528  17.269 -0.9859  0.3373 -0.3140
 4248SOL    HW224204   2.748   2.465  17.140 -0.0272  0.5021 -0.9173
 4249SOL     OW24205   1.331   2.315   1.156  1.2445 -0.2723 -0.0419
 4249SOL    HW124206   1.378   2.372   1.217 -1.0243  0.0415  1.3872
 4249SOL    HW224207   1.269   2.272   1.214  0.6255 -0.2456 -0.6920
 4250SOL     OW24208   2.669   4.233   4.303 -0.0117 -0.2724  0.7507
 4250SOL    HW124209   2.714   4.242   4.387 -0.9905 -0.5590  1.3058
 4250SOL    HW224210   2.668   4.139   4.287  0.3465  0.0253 -0.9826
 4251SOL     OW24211   0.279   0.248   1.415 -0.6109 -0.0033 -0.3550
 4251SOL    HW124212   0.295   0.177   1.353 -0.5705 -1.0034  0.8006
 4251SOL    HW224213   0.252   0.316   1.352  0.0418 -1.6134 -2.3771
 4252SOL     OW24214   3.691   0.365   8.205 -0.2328 -0.0051 -0.5204
 4252SOL    HW124215   3.724   0.371   8.295 -2.1320  0.4948  0.1497
 4252SOL    HW224216   3.648   0.282   8.224 -1.6282  0.4869 -1.5554
 4253SOL     OW24217   3.877   2.195   8.072  0.0517 -0.2696  0.0051
 4253SOL    HW124218   3.883   2.101   8.058 -1.2456 -0.3804  0.1605
 4253SOL    HW224219   3.969   2.220   8.065 -0.4117  1.3378 -0.3634
 4254SOL     OW24220   4.131   2.455   6.847  0.2139 -0.0054 -0.1787
 4254SOL    HW124221   4.118   2.443   6.753  1.8293 -3.9914  0.0929
 4254SOL    HW224222   4.227   2.447   6.852  0.4166  1.3787 -2.0237
 4255SOL     OW24223   4.093   1.289   9.332  0.1638 -0.3223 -0.2211
 4255SOL    HW124224   4.069   1.221   9.268  0.5190 -0.8940  0.2526
 4255SOL    HW224225   4.012   1.297   9.383 -0.4656 -1.9855 -0.9562
 4256SOL     OW24226   0.455   1.063  13.788  0.7929 -0.0585  0.3954
 4256SOL    HW124227   0.543   1.067  13.825  1.8812 -1.3824 -2.0512
 4256SOL    HW224228   0.434   1.154  13.766 -3.4398 -1.4329 -1.4087
 4257SOL     OW24229   0.819   2.448  16.961 -0.0691  0.0045  0.2134
 4257SOL    HW124230   0.799   2.380  17.025 -0.7174 -0.7559 -0.7998
 4257SOL    HW224231   0.914   2.433  16.955  0.0582  1.9147 -2.5042
 4258SOL     OW24232   1.765   2.378  12.951 -0.2435 -0.7128  0.1621
 4258SOL    HW124233   1.764   2.298  12.899  0.0837 -0.0369 -0.8939
 4258SOL    HW224234   1.829   2.355  13.018  0.4511 -1.1657 -0.6561
 4259SOL     OW24235   4.586   1.313   6.669  0.3331 -0.3969 -0.1701
 4259SOL    HW124236   4.555   1.231   6.707 -0.1201 -0.6211 -1.0198
 4259SOL    HW224237   4.591   1.365   6.750 -0.5535 -0.3160 -0.1705
 4260SOL     OW24238   3.494   2.574   7.939 -0.7307  0.1410  0.0808
 4260SOL    HW124239   3.515   2.481   7.935 -0.6254  0.1924 -0.6157
 4260SOL    HW224240   3.437   2.575   8.016  0.7547 -2.6732  1.1882
 4261SOL     OW24241   3.348   2.953   4.589  0.2322 -0.0439  0.6381
 4261SOL    HW124242   3.308   3.040   4.586  3.0993  1.2330 -1.7047
 4261SOL    HW224243   3.288   2.897   4.539  0.2421 -1.1914  1.9155
 4262SOL     OW24244   1.283   1.293   3.449 -0.2846 -0.2716 -0.5790
 4262SOL    HW124245   1.216   1.230   3.474  0.8265 -2.3484 -2.7664
 4262SOL    HW224246   1.241   1.372   3.482 -1.9938 -1.5385  0.2541
 4263SOL     OW24247   0.333   3.833   0.307 -0.1000 -0.1148 -0.5657
 4263SOL    HW124248   0.324   3.914   0.356  0.3190  0.0890 -0.8267
 4263SOL    HW224249   0.424   3.830   0.277  0.0952 -1.2928  0.1555
 4264SOL     OW24250   3.839   1.060  17.371 -0.0402 -0.1195  0.6670
 4264SOL    HW124251   3.804   1.051  17.459 -0.5734 -1.6844  0.2962
 4264SOL    HW224252   3.866   1.152  17.371 -1.4035  0.2825  1.7688
 4265SOL     OW24253   2.708   3.220   1.689 -0.7003  0.1405 -0.0231
 4265SOL    HW124254   2.774   3.286   1.709  1.4958 -1.5341 -1.7586
 4265SOL    HW224255   2.740   3.152   1.629  1.1266  2.1347 -1.3013
 4266SOL     OW24256   3.348   0.512   2.814  0.2693  0.3090 -0.5451
 4266SOL    HW124257   3.362   0.524   2.720 -0.4559 -1.9586 -0.9414
 4266SOL    HW224258   3.291   0.587   2.830 -0.8611 -0.3955 -1.3141
 4267SOL     OW24259   3.174   0.571   3.866  0.8849  0.1674  0.0173
 4267SOL    HW124260   3.174   0.552   3.773 -2.2967  0.4084 -0.0296
 4267SOL    HW224261   3.162   0.484   3.903 -3.2696  0.4864 -0.6420
 4268SOL     OW24262   1.844   3.033   6.650  0.5801 -0.3158  0.3412
 4268SOL    HW124263   1.930   3.056   6.683  0.2307 -0.3754  1.2973
 4268SOL    HW224264   1.795   3.012   6.730 -0.1330 -0.6039 -0.1711
 4269SOL     OW24265   3.667   2.481   8.559 -0.4548 -0.4702 -0.4671
 4269SOL    HW124266   3.625   2.557   8.518 -1.2795  0.3451  1.8584
 4269SOL    HW224267   3.698   2.432   8.483 -1.1870  1.2237 -1.8695
 4270SOL     OW24268   4.507   0.984   3.315  0.2526  0.3989 -0.3303
 4270SOL    HW124269   4.600   1.005   3.322  0.5849 -0.9639 -0.6392
 4270SOL    HW224270   4.484   0.970   3.407 -0.1703 -1.5236 -0.7429
 4271SOL     OW24271   2.904   1.743   5.991 -0.9051 -0.2406 -0.7879
 4271SOL    HW124272   2.879   1.835   5.989 -0.8180 -0.1296  2.6012
 4271SOL    HW224273   2.970   1.721   6.057 -0.4822  0.2092 -1.0619
 4272SOL     OW24274   0.010   3.732   4.555  0.0332 -0.3037 -0.2418
 4272SOL    HW124275   0.077   3.790   4.518  0.3662  0.2578  1.2578
 4272SOL    HW224276   4.716   3.781   4.636  1.4960 -1.4411  0.6836
 4273SOL     OW24277   0.486   0.345   2.620  0.1355 -0.7574  0.2435
 4273SOL    HW124278   0.403   0.358   2.575 -1.6824  1.9039  4.4246
 4273SOL    HW224279   0.540   0.400   2.563  0.2385  0.2261  1.2963
 4274SOL     OW24280   3.604   2.614  17.594  0.0438 -0.4313  0.5447
 4274SOL    HW124281   3.650   2.653  17.668  0.8617 -1.7334  0.7246
 4274SOL    HW224282   3.568   2.689  17.547  1.7285  0.1581  0.2069
 4275SOL     OW24283   0.180   2.564  16.623  0.2702  0.1157 -0.6859
 4275SOL    HW124284   0.086   2.584  16.629  0.4310  1.0651 -1.2021
 4275SOL    HW224285   0.180   2.474  16.591  1.1721  0.0396 -0.4607
 4276SOL     OW24286   3.445   3.471   1.132 -0.5511 -0.5210  0.6584
 4276SOL    HW124287   3.453   3.497   1.040  0.6122 -1.9992  0.3362
 4276SOL    HW224288   3.509   3.402   1.117  0.7738 -0.2983  5.0908
 4277SOL     OW24289   1.664   4.121  13.093 -0.1855 -0.6747 -0.1366
 4277SOL    HW124290   1.733   4.101  13.157  3.1580 -0.2986 -3.6555
 4277SOL    HW224291   1.674   4.216  13.100  0.7333 -0.9329  2.3311
 4278SOL     OW24292   2.182   3.260   9.452  0.2789 -0.4216  0.0040
 4278SOL    HW124293   2.221   3.338   9.491  2.1451 -1.1474 -0.3843
 4278SOL    HW224294   2.263   3.208   9.449 -1.9543 -3.9041 -0.0247
 4279SOL     OW24295   4.014   2.434   2.682  0.3562 -0.8598 -0.1807
 4279SOL    HW124296   4.038   2.351   2.640  0.4971  0.5542 -2.8833
 4279SOL    HW224297   4.045   2.503   2.624  0.8356 -0.8832  0.0472
 4280SOL     OW24298   1.109   1.090  16.972 -0.4188 -0.0756 -0.1903
 4280SOL    HW124299   1.059   1.162  16.932 -0.9742 -0.8181 -0.8229
 4280SOL    HW224300   1.076   1.010  16.931  1.5662 -2.1247  2.2549
 4281SOL     OW24301   1.041   1.555   4.202  0.0537  0.5636 -0.2482
 4281SOL    HW124302   1.059   1.529   4.292 -2.8351  1.5144  0.5995
 4281SOL    HW224303   1.026   1.649   4.207  2.2012  0.9118 -0.2464
 4282SOL     OW24304   2.163   0.940  15.787 -0.0724 -0.0699  0.6903
 4282SOL    HW124305   2.083   0.965  15.741  0.6923 -0.6259 -0.9338
 4282SOL    HW224306   2.183   1.019  15.837 -1.3737 -0.2763  1.5245
 4283SOL     OW24307   4.586   3.692   5.695  0.0041 -0.3891 -0.1839
 4283SOL    HW124308   4.495   3.692   5.727 -0.0014  0.5613 -0.1942
 4283SOL    HW224309   4.633   3.655   5.770 -0.0842 -0.3594 -0.1125
 4284SOL     OW24310   1.868   1.854   8.972  0.3311 -0.2128 -0.0383
 4284SOL    HW124311   1.797   1.826   9.030  1.3321  2.7324  2.5631
 4284SOL    HW224312   1.891   1.765   8.944 -0.7314 -0.7137  0.6532
 4285SOL     OW24313   0.978   0.862   7.861  0.5130 -0.3984  0.1627
 4285SOL    HW124314   0.949   0.791   7.804  0.2304 -0.9595  1.0112
 4285SOL    HW224315   1.056   0.894   7.815  1.8255 -1.8703  1.3709
 4286SOL     OW24316   4.113   4.303   6.423  0.5695  0.2924 -0.0382
 4286SOL    HW124317   4.106   4.296   6.328 -3.3088 -1.5389  0.4120
 4286SOL    HW224318   4.209   4.305   6.423  0.5669  0.4315  1.9985
 4287SOL     OW24319   0.877   4.362  15.220 -0.3142 -0.3303 -0.0120
 4287SOL    HW124320   0.860   4.457  15.222  0.2631 -0.1973 -2.1919
 4287SOL    HW224321   0.945   4.351  15.154 -1.4703 -0.3887 -1.1884
 4288SOL     OW24322   1.568   3.450   0.496  0.1534  0.6325  0.7812
 4288SOL    HW124323   1.618   3.518   0.542  1.2319  0.1564  0.3173
 4288SOL    HW224324   1.629   3.437   0.423 -0.0082 -0.2587  0.8059
 4289SOL     OW24325   2.123   3.955   4.115 -0.1543  0.4249 -0.0612
 4289SOL    HW124326   2.211   3.974   4.083  1.1420 -0.6062  2.8977
 4289SOL    HW224327   2.075   3.980   4.036  1.4203 -2.0929 -1.8294
 4290SOL     OW24328   4.392   3.945   3.171 -0.5898 -0.2951 -0.6586
 4290SOL    HW124329   4.468   4.002   3.162  0.7605 -2.2677 -1.6949
 4290SOL    HW224330   4.403   3.916   3.262  0.5240  0.1869 -0.6478
 4291SOL     OW24331   0.020   4.109  12.735  0.0848  0.9545  0.5179
 4291SOL    HW124332   0.036   4.019  12.762 -1.2983  1.1179  1.8846
 4291SOL    HW224333   4.670   4.109  12.670 -0.3600 -1.5665  0.9819
 4292SOL     OW24334   1.508   3.078   4.344  1.0117  0.5380 -0.3135
 4292SOL    HW124335   1.505   3.173   4.344  1.6041  0.5593 -1.7227
 4292SOL    HW224336   1.487   3.061   4.252 -1.8724 -1.1038  0.6611
 4293SOL     OW24337   0.823   0.550   1.276 -0.3019  0.7187  0.0560
 4293SOL    HW124338   0.897   0.598   1.238  1.7147 -2.2900  0.1979
 4293SOL    HW224339   0.854   0.508   1.356 -1.2746 -3.2435 -1.5983
 4294SOL     OW24340   3.439   2.573   9.454  0.0490  0.0601 -0.6372
 4294SOL    HW124341   3.345   2.574   9.472  0.3216 -1.4190  0.9048
 4294SOL    HW224342   3.457   2.648   9.511  3.0708  0.0720 -1.6445
 4295SOL     OW24343   4.714   2.737   4.291 -0.6055 -0.0292 -0.7190
 4295SOL    HW124344   0.069   2.691   4.331  0.6260  2.4016 -0.1857
 4295SOL    HW224345   0.033   2.825   4.294 -2.5395  0.7949 -0.4567
 4296SOL     OW24346   1.019   2.275   1.962  0.1832  0.4770  0.0614
 4296SOL    HW124347   0.988   2.246   1.876  2.2393  1.5816 -1.0470
 4296SOL    HW224348   0.975   2.360   1.954 -1.7940 -0.5671 -0.2607
 4297SOL     OW24349   3.687   4.501   7.961  0.4264 -0.3098  0.1129
 4297SOL    HW124350   3.755   4.522   8.025  1.0972 -0.1006 -0.6721
 4297SOL    HW224351   3.661   4.581   7.915  1.4346 -0.1169 -0.1198
 4298SOL     OW24352   1.894   4.128  13.237 -0.7707  0.3449 -0.3954
 4298SOL    HW124353   1.935   4.050  13.273  0.2579  0.5343 -1.1697
 4298SOL    HW224354   1.971   4.159  13.190  1.1144 -5.0147 -0.7133
 4299SOL     OW24355   1.738   4.171  11.581  0.3681 -0.9129 -0.1527
 4299SOL    HW124356   1.654   4.127  11.594 -1.1396  1.2731 -2.5339
 4299SOL    HW224357   1.793   4.095  11.595  1.7546  0.2659  0.7495
 4300SOL     OW24358   2.885   4.687   2.659  0.6769  0.2611 -0.6332
 4300SOL    HW124359   2.853   4.630   2.589 -0.2293  0.4506 -0.3801
 4300SOL    HW224360   2.834   0.049   2.658 -0.1139 -0.2148  0.3880
 4301SOL     OW24361   0.370   4.624   3.762  0.2047 -0.6245  0.0087
 4301SOL    HW124362   0.319   4.550   3.793  0.1819 -1.6518 -2.4921
 4301SOL    HW224363   0.374   4.619   3.666  1.4692  0.3921  0.0153
 4302SOL     OW24364   3.413   1.218   9.795 -0.1475  0.2683  0.0960
 4302SOL    HW124365   3.418   1.297   9.849 -1.3264  1.6259 -1.8083
 4302SOL    HW224366   3.495   1.177   9.821 -1.6924 -1.1303  2.7132
 4303SOL     OW24367   0.464   0.659   6.978  0.0342  0.5686 -0.1349
 4303SOL    HW124368   0.475   0.681   6.886 -2.0867 -0.6433 -0.6683
 4303SOL    HW224369   0.531   0.591   6.986 -2.8091 -2.1297  0.5794
 4304SOL     OW24370   4.357   3.378   8.828  0.4344  0.8275 -0.1480
 4304SOL    HW124371   4.368   3.445   8.760  0.4033  1.7890  0.7909
 4304SOL    HW224372   4.398   3.418   8.906  3.0203  0.1450 -1.1569
 4305SOL     OW24373   0.839   3.723  14.386 -0.2464  0.3492 -0.1897
 4305SOL    HW124374   0.756   3.736  14.432 -1.2784  0.8573 -2.1869
 4305SOL    HW224375   0.876   3.641  14.418 -2.6135 -0.4544  0.4478
 4306SOL     OW24376   3.561   0.289   9.331 -0.2137  0.1527 -0.3055
 4306SOL    HW124377   3.466   0.294   9.346 -0.0099 -0.6416  1.2545
 4306SOL    HW224378   3.571   0.359   9.267  0.6384 -1.0799 -1.5049
 4307SOL     OW24379   1.407   1.113   0.810  0.1580  0.0100 -0.4585
 4307SOL    HW124380   1.356   1.086   0.887  1.7728 -0.2604  0.5097
 4307SOL    HW224381   1.493   1.132   0.846  0.5878 -1.0236 -0.9437
 4308SOL     OW24382   3.011   3.666   3.007  0.1637 -0.2980 -0.0297
 4308SOL    HW124383   3.045   3.659   3.096 -3.3730  0.6322  1.4024
 4308SOL    HW224384   2.924   3.706   3.011  1.4326  2.1616  3.0707
 4309SOL     OW24385   3.257   0.814   6.775 -0.6130 -0.0351 -0.7590
 4309SOL    HW124386   3.173   0.858   6.793 -0.2645  1.2585 -2.2531
 4309SOL    HW224387   3.245   0.783   6.685 -0.4091  0.8029 -1.0759
 4310SOL     OW24388   1.059   3.815   4.116 -0.0121 -0.1268 -0.4315
 4310SOL    HW124389   1.074   3.792   4.024  0.1399 -1.5678 -0.0570
 4310SOL    HW224390   0.975   3.859   4.112 -1.0549 -2.2020 -1.7731
 4311SOL     OW24391   1.394   4.562   5.146 -0.4292  0.0647 -0.4622
 4311SOL    HW124392   1.483   4.550   5.114  0.5350 -0.0008  2.1728
 4311SOL    HW224393   1.408   4.557   5.241 -4.4577  1.6932  0.2303
 4312SOL     OW24394   0.248   2.554  10.362  0.2148  0.0881  0.0440
 4312SOL    HW124395   0.290   2.632  10.325  2.5576 -0.8212  0.8690
 4312SOL    HW224396   0.312   2.515  10.421 -0.1335 -0.1582  0.2608
 4313SOL     OW24397   0.443   2.577   3.392 -0.1003 -0.4221  0.2656
 4313SOL    HW124398   0.481   2.507   3.338 -1.6818  1.6969 -3.4944
 4313SOL    HW224399   0.361   2.595   3.348  0.2780  1.2445  0.2595
 4314SOL     OW24400   3.129   0.985   5.185 -0.2560 -0.4554  0.2156
 4314SOL    HW124401   3.169   1.014   5.103 -1.3868 -0.6896 -0.4275
 4314SOL    HW224402   3.091   0.899   5.165 -0.7018 -0.4779  1.1683
 4315SOL     OW24403   4.287   0.621  13.789  0.0869  0.1947 -0.2247
 4315SOL    HW124404   4.319   0.642  13.877  1.9047  1.2669 -1.1424
 4315SOL    HW224405   4.307   0.708  13.753 -1.4531  0.7803  0.3248
 4316SOL     OW24406   0.752   0.949   3.752  0.1608  0.9218  0.6044
 4316SOL    HW124407   0.846   0.936   3.744  0.1429  0.0822  1.7753
 4316SOL    HW224408   0.754   1.045   3.756  0.4951  0.8152  2.7138
 4317SOL     OW24409   0.204   2.331   9.360 -0.0131  0.0144 -0.4764
 4317SOL    HW124410   0.227   2.339   9.268  5.0250 -1.0060  0.6794
 4317SOL    HW224411   0.225   2.239   9.380  2.5089  0.3792 -1.4496
 4318SOL     OW24412   2.889   0.218  12.640  0.2835  0.1681  0.1262
 4318SOL    HW124413   2.841   0.187  12.563 -1.1110  1.4494  0.4812
 4318SOL    HW224414   2.878   0.313  12.634 -1.4174 -0.0397 -0.1926
 4319SOL     OW24415   3.437   1.519  11.754  0.7842  0.0441  0.3742
 4319SOL    HW124416   3.371   1.584  11.731  0.2870 -0.2335  1.0173
 4319SOL    HW224417   3.481   1.571  11.821  1.1728 -0.3627  0.4318
 4320SOL     OW24418   1.296   2.923  16.223 -0.4130 -0.7923 -0.1568
 4320SOL    HW124419   1.255   2.858  16.166  1.1120 -0.4770 -1.6458
 4320SOL    HW224420   1.251   2.910  16.306  2.2592  0.5137  1.5049
 4321SOL     OW24421   4.469   1.569   4.956 -0.0716  0.1399 -0.3990
 4321SOL    HW124422   4.429   1.656   4.968 -2.0872 -0.7316 -0.8787
 4321SOL    HW224423   4.452   1.550   4.864  1.7653 -0.0772 -0.6920
 4322SOL     OW24424   2.512   3.492   5.350 -0.0877  0.1351  0.1480
 4322SOL    HW124425   2.557   3.482   5.267 -3.0520 -0.6917 -1.3768
 4322SOL    HW224426   2.430   3.442   5.352  0.3963 -0.5911  1.9697
 4323SOL     OW24427   1.673   2.549   5.249  0.2218  0.6500  0.3231
 4323SOL    HW124428   1.596   2.533   5.195 -0.3937  1.3567  0.9998
 4323SOL    HW224429   1.659   2.484   5.318  2.3656 -0.3879 -0.1938
 4324SOL     OW24430   4.183   3.650   6.451 -0.4102 -0.3750 -0.2533
 4324SOL    HW124431   4.239   3.720   6.486  0.5869 -2.2850  1.9994
 4324SOL    HW224432   4.210   3.565   6.488  1.7611  0.6708  0.6000
 4325SOL     OW24433   4.507   3.697  11.100 -0.8528  0.5002  0.1148
 4325SOL    HW124434   4.487   3.760  11.032 -2.1904 -0.0245  0.0137
 4325SOL    HW224435   4.428   3.642  11.096 -0.9403  0.6552 -0.2902
 4326SOL     OW24436   2.524   3.752   4.127 -0.1221  0.2145 -0.2300
 4326SOL    HW124437   2.479   3.824   4.083 -0.8240 -0.6028 -0.8396
 4326SOL    HW224438   2.498   3.672   4.081 -0.6074 -0.6217  1.5085
 4327SOL     OW24439   0.426   1.546   1.095  0.4286 -0.4644  0.6351
 4327SOL    HW124440   0.465   1.623   1.135 -0.4279 -1.2710  3.0271
 4327SOL    HW224441   0.505   1.493   1.087 -0.2719 -1.1788 -1.5908
 4328SOL     OW24442   2.764   1.303  12.624  0.0930 -0.9963 -0.2388
 4328SOL    HW124443   2.790   1.348  12.544  1.8323 -1.0735  0.2673
 4328SOL    HW224444   2.828   1.341  12.685 -0.9036 -0.6720  0.5910
 4329SOL     OW24445   3.767   3.715   2.857  0.9598 -0.4875 -0.6801
 4329SOL    HW124446   3.725   3.700   2.942 -2.1270 -0.4919 -2.2096
 4329SOL    HW224447   3.689   3.745   2.811  1.3500 -0.1385 -1.1107
 4330SOL     OW24448   1.094   1.971   5.962  0.3446  0.1336  0.2885
 4330SOL    HW124449   0.999   1.973   5.954  0.3578  3.4465  0.9554
 4330SOL    HW224450   1.121   1.879   5.953  0.3714  0.2995 -1.2409
 4331SOL     OW24451   0.060   0.219   5.729  0.1703  0.1123 -0.3450
 4331SOL    HW124452   0.030   0.298   5.685  1.3269  1.0335  0.4920
 4331SOL    HW224453   4.707   0.156   5.726 -1.3083  1.7250  1.7224
 4332SOL     OW24454   2.539   3.416   3.544  0.3500  0.3727 -0.4821
 4332SOL    HW124455   2.608   3.463   3.497  0.6985  0.1399 -0.2045
 4332SOL    HW224456   2.560   3.436   3.635 -0.0028 -0.9315 -0.1122
 4333SOL     OW24457   0.623   4.328   3.626  0.7262  0.2567 -0.2026
 4333SOL    HW124458   0.633   4.391   3.697  0.6602  0.0104  0.0232
 4333SOL    HW224459   0.713   4.303   3.604  0.3487 -1.0519 -0.2353
 4334SOL     OW24460   1.616   3.564  15.556  0.4132 -0.4592 -0.0698
 4334SOL    HW124461   1.682   3.542  15.622 -0.1459 -0.6939  0.4200
 4334SOL    HW224462   1.618   3.484  15.504 -1.5995 -0.3248 -0.3605
 4335SOL     OW24463   0.326   3.973  12.629 -0.2886 -0.1297 -0.3412
 4335SOL    HW124464   0.341   3.880  12.607 -0.6228 -0.3935  0.5596
 4335SOL    HW224465   0.273   3.968  12.708 -1.3701  0.0427 -1.0642
 4336SOL     OW24466   3.237   3.595   9.903  0.3182  0.1989 -0.2727
 4336SOL    HW124467   3.166   3.621   9.961 -0.4097 -1.6915 -0.3349
 4336SOL    HW224468   3.274   3.526   9.958  1.4104  0.4405 -0.6950
 4337SOL     OW24469   1.414   1.999  15.810  0.0168 -0.0177 -0.2572
 4337SOL    HW124470   1.444   2.070  15.753 -2.2495  0.1917 -1.1908
 4337SOL    HW224471   1.341   2.042  15.855  0.7671  0.0920  0.8404
 4338SOL     OW24472   1.497   0.012   7.316 -0.3932  0.6679 -0.1538
 4338SOL    HW124473   1.474   0.087   7.260 -0.4302  1.0688  0.3974
 4338SOL    HW224474   1.459   0.034   7.401 -0.6080 -0.8943  0.1516
 4339SOL     OW24475   2.420   0.874   2.213  0.1576 -0.3962 -0.1122
 4339SOL    HW124476   2.438   0.846   2.303 -3.3706  1.6330  1.2135
 4339SOL    HW224477   2.465   0.957   2.199  0.0013 -0.6010 -1.7586
 4340SOL     OW24478   1.002   3.520   7.837  0.2372 -0.4104  0.2936
 4340SOL    HW124479   0.949   3.582   7.887  1.3398 -0.8134  1.9502
 4340SOL    HW224480   1.042   3.479   7.913  1.4250 -0.7949 -0.5265
 4341SOL     OW24481   4.292   4.073   9.864 -0.1062  0.0665  0.1663
 4341SOL    HW124482   4.386   4.055   9.859 -0.2046  0.0733 -1.5128
 4341SOL    HW224483   4.259   4.028   9.787  2.1473 -0.0396 -0.7375
 4342SOL     OW24484   0.437   3.157   2.407 -0.0141 -0.0674 -0.4186
 4342SOL    HW124485   0.369   3.207   2.452  0.4320  0.0536  0.1195
 4342SOL    HW224486   0.500   3.230   2.407 -0.5085  0.3423  1.6176
 4343SOL     OW24487   4.177   2.447   0.973  0.0740  0.1729 -0.5029
 4343SOL    HW124488   4.148   2.507   1.043 -0.6044  0.3098 -0.9065
 4343SOL    HW224489   4.262   2.419   1.008 -0.3918 -0.4558  0.1115
 4344SOL     OW24490   1.153   0.636  12.985 -0.2692 -0.3159  0.3059
 4344SOL    HW124491   1.234   0.684  12.999 -2.5277  3.8610 -0.8413
 4344SOL    HW224492   1.104   0.669  13.061 -0.5821 -2.6342  1.1124
 4345SOL     OW24493   3.569   3.641  17.638  0.1368  0.0625 -0.3083
 4345SOL    HW124494   3.598   3.569  17.583 -1.9288 -1.7934  1.0186
 4345SOL    HW224495   3.483   3.661  17.600 -0.1952  0.9676  0.9133
 4346SOL     OW24496   1.094   1.612   4.676  0.0644  0.5751  0.2702
 4346SOL    HW124497   1.177   1.617   4.628 -1.6655 -1.6196 -2.9312
 4346SOL    HW224498   1.129   1.570   4.754 -1.9599 -0.8861  0.3690
 4347SOL     OW24499   2.704   2.874   5.032  0.6066  0.1600 -0.4203
 4347SOL    HW124500   2.621   2.917   5.016 -0.3665 -1.3737  0.4886
 4347SOL    HW224501   2.682   2.781   5.024 -0.0535  0.1190  1.7549
 4348SOL     OW24502   2.371   3.308   4.573  0.5578  0.2032  0.1607
 4348SOL    HW124503   2.412   3.387   4.610 -0.3820  1.2666 -1.0499
 4348SOL    HW224504   2.419   3.309   4.490 -0.1140 -0.4192 -0.2260
 4349SOL     OW24505   1.653   3.861   5.775 -0.4845  0.1666 -0.4165
 4349SOL    HW124506   1.650   3.780   5.825 -1.2374 -1.1449 -2.5990
 4349SOL    HW224507   1.691   3.910   5.848 -0.1994  0.1151 -0.5319
 4350SOL     OW24508   2.986   0.801   7.407  0.3207  0.1740  0.1232
 4350SOL    HW124509   2.983   0.854   7.486 -1.4656 -1.8980  1.4447
 4350SOL    HW224510   2.902   0.819   7.366  0.9793 -0.9173 -1.7198
 4351SOL     OW24511   1.459   3.880  16.092  0.4759 -0.1712 -0.1366
 4351SOL    HW124512   1.542   3.844  16.060  0.2720  0.5232 -1.4164
 4351SOL    HW224513   1.393   3.844  16.034 -0.1615  0.1807  0.3793
 4352SOL     OW24514   1.577   2.022  11.111 -0.0087  0.1199  0.1480
 4352SOL    HW124515   1.536   1.958  11.054  1.0798 -0.9515  0.5543
 4352SOL    HW224516   1.616   1.959  11.173  3.4329 -0.2899 -2.4684
 4353SOL     OW24517   2.607   4.279   8.912 -0.5691  0.3129  0.5697
 4353SOL    HW124518   2.558   4.331   8.848  1.1755  0.9927 -0.2073
 4353SOL    HW224519   2.535   4.284   8.975 -1.2000  1.5906 -0.2693
 4354SOL     OW24520   0.790   1.730   1.132 -0.2304  0.0877 -0.2469
 4354SOL    HW124521   0.704   1.750   1.168 -0.9476 -1.3203 -1.1855
 4354SOL    HW224522   0.773   1.647   1.088  0.7626 -0.9493  1.3278
 4355SOL     OW24523   4.404   2.148   8.682  0.9410  0.7357  0.4203
 4355SOL    HW124524   4.338   2.121   8.746 -0.8411  2.2483 -0.7903
 4355SOL    HW224525   4.366   2.235   8.666  0.1012  0.7138  2.2015
 4356SOL     OW24526   2.155   1.019  14.991 -0.3454  0.3256 -0.4462
 4356SOL    HW124527   2.116   1.083  14.930  0.6431 -1.5709 -3.0817
 4356SOL    HW224528   2.247   1.009  14.967 -0.6174  1.1158 -1.8332
 4357SOL     OW24529   4.715   1.287   7.724 -0.5804 -0.2017  0.8136
 4357SOL    HW124530   0.089   1.294   7.744 -0.6300  4.5373 -0.6730
 4357SOL    HW224531   4.689   1.229   7.795  2.1120 -2.2269  0.1572
 4358SOL     OW24532   1.180   0.022   4.717  0.5478 -0.1892  0.2822
 4358SOL    HW124533   1.101   0.046   4.765  1.2910 -0.3458  1.6122
 4358SOL    HW224534   1.147   0.038   4.629  0.9743 -2.4034 -0.2829
 4359SOL     OW24535   1.990   4.064   2.456 -0.2155 -0.3904 -0.4257
 4359SOL    HW124536   1.913   4.008   2.445 -0.0329 -0.6639 -0.3170
 4359SOL    HW224537   2.039   4.047   2.376  0.2732 -0.4993 -0.1083
 4360SOL     OW24538   2.698   2.610   6.920 -0.1172  0.3233  0.2687
 4360SOL    HW124539   2.707   2.515   6.930  0.7929  0.1464 -2.3668
 4360SOL    HW224540   2.742   2.631   7.003 -0.7658  1.9426  0.2065
 4361SOL     OW24541   2.860   4.066  13.329  0.3093  0.3651 -0.4290
 4361SOL    HW124542   2.956   4.067  13.327  0.2899 -3.1500 -2.8939
 4361SOL    HW224543   2.851   4.054  13.234  0.4943 -2.8892 -0.0579
 4362SOL     OW24544   3.256   2.681   2.734 -0.2149  0.1263  0.0517
 4362SOL    HW124545   3.294   2.753   2.683 -0.8782 -0.6808 -1.5788
 4362SOL    HW224546   3.212   2.644   2.657 -0.6649 -0.6313  0.6789
 4363SOL     OW24547   3.430   3.913   4.955 -0.3227 -0.6438 -0.2823
 4363SOL    HW124548   3.446   3.829   4.911  2.7971  0.0756 -0.4672
 4363SOL    HW224549   3.337   3.933   4.944 -0.1694  0.5770  0.6128
 4364SOL     OW24550   2.067   1.265   5.306 -0.0425  0.6225  0.1596
 4364SOL    HW124551   2.000   1.198   5.294 -0.8465  1.3024  0.8202
 4364SOL    HW224552   2.048   1.314   5.226 -2.0460  1.4484  1.1364
 4365SOL     OW24553   0.977   2.323   6.987 -0.2354 -0.6073  0.0822
 4365SOL    HW124554   0.983   2.370   7.070 -0.5418  0.1829 -0.3415
 4365SOL    HW224555   0.883   2.315   6.973 -0.4792 -1.5387  2.3681
 4366SOL     OW24556   3.938   3.181   9.923  0.0812  0.5239  0.0060
 4366SOL    HW124557   3.930   3.230  10.005  2.3075  0.7491  0.1075
 4366SOL    HW224558   3.973   3.102   9.963  1.2707  0.8469 -0.3774
 4367SOL     OW24559   3.236   1.952   5.634  0.4118  0.2359 -0.1704
 4367SOL    HW124560   3.143   1.967   5.652 -0.0270 -2.8302  0.1360
 4367SOL    HW224561   3.245   1.857   5.638  1.0108  0.2790 -0.3961
 4368SOL     OW24562   1.759   1.178   3.821 -0.1106  1.0552 -0.5028
 4368SOL    HW124563   1.795   1.116   3.885 -0.6679  0.6688 -0.5648
 4368SOL    HW224564   1.692   1.226   3.869 -0.8909 -2.4860  1.9303
 4369SOL     OW24565   3.747   2.694   7.697  0.0588 -0.2597  0.1373
 4369SOL    HW124566   3.826   2.662   7.741 -1.4097  0.2369  3.1425
 4369SOL    HW224567   3.767   2.783   7.667 -0.6880  0.2993  1.3005
 4370SOL     OW24568   1.144   4.316   2.443 -0.0990 -0.0399  0.0404
 4370SOL    HW124569   1.069   4.262   2.420 -0.4552  0.1376  0.7808
 4370SOL    HW224570   1.118   4.405   2.420 -0.7932 -0.4502 -0.7394
 4371SOL     OW24571   1.252   3.505   3.473  0.1935 -0.2369 -0.4402
 4371SOL    HW124572   1.343   3.519   3.448 -0.4111  1.4697 -1.6831
 4371SOL    HW224573   1.219   3.530   3.387 -2.3448 -0.4960  0.4615
 4372SOL     OW24574   1.584   3.878   9.188  0.1214  0.4197 -0.3660
 4372SOL    HW124575   1.515   3.813   9.200  0.4053  0.8723  3.8401
 4372SOL    HW224576   1.633   3.840   9.116 -0.8495  0.7710 -1.2098
 4373SOL     OW24577   3.705   0.906   9.963 -0.0252 -0.1018  1.0396
 4373SOL    HW124578   3.642   0.856   9.912  0.6512  0.4931 -0.3815
 4373SOL    HW224579   3.689   0.866  10.048 -0.9155 -0.5661  0.6457
 4374SOL     OW24580   2.975   0.173  10.872  0.3517  0.1140  0.7565
 4374SOL    HW124581   2.926   0.249  10.903  1.5582  0.9947  0.4953
 4374SOL    HW224582   2.923   0.107  10.918 -1.2376 -0.2838 -1.6284
 4375SOL     OW24583   2.144   2.268   9.219  0.1341 -0.4299  0.5076
 4375SOL    HW124584   2.084   2.229   9.155  0.9413  0.1998 -0.6422
 4375SOL    HW224585   2.125   2.362   9.213 -1.1914 -0.6318  1.8068
 4376SOL     OW24586   1.111   2.473   6.422 -0.1792  0.0584 -0.3503
 4376SOL    HW124587   1.196   2.429   6.428 -0.2835  0.0251  0.9256
 4376SOL    HW224588   1.072   2.463   6.509 -0.5857 -0.0742 -0.5487
 4377SOL     OW24589   1.028   4.281   4.321  0.0384  0.1560  0.3533
 4377SOL    HW124590   1.028   4.252   4.229  2.2822 -0.5006  0.5707
 4377SOL    HW224591   0.967   4.355   4.318  1.0243  0.9867  1.0353
 4378SOL     OW24592   4.236   3.656   5.532 -0.5388  0.6730  0.5209
 4378SOL    HW124593   4.154   3.620   5.564 -0.3582  1.3259  1.7310
 4378SOL    HW224594   4.274   3.665   5.620  1.0941  0.8110 -0.1873
 4379SOL     OW24595   4.503   1.663   1.141  0.3962  0.0563 -0.3782
 4379SOL    HW124596   4.530   1.651   1.050  2.1006 -1.4011  0.3315
 4379SOL    HW224597   4.469   1.753   1.136 -1.7985 -0.7624 -0.3069
 4380SOL     OW24598   2.600   2.108   5.672 -0.4439 -0.2069  0.1867
 4380SOL    HW124599   2.581   2.182   5.730  0.3139  0.5867 -0.5761
 4380SOL    HW224600   2.580   2.034   5.730 -1.2977 -0.0302  0.1124
 4381SOL     OW24601   1.521   1.398  15.408 -0.2584 -0.3345 -0.0912
 4381SOL    HW124602   1.433   1.430  15.390 -0.4363 -1.1381 -0.6418
 4381SOL    HW224603   1.507   1.320  15.462 -0.6893  0.7974  1.4261
 4382SOL     OW24604   3.683   1.040   7.618 -0.3539 -0.0747 -0.0940
 4382SOL    HW124605   3.714   1.027   7.708  1.1178 -0.5675 -0.6736
 4382SOL    HW224606   3.673   1.135   7.618 -1.1832 -0.1611  1.3348
 4383SOL     OW24607   1.188   1.688   6.916  0.3907 -0.0528  0.3849
 4383SOL    HW124608   1.272   1.712   6.955  1.7434 -1.9952 -1.3694
 4383SOL    HW224609   1.147   1.645   6.991  0.2520 -0.9615 -0.2139
 4384SOL     OW24610   2.714   0.699   7.562 -0.2790 -0.6836 -0.0251
 4384SOL    HW124611   2.697   0.739   7.647  3.2644 -0.2386  0.4860
 4384SOL    HW224612   2.652   0.627   7.559 -0.8693 -0.1357 -0.8478
 4385SOL     OW24613   2.557   1.562   7.518  0.3634 -0.0294  0.1792
 4385SOL    HW124614   2.616   1.517   7.578  0.8644  0.2436 -0.1164
 4385SOL    HW224615   2.505   1.612   7.581 -0.5799  0.3259 -0.8848
 4386SOL     OW24616   4.256   3.163   5.089 -0.0256  0.5709 -0.0275
 4386SOL    HW124617   4.269   3.231   5.023  1.5725  1.9819  1.7301
 4386SOL    HW224618   4.205   3.206   5.159  2.4585  0.3693  1.8898
 4387SOL     OW24619   2.458   2.516   4.550 -0.6355  0.0373 -0.0903
 4387SOL    HW124620   2.528   2.516   4.485  0.6288  0.7633  1.2698
 4387SOL    HW224621   2.455   2.432   4.597  2.9737  0.5817  1.1782
 4388SOL     OW24622   3.332   0.992   2.452  0.2387  0.6017 -0.5495
 4388SOL    HW124623   3.318   0.905   2.490  0.4264  1.1659  0.8146
 4388SOL    HW224624   3.258   1.008   2.394 -0.2392  1.4222  0.2854
 4389SOL     OW24625   3.551   1.141   5.449 -0.3754  0.0989 -0.6239
 4389SOL    HW124626   3.581   1.199   5.379 -1.1555  1.5260  0.2077
 4389SOL    HW224627   3.509   1.071   5.399 -0.1512 -1.3469  1.1895
 4390SOL     OW24628   2.288   3.161   6.294 -0.1651 -0.2224 -0.9242
 4390SOL    HW124629   2.208   3.147   6.244  0.6009 -0.0431 -2.2059
 4390SOL    HW224630   2.268   3.103   6.366 -1.7958 -1.2366 -2.1958
 4391SOL     OW24631   1.538   0.372   6.171  0.2301 -0.5308 -0.4775
 4391SOL    HW124632   1.496   0.333   6.095 -0.9008 -0.9752  0.3800
 4391SOL    HW224633   1.570   0.454   6.134  1.0931 -0.8443 -0.4362
 4392SOL     OW24634   0.040   3.131   4.480 -0.2526 -0.1466  0.4756
 4392SOL    HW124635   0.092   3.092   4.550  0.7082 -0.1966 -0.2638
 4392SOL    HW224636   4.681   3.076   4.487 -0.0252 -0.4618  0.5643
 4393SOL     OW24637   1.233   2.792  12.771 -0.5045 -0.1267 -0.3422
 4393SOL    HW124638   1.296   2.863  12.785 -0.6756 -0.1132  0.3701
 4393SOL    HW224639   1.290   2.733  12.722 -0.6500  0.4744 -1.2368
 4394SOL     OW24640   0.509   2.305   4.694 -0.4855 -0.2302 -0.7478
 4394SOL    HW124641   0.551   2.310   4.780 -1.1690  1.1713 -0.4938
 4394SOL    HW224642   0.579   2.316   4.630 -1.2695 -0.3618 -1.6260
 4395SOL     OW24643   4.132   1.756   8.025  0.2417  0.1741  0.0254
 4395SOL    HW124644   4.177   1.833   7.992  0.6282 -0.3147 -0.5922
 4395SOL    HW224645   4.176   1.680   7.986 -0.4077 -0.2948  0.2151
 4396SOL     OW24646   4.309   2.714  14.098  0.2229 -0.5996 -0.1577
 4396SOL    HW124647   4.301   2.650  14.169 -0.5571  1.1821  1.3882
 4396SOL    HW224648   4.339   2.663  14.023  2.1353 -3.7131  2.7504
 4397SOL     OW24649   0.166   3.207   2.495  1.0309 -0.4439 -0.2768
 4397SOL    HW124650   0.153   3.297   2.524 -1.5995 -1.0047  0.2419
 4397SOL    HW224651   0.087   3.193   2.443 -0.4423  0.0165  1.8294
 4398SOL     OW24652   3.507   0.885   2.966 -0.4382 -0.5597 -0.0582
 4398SOL    HW124653   3.491   0.854   2.876  0.6281  0.3523 -0.5555
 4398SOL    HW224654   3.471   0.973   2.951  0.7656 -0.0918 -0.2081
 4399SOL     OW24655   0.864   3.248  12.488  0.4538 -0.3791  0.3332
 4399SOL    HW124656   0.898   3.240  12.399  0.7987 -1.9047  0.6004
 4399SOL    HW224657   0.854   3.159  12.522  0.6944 -0.0746  1.2076
 4400SOL     OW24658   1.028   2.333   6.179  0.5666  0.3244  0.0827
 4400SOL    HW124659   1.061   2.395   6.244  3.6061 -1.2976  0.1101
 4400SOL    HW224660   0.944   2.305   6.215  0.5866 -1.3939 -1.1829
 4401SOL     OW24661   3.803   2.105   5.120  0.3812 -0.1511  0.1315
 4401SOL    HW124662   3.797   2.154   5.038 -1.6545  0.8158  0.8473
 4401SOL    HW224663   3.718   2.129   5.157  0.6462 -2.0021  1.9466
 4402SOL     OW24664   3.259   2.513  11.589 -0.6622  0.4843 -0.0425
 4402SOL    HW124665   3.315   2.503  11.512  0.7308  0.8464  0.9173
 4402SOL    HW224666   3.307   2.459  11.651  0.2027 -0.6918 -1.7166
 4403SOL     OW24667   0.674   0.693   2.362  0.0965  0.6136  0.0135
 4403SOL    HW124668   0.671   0.634   2.438 -1.4565  1.2059  0.4021
 4403SOL    HW224669   0.727   0.636   2.306  2.0039  1.7125  0.6753
 4404SOL     OW24670   0.790   0.976   6.628  0.3614 -0.2659  0.0665
 4404SOL    HW124671   0.703   0.980   6.667 -0.2451 -2.0418 -1.1140
 4404SOL    HW224672   0.830   1.058   6.656 -1.1201  0.6538 -0.5023
 4405SOL     OW24673   4.039   3.159  11.235  0.2705  0.3602  0.3845
 4405SOL    HW124674   3.960   3.159  11.289  0.1933  1.9176  0.2685
 4405SOL    HW224675   4.053   3.253  11.244 -1.3871  0.6495 -0.0410
 4406SOL     OW24676   2.395   0.592   2.260 -0.2396  0.3848  0.2182
 4406SOL    HW124677   2.446   0.636   2.192  0.2193  1.4797  1.2720
 4406SOL    HW224678   2.456   0.619   2.329 -0.1293  1.6647 -0.3890
 4407SOL     OW24679   0.388   1.633  14.062  0.4359  0.3578 -0.1440
 4407SOL    HW124680   0.377   1.540  14.086  1.7537 -0.2282 -1.7940
 4407SOL    HW224681   0.328   1.647  13.988  0.5420 -0.5972 -0.4190
 4408SOL     OW24682   4.244   2.678  10.656  0.2794 -0.4876  0.3039
 4408SOL    HW124683   4.284   2.648  10.738  1.3284  0.7786  0.2507
 4408SOL    HW224684   4.162   2.627  10.654 -0.4014  0.7346 -2.0799
 4409SOL     OW24685   0.759   3.585   4.857  0.5155 -0.3251 -0.3710
 4409SOL    HW124686   0.728   3.658   4.910  0.8127  1.3502 -2.5295
 4409SOL    HW224687   0.787   3.518   4.919 -0.4976  1.4735  2.0037
 4410SOL     OW24688   0.692   3.001   6.532 -0.2586 -0.0267  0.2966
 4410SOL    HW124689   0.612   2.997   6.480  0.6315 -0.2540 -1.0510
 4410SOL    HW224690   0.710   3.095   6.521 -1.4485  0.0560 -0.8612
 4411SOL     OW24691   1.051   3.625  11.956  0.3219  0.0817 -0.3131
 4411SOL    HW124692   1.075   3.534  11.936  1.4701  0.3076  0.0133
 4411SOL    HW224693   1.054   3.664  11.868  2.6820 -1.3429 -0.8746
 4412SOL     OW24694   1.724   4.310   6.603 -0.6038  0.6417 -0.0392
 4412SOL    HW124695   1.782   4.296   6.677 -0.8121  0.2423  0.0460
 4412SOL    HW224696   1.632   4.318   6.629 -0.8746  1.3004 -1.2047
 4413SOL     OW24697   0.205   4.066  13.303  0.1657  0.0304  0.2698
 4413SOL    HW124698   0.183   4.065  13.396  1.1658 -1.4226  0.4998
 4413SOL    HW224699   0.297   4.037  13.295  0.2530  0.3827  0.0062
 4414SOL     OW24700   1.455   1.488   6.875  0.0527  0.6786  0.1534
 4414SOL    HW124701   1.550   1.476   6.878 -0.2363 -1.4311  1.1195
 4414SOL    HW224702   1.441   1.577   6.907 -0.7556  0.1884  1.1820
 4415SOL     OW24703   0.981   3.941   4.704  0.0950  0.1015  0.3479
 4415SOL    HW124704   0.943   3.970   4.621 -2.0159 -2.3411  0.4408
 4415SOL    HW224705   0.981   3.846   4.696  0.2773  0.0499  0.9782
 4416SOL     OW24706   3.270   0.827   1.333 -0.2326 -0.4077 -0.7807
 4416SOL    HW124707   3.214   0.769   1.281 -0.1987 -0.5400 -0.6689
 4416SOL    HW224708   3.356   0.787   1.317  0.4775 -0.2997  2.8709
 4417SOL     OW24709   0.503   1.837  15.919  0.3094 -0.5757 -0.6068
 4417SOL    HW124710   0.429   1.782  15.891 -0.7921  1.0566 -0.8627
 4417SOL    HW224711   0.476   1.862  16.007  1.9396 -0.8825 -0.0269
 4418SOL     OW24712   3.308   1.767  13.194 -0.1448 -0.0059  0.3043
 4418SOL    HW124713   3.404   1.773  13.203 -0.4537  0.6324  3.0318
 4418SOL    HW224714   3.287   1.754  13.286  1.9718 -1.6922  0.5548
 4419SOL     OW24715   4.415   2.617  10.867 -0.3565  0.4829  0.6884
 4419SOL    HW124716   4.454   2.532  10.887 -0.4239 -0.1195 -1.7803
 4419SOL    HW224717   4.471   2.674  10.920  1.1958 -0.1133 -0.3039
 4420SOL     OW24718   2.070   2.045   2.911 -0.3959 -0.1216 -0.3144
 4420SOL    HW124719   2.074   1.970   2.852  4.4441 -0.0730 -0.0628
 4420SOL    HW224720   2.082   2.119   2.852  0.6975 -1.5592 -1.8664
 4421SOL     OW24721   0.553   3.289   8.927 -0.5400 -0.1512 -0.7153
 4421SOL    HW124722   0.575   3.203   8.891 -1.9626 -0.0265 -1.8645
 4421SOL    HW224723   0.640   3.322   8.949 -1.4447 -0.3750  3.0892
 4422SOL     OW24724   3.577   1.826   6.742 -0.3359 -0.2772 -0.6563
 4422SOL    HW124725   3.539   1.738   6.749 -0.3368 -0.0746  1.7546
 4422SOL    HW224726   3.531   1.854   6.663 -2.3840  1.2040  1.0544
 4423SOL     OW24727   3.497   2.507   3.718  0.2844  0.2852  0.3823
 4423SOL    HW124728   3.416   2.457   3.710 -0.9701  2.4262 -0.1920
 4423SOL    HW224729   3.566   2.446   3.690 -1.9602 -1.8955 -0.3453
 4424SOL     OW24730   0.809   4.713   4.144 -0.0145  0.3214  0.2730
 4424SOL    HW124731   0.737   0.035   4.191 -1.5639 -1.7284 -0.2997
 4424SOL    HW224732   0.789   0.024   4.056 -0.4434  0.8431  0.5494
 4425SOL     OW24733   1.180   2.826   3.697 -0.0481 -0.2303  0.2111
 4425SOL    HW124734   1.119   2.806   3.627  0.0691  1.0743 -0.2672
 4425SOL    HW224735   1.201   2.917   3.673 -1.1363 -0.7147 -2.4859
 4426SOL     OW24736   3.641   2.184   8.756 -0.0339  0.0381 -0.2956
 4426SOL    HW124737   3.662   2.095   8.785  2.1052  0.9051  0.7689
 4426SOL    HW224738   3.699   2.231   8.817 -0.3013  0.1165 -0.0995
 4427SOL     OW24739   0.749   0.899   1.823  0.1633  0.0526  0.0622
 4427SOL    HW124740   0.717   0.981   1.784  0.6818  0.3010  0.1704
 4427SOL    HW224741   0.670   0.845   1.829  0.5052 -0.6146 -1.4031
 4428SOL     OW24742   2.097   2.927   8.811 -0.1831 -0.1902  0.3721
 4428SOL    HW124743   2.154   2.995   8.846  1.3258 -1.1109 -0.3130
 4428SOL    HW224744   2.054   2.917   8.896 -0.3224  0.2958  0.3562
 4429SOL     OW24745   1.817   2.166   4.604 -0.4340 -0.1326 -0.3983
 4429SOL    HW124746   1.747   2.231   4.599 -0.3725 -0.0572 -0.2814
 4429SOL    HW224747   1.813   2.135   4.514 -1.3992 -0.8114 -0.1230
 4430SOL     OW24748   2.980   0.735   3.194 -0.5735  0.0693  0.3354
 4430SOL    HW124749   2.986   0.639   3.191  1.6416  0.2210  0.3117
 4430SOL    HW224750   2.976   0.755   3.100 -3.1902 -2.1640 -0.0624
 4431SOL     OW24751   3.573   2.439   2.819 -0.3993  0.4185  0.1304
 4431SOL    HW124752   3.507   2.426   2.752 -0.2968  0.7635 -0.0376
 4431SOL    HW224753   3.627   2.361   2.806  0.8178  1.7133 -2.5604
 4432SOL     OW24754   0.278   4.603  14.753 -0.5205  0.1489 -0.2070
 4432SOL    HW124755   0.354   4.655  14.779 -2.2213  1.8990  1.2959
 4432SOL    HW224756   0.232   4.619  14.836  0.2883  3.0738 -0.2942
 4433SOL     OW24757   4.125   1.764   5.745 -0.0104 -0.0646  0.4197
 4433SOL    HW124758   4.098   1.823   5.675 -2.9216 -0.5675  1.1162
 4433SOL    HW224759   4.070   1.685   5.742 -0.8021  0.4728  0.7918
 4434SOL     OW24760   3.964   3.406  10.997 -0.1993 -0.3278 -0.0737
 4434SOL    HW124761   3.940   3.454  10.917 -2.5562  1.6566  1.8010
 4434SOL    HW224762   3.877   3.380  11.027 -1.7789  4.9757  0.0429
 4435SOL     OW24763   2.121   0.245   2.367  0.2139  0.0127  0.0825
 4435SOL    HW124764   2.212   0.242   2.397  0.1736 -0.4622  0.1611
 4435SOL    HW224765   2.119   0.303   2.290 -0.8614  1.7252  1.4080
 4436SOL     OW24766   2.400   0.391  15.108 -0.2231 -0.3499  0.4319
 4436SOL    HW124767   2.469   0.440  15.063 -1.0568  1.0708  0.6939
 4436SOL    HW224768   2.386   0.445  15.186 -1.6695  0.4722 -0.4062
 4437SOL     OW24769   0.844   2.948  15.341 -0.0715  0.3527 -0.1616
 4437SOL    HW124770   0.783   2.966  15.269  0.2461 -0.8566 -0.7303
 4437SOL    HW224771   0.827   3.021  15.401 -0.0188 -1.6184  2.2428
 4438SOL     OW24772   1.576   2.648   3.533  0.4824  1.1268  0.0066
 4438SOL    HW124773   1.659   2.662   3.486  0.3488  0.4059 -0.4398
 4438SOL    HW224774   1.584   2.711   3.604 -0.3117  1.4987 -0.2369
 4439SOL     OW24775   1.992   2.872   3.548 -0.1818  0.3697  0.3756
 4439SOL    HW124776   1.988   2.950   3.493  1.4485 -0.2343 -0.6099
 4439SOL    HW224777   2.083   2.843   3.542 -0.6523 -1.4275  1.9092
 4440SOL     OW24778   2.825   1.249   6.769  0.5105 -0.6086 -0.0644
 4440SOL    HW124779   2.760   1.252   6.839  0.6870 -1.2209  0.1219
 4440SOL    HW224780   2.770   1.230   6.692 -0.3869  2.5312 -0.2236
 4441SOL     OW24781   1.661   3.078   6.872 -0.9241  0.2705  0.0705
 4441SOL    HW124782   1.610   3.002   6.844 -0.5931 -0.6144  1.8686
 4441SOL    HW224783   1.621   3.139   6.810  0.7440  0.2087 -1.0870
 4442SOL     OW24784   0.185   1.114  14.756 -0.8447 -0.3251 -0.3156
 4442SOL    HW124785   0.130   1.141  14.684 -0.1399  0.7590 -0.4363
 4442SOL    HW224786   0.264   1.099  14.704  0.2027 -1.6979  1.6194
 4443SOL     OW24787   3.218   3.408  17.420  0.5691  0.0642  0.0982
 4443SOL    HW124788   3.227   3.446  17.333  0.6212 -1.9104 -0.7617
 4443SOL    HW224789   3.268   3.326  17.419 -1.2686 -1.0285 -0.9265
 4444SOL     OW24790   0.838   3.214  12.022 -0.0191  0.1990  0.0867
 4444SOL    HW124791   0.776   3.259  12.080  0.3719  1.9748 -0.8674
 4444SOL    HW224792   0.791   3.231  11.941  1.3050  0.8863 -0.5391
 4445SOL     OW24793   0.110   4.157   8.177 -0.2822  0.3068 -0.0076
 4445SOL    HW124794   0.163   4.236   8.165  0.7106 -0.2487  0.7738
 4445SOL    HW224795   0.180   4.092   8.181  0.0629  0.5903 -1.2968
 4446SOL     OW24796   2.280   1.105   2.625  0.3960 -0.3259 -0.2863
 4446SOL    HW124797   2.297   1.110   2.719  4.2139 -2.6464 -0.8536
 4446SOL    HW224798   2.323   1.028   2.588 -2.0952 -1.4656 -0.8054
 4447SOL     OW24799   0.266   0.729  11.382  0.3313 -0.3541 -0.0462
 4447SOL    HW124800   0.228   0.709  11.468  0.9531  0.8330  0.4963
 4447SOL    HW224801   0.358   0.703  11.390  0.2928  0.0833  1.8546
 4448SOL     OW24802   1.123   1.689   1.695 -0.4142  0.0020 -0.1247
 4448SOL    HW124803   1.084   1.654   1.776  0.2786  0.3815  0.3740
 4448SOL    HW224804   1.046   1.682   1.638 -0.3752 -1.0919 -0.0537
 4449SOL     OW24805   3.040   4.656   7.246  0.0119 -0.1058 -0.0297
 4449SOL    HW124806   3.105   0.002   7.220 -0.2645  0.4043  0.5804
 4449SOL    HW224807   3.027   4.621   7.158  1.5349 -2.0951  0.5300
 4450SOL     OW24808   1.217   0.243   2.234  0.1549 -0.2789  0.0808
 4450SOL    HW124809   1.156   0.314   2.256  1.3455  0.0186  2.4048
 4450SOL    HW224810   1.221   0.199   2.319 -0.9767 -2.0582 -0.8028
 4451SOL     OW24811   3.871   0.954  14.504  0.5426  0.2192  0.3126
 4451SOL    HW124812   3.883   0.866  14.539 -0.4799 -0.0580 -0.0280
 4451SOL    HW224813   3.793   0.990  14.547  1.5528  1.2164  1.3164
 4452SOL     OW24814   2.740   0.399   3.343 -0.1975 -0.1491  0.0449
 4452SOL    HW124815   2.683   0.476   3.349 -1.0043 -0.5837 -2.2424
 4452SOL    HW224816   2.676   0.329   3.333 -0.1324 -0.5642  2.6076
 4453SOL     OW24817   1.067   2.122   1.646 -0.4849  0.3428  0.6137
 4453SOL    HW124818   1.007   2.067   1.595 -1.3682  3.2783 -1.4884
 4453SOL    HW224819   1.010   2.191   1.678 -0.0359  0.7913  0.4433
 4454SOL     OW24820   1.543   1.726   6.009 -0.5648 -0.6936  0.3593
 4454SOL    HW124821   1.459   1.710   6.052 -0.7206  1.8018  0.9681
 4454SOL    HW224822   1.581   1.786   6.073  0.5465 -1.5861  0.5498
 4455SOL     OW24823   1.324   2.721   2.420  0.6143 -0.4007 -0.6828
 4455SOL    HW124824   1.262   2.747   2.488  1.3321  1.2857 -0.6554
 4455SOL    HW224825   1.272   2.749   2.345  0.1959 -1.8737 -0.9344
 4456SOL     OW24826   2.333   0.778  13.797 -0.4354 -0.4724 -0.3293
 4456SOL    HW124827   2.340   0.851  13.735  1.2107  0.9576  1.5216
 4456SOL    HW224828   2.379   0.709  13.751  2.2570  0.2992  1.2272
 4457SOL     OW24829   1.563   4.343  17.624  0.3458  0.2931  0.5659
 4457SOL    HW124830   1.559   4.413   0.010  1.3530 -1.9438  3.1088
 4457SOL    HW224831   1.473   4.312  17.613  0.3559  1.0060 -1.3484
 4458SOL     OW24832   1.214   1.767   5.811  0.0500 -0.1588  0.0248
 4458SOL    HW124833   1.264   1.832   5.762 -0.4299 -0.0752 -0.3525
 4458SOL    HW224834   1.246   1.689   5.764  1.1371  0.3616 -0.1118
 4459SOL     OW24835   1.990   2.629   0.616  0.2220 -0.1387 -0.3725
 4459SOL    HW124836   2.084   2.612   0.605 -0.2609 -2.5951 -0.8403
 4459SOL    HW224837   1.956   2.562   0.556  3.1132 -0.5506 -1.5739
 4460SOL     OW24838   2.367   2.600   4.832  0.0322 -0.0785 -0.7844
 4460SOL    HW124839   2.372   2.505   4.830  1.1087 -0.0415  0.5887
 4460SOL    HW224840   2.410   2.633   4.752 -1.6777  1.0042 -1.2664
 4461SOL     OW24841   1.265   3.663   6.689  0.0290  0.3002  0.6951
 4461SOL    HW124842   1.183   3.616   6.674  1.0838 -1.3904  0.3314
 4461SOL    HW224843   1.229   3.725   6.754 -0.4177  1.5637 -0.7551
 4462SOL     OW24844   1.157   3.148  15.823  0.2311  0.0728  0.0951
 4462SOL    HW124845   1.185   3.091  15.894  0.3416  0.3752  0.2920
 4462SOL    HW224846   1.201   3.115  15.744  1.5013 -2.7950  2.0305
 4463SOL     OW24847   0.655   4.668   8.750  0.7338 -1.0620  0.4227
 4463SOL    HW124848   0.695   4.618   8.678  1.6066 -0.8354  0.7479
 4463SOL    HW224849   0.565   4.677   8.719  0.5059 -1.4230  0.9923
 4464SOL     OW24850   2.678   1.189   6.539  0.6528  0.3279 -0.3322
 4464SOL    HW124851   2.666   1.128   6.467 -0.1931  0.5601 -0.3833
 4464SOL    HW224852   2.607   1.253   6.533 -0.3862 -0.5154  3.0638
 4465SOL     OW24853   2.125   3.089  15.066 -0.0979 -0.1655 -0.8445
 4465SOL    HW124854   2.198   3.051  15.017  0.9856 -1.1685  1.5745
 4465SOL    HW224855   2.087   3.005  15.092  0.8032  0.4183  2.3659
 4466SOL     OW24856   0.836   4.351   6.547  0.2135 -0.2655 -0.1067
 4466SOL    HW124857   0.768   4.410   6.579  0.4359 -1.0627  1.8019
 4466SOL    HW224858   0.776   4.283   6.515  0.0954 -1.0501  1.7986
 4467SOL     OW24859   4.665   1.828  17.348  0.4662  0.2198 -0.3503
 4467SOL    HW124860   4.608   1.756  17.323  1.0162 -0.2862 -0.1403
 4467SOL    HW224861   4.689   1.797  17.436  1.3883  0.0747 -0.6603
 4468SOL     OW24862   3.558   0.565  17.133  0.3865  0.3912  0.6697
 4468SOL    HW124863   3.488   0.531  17.077  0.3932  1.1370  0.2157
 4468SOL    HW224864   3.592   0.482  17.167 -0.4940 -0.9713 -1.7645
 4469SOL     OW24865   2.830   2.101   6.638  0.0250  0.2118 -0.2447
 4469SOL    HW124866   2.774   2.032   6.602  0.7530 -2.1945  3.2792
 4469SOL    HW224867   2.859   2.070   6.723  0.7564 -0.8173 -0.8684
 4470SOL     OW24868   0.146   1.720  13.942  0.1192 -0.8940  0.1737
 4470SOL    HW124869   0.201   1.790  13.906  0.7200  0.1500  3.0839
 4470SOL    HW224870   0.099   1.704  13.860  1.8345  1.8414 -1.3196
 4471SOL     OW24871   1.279   0.889   4.210 -0.2068 -0.7193 -0.4958
 4471SOL    HW124872   1.240   0.910   4.125  1.3113 -0.4391 -1.1218
 4471SOL    HW224873   1.302   0.972   4.252 -0.3857 -0.2934 -1.2519
 4472SOL     OW24874   3.448   1.151   3.183 -0.1850  0.1282 -0.4639
 4472SOL    HW124875   3.412   1.192   3.104  0.0055 -1.7654 -1.5378
 4472SOL    HW224876   3.365   1.124   3.221  0.4709  0.0364  0.8986
 4473SOL     OW24877   1.794   2.712   0.302 -0.1713  0.1812 -0.5333
 4473SOL    HW124878   1.711   2.689   0.343  1.5018 -1.9324  1.6515
 4473SOL    HW224879   1.778   2.669   0.218  0.2923 -1.9449  0.4888
 4474SOL     OW24880   1.459   1.858  16.986  0.4221 -0.2457 -0.1703
 4474SOL    HW124881   1.548   1.825  16.973  1.0485  1.1721  0.5843
 4474SOL    HW224882   1.433   1.821  17.071  1.6962  1.8255  1.1198
 4475SOL     OW24883   0.913   1.765   2.234  0.0558 -0.3350 -0.2215
 4475SOL    HW124884   0.820   1.743   2.230 -0.1615  0.6014 -0.2824
 4475SOL    HW224885   0.914   1.860   2.230  1.1540 -0.3175  0.6016
 4476SOL     OW24886   3.686   1.753  14.123 -0.0469 -0.4913 -0.0296
 4476SOL    HW124887   3.726   1.688  14.065 -3.1955 -0.0753 -2.6647
 4476SOL    HW224888   3.658   1.703  14.200  0.2625  2.0498  1.7338
 4477SOL     OW24889   1.596   4.538   4.314  0.5397 -0.1055 -0.3342
 4477SOL    HW124890   1.675   4.591   4.325  2.2898 -2.3250 -1.9914
 4477SOL    HW224891   1.617   4.484   4.238  2.1966  1.4743 -0.9958
 4478SOL     OW24892   1.496   3.357   3.193 -0.1611 -0.0744 -0.2897
 4478SOL    HW124893   1.564   3.320   3.137  0.1536  0.1801 -0.0758
 4478SOL    HW224894   1.495   3.294   3.265 -0.4963  0.2472 -0.0100
 4479SOL     OW24895   0.268   3.568   5.788 -0.2829  0.4584 -0.3062
 4479SOL    HW124896   0.263   3.524   5.703  0.4167  1.5426 -0.9131
 4479SOL    HW224897   0.306   3.655   5.770 -0.5888  0.3082 -1.6998
 4480SOL     OW24898   2.346   4.627   7.609 -0.1570 -0.7991  0.6936
 4480SOL    HW124899   2.251   4.632   7.597 -0.4536 -1.5066  2.8197
 4480SOL    HW224900   2.383   4.642   7.522 -0.4327  1.5943  0.9701
 4481SOL     OW24901   3.138   3.249   7.312 -0.0532 -0.5222  0.4162
 4481SOL    HW124902   3.177   3.187   7.250  0.0817 -0.1457  0.1308
 4481SOL    HW224903   3.048   3.220   7.300 -1.0015  2.1116  1.3096
 4482SOL     OW24904   4.079   1.959   4.027  0.6892 -0.4409 -0.5113
 4482SOL    HW124905   3.990   1.945   4.060  1.3527  0.5938  1.6587
 4482SOL    HW224906   4.130   1.918   4.096 -1.5636 -0.3550  1.2222
 4483SOL     OW24907   3.756   0.638   8.002  0.0359  0.2922  0.7710
 4483SOL    HW124908   3.802   0.579   8.061 -1.1200 -0.8134  0.5681
 4483SOL    HW224909   3.729   0.715   8.053 -2.2236  0.0055  0.0447
 4484SOL     OW24910   2.272   2.424  17.193 -0.3513  0.5955 -0.3022
 4484SOL    HW124911   2.245   2.429  17.102 -2.3900 -1.2979  0.2167
 4484SOL    HW224912   2.318   2.509  17.194  0.3652  0.2079  0.0632
 4485SOL     OW24913   1.947   0.209   2.554 -0.0878  0.0581 -0.3655
 4485SOL    HW124914   1.993   0.233   2.473 -2.4890  2.2033 -1.1047
 4485SOL    HW224915   1.895   0.287   2.575 -2.3308 -1.8667  1.2471
 4486SOL     OW24916   0.676   4.446   7.474  0.4383  0.4272  0.2148
 4486SOL    HW124917   0.616   4.390   7.523 -1.0986  0.9709 -1.0421
 4486SOL    HW224918   0.651   4.533   7.502 -0.0431  0.8030 -1.3447
 4487SOL     OW24919   2.883   4.183   3.677 -0.3375 -0.7394  0.4637
 4487SOL    HW124920   2.860   4.237   3.752  1.0904  0.5066 -0.0090
 4487SOL    HW224921   2.970   4.208   3.648 -0.2346  0.4857  1.8741
 4488SOL     OW24922   4.578   1.592  11.452 -0.0214 -0.1881 -0.1318
 4488SOL    HW124923   4.593   1.630  11.538  1.8326  0.4076 -0.7052
 4488SOL    HW224924   4.503   1.533  11.463 -0.1406 -0.2594 -1.3308
 4489SOL     OW24925   1.066   0.376   9.238  0.8997  0.3566 -0.2316
 4489SOL    HW124926   1.142   0.325   9.265  2.0507  1.3668 -1.5090
 4489SOL    HW224927   1.017   0.379   9.320 -0.5338 -0.6633 -1.0412
 4490SOL     OW24928   3.700   1.769   8.040 -0.5993  0.5602 -0.0650
 4490SOL    HW124929   3.681   1.690   8.091  2.6123  1.3092  2.2916
 4490SOL    HW224930   3.698   1.728   7.954  0.2633  0.7159 -0.1651
 4491SOL     OW24931   1.800   2.739   7.128  0.0636 -0.3744  0.2116
 4491SOL    HW124932   1.741   2.668   7.154 -0.5231 -0.2001 -0.6404
 4491SOL    HW224933   1.737   2.811   7.116  0.6927 -0.2322 -2.1875
 4492SOL     OW24934   1.175   3.063   2.185 -0.2611  0.4007 -0.3024
 4492SOL    HW124935   1.267   3.044   2.205  0.0757  1.3430 -0.9481
 4492SOL    HW224936   1.185   3.143   2.133  0.6474 -0.6063 -1.6794
 4493SOL     OW24937   1.688   1.662   4.557 -0.0147 -0.3804  0.1516
 4493SOL    HW124938   1.689   1.584   4.502  0.3909 -0.0070 -0.3721
 4493SOL    HW224939   1.706   1.734   4.497 -0.3669  0.2172  0.7655
 4494SOL     OW24940   2.370   3.045   4.452  0.6235 -0.7545 -0.2615
 4494SOL    HW124941   2.462   3.070   4.453  0.4505 -0.0964 -0.5006
 4494SOL    HW224942   2.345   3.061   4.543  0.1175 -2.8158 -0.0495
 4495SOL     OW24943   2.073   3.679   3.604 -0.1402  0.3348 -0.1582
 4495SOL    HW124944   2.104   3.600   3.559 -0.4965  0.2795 -0.3031
 4495SOL    HW224945   1.978   3.676   3.610 -0.1080  1.1552  0.7769
 4496SOL     OW24946   2.234   4.060   9.127  0.2212  0.4540  0.6316
 4496SOL    HW124947   2.276   4.135   9.168  1.3618 -0.8816  1.9458
 4496SOL    HW224948   2.169   4.036   9.193  0.1070 -2.3759 -0.5069
 4497SOL     OW24949   2.217   3.564   5.106  0.0664 -0.1007  0.2503
 4497SOL    HW124950   2.166   3.487   5.133 -0.0515  0.9908  3.0584
 4497SOL    HW224951   2.186   3.633   5.163  1.0811  0.9174 -0.4360
 4498SOL     OW24952   0.763   2.923   8.232 -0.6029  0.0495  0.5483
 4498SOL    HW124953   0.806   2.848   8.192 -0.4444 -0.3410  1.4466
 4498SOL    HW224954   0.676   2.885   8.246 -0.8622  0.1861 -0.6387
 4499SOL     OW24955   3.862   0.145   3.072  0.3628 -0.3534 -0.8900
 4499SOL    HW124956   3.798   0.184   3.132  0.3430 -0.3495 -0.9139
 4499SOL    HW224957   3.801   0.097   3.016  1.0146 -1.5254 -0.6008
 4500SOL     OW24958   2.863   1.473   5.243  0.5049  0.1321  0.5893
 4500SOL    HW124959   2.887   1.384   5.269 -3.1228 -0.7182  0.9766
 4500SOL    HW224960   2.820   1.518   5.316  0.2211  3.1146 -1.4118
 4501SOL     OW24961   4.455   2.794   4.855 -0.4395 -0.3895 -0.4243
 4501SOL    HW124962   4.428   2.734   4.786  1.9801 -0.8453 -0.9580
 4501SOL    HW224963   4.381   2.852   4.872  0.8397  1.9540 -2.9410
 4502SOL     OW24964   1.824   4.543   3.707  0.0894  0.2537 -0.6920
 4502SOL    HW124965   1.887   4.543   3.778 -1.7554 -0.7338  0.9550
 4502SOL    HW224966   1.848   4.470   3.650 -1.9439 -0.1978 -0.9836
 4503SOL     OW24967   3.584   0.599   1.098 -0.6774 -0.0316 -0.3635
 4503SOL    HW124968   3.506   0.580   1.046 -0.9739  1.3552 -0.4146
 4503SOL    HW224969   3.644   0.622   1.027  1.3174  1.7527  1.9106
 4504SOL     OW24970   2.071   0.584   8.857 -0.5919 -0.0452 -0.2304
 4504SOL    HW124971   2.082   0.498   8.898 -1.8330 -0.0942 -0.0161
 4504SOL    HW224972   2.160   0.595   8.822  0.2193 -0.6674  1.6210
 4505SOL     OW24973   1.545   0.025   2.954  0.5119  0.2270 -0.2363
 4505SOL    HW124974   1.609   0.052   2.889  1.8274 -0.9966  0.5397
 4505SOL    HW224975   1.597   0.034   3.034 -1.6484 -0.7223  1.2804
 4506SOL     OW24976   0.516   0.573   4.265  0.1223 -0.0020  0.1734
 4506SOL    HW124977   0.428   0.604   4.284 -0.9388 -2.7652 -0.3279
 4506SOL    HW224978   0.505   0.591   4.171  1.6064 -1.5380 -0.2822
 4507SOL     OW24979   2.490   2.824   4.032 -0.2536  0.1062  0.0063
 4507SOL    HW124980   2.508   2.786   3.946  3.2995  1.2662  0.2476
 4507SOL    HW224981   2.396   2.804   4.027  0.2122 -1.4096 -2.9941
 4508SOL     OW24982   4.343   4.194   6.316  0.0990 -0.1243  0.1911
 4508SOL    HW124983   4.391   4.137   6.256  1.7014 -0.2940  1.6420
 4508SOL    HW224984   4.410   4.240   6.367 -0.2681  0.0789  0.4935
 4509SOL     OW24985   2.493   3.138   0.748  0.2934 -0.0175  0.1200
 4509SOL    HW124986   2.433   3.200   0.706  0.0958  0.8382  1.6527
 4509SOL    HW224987   2.432   3.088   0.803  0.4964 -0.2809  0.1028
 4510SOL     OW24988   1.198   0.192   4.082 -0.0558  0.8920 -0.0806
 4510SOL    HW124989   1.215   0.127   4.151 -2.1254 -0.3262 -0.6948
 4510SOL    HW224990   1.127   0.242   4.121  0.0396 -0.4019  1.7732
 4511SOL     OW24991   2.881   1.430   2.840  0.2714  0.0151 -0.4123
 4511SOL    HW124992   2.786   1.417   2.838  0.4893 -1.7495  0.7364
 4511SOL    HW224993   2.910   1.402   2.926 -0.6918  1.1553  0.2772
 4512SOL     OW24994   3.848   0.606   5.427  0.0919 -0.1021  0.2398
 4512SOL    HW124995   3.771   0.661   5.411  0.9847  0.8410 -0.7174
 4512SOL    HW224996   3.883   0.581   5.342 -1.3431 -1.7583  0.1255
 4513SOL     OW24997   3.961   1.867   9.853 -0.8761 -0.1723  0.3511
 4513SOL    HW124998   3.882   1.823   9.882 -0.5538 -0.2653  1.0886
 4513SOL    HW224999   3.947   1.961   9.865  1.7354  0.2900 -0.1185
 4514SOL     OW25000   1.208   1.605   2.884  0.3381 -0.0434 -0.5124
 4514SOL    HW125001   1.274   1.597   2.953  0.8382 -2.9535 -1.3261
 4514SOL    HW225002   1.254   1.659   2.819 -0.2776  1.3774  0.2427
 4515SOL     OW25003   0.429   3.275   3.507 -0.4273  0.0451 -0.1579
 4515SOL    HW125004   0.487   3.335   3.460  1.0447 -1.3288 -0.0930
 4515SOL    HW225005   0.404   3.209   3.443  0.6935 -0.5840  0.0536
 4516SOL     OW25006   4.661   0.820   4.343 -0.2783 -0.3843 -0.0387
 4516SOL    HW125007   4.673   0.830   4.248 -0.4712 -0.9893 -0.1309
 4516SOL    HW225008   4.592   0.753   4.334  1.1924 -2.0178  0.9267
 4517SOL     OW25009   2.578   2.582   5.463  0.2639 -0.0629 -0.7970
 4517SOL    HW125010   2.565   2.566   5.556 -2.3851 -1.7597 -1.4707
 4517SOL    HW225011   2.508   2.531   5.423  0.3587 -1.2367  0.5398
 4518SOL     OW25012   1.318   1.154  11.693  0.0921 -0.2772  0.1732
 4518SOL    HW125013   1.388   1.175  11.754  1.1099 -2.2657 -0.2966
 4518SOL    HW225014   1.303   1.240  11.656 -0.1491 -1.2091 -1.8700
 4519SOL     OW25015   4.380   1.324   2.257  0.0615 -0.6180 -0.0976
 4519SOL    HW125016   4.299   1.327   2.308  0.4568 -0.7747  0.5376
 4519SOL    HW225017   4.428   1.404   2.276  0.4824 -0.3537 -2.2054
 4520SOL     OW25018   3.101   4.515   5.028 -0.2551  0.0408 -0.1711
 4520SOL    HW125019   3.124   4.502   4.936  0.4759  0.9095 -0.1101
 4520SOL    HW225020   3.104   4.611   5.035 -1.3665  0.0172  0.6200
 4521SOL     OW25021   2.948   0.223   2.391 -0.0487 -0.3913  0.7184
 4521SOL    HW125022   2.963   0.208   2.298 -1.6382  0.2719  0.3605
 4521SOL    HW225023   3.016   0.164   2.423  0.9214 -0.5460 -1.5888
 4522SOL     OW25024   3.649   2.576   9.278  0.4162  0.2672  0.0297
 4522SOL    HW125025   3.566   2.574   9.327  0.1913  0.2736 -0.3460
 4522SOL    HW225026   3.618   2.624   9.201  0.2913 -0.9179 -0.6707
 4523SOL     OW25027   4.564   1.842   5.301  0.1594  0.1830  0.0102
 4523SOL    HW125028   4.598   1.838   5.390  1.4673  0.8109 -0.4723
 4523SOL    HW225029   4.644   1.875   5.260 -0.4945 -1.5934 -2.7312
 4524SOL     OW25030   0.644   4.028   7.231 -0.0178 -0.2059  0.0839
 4524SOL    HW125031   0.685   4.105   7.192  0.4274 -0.9693 -0.9401
 4524SOL    HW225032   0.719   3.971   7.218 -0.0831 -0.5791  1.3276
 4525SOL     OW25033   2.912   1.709  13.628  0.5189 -0.0323 -0.5277
 4525SOL    HW125034   2.963   1.732  13.550  0.0649  1.0402 -0.5062
 4525SOL    HW225035   2.825   1.681  13.601 -0.4727  1.4779  1.0763
 4526SOL     OW25036   2.452   0.873   7.856 -0.5649 -0.4386 -0.1470
 4526SOL    HW125037   2.449   0.958   7.813  0.7519  0.0076  0.6364
 4526SOL    HW225038   2.398   0.894   7.932 -0.3662  0.8719 -0.3698
 4527SOL     OW25039   0.168   3.855   7.387 -0.3207 -0.1754 -0.1013
 4527SOL    HW125040   0.168   3.802   7.466 -0.5719  1.1469  0.7911
 4527SOL    HW225041   0.214   3.801   7.323 -0.7679 -1.4691  0.6748
 4528SOL     OW25042   3.224   2.919   9.358 -0.6789 -0.3720 -0.2796
 4528SOL    HW125043   3.153   2.957   9.409  0.0482  0.7853 -0.1367
 4528SOL    HW225044   3.205   2.826   9.367 -2.6872  0.0376 -0.2989
 4529SOL     OW25045   0.408   4.583  11.016 -0.3324 -0.0066 -0.2333
 4529SOL    HW125046   0.451   4.615  10.937  1.6144 -2.4809 -0.1819
 4529SOL    HW225047   0.459   4.505  11.040  0.4078  0.0653 -1.6091
 4530SOL     OW25048   3.374   1.279   8.325 -0.3733  0.0403  0.2629
 4530SOL    HW125049   3.395   1.338   8.398  0.8014 -0.2034  0.1235
 4530SOL    HW225050   3.350   1.325   8.245  0.6183  0.7708  0.3861
 4531SOL     OW25051   0.366   1.471  13.426  0.4897 -0.1582  0.3321
 4531SOL    HW125052   0.452   1.434  13.445  1.1404  1.8412  1.2948
 4531SOL    HW225053   0.334   1.426  13.347 -0.5326  0.3472  0.4615
 4532SOL     OW25054   1.732   3.287  10.677  0.1174  0.2439  0.3892
 4532SOL    HW125055   1.654   3.332  10.644  1.4740  1.2734 -1.3823
 4532SOL    HW225056   1.691   3.230  10.742 -0.5224 -1.2529 -1.3278
 4533SOL     OW25057   1.290   0.723   2.795 -0.4917  0.7112  0.0886
 4533SOL    HW125058   1.382   0.731   2.821 -0.7006  1.3209  0.6326
 4533SOL    HW225059   1.292   0.645   2.739  1.7926  1.2731 -0.6137
 4534SOL     OW25060   0.549   0.064   3.934  0.1312  0.1372  0.0423
 4534SOL    HW125061   0.474   0.030   3.885 -0.7970  0.2009  1.4081
 4534SOL    HW225062   0.509   0.133   3.986 -0.7717  0.9733 -1.7620
 4535SOL     OW25063   3.461   4.706   9.665  0.3584 -1.0539  0.6603
 4535SOL    HW125064   3.411   4.659   9.732 -0.3734 -0.9377  0.1987
 4535SOL    HW225065   3.411   4.691   9.585  2.7873 -0.6941 -0.9319
 4536SOL     OW25066   4.502   1.514  13.968 -0.1616  0.3168 -0.2946
 4536SOL    HW125067   4.516   1.599  13.926 -1.4909  0.9279  0.5011
 4536SOL    HW225068   4.510   1.542  14.059  0.3391  4.0522 -1.4735
 4537SOL     OW25069   2.739   4.546   7.706 -0.3430 -0.3025  0.3018
 4537SOL    HW125070   2.692   4.615   7.661  0.2112 -0.9005 -1.1738
 4537SOL    HW225071   2.737   4.582   7.795 -0.0141  0.5232 -0.0288
 4538SOL     OW25072   4.555   1.247   1.398 -0.0037  0.0594 -0.2660
 4538SOL    HW125073   4.530   1.173   1.342  1.4421 -0.6397  0.0155
 4538SOL    HW225074   4.593   1.206   1.476 -0.3135 -0.0890 -0.1918
 4539SOL     OW25075   3.691   1.249   1.687  0.5896  0.1368 -0.0477
 4539SOL    HW125076   3.654   1.293   1.610 -2.5163  1.2465  2.0890
 4539SOL    HW225077   3.781   1.272   1.665 -0.2194 -1.0840 -4.7275
 4540SOL     OW25078   0.899   2.721   8.107  0.7987  0.4458 -0.5756
 4540SOL    HW125079   0.926   2.681   8.024 -0.4726  0.9321 -1.2304
 4540SOL    HW225080   0.984   2.720   8.151  0.7490  0.0628 -0.4952
 4541SOL     OW25081   3.413   4.653   7.101 -0.5467  0.3352 -0.0675
 4541SOL    HW125082   3.418   4.644   7.006 -2.5999 -1.0470 -0.0458
 4541SOL    HW225083   3.405   4.564   7.135  0.1356 -0.4346 -1.9192
 4542SOL     OW25084   1.036   1.052   5.501  0.0684  0.0333 -0.2708
 4542SOL    HW125085   1.067   1.026   5.414  0.6870  0.3875 -0.1586
 4542SOL    HW225086   0.987   0.975   5.531  0.1294 -0.8286 -2.4027
 4543SOL     OW25087   0.622   1.697  11.885  0.3794 -0.2043  0.0877
 4543SOL    HW125088   0.645   1.605  11.900 -0.3883 -0.3697  0.2521
 4543SOL    HW225089   0.561   1.717  11.956  0.5737 -1.1605  0.5296
 4544SOL     OW25090   3.894   3.933   3.686 -0.3613  0.1744 -0.3773
 4544SOL    HW125091   3.939   3.896   3.610 -0.9082 -1.0979 -0.0874
 4544SOL    HW225092   3.850   4.006   3.643  0.5970  0.5829 -0.6572
 4545SOL     OW25093   2.524   4.094   3.334  0.0000 -0.1633 -0.0357
 4545SOL    HW125094   2.453   4.127   3.389  0.7491  2.9292 -0.9056
 4545SOL    HW225095   2.599   4.130   3.381 -0.8701  1.9952 -0.2836
 4546SOL     OW25096   3.012   0.445   5.780  0.5522 -0.1969  0.0865
 4546SOL    HW125097   2.990   0.371   5.836 -2.0569  1.3414  1.1106
 4546SOL    HW225098   3.000   0.403   5.695  0.2929  0.0523  0.0011
 4547SOL     OW25099   3.852   0.341  17.520  0.0643 -0.4333  0.1872
 4547SOL    HW125100   3.916   0.394  17.473 -2.0935  0.0982 -2.1791
 4547SOL    HW225101   3.877   0.250  17.503  3.1186  0.2959  0.8600
 4548SOL     OW25102   2.669   4.622   4.278  0.5669 -0.0916 -0.0258
 4548SOL    HW125103   2.645   4.597   4.367  1.3560 -1.7447 -0.2792
 4548SOL    HW225104   2.599   4.686   4.270 -0.2249 -0.9778 -0.2475
 4549SOL     OW25105   0.594   0.276   1.831  0.1425  0.2506 -0.3637
 4549SOL    HW125106   0.680   0.236   1.844 -0.0575  0.1438  0.6888
 4549SOL    HW225107   0.580   0.312   1.919  0.3494 -0.6065  0.0217
 4550SOL     OW25108   0.554   2.208   6.069  0.4425 -0.7777  0.0075
 4550SOL    HW125109   0.551   2.112   6.064 -0.0130 -0.7435 -0.3953
 4550SOL    HW225110   0.627   2.215   6.130 -0.4532  0.1073  0.9788
 4551SOL     OW25111   0.014   3.038  12.160 -0.4195 -0.1098 -0.5544
 4551SOL    HW125112   0.013   3.039  12.064 -1.7744 -0.8307 -0.5521
 4551SOL    HW225113   4.682   2.958  12.173  0.6481 -0.8565 -0.9506
 4552SOL     OW25114   2.587   4.426   7.960  0.1740  0.2800 -0.2032
 4552SOL    HW125115   2.620   4.342   7.930 -1.2068 -0.3874  0.1324
 4552SOL    HW225116   2.602   4.416   8.054  3.0755 -2.3761 -0.9953
 4553SOL     OW25117   1.888   3.008   4.932 -0.5589 -0.0816 -0.0027
 4553SOL    HW125118   1.956   2.965   4.984  0.3166  1.7784  0.3991
 4553SOL    HW225119   1.922   2.976   4.848 -2.3221  0.8536 -1.0651
 4554SOL     OW25120   0.192   2.089   8.242 -0.2395  0.5134  0.1553
 4554SOL    HW125121   0.165   2.152   8.309 -2.6883  0.4318 -0.7583
 4554SOL    HW225122   0.191   2.005   8.288  0.5574  0.7096  0.5380
 4555SOL     OW25123   0.319   4.084  10.921 -0.4449  0.4434  0.2162
 4555SOL    HW125124   0.271   4.002  10.931  0.1902  0.0969  0.4718
 4555SOL    HW225125   0.407   4.047  10.927 -1.4425 -1.3507  3.3410
 4556SOL     OW25126   2.874   2.104   3.101 -0.2793  0.1804 -0.2906
 4556SOL    HW125127   2.783   2.088   3.076  0.4205 -2.0803 -1.3913
 4556SOL    HW225128   2.871   2.105   3.196  1.0756  1.3629 -0.2612
 4557SOL     OW25129   0.980   2.964  16.416  0.1949 -0.7904 -0.7508
 4557SOL    HW125130   1.044   2.967  16.487 -1.2795  0.5462  0.5139
 4557SOL    HW225131   0.967   2.869  16.415  0.7565 -0.8490 -1.7407
 4558SOL     OW25132   4.659   2.948   7.451 -0.1049  0.5501  0.5265
 4558SOL    HW125133   4.602   2.950   7.528  1.6965 -2.1912  1.9615
 4558SOL    HW225134   4.661   3.041   7.431  1.2424 -0.1372 -2.4749
 4559SOL     OW25135   3.386   2.483   6.039  0.1256  0.5596  0.2480
 4559SOL    HW125136   3.361   2.558   5.986  0.1875 -1.3737 -2.5128
 4559SOL    HW225137   3.315   2.488   6.103  0.9677 -1.3267  1.3463
 4560SOL     OW25138   0.051   0.985  15.579 -0.0997  0.1145 -0.2361
 4560SOL    HW125139   4.684   1.028  15.579 -0.4436 -0.5725 -0.4778
 4560SOL    HW225140   0.032   0.898  15.544  3.6200 -0.0436 -1.7870
 4561SOL     OW25141   3.833   1.835  11.149  0.2925  0.1916 -0.1643
 4561SOL    HW125142   3.866   1.913  11.104  0.9427 -0.5908 -1.0621
 4561SOL    HW225143   3.817   1.772  11.079 -3.4096  0.7565  0.2148
 4562SOL     OW25144   4.383   4.469   3.021  0.6547 -0.4800  0.5512
 4562SOL    HW125145   4.418   4.508   2.941 -0.5578 -1.9765 -0.7239
 4562SOL    HW225146   4.354   4.543   3.074  0.8044  0.5277 -0.7739
 4563SOL     OW25147   4.529   1.614   0.595 -0.2126  0.7273  0.0462
 4563SOL    HW125148   4.579   1.620   0.513 -1.4319 -0.3019 -0.7588
 4563SOL    HW225149   4.524   1.520   0.611 -0.3649  0.8581  0.7568
 4564SOL     OW25150   2.841   1.620   2.520  0.9847 -0.3636 -0.4741
 4564SOL    HW125151   2.789   1.541   2.538  0.0027  0.1409 -1.1462
 4564SOL    HW225152   2.776   1.679   2.483  0.7394 -2.2003 -2.9639
 4565SOL     OW25153   3.918   4.149   7.885  0.1024 -0.1110 -0.0719
 4565SOL    HW125154   3.849   4.111   7.830  0.4877 -0.2376 -0.4640
 4565SOL    HW225155   3.920   4.238   7.849 -1.9906 -0.2449 -0.5141
 4566SOL     OW25156   2.766   2.116   9.691  0.1520 -0.1147  0.1475
 4566SOL    HW125157   2.794   2.024   9.687  0.7069  0.0283  0.6273
 4566SOL    HW225158   2.767   2.143   9.600  2.3140  0.2894  0.2757
 4567SOL     OW25159   2.526   4.565   3.210  0.2542 -0.6818  0.0926
 4567SOL    HW125160   2.507   4.603   3.124  0.0702 -0.3226  0.2960
 4567SOL    HW225161   2.609   4.610   3.222 -1.2576  1.4783  2.3667
 4568SOL     OW25162   1.359   0.236   7.270 -0.4769  0.3605 -0.7389
 4568SOL    HW125163   1.303   0.303   7.232  1.8167  1.9648 -1.2513
 4568SOL    HW225164   1.381   0.281   7.352 -0.4333  1.0364 -1.1264
 4569SOL     OW25165   3.291   4.241   0.282  0.1229 -0.1229 -0.4397
 4569SOL    HW125166   3.205   4.276   0.305  0.0205  0.4604 -1.7217
 4569SOL    HW225167   3.332   4.320   0.247  1.7941 -1.1099 -0.7010
 4570SOL     OW25168   2.460   2.880   1.602  0.4334 -0.5590 -0.2791
 4570SOL    HW125169   2.515   2.806   1.629 -0.4614 -0.3913  1.9328
 4570SOL    HW225170   2.507   2.961   1.619 -2.2709  0.3547  2.6634
 4571SOL     OW25171   1.178   0.663   1.625  0.5842 -0.1998 -0.4799
 4571SOL    HW125172   1.201   0.620   1.708 -0.0974 -1.8041 -1.1137
 4571SOL    HW225173   1.110   0.723   1.657  0.7851  1.3120 -2.9564
 4572SOL     OW25174   2.255   3.439   9.201 -0.3629  0.2091 -0.3860
 4572SOL    HW125175   2.298   3.496   9.266 -1.9816  1.5982 -0.5347
 4572SOL    HW225176   2.327   3.411   9.145  0.4116  1.4698 -0.0235
 4573SOL     OW25177   4.629   4.381  17.058  0.3627 -0.1619  0.1806
 4573SOL    HW125178   4.588   4.415  17.137 -1.8970  1.4108 -1.6858
 4573SOL    HW225179   4.549   4.351  17.014  0.5103 -0.4297  0.0955
 4574SOL     OW25180   0.001   0.716   1.121  0.0721 -0.5927 -0.0678
 4574SOL    HW125181   0.036   0.734   1.209 -2.8013  1.1999  0.7207
 4574SOL    HW225182   0.079   0.709   1.067  1.5835 -2.5226  2.3402
 4575SOL     OW25183   2.405   2.981   2.213  0.7607  0.1471  0.5607
 4575SOL    HW125184   2.421   2.930   2.134 -1.5853  0.1652  0.0807
 4575SOL    HW225185   2.313   3.002   2.197  0.6466  0.0187  1.0257
 4576SOL     OW25186   1.445   4.413   4.506 -0.4494 -0.4252  0.1456
 4576SOL    HW125187   1.489   4.470   4.443 -1.9208 -1.5867 -1.9180
 4576SOL    HW225188   1.371   4.392   4.449 -0.5104  0.6897 -0.1871
 4577SOL     OW25189   3.280   3.621   8.223 -0.2150  0.1022  0.2986
 4577SOL    HW125190   3.277   3.710   8.258  1.1823  0.3215 -0.1500
 4577SOL    HW225191   3.243   3.565   8.292 -0.7705  1.0825  0.7916
 4578SOL     OW25192   4.316   2.059   8.198 -0.6710 -0.5064 -0.3172
 4578SOL    HW125193   4.342   1.984   8.251 -2.9837 -1.5057 -0.6317
 4578SOL    HW225194   4.402   2.101   8.201 -2.6630  3.6417 -1.4467
 4579SOL     OW25195   0.316   2.216  16.604  0.2503  0.2403  0.1368
 4579SOL    HW125196   0.238   2.265  16.580  0.8345  0.5738 -1.0760
 4579SOL    HW225197   0.344   2.251  16.689  0.9404 -0.3262  0.1458
 4580SOL     OW25198   2.475   2.806   4.653  0.5376 -0.2572  0.4729
 4580SOL    HW125199   2.493   2.732   4.595  2.3657 -0.3737  1.1680
 4580SOL    HW225200   2.556   2.857   4.641 -0.2172  1.1964  1.6907
 4581SOL     OW25201   3.946   3.176   6.190 -0.4020 -0.6118  0.0764
 4581SOL    HW125202   3.869   3.154   6.242  0.0725  0.9292  1.4513
 4581SOL    HW225203   3.907   3.151   6.107  0.2545  0.1619 -0.4689
 4582SOL     OW25204   3.727   2.769   3.690 -0.3851 -0.2544 -0.3127
 4582SOL    HW125205   3.772   2.750   3.607 -1.2025 -0.4352 -0.7109
 4582SOL    HW225206   3.638   2.765   3.657 -0.6628 -0.2349  0.4390
 4583SOL     OW25207   1.958   3.697   5.975  0.0751 -0.2173 -0.0868
 4583SOL    HW125208   1.896   3.628   5.952  1.9419 -1.2471 -2.0257
 4583SOL    HW225209   1.908   3.778   5.984  0.0424 -0.0215 -2.0480
 4584SOL     OW25210   0.040   2.837   6.732  0.0148  0.2120 -0.3304
 4584SOL    HW125211   0.133   2.817   6.740  0.1634  0.8303 -0.4810
 4584SOL    HW225212   0.039   2.929   6.759  4.6966 -0.8015  3.2001
 4585SOL     OW25213   1.571   3.132   2.751  0.1871  0.0609  0.3233
 4585SOL    HW125214   1.577   3.057   2.811 -1.5421  2.0836  3.0163
 4585SOL    HW225215   1.658   3.126   2.712  0.0582  1.9576 -0.2300
 4586SOL     OW25216   1.927   1.016  16.623  0.0289 -0.0455 -0.2383
 4586SOL    HW125217   2.009   1.029  16.670  0.7160  0.3319 -1.5252
 4586SOL    HW225218   1.902   0.939  16.674  0.0445 -1.5634 -2.4727
 4587SOL     OW25219   1.994   3.736   4.203  0.1038  0.7557 -0.4863
 4587SOL    HW125220   1.907   3.773   4.196 -0.6749 -0.7649  1.1734
 4587SOL    HW225221   2.048   3.810   4.175  0.7303  0.8897  1.0923
 4588SOL     OW25222   2.958   2.904  12.823  0.6740  0.1612  0.5385
 4588SOL    HW125223   3.044   2.940  12.801 -0.7961  3.6361  0.4396
 4588SOL    HW225224   2.913   2.899  12.739  0.6422 -2.0691  0.7001
 4589SOL     OW25225   0.120   0.250   3.161 -0.1515  0.1994  0.5825
 4589SOL    HW125226   0.172   0.250   3.242 -0.9129  0.1045  1.0690
 4589SOL    HW225227   0.175   0.216   3.090  1.0710 -1.0299  2.1134
 4590SOL     OW25228   1.528   1.668  15.451 -0.2318 -0.0480 -0.4632
 4590SOL    HW125229   1.569   1.693  15.534 -1.9574 -0.1742  0.4479
 4590SOL    HW225230   1.540   1.574  15.469 -3.8375 -0.5379 -0.5963
 4591SOL     OW25231   0.571   0.929  11.922 -0.0893 -0.7198 -0.3896
 4591SOL    HW125232   0.643   0.988  11.899  0.2632 -0.2713  1.8067
 4591SOL    HW225233   0.496   0.987  11.907 -0.5019 -0.8386  1.1389
 4592SOL     OW25234   3.533   3.838   4.088  0.7415  0.7514 -0.7100
 4592SOL    HW125235   3.476   3.907   4.055 -0.5950 -0.4354 -0.8929
 4592SOL    HW225236   3.509   3.764   4.032  1.8137  0.6141 -0.9993
 4593SOL     OW25237   4.165   4.136  17.650  0.3348  0.4328  0.0959
 4593SOL    HW125238   4.120   4.055  17.627 -0.8079  0.4045  2.4408
 4593SOL    HW225239   4.258   4.114  17.646  0.5726  1.5106 -0.2868
 4594SOL     OW25240   0.069   1.480  10.044 -0.0034 -0.1616 -0.0812
 4594SOL    HW125241   0.040   1.418  10.111  0.0336 -0.5998 -0.4676
 4594SOL    HW225242   0.038   1.566  10.074  0.2054 -0.1015 -0.0393
 4595SOL     OW25243   0.722   0.907   8.462  0.2297 -0.3416  0.2228
 4595SOL    HW125244   0.817   0.904   8.452  0.2076  1.3363 -0.5267
 4595SOL    HW225245   0.708   0.943   8.374  0.0212 -0.5206  0.1820
 4596SOL     OW25246   4.405   2.724   2.638  0.2020 -0.1214 -0.9687
 4596SOL    HW125247   4.368   2.650   2.685  0.9803 -0.7287 -1.3174
 4596SOL    HW225248   4.329   2.778   2.619 -0.0308 -0.7045 -1.7002
 4597SOL     OW25249   2.309   4.417   0.294 -0.0800  0.3451  0.0711
 4597SOL    HW125250   2.386   4.448   0.343 -0.1350 -1.3229  1.2135
 4597SOL    HW225251   2.341   4.340   0.247  2.2354  1.2305  0.2251
 4598SOL     OW25252   3.905   2.323   4.195 -0.0255  0.3316 -0.1943
 4598SOL    HW125253   3.998   2.303   4.200 -0.4847 -0.4407  5.0746
 4598SOL    HW225254   3.897   2.373   4.113  0.4786 -0.7385 -0.8875
 4599SOL     OW25255   3.517   2.553   6.475  0.0097 -0.0233 -0.5148
 4599SOL    HW125256   3.611   2.538   6.479  0.3799  2.4106 -0.0623
 4599SOL    HW225257   3.492   2.503   6.552  1.1105  0.0041 -0.1425
 4600SOL     OW25258   0.821   2.993   6.224  0.7944  0.3393  0.6096
 4600SOL    HW125259   0.787   3.077   6.254 -1.5730 -1.4868  3.1275
 4600SOL    HW225260   0.843   2.965   6.313  1.0377 -1.2199  0.0714
 4601SOL     OW25261   1.174   0.577   3.121  0.0052  0.1884  0.3053
 4601SOL    HW125262   1.239   0.604   3.055 -0.6136  1.3438  0.1700
 4601SOL    HW225263   1.186   0.638   3.193 -4.2451  1.8214 -0.3875
 4602SOL     OW25264   3.371   0.371   6.203  0.1132 -0.6113  0.0136
 4602SOL    HW125265   3.428   0.304   6.241  3.0961  0.6326 -2.2602
 4602SOL    HW225266   3.353   0.417   6.285  0.6732 -0.9017  0.2996
 4603SOL     OW25267   2.110   3.226   9.173  0.1553 -0.3322  0.1130
 4603SOL    HW125268   2.087   3.232   9.266  2.2979  0.8956  0.5617
 4603SOL    HW225269   2.173   3.298   9.171  0.5689 -0.8110 -3.7343
 4604SOL     OW25270   1.532   2.301   8.677  0.1191  0.0212 -0.0300
 4604SOL    HW125271   1.507   2.235   8.612  3.0754 -1.2181  0.0904
 4604SOL    HW225272   1.473   2.271   8.747  1.4973 -1.6234  0.4428
 4605SOL     OW25273   3.219   1.504  10.509 -0.2448  0.2375 -0.1679
 4605SOL    HW125274   3.246   1.532  10.597 -1.2534 -2.5642  1.0146
 4605SOL    HW225275   3.193   1.417  10.538  1.8290 -0.2176  0.2874
 4606SOL     OW25276   0.721   3.010   5.909 -0.0873 -0.0700  0.1659
 4606SOL    HW125277   0.632   3.033   5.936  0.8609  2.1035  1.4445
 4606SOL    HW225278   0.728   2.918   5.933  0.0161 -0.3332 -0.8734
 4607SOL     OW25279   3.301   1.837   8.847  0.1065 -0.0227 -0.2364
 4607SOL    HW125280   3.300   1.873   8.936  1.9271 -1.4501  0.3544
 4607SOL    HW225281   3.366   1.891   8.803  1.3456  0.0675  1.7233
 4608SOL     OW25282   1.377   0.807   1.500 -0.1409 -0.1030 -0.4028
 4608SOL    HW125283   1.313   0.760   1.554  1.5755  0.1378  1.8645
 4608SOL    HW225284   1.445   0.826   1.565 -1.0343 -0.5419  0.6581
 4609SOL     OW25285   2.909   3.175   2.643 -0.8459  0.4749  0.0827
 4609SOL    HW125286   2.954   3.176   2.558  0.2139  1.3849  0.6567
 4609SOL    HW225287   2.906   3.080   2.649 -1.8551  0.3250 -2.8068
 4610SOL     OW25288   0.608   1.164   7.231 -0.1567 -0.5786  0.8901
 4610SOL    HW125289   0.554   1.212   7.294 -0.0802  0.8636 -0.1389
 4610SOL    HW225290   0.536   1.144   7.172  2.1491  0.4807 -2.2701
 4611SOL     OW25291   2.602   2.230   6.339  0.0690  0.1570 -0.2930
 4611SOL    HW125292   2.685   2.198   6.304  0.0932  1.7176 -1.6521
 4611SOL    HW225293   2.563   2.154   6.384 -0.9066  1.6675  1.3820
 4612SOL     OW25294   2.473   1.978  10.593  0.2216 -0.2202  0.0758
 4612SOL    HW125295   2.470   2.048  10.528  0.8596 -0.2582  0.0030
 4612SOL    HW225296   2.569   1.971  10.602  0.0809 -1.7621  0.3889
 4613SOL     OW25297   1.817   0.253  13.446 -0.2653 -0.4050 -0.1990
 4613SOL    HW125298   1.757   0.220  13.513  2.0163  0.1435  2.0685
 4613SOL    HW225299   1.893   0.196  13.436 -0.5114 -0.2408 -2.9986
 4614SOL     OW25300   3.640   0.182   6.629  0.2533 -0.1719  0.1564
 4614SOL    HW125301   3.659   0.124   6.703  0.4229  0.0275  0.2705
 4614SOL    HW225302   3.728   0.211   6.605  0.7214  0.5383  2.7120
 4615SOL     OW25303   0.908   1.949   3.472 -0.0304 -0.0399  0.1229
 4615SOL    HW125304   0.901   2.044   3.471  1.2555  0.0665  1.4131
 4615SOL    HW225305   0.922   1.931   3.379  2.4053  0.9481  0.2952
 4616SOL     OW25306   0.375   2.006   2.202 -0.3167  0.1028 -0.1020
 4616SOL    HW125307   0.398   2.087   2.157  1.2896  0.1640  0.8445
 4616SOL    HW225308   0.281   1.996   2.182 -0.6466 -0.2320  1.6623
 4617SOL     OW25309   3.010   3.550  13.310 -0.4701  0.1192  0.3683
 4617SOL    HW125310   3.043   3.467  13.275 -1.8594 -1.6101  3.2021
 4617SOL    HW225311   2.949   3.566  13.237 -0.0720 -1.6222 -0.3623
 4618SOL     OW25312   3.357   2.200  13.988  0.1290  0.4531  0.2281
 4618SOL    HW125313   3.342   2.126  13.929 -2.1655  0.4898  0.7471
 4618SOL    HW225314   3.277   2.250  13.967 -0.2343 -0.6244 -0.9541
 4619SOL     OW25315   3.370   0.865   9.725 -0.0186 -0.1349 -0.5674
 4619SOL    HW125316   3.395   0.854   9.817 -3.0356 -1.7893  0.0437
 4619SOL    HW225317   3.289   0.813   9.727 -0.3167  0.3068 -1.0140
 4620SOL     OW25318   2.551   2.958  14.194  0.2712 -0.1968 -0.3092
 4620SOL    HW125319   2.543   3.053  14.188  1.5794  0.0573  2.1908
 4620SOL    HW225320   2.483   2.925  14.253 -2.5731  1.6584 -2.5465
 4621SOL     OW25321   2.969   2.304   9.558 -0.2621 -0.2079 -0.1153
 4621SOL    HW125322   3.014   2.288   9.474  0.5476 -0.1675  0.3124
 4621SOL    HW225323   2.879   2.274   9.542  0.5379 -2.8640  0.2686
 4622SOL     OW25324   3.596   2.087  16.124  0.0042 -0.1751 -0.2382
 4622SOL    HW125325   3.684   2.068  16.091  0.8833  3.0721  0.2325
 4622SOL    HW225326   3.586   2.027  16.197  1.0275  0.6272  0.5745
 4623SOL     OW25327   1.042   0.939   3.692 -0.4157 -0.1325 -0.4660
 4623SOL    HW125328   1.134   0.916   3.682 -0.4601 -0.3632 -0.3601
 4623SOL    HW225329   1.029   1.033   3.686  1.1192  0.1789  1.3262
 4624SOL     OW25330   0.837   3.249   4.407  0.1868 -0.2506  0.0060
 4624SOL    HW125331   0.848   3.204   4.323 -0.8597  2.1297 -1.4223
 4624SOL    HW225332   0.751   3.224   4.439 -0.0500  0.3477 -0.1560
 4625SOL     OW25333   4.602   2.503   4.783  0.2016 -0.2912  0.1965
 4625SOL    HW125334   4.669   2.571   4.786  0.5831 -0.6022 -1.2286
 4625SOL    HW225335   4.650   2.423   4.802  0.6674 -0.3816 -1.3313
 4626SOL     OW25336   1.210   4.451  15.200  0.2428  0.1779 -0.1052
 4626SOL    HW125337   1.198   4.385  15.269  0.4074  0.8902  0.6117
 4626SOL    HW225338   1.165   4.399  15.134  1.2039  1.9423 -2.1311
 4627SOL     OW25339   3.000   4.122   1.899  0.0783  0.0014  0.0915
 4627SOL    HW125340   3.029   4.080   1.818 -0.6596  0.5924 -0.4849
 4627SOL    HW225341   3.057   4.199   1.907 -0.5653  0.4390  0.4746
 4628SOL     OW25342   0.404   1.870  14.201 -0.0284 -0.6170  0.3165
 4628SOL    HW125343   0.320   1.871  14.247  0.1619 -0.7622  0.6694
 4628SOL    HW225344   0.414   1.779  14.174 -0.4082 -0.8067  0.8095
 4629SOL     OW25345   1.513   2.674   2.210 -0.0281  0.4967 -0.0557
 4629SOL    HW125346   1.487   2.687   2.301 -1.0815 -1.5709 -0.0416
 4629SOL    HW225347   1.576   2.744   2.197  1.4081 -0.8030 -0.0170
 4630SOL     OW25348   0.471   3.328  10.125  0.6276 -0.2287 -0.2344
 4630SOL    HW125349   0.411   3.307  10.054 -0.3554  0.8809  0.2494
 4630SOL    HW225350   0.549   3.280  10.097  1.8038  1.3899  0.2063
 4631SOL     OW25351   1.209   0.903   6.694 -0.5250 -0.0602 -0.5516
 4631SOL    HW125352   1.174   0.982   6.654  2.5035  1.1580 -0.7885
 4631SOL    HW225353   1.191   0.843   6.622 -0.8016 -0.5921 -0.0433
 4632SOL     OW25354   1.130   1.222   4.289  0.1720 -0.7447 -0.0317
 4632SOL    HW125355   1.195   1.162   4.325  0.2408 -1.8727 -2.0055
 4632SOL    HW225356   1.190   1.283   4.245  1.2142 -0.7971  1.2997
 4633SOL     OW25357   2.739   0.196   2.649 -0.1204  0.1586 -0.1005
 4633SOL    HW125358   2.645   0.209   2.642  0.3009  0.9198 -4.1414
 4633SOL    HW225359   2.773   0.274   2.606 -0.2849  0.6841  0.7283
 4634SOL     OW25360   0.801   1.225   3.782 -0.0085 -0.3100 -0.0649
 4634SOL    HW125361   0.806   1.267   3.868  0.9942 -1.0390  0.2318
 4634SOL    HW225362   0.819   1.300   3.726  1.7420 -0.3120  0.4855
 4635SOL     OW25363   2.167   1.223  17.527 -0.2958 -0.1237 -0.2933
 4635SOL    HW125364   2.172   1.295  17.589 -3.1922  1.0352 -1.3855
 4635SOL    HW225365   2.206   1.158  17.585 -0.2157  0.7471  0.6267
 4636SOL     OW25366   1.248   0.900   7.275 -0.0213 -0.4933  0.4088
 4636SOL    HW125367   1.294   0.901   7.191 -0.2595 -1.1737  0.2631
 4636SOL    HW225368   1.243   0.995   7.278 -0.7901 -0.4605 -2.1640
 4637SOL     OW25369   2.692   1.333   4.150  0.1297 -0.0454 -0.3056
 4637SOL    HW125370   2.763   1.320   4.213 -0.5383 -0.2027  0.4170
 4637SOL    HW225371   2.646   1.249   4.156 -2.1385  1.0299 -2.8678
 4638SOL     OW25372   2.824   3.096   1.390 -0.4109  0.3285 -0.0930
 4638SOL    HW125373   2.732   3.096   1.364 -0.4432 -1.6354  0.0091
 4638SOL    HW225374   2.834   3.002   1.375 -0.0715  0.5466 -1.1945
 4639SOL     OW25375   0.309   1.743   7.237  0.2393 -0.2091 -0.2447
 4639SOL    HW125376   0.393   1.737   7.284 -1.1852  0.5986  2.4275
 4639SOL    HW225377   0.273   1.656   7.248 -0.7547  0.4007  1.3325
 4640SOL     OW25378   2.640   3.347   1.010 -0.2893  0.6146  0.2153
 4640SOL    HW125379   2.587   3.370   1.086 -0.0199 -1.0335  0.9140
 4640SOL    HW225380   2.614   3.407   0.941  1.2780  0.7477 -0.2575
 4641SOL     OW25381   1.580   0.131   4.206 -0.7808  0.3162  0.7011
 4641SOL    HW125382   1.524   0.189   4.155  0.9136  1.2790 -0.1007
 4641SOL    HW225383   1.577   0.166   4.294 -0.3945 -0.8672  1.1880
 4642SOL     OW25384   0.188   0.869   4.074 -0.9484  0.1295  0.0844
 4642SOL    HW125385   0.198   0.942   4.012 -1.2079 -0.7437 -0.9917
 4642SOL    HW225386   0.093   0.870   4.089 -0.9884 -0.7523 -0.1038
 4643SOL     OW25387   2.334   1.920   4.984  0.5038 -0.5335  0.0415
 4643SOL    HW125388   2.315   1.894   4.894 -1.2867  0.6966  0.0620
 4643SOL    HW225389   2.266   1.869   5.028  0.0331  0.7720  0.8186
 4644SOL     OW25390   1.872   0.874  12.392  0.2640  0.4360  0.8807
 4644SOL    HW125391   1.920   0.814  12.335 -0.1742  1.5463 -0.6272
 4644SOL    HW225392   1.788   0.833  12.411  0.1537  1.6950  3.1811
 4645SOL     OW25393   2.875   2.610  15.917  0.0763 -0.4302  0.0271
 4645SOL    HW125394   2.795   2.600  15.867 -0.2439  2.1862  0.0232
 4645SOL    HW225395   2.903   2.520  15.931 -0.4167 -0.3686  1.4411
 4646SOL     OW25396   1.260   4.213   3.576 -0.0360  0.8106 -0.2013
 4646SOL    HW125397   1.324   4.202   3.646 -0.8311 -1.2566  0.2017
 4646SOL    HW225398   1.316   4.226   3.499  1.1454  0.2354  0.5681
 4647SOL     OW25399   2.743   2.851   6.254  0.7962  0.7522 -0.1519
 4647SOL    HW125400   2.688   2.910   6.203 -0.3050 -1.1616 -1.1662
 4647SOL    HW225401   2.687   2.835   6.330 -1.6840  0.6003 -2.0271
 4648SOL     OW25402   4.189   4.362   8.564  0.0743  0.2007  0.0782
 4648SOL    HW125403   4.260   4.420   8.537  0.1829 -0.0449 -0.1554
 4648SOL    HW225404   4.223   4.277   8.536 -1.7232  0.1494 -1.9314
 4649SOL     OW25405   0.185   3.992  15.955 -0.3115  0.5379 -0.5208
 4649SOL    HW125406   0.112   4.030  15.907 -0.3059  1.2555  0.0354
 4649SOL    HW225407   0.194   3.919  15.894  1.6006  1.4173 -1.2804
 4650SOL     OW25408   3.391   3.201   6.947  0.1225 -0.2987  0.5626
 4650SOL    HW125409   3.421   3.248   7.025 -2.0379  0.7841  0.7337
 4650SOL    HW225410   3.378   3.271   6.884 -0.9934 -0.2878  0.7998
 4651SOL     OW25411   2.771   2.828   4.108 -0.1924 -0.1543 -0.1057
 4651SOL    HW125412   2.676   2.839   4.112 -0.0997  0.1989  1.1187
 4651SOL    HW225413   2.789   2.786   4.024 -1.4154 -1.3254  0.2139
 4652SOL     OW25414   1.526   3.361   8.731 -0.3041 -0.0022 -0.3140
 4652SOL    HW125415   1.530   3.268   8.707  0.0732  0.3426 -1.5770
 4652SOL    HW225416   1.475   3.400   8.661  2.5233 -0.4223 -2.6172
 4653SOL     OW25417   1.717   0.126   9.111 -0.2205 -0.3354 -0.0292
 4653SOL    HW125418   1.792   0.172   9.147 -0.9317 -0.1860  1.2729
 4653SOL    HW225419   1.741   0.035   9.126 -0.5893 -0.8787 -2.6498
 4654SOL     OW25420   4.719   1.095   5.532 -0.1730  0.1891 -0.7216
 4654SOL    HW125421   4.717   1.161   5.602 -0.0369  0.1778 -0.7073
 4654SOL    HW225422   0.094   1.079   5.541 -0.1921 -0.4450 -1.6229
 4655SOL     OW25423   1.577   0.327   3.288 -0.4773  0.5605 -0.5202
 4655SOL    HW125424   1.593   0.234   3.303  1.9254  1.3461  1.7867
 4655SOL    HW225425   1.484   0.333   3.265 -0.4434 -0.4927 -0.9281
 4656SOL     OW25426   2.196   2.358   5.929  0.5172 -0.0221  0.0114
 4656SOL    HW125427   2.292   2.357   5.925  0.6782  2.7897  2.6205
 4656SOL    HW225428   2.185   2.328   5.839 -3.3170 -1.6395  0.9867
 4657SOL     OW25429   3.887   1.309   8.598 -0.0615 -0.2832 -0.3607
 4657SOL    HW125430   3.809   1.352   8.633 -0.9217 -1.1677 -1.1887
 4657SOL    HW225431   3.944   1.383   8.576 -1.3071  0.2234 -1.9255
 4658SOL     OW25432   4.191   4.031   9.138  0.3109  0.4747 -0.2454
 4658SOL    HW125433   4.134   4.013   9.212  0.7973  0.3561  0.0957
 4658SOL    HW225434   4.279   4.033   9.174  1.2141 -0.4109 -2.3933
 4659SOL     OW25435   3.717   3.880   5.760 -0.2747  0.1499 -0.8197
 4659SOL    HW125436   3.694   3.809   5.820  0.1350  2.3262  1.8850
 4659SOL    HW225437   3.745   3.834   5.681 -0.0208 -0.6372 -0.2708
 4660SOL     OW25438   4.558   2.401   2.021 -0.1591  0.3610 -0.7414
 4660SOL    HW125439   4.520   2.319   1.990  1.1228 -0.8705  0.8921
 4660SOL    HW225440   4.652   2.389   2.038 -0.5682 -0.3272  1.1178
 4661SOL     OW25441   1.433   1.989   6.759  0.1519  0.0870 -0.4328
 4661SOL    HW125442   1.368   2.056   6.739 -0.1569 -0.1875 -0.3450
 4661SOL    HW225443   1.403   1.958   6.845  2.3921  0.6008  0.5203
 4662SOL     OW25444   3.687   3.632  15.853 -0.9799 -0.6135 -0.8493
 4662SOL    HW125445   3.769   3.638  15.804  0.2381 -2.1657  0.9724
 4662SOL    HW225446   3.634   3.696  15.806 -2.4688 -3.0011 -2.4256
 4663SOL     OW25447   2.273   3.350   5.365  0.3331  0.4048 -0.1685
 4663SOL    HW125448   2.187   3.333   5.403 -0.0863 -1.0499 -1.7748
 4663SOL    HW225449   2.267   3.287   5.293  1.4315  1.8170 -1.4807
 4664SOL     OW25450   4.466   4.100   0.793  0.1057  0.1745 -0.2540
 4664SOL    HW125451   4.512   4.162   0.850  3.4594 -2.7662  0.2803
 4664SOL    HW225452   4.419   4.050   0.859  1.2370 -0.0629  0.3696
 4665SOL     OW25453   2.364   2.385   7.028  0.2455  0.2731  0.4800
 4665SOL    HW125454   2.325   2.470   7.003 -0.8116 -0.1242  0.7635
 4665SOL    HW225455   2.453   2.406   7.001 -0.2056  0.8226 -0.6079
 4666SOL     OW25456   4.044   0.387   8.443 -0.2855  0.6162  0.2193
 4666SOL    HW125457   4.021   0.456   8.381 -0.5971 -2.0535 -2.6635
 4666SOL    HW225458   4.058   0.316   8.380  0.5780  0.1082  0.9823
 4667SOL     OW25459   0.159   1.005  14.134 -0.3427 -0.0701  0.4646
 4667SOL    HW125460   0.074   1.016  14.091  0.1584 -0.9066 -0.7302
 4667SOL    HW225461   0.214   0.966  14.066  0.5254 -1.8045  2.1599
 4668SOL     OW25462   2.637   0.054   7.579 -0.3248  0.2940  0.0320
 4668SOL    HW125463   2.581   0.107   7.635 -1.8979 -0.6878 -0.6395
 4668SOL    HW225464   2.592   0.072   7.497  1.4707 -0.4101 -1.1041
 4669SOL     OW25465   0.398   1.298   4.200  0.2580  0.4133 -0.2966
 4669SOL    HW125466   0.340   1.254   4.262  1.3365 -0.2117  0.2566
 4669SOL    HW225467   0.359   1.385   4.186  0.7091 -0.0563 -4.5931
 4670SOL     OW25468   1.697   1.370   3.111  0.5959 -0.1366 -0.6282
 4670SOL    HW125469   1.702   1.376   3.015  0.4711 -0.5083 -0.6573
 4670SOL    HW225470   1.607   1.340   3.120  0.8206 -0.5760  0.1095
 4671SOL     OW25471   3.493   0.728  15.872 -0.1325 -0.1615  0.0728
 4671SOL    HW125472   3.513   0.811  15.916 -2.0741  0.8222 -0.9218
 4671SOL    HW225473   3.427   0.686  15.928 -0.6389 -0.0569 -0.4515
 4672SOL     OW25474   1.311   2.927   6.514  0.0209 -0.3414  0.0176
 4672SOL    HW125475   1.329   2.866   6.585  1.6467  0.6061  0.4124
 4672SOL    HW225476   1.255   2.877   6.454  2.5374 -1.7733 -1.1372
 4673SOL     OW25477   0.622   1.602   1.819  0.6373 -0.3988 -0.3876
 4673SOL    HW125478   0.634   1.687   1.777 -0.4333  0.1810  0.5150
 4673SOL    HW225479   0.536   1.616   1.858  0.3531 -0.5068 -0.9723
 4674SOL     OW25480   0.363   2.475   9.526 -0.2193  0.4577  0.4415
 4674SOL    HW125481   0.302   2.452   9.456 -0.7352  3.4501 -0.0918
 4674SOL    HW225482   0.447   2.474   9.479 -0.1306 -1.4575  0.6224
 4675SOL     OW25483   3.149   3.537  16.609 -0.3315  0.4240  0.4811
 4675SOL    HW125484   3.244   3.544  16.611 -0.2009 -1.1419 -0.8492
 4675SOL    HW225485   3.120   3.609  16.553 -0.4614  0.5995  0.7716
 4676SOL     OW25486   2.507   2.829   7.583  0.3013 -0.8026 -0.1518
 4676SOL    HW125487   2.537   2.900   7.527 -1.5840 -0.4550 -0.7225
 4676SOL    HW225488   2.457   2.780   7.518  1.2591 -1.4186 -0.4248
 4677SOL     OW25489   0.050   1.637   0.956 -0.2647  0.0343  0.6339
 4677SOL    HW125490   0.074   1.566   1.016  1.1117 -0.9931 -1.1286
 4677SOL    HW225491   0.049   1.708   1.019  0.8328 -0.8496  1.6557
 4678SOL     OW25492   2.523   0.276   8.073  0.3807  0.3472  0.4476
 4678SOL    HW125493   2.522   0.180   8.068  0.8862  0.3963 -0.5476
 4678SOL    HW225494   2.526   0.278   8.169 -1.2361 -0.6991  0.5341
 4679SOL     OW25495   1.554   0.744   0.906 -0.0804  0.2585 -0.1119
 4679SOL    HW125496   1.547   0.655   0.872 -1.0548  0.5078 -0.5591
 4679SOL    HW225497   1.592   0.732   0.994 -0.5626 -0.3077  0.0205
 4680SOL     OW25498   4.719   1.398   5.294  0.0204 -0.5920 -0.7919
 4680SOL    HW125499   0.064   1.465   5.316 -0.6338 -0.5615  0.9809
 4680SOL    HW225500   4.646   1.456   5.271 -0.8914 -1.5331 -0.3275
 4681SOL     OW25501   4.311   2.204   9.421  0.0104 -0.7138  0.0231
 4681SOL    HW125502   4.397   2.177   9.452 -0.1374 -3.3689 -1.9294
 4681SOL    HW225503   4.258   2.182   9.498  0.2153 -0.6677  0.1795
 4682SOL     OW25504   0.528   0.620   3.401  0.4535 -0.5365 -0.4430
 4682SOL    HW125505   0.500   0.647   3.489 -0.2862  0.6553 -1.0335
 4682SOL    HW225506   0.500   0.697   3.351  2.0935 -0.2354 -0.8814
 4683SOL     OW25507   1.633   4.595  10.796 -0.3876  0.8492  0.0291
 4683SOL    HW125508   1.652   4.652  10.721  0.3522 -0.1007 -0.5012
 4683SOL    HW225509   1.568   4.647  10.843 -0.7372  1.3737 -1.0420
 4684SOL     OW25510   0.964   0.478  15.852  0.0572  0.0683  0.1621
 4684SOL    HW125511   1.001   0.550  15.903  1.3418  0.4544 -1.2809
 4684SOL    HW225512   1.041   0.422  15.841  0.0855  0.3388 -1.0388
 4685SOL     OW25513   2.615   3.781   5.253  0.5995 -0.9296  0.4443
 4685SOL    HW125514   2.614   3.749   5.162 -3.3995 -0.1133  0.1802
 4685SOL    HW225515   2.532   3.746   5.286 -0.1307 -1.4824 -1.9493
 4686SOL     OW25516   3.974   4.156   5.092 -0.3745 -0.0683 -0.2042
 4686SOL    HW125517   3.970   4.128   5.001  1.7162 -0.4359 -0.1790
 4686SOL    HW225518   4.034   4.086   5.118 -0.3259 -0.3170 -0.9908
 4687SOL     OW25519   3.646   4.620   3.009  0.2221  0.1054  0.4749
 4687SOL    HW125520   3.555   4.628   2.978 -0.2123  0.4415  1.8437
 4687SOL    HW225521   3.680   4.676   2.939 -0.2408  0.8463  0.8369
 4688SOL     OW25522   4.253   3.103   1.422  0.1978  0.4563 -0.0460
 4688SOL    HW125523   4.216   3.183   1.386  0.2335  1.6085  2.4907
 4688SOL    HW225524   4.336   3.103   1.374  0.3187  2.3425  0.1778
 4689SOL     OW25525   4.092   1.651   1.657  0.3473 -0.6304  0.8032
 4689SOL    HW125526   4.030   1.719   1.682 -1.1485 -1.5894 -0.2977
 4689SOL    HW225527   4.094   1.655   1.561 -0.2719 -0.6500  0.7883
 4690SOL     OW25528   2.862   4.674   9.127 -0.3301  0.1096 -0.2915
 4690SOL    HW125529   2.775   4.666   9.166  0.4107  0.8389  1.5547
 4690SOL    HW225530   2.857   0.035   9.075 -2.4230  2.7742  4.0014
 4691SOL     OW25531   1.532   1.701   1.632  0.4454 -0.8295  0.8496
 4691SOL    HW125532   1.600   1.635   1.647  0.5763 -1.1788 -1.3319
 4691SOL    HW225533   1.466   1.632   1.621 -0.8747  0.4915  0.5439
 4692SOL     OW25534   2.937   1.030   9.235 -0.1758  0.0064 -0.0349
 4692SOL    HW125535   2.895   1.001   9.154 -1.7367  0.6956  0.5264
 4692SOL    HW225536   2.948   1.124   9.221 -0.8251 -0.2380 -2.1190
 4693SOL     OW25537   0.971   0.027   1.937 -0.3797 -0.2180 -0.2938
 4693SOL    HW125538   1.052   0.013   1.887  0.2130 -0.2939  0.6775
 4693SOL    HW225539   0.950   4.658   1.967 -1.1027  0.9964  2.7076
 4694SOL     OW25540   3.121   1.646  13.019 -0.0769 -0.1839 -0.2929
 4694SOL    HW125541   3.194   1.701  13.046 -1.4123  1.8131 -0.7503
 4694SOL    HW225542   3.054   1.679  13.079  0.1517 -0.8889  0.3502
 4695SOL     OW25543   3.906   2.574  10.230 -0.1981 -0.1410  0.8704
 4695SOL    HW125544   3.959   2.569  10.309 -0.3141  0.4623  0.9893
 4695SOL    HW225545   3.847   2.501  10.246 -1.3953  0.8619  1.0487
 4696SOL     OW25546   1.191   1.784  12.874  0.3235  0.0509 -0.7926
 4696SOL    HW125547   1.162   1.760  12.962  0.2138  2.6996 -0.1277
 4696SOL    HW225548   1.250   1.710  12.859  0.4388  0.0655 -0.3974
 4697SOL     OW25549   2.063   0.639  12.475 -0.1522  0.0805 -0.2478
 4697SOL    HW125550   1.977   0.632  12.434  0.2074  0.3778 -1.0429
 4697SOL    HW225551   2.055   0.575  12.546 -2.3002 -0.9280 -1.4090
 4698SOL     OW25552   2.404   3.863   7.074 -0.1173 -0.7479 -0.0583
 4698SOL    HW125553   2.493   3.896   7.063 -0.1476 -1.5135 -2.4982
 4698SOL    HW225554   2.393   3.818   6.990 -3.2505  0.8839 -0.5198
 4699SOL     OW25555   4.282   2.325   7.636  0.1901 -0.0515 -0.7817
 4699SOL    HW125556   4.274   2.243   7.588 -0.4700 -0.4258 -0.0339
 4699SOL    HW225557   4.193   2.342   7.667  0.5729  0.1114  0.2342
 4700SOL     OW25558   4.134   0.198   3.055 -0.1574  0.6240  0.4090
 4700SOL    HW125559   4.156   0.237   2.971  0.5765  0.6635  0.6204
 4700SOL    HW225560   4.040   0.188   3.040 -0.1854  1.0227  0.3311
 4701SOL     OW25561   1.388   4.624   6.320 -0.2571 -0.9538 -0.1941
 4701SOL    HW125562   1.357   4.536   6.340 -0.7007 -0.7214  0.1492
 4701SOL    HW225563   1.373   4.625   6.225  0.1329 -1.2392 -0.2590
 4702SOL     OW25564   3.485   0.575   6.078 -0.3712  0.1358 -0.1234
 4702SOL    HW125565   3.401   0.551   6.039  0.8434 -1.8279 -1.5276
 4702SOL    HW225566   3.499   0.495   6.127  2.0284 -0.1334 -1.2318
 4703SOL     OW25567   1.052   0.343   3.843 -0.3191  0.1743 -0.0634
 4703SOL    HW125568   0.966   0.307   3.863 -0.2735  1.0435  1.6837
 4703SOL    HW225569   1.109   0.315   3.914 -0.2156 -1.0294 -0.6293
 4704SOL     OW25570   0.129   3.291   3.332  0.3012  0.4822 -0.0938
 4704SOL    HW125571   0.069   3.270   3.260 -1.1198  0.3142  1.1511
 4704SOL    HW225572   0.218   3.283   3.296  0.0407 -0.3530 -0.5655
 4705SOL     OW25573   1.661   3.793  15.669  0.1823 -0.5381  0.1901
 4705SOL    HW125574   1.714   3.791  15.589  0.0186 -0.0618  0.0635
 4705SOL    HW225575   1.641   3.700  15.670  2.3171 -0.9680  1.8273
 4706SOL     OW25576   0.068   4.558  17.437 -0.5248 -0.6827 -0.0988
 4706SOL    HW125577   0.148   4.599  17.470 -0.4295 -1.1916  0.2913
 4706SOL    HW225578   0.022   4.511  17.507 -0.3253  0.9745  1.1677
 4707SOL     OW25579   2.850   4.341   2.018  0.0988  0.3984  0.4305
 4707SOL    HW125580   2.891   4.263   1.983 -0.6856  0.9108 -1.6190
 4707SOL    HW225581   2.767   4.309   2.054 -0.2287 -0.3455 -1.0202
 4708SOL     OW25582   3.534   1.156   4.138 -0.5858 -0.3663 -0.5042
 4708SOL    HW125583   3.520   1.250   4.126 -1.6144 -0.4569 -0.0284
 4708SOL    HW225584   3.510   1.117   4.054  0.0431  1.4619 -1.5411
 4709SOL     OW25585   0.992   4.531   2.131 -0.0616 -0.0467 -0.5564
 4709SOL    HW125586   0.971   4.533   2.224 -0.1844 -1.9904 -0.5393
 4709SOL    HW225587   0.985   4.436   2.120  0.6853 -0.2936  1.1588
 4710SOL     OW25588   0.364   3.664   5.388 -0.1998 -0.1670 -0.1280
 4710SOL    HW125589   0.424   3.735   5.367 -1.2314  0.5500 -0.6693
 4710SOL    HW225590   0.359   3.614   5.306  1.1492 -2.0576  0.9503
 4711SOL     OW25591   3.475   2.241   6.001  0.7901  0.0427 -0.3080
 4711SOL    HW125592   3.424   2.317   6.032 -0.8225 -1.8479  1.7131
 4711SOL    HW225593   3.481   2.259   5.908 -0.7799  3.3621  0.1941
 4712SOL     OW25594   4.631   1.375   1.146  0.0585 -0.6091 -0.2850
 4712SOL    HW125595   4.608   1.327   1.066 -1.5681  1.0354 -0.7898
 4712SOL    HW225596   0.001   1.398   1.122 -0.2257  0.6295 -0.1511
 4713SOL     OW25597   2.690   1.183   9.110  0.2628 -0.1491  0.1539
 4713SOL    HW125598   2.646   1.213   9.190 -1.8778  0.7211 -1.3356
 4713SOL    HW225599   2.781   1.203   9.132 -0.0037 -0.7022  1.7449
 4714SOL     OW25600   0.375   3.539   9.188 -0.6781 -0.2313  0.0348
 4714SOL    HW125601   0.346   3.483   9.116 -0.2779 -0.4452  0.0389
 4714SOL    HW225602   0.406   3.617   9.140 -1.1518 -0.8399 -1.2545
 4715SOL     OW25603   1.601   3.083   9.004 -0.1696  0.1050 -0.0790
 4715SOL    HW125604   1.696   3.097   9.008 -0.1501  0.0086 -0.1721
 4715SOL    HW225605   1.584   3.175   8.987  1.9220  0.6633  0.8243
 4716SOL     OW25606   2.535   2.582   2.515 -0.0039  0.5074 -0.6454
 4716SOL    HW125607   2.631   2.578   2.520 -0.0662 -1.4856 -1.3182
 4716SOL    HW225608   2.525   2.652   2.580 -0.7475 -0.1160 -0.0947
 4717SOL     OW25609   4.021   0.727   4.866  0.8714 -0.1356  0.2359
 4717SOL    HW125610   3.954   0.778   4.912  0.1122 -1.0314  0.1143
 4717SOL    HW225611   4.041   0.776   4.787  1.6251 -2.4359 -1.0039
 4718SOL     OW25612   3.356   1.240   1.576 -0.1046 -0.4802 -0.0656
 4718SOL    HW125613   3.426   1.257   1.514 -0.5983  2.9643  0.3317
 4718SOL    HW225614   3.331   1.326   1.612 -0.2157 -1.5772  2.5102
 4719SOL     OW25615   2.065   2.686   1.882 -0.1617 -0.3386 -0.3294
 4719SOL    HW125616   2.036   2.777   1.884 -0.0966 -0.3353  0.7564
 4719SOL    HW225617   2.158   2.705   1.869  0.2183 -1.2741  0.9564
 4720SOL     OW25618   2.711   4.705   4.944  0.6647  0.0066 -0.1359
 4720SOL    HW125619   2.632   4.683   4.994 -0.2999  0.9171 -1.2899
 4720SOL    HW225620   2.738   4.615   4.924 -1.4647 -0.4592 -0.9038
 4721SOL     OW25621   4.010   3.422   6.299  0.0406 -0.4137  0.0405
 4721SOL    HW125622   4.068   3.403   6.373  0.2602  1.5339  0.3692
 4721SOL    HW225623   4.012   3.343   6.246 -1.6307 -0.8019  0.5773
 4722SOL     OW25624   0.724   2.354  13.232 -0.2009  0.1499  0.0351
 4722SOL    HW125625   0.672   2.363  13.311  0.8079 -0.7771  0.8168
 4722SOL    HW225626   0.804   2.320  13.273 -0.7074 -0.9929  0.0802
 4723SOL     OW25627   1.768   3.058  14.950 -0.9197  0.1309  0.2256
 4723SOL    HW125628   1.687   3.025  14.989 -1.3120 -2.3225 -2.6465
 4723SOL    HW225629   1.788   3.135  15.002  0.4945 -0.5825  0.7480
 4724SOL     OW25630   3.474   3.797  13.212  0.3197  0.6811  0.4339
 4724SOL    HW125631   3.403   3.825  13.270 -0.7256 -0.5773 -0.2319
 4724SOL    HW225632   3.438   3.710  13.193 -1.0240  1.3655 -0.1468
 4725SOL     OW25633   0.987   3.692   7.633 -0.2449 -0.5462  0.5535
 4725SOL    HW125634   0.974   3.637   7.710 -0.3244 -1.1474  0.1212
 4725SOL    HW225635   0.899   3.711   7.600 -0.3881 -0.6055  0.8972
 4726SOL     OW25636   0.145   3.035   3.093 -0.3271  0.2062  0.2506
 4726SOL    HW125637   0.189   3.112   3.057  2.3997 -1.6031 -0.2436
 4726SOL    HW225638   0.215   2.971   3.085 -0.3286  0.3372 -0.8121
 4727SOL     OW25639   4.227   4.617   8.854 -0.2117 -0.6735  0.3420
 4727SOL    HW125640   4.281   4.583   8.925  0.2809  0.9494  0.7329
 4727SOL    HW225641   4.290   4.641   8.786 -0.2620  2.0905  1.2752
 4728SOL     OW25642   0.171   3.623  17.240 -0.0121 -0.1393  0.3665
 4728SOL    HW125643   0.151   3.674  17.162 -0.6049  2.6662  2.3691
 4728SOL    HW225644   0.266   3.631  17.240  0.0060 -0.4021 -0.2312
 4729SOL     OW25645   1.551   2.281   6.650  0.1733  0.1267  0.2105
 4729SOL    HW125646   1.611   2.222   6.603 -2.3455 -0.6878 -1.9489
 4729SOL    HW225647   1.613   2.324   6.709 -1.5286  1.1168  1.2756
 4730SOL     OW25648   2.835   2.100   6.245  0.0025  0.0596  0.2688
 4730SOL    HW125649   2.868   2.156   6.315  3.3377 -0.4008 -0.9038
 4730SOL    HW225650   2.915   2.076   6.197 -1.0753  0.5203 -1.7512
 4731SOL     OW25651   3.144   1.105   5.430 -0.6011 -0.0466 -0.0717
 4731SOL    HW125652   3.160   1.053   5.509  0.4392 -2.1887 -1.7032
 4731SOL    HW225653   3.150   1.047   5.355  3.3869  0.2615  0.0402
 4732SOL     OW25654   1.496   1.163   3.327  0.1023  0.2808  0.2658
 4732SOL    HW125655   1.468   1.176   3.236  1.0401 -1.5255 -0.2841
 4732SOL    HW225656   1.432   1.211   3.379 -1.7694 -0.7312 -1.1098
 4733SOL     OW25657   0.390   0.652   7.437 -0.1892  0.1881  0.1197
 4733SOL    HW125658   0.420   0.715   7.371  0.3029 -0.4690 -0.2849
 4733SOL    HW225659   0.403   0.704   7.516 -0.8428  2.3726 -1.2268
 4734SOL     OW25660   3.687   0.260   7.088  0.2227 -0.1050 -0.7543
 4734SOL    HW125661   3.721   0.294   7.171  0.8605 -1.4554 -0.4600
 4734SOL    HW225662   3.668   0.167   7.104 -2.2751  0.4610 -0.5144
 4735SOL     OW25663   4.184   2.832   3.716  0.3605 -0.3507 -0.1868
 4735SOL    HW125664   4.271   2.868   3.735 -0.0367  0.3561  0.2566
 4735SOL    HW225665   4.127   2.909   3.722 -0.0089 -0.8386  2.6884
 4736SOL     OW25666   2.847   2.173   2.002  0.0139 -0.4224  0.1798
 4736SOL    HW125667   2.807   2.093   2.035  0.8568 -2.5070 -3.8048
 4736SOL    HW225668   2.940   2.167   2.025 -0.8509  0.9613  3.9432
 4737SOL     OW25669   0.532   1.625   5.162 -0.0884  0.5351 -0.1926
 4737SOL    HW125670   0.488   1.708   5.179 -1.7138 -0.5866  1.1337
 4737SOL    HW225671   0.459   1.565   5.147  0.1758 -0.4117  2.1794
 4738SOL     OW25672   1.902   3.525  10.155  0.3645 -0.3979 -0.2039
 4738SOL    HW125673   1.825   3.519  10.211  0.7246  0.8900  0.4569
 4738SOL    HW225674   1.921   3.432  10.144 -0.3457 -0.7077  1.1754
 4739SOL     OW25675   3.610   1.997   2.213 -0.0515  0.5727  0.3029
 4739SOL    HW125676   3.579   2.045   2.136 -0.5834  1.2339  0.9365
 4739SOL    HW225677   3.535   1.938   2.219 -0.9962  1.7236 -0.2341
 4740SOL     OW25678   4.084   3.939   6.587  0.1708  0.5440  0.1642
 4740SOL    HW125679   4.146   4.000   6.626  0.9344  1.7622 -3.0219
 4740SOL    HW225680   4.086   3.962   6.494 -0.7783 -3.6659 -0.9227
 4741SOL     OW25681   2.707   4.097  13.846 -0.4406  0.8196 -0.5997
 4741SOL    HW125682   2.729   4.147  13.767  0.7253  1.3071  0.0355
 4741SOL    HW225683   2.726   4.162  13.914  0.8047  2.3641 -2.4029
 4742SOL     OW25684   3.717   2.860   9.962  0.3141  0.0830 -0.8418
 4742SOL    HW125685   3.788   2.900   9.913  0.6636  1.8183  1.1044
 4742SOL    HW225686   3.709   2.774   9.919  0.8824 -1.6212  2.4451
 4743SOL     OW25687   4.560   0.146  10.217  0.0206  0.0486  0.7121
 4743SOL    HW125688   4.493   0.205  10.252 -0.6822 -0.2822 -0.0903
 4743SOL    HW225689   4.516   0.061  10.220  0.8468 -0.4158 -0.7441
 4744SOL     OW25690   0.674   3.072   8.846 -0.1455  0.0478  0.2461
 4744SOL    HW125691   0.765   3.067   8.876  0.6748  3.3852 -1.6666
 4744SOL    HW225692   0.670   2.984   8.809  1.0930 -0.6904  1.8851
 4745SOL     OW25693   4.242   4.716  16.149  0.1120  0.5723  0.6508
 4745SOL    HW125694   4.159   4.676  16.124  0.1018  2.4260 -2.2398
 4745SOL    HW225695   4.288   4.667  16.218 -0.3816 -0.1394  0.4778
 4746SOL     OW25696   0.992   0.774   9.094 -0.2111  0.6539 -0.8571
 4746SOL    HW125697   1.066   0.726   9.132 -1.7145 -1.8793 -1.1503
 4746SOL    HW225698   0.930   0.776   9.166  1.9267  0.2091  0.9913
 4747SOL     OW25699   2.662   3.032  11.791 -0.0573  0.5274 -0.4639
 4747SOL    HW125700   2.689   2.990  11.873  0.6839 -0.9638 -1.4751
 4747SOL    HW225701   2.572   3.007  11.773  0.0974 -0.9994  0.8932
 4748SOL     OW25702   2.108   3.772   2.607 -0.0110 -0.0934 -0.2118
 4748SOL    HW125703   2.028   3.823   2.616 -0.9278 -1.0499 -3.1512
 4748SOL    HW225704   2.086   3.696   2.661  1.4084 -1.5073 -1.6222
 4749SOL     OW25705   2.673   4.365   6.464  0.4864 -0.0276 -0.3853
 4749SOL    HW125706   2.760   4.373   6.426  0.1165 -0.8269 -1.4208
 4749SOL    HW225707   2.684   4.409   6.548  1.9476 -2.3835  0.6572
 4750SOL     OW25708   0.215   3.922   4.547 -0.2889  0.0951 -0.2963
 4750SOL    HW125709   0.239   3.956   4.633  0.7617  0.5258 -0.7524
 4750SOL    HW225710   0.211   4.002   4.493 -1.4403  0.9446  1.0471
 4751SOL     OW25711   2.535   0.663   8.010 -0.1161 -0.4830 -0.6173
 4751SOL    HW125712   2.625   0.635   7.995  0.2988 -0.1999  1.2916
 4751SOL    HW225713   2.523   0.732   7.945  0.3050  0.2058  0.0320
 4752SOL     OW25714   2.358   2.411   9.599 -0.5472  0.2588 -0.4633
 4752SOL    HW125715   2.412   2.409   9.520 -1.6614 -1.2677 -1.1939
 4752SOL    HW225716   2.368   2.322   9.633  0.6004  0.6830  0.2969
 4753SOL     OW25717   3.893   0.603  10.748 -0.0100 -0.1822 -1.1372
 4753SOL    HW125718   3.839   0.644  10.815  2.0991  0.7891 -0.0179
 4753SOL    HW225719   3.983   0.613  10.781 -0.5234  1.6168 -0.2647
 4754SOL     OW25720   1.792   0.131   0.820  0.0280  0.2656  0.3996
 4754SOL    HW125721   1.766   0.151   0.730  0.0056 -0.3584  0.2681
 4754SOL    HW225722   1.870   0.078   0.807  0.0285  0.8196 -1.8933
 4755SOL     OW25723   2.489   3.762   3.398 -0.2968  0.4173 -0.2496
 4755SOL    HW125724   2.425   3.692   3.388  0.4612 -0.5257  1.4963
 4755SOL    HW225725   2.474   3.785   3.489  0.7293 -0.2948  0.0964
 4756SOL     OW25726   2.489   3.750  17.422  0.2672 -0.4936  1.1358
 4756SOL    HW125727   2.431   3.719  17.352  2.3878 -0.3537 -0.6905
 4756SOL    HW225728   2.556   3.682  17.423  0.3486 -0.4092  1.2899
 4757SOL     OW25729   2.977   0.030   6.696  0.1250 -0.1609  0.3587
 4757SOL    HW125730   3.009   0.120   6.703 -0.4061  0.0623 -0.0545
 4757SOL    HW225731   2.882   0.042   6.696  0.4913  2.8236  1.7012
 4758SOL     OW25732   3.120   3.733  11.061 -0.5652 -0.2356 -0.4240
 4758SOL    HW125733   3.050   3.668  11.052  2.2393 -3.0999 -1.5656
 4758SOL    HW225734   3.060   3.802  11.089  0.5327  1.6921 -2.8385
 4759SOL     OW25735   3.506   1.617   6.974  0.2723  0.2502 -0.1845
 4759SOL    HW125736   3.436   1.620   6.908 -0.5084  1.1909  0.6914
 4759SOL    HW225737   3.538   1.530   6.950 -0.0116 -0.2744  1.3237
 4760SOL     OW25738   3.949   1.150  10.573  0.1915  0.4253 -0.0015
 4760SOL    HW125739   4.021   1.091  10.551 -0.4011 -0.0453 -0.6573
 4760SOL    HW225740   3.964   1.227  10.519 -0.0594  0.3029 -0.2448
 4761SOL     OW25741   4.143   1.735   3.028 -0.4956  0.0061  0.0284
 4761SOL    HW125742   4.236   1.716   3.021 -0.3082  0.8196  0.3398
 4761SOL    HW225743   4.151   1.822   3.068 -1.8903  0.1653 -0.0508
 4762SOL     OW25744   2.944   1.418  12.857 -0.0294  0.1804 -0.0761
 4762SOL    HW125745   2.939   1.514  12.858  1.7789  0.2495  1.5429
 4762SOL    HW225746   3.038   1.405  12.871 -0.0231 -2.3852 -2.4427
 4763SOL     OW25747   4.368   3.604   7.419  0.0328 -0.1359 -0.0006
 4763SOL    HW125748   4.300   3.603   7.352  0.5017 -0.8185 -0.4649
 4763SOL    HW225749   4.399   3.514   7.406 -0.1367 -0.3605  1.1826
 4764SOL     OW25750   1.966   1.042  15.637 -0.1220 -0.0343  0.3042
 4764SOL    HW125751   1.873   1.024  15.649 -0.7579  2.4736 -0.8921
 4764SOL    HW225752   1.961   1.113  15.574 -2.4653  0.6365  1.2435
 4765SOL     OW25753   2.130   3.800   5.282  0.1344 -0.4086  0.4296
 4765SOL    HW125754   2.045   3.831   5.313  0.9726  2.2359  0.0707
 4765SOL    HW225755   2.134   3.848   5.200  0.0195 -0.1994  0.5473
 4766SOL     OW25756   1.707   0.986  15.707 -0.0422 -0.1310 -0.4228
 4766SOL    HW125757   1.630   0.963  15.655 -1.4113  2.1304  0.6076
 4766SOL    HW225758   1.727   0.912  15.765 -3.1198 -1.6483 -1.3149
 4767SOL     OW25759   3.650   0.757   5.913 -0.1915  0.1335 -0.0866
 4767SOL    HW125760   3.726   0.771   5.970 -0.1068  0.4497 -0.2784
 4767SOL    HW225761   3.619   0.677   5.956  0.9345 -1.0149 -1.3742
 4768SOL     OW25762   2.847   1.094   1.353  0.1480  0.0308 -0.5127
 4768SOL    HW125763   2.897   1.012   1.346  2.1160  1.1282  0.8716
 4768SOL    HW225764   2.818   1.086   1.443 -3.2870  3.6143 -1.3062
 4769SOL     OW25765   2.457   3.527   3.092  0.0693  0.2759 -0.0418
 4769SOL    HW125766   2.397   3.466   3.136  2.5352 -1.2536  1.2258
 4769SOL    HW225767   2.460   3.496   3.002  3.7314  0.3631  0.0702
 4770SOL     OW25768   2.734   2.257  15.999  0.1165 -0.8813  0.3034
 4770SOL    HW125769   2.698   2.229  16.083  0.8983 -1.0180  0.5923
 4770SOL    HW225770   2.823   2.282  16.024 -1.0222  0.7250  2.7113
 4771SOL     OW25771   0.341   4.303  13.700  0.3881  0.2493  0.3891
 4771SOL    HW125772   0.407   4.270  13.762  1.4020 -0.6818 -1.1704
 4771SOL    HW225773   0.378   4.277  13.616  0.0888 -1.9592  0.9215
 4772SOL     OW25774   2.048   3.575   7.663 -0.2533  0.7692  0.2647
 4772SOL    HW125775   2.045   3.671   7.668 -0.3729  0.7610  0.3427
 4772SOL    HW225776   2.076   3.550   7.751 -2.1360 -1.2790  0.2689
 4773SOL     OW25777   1.906   0.400   6.301  0.0057 -0.2522  0.0961
 4773SOL    HW125778   1.991   0.359   6.314 -0.3904 -0.8426  0.7840
 4773SOL    HW225779   1.859   0.357   6.373 -2.5583  0.2511 -1.2552
 4774SOL     OW25780   2.958   3.862   7.012 -0.5152  0.6254  0.3568
 4774SOL    HW125781   3.015   3.869   6.935  0.2307 -1.5640  0.7270
 4774SOL    HW225782   2.890   3.807   6.974  1.1022 -0.5529 -0.8078
 4775SOL     OW25783   3.148   0.250   4.667  0.4036  0.5015  0.1784
 4775SOL    HW125784   3.243   0.255   4.661  0.4929 -0.6193  0.7728
 4775SOL    HW225785   3.128   0.236   4.575 -4.3148  1.3066  1.0731
 4776SOL     OW25786   2.368   1.931   9.652 -0.5773  0.1145  0.7696
 4776SOL    HW125787   2.424   1.883   9.713 -0.6528 -1.2287 -0.2359
 4776SOL    HW225788   2.413   2.012   9.628  0.0362 -1.0134 -1.8041
 4777SOL     OW25789   0.918   2.015  14.355 -0.4296 -0.3446 -0.4369
 4777SOL    HW125790   0.879   2.083  14.300 -1.5413  0.3143  1.1860
 4777SOL    HW225791   1.005   2.005  14.316 -0.6002  3.3785 -1.7831
 4778SOL     OW25792   4.236   0.912  11.307  0.5160 -0.0842  0.3128
 4778SOL    HW125793   4.154   0.945  11.345 -1.4764 -0.6955 -3.4219
 4778SOL    HW225794   4.217   0.929  11.215 -2.1683  0.7518  1.0018
 4779SOL     OW25795   2.122   1.764   2.333  0.1174 -0.8326 -0.0630
 4779SOL    HW125796   2.197   1.748   2.391  0.1429 -0.3419  0.0425
 4779SOL    HW225797   2.125   1.860   2.331 -2.5936 -0.7747 -0.5577
 4780SOL     OW25798   1.071   0.242   0.468  0.5025  0.1318  0.4498
 4780SOL    HW125799   1.143   0.297   0.436 -0.1302 -0.3918 -1.8908
 4780SOL    HW225800   1.014   0.313   0.498  1.5774  1.9544 -1.7026
 4781SOL     OW25801   4.511   3.672   5.329  0.1631 -0.1887 -0.2638
 4781SOL    HW125802   4.533   3.582   5.350 -3.7795 -0.9135  0.6885
 4781SOL    HW225803   4.586   3.673   5.270  1.4106  0.5056  1.3338
 4782SOL     OW25804   1.980   2.402   2.567  0.2908 -0.1135  0.0660
 4782SOL    HW125805   2.004   2.434   2.654  2.1948  1.2858 -0.9939
 4782SOL    HW225806   1.896   2.448   2.558 -0.7004 -1.7205  1.0856
 4783SOL     OW25807   3.446   3.012   9.471  0.5292  0.6058  0.1361
 4783SOL    HW125808   3.376   2.955   9.440  0.7994  0.4610 -0.2222
 4783SOL    HW225809   3.464   2.966   9.553  1.5366 -1.4331 -1.2248
 4784SOL     OW25810   4.241   0.033   1.612 -0.0037 -0.0890  0.0095
 4784SOL    HW125811   4.301   0.039   1.686  2.4574 -2.3154 -1.8177
 4784SOL    HW225812   4.288   0.005   1.533 -0.7879  2.0188 -1.2003
 4785SOL     OW25813   1.058   4.576  17.336 -0.0830 -0.1293  0.4197
 4785SOL    HW125814   0.990   4.542  17.278 -1.0809  0.4009  1.2792
 4785SOL    HW225815   1.016   4.593  17.420  2.0176 -0.8373  1.6234
 4786SOL     OW25816   2.704   1.016   3.769 -0.1137 -0.8240 -0.3148
 4786SOL    HW125817   2.748   0.932   3.757 -0.7363 -1.1193 -0.5087
 4786SOL    HW225818   2.780   1.073   3.759 -1.0738  0.4902 -0.2218
 4787SOL     OW25819   4.670   1.622   4.244  0.4032 -0.4333  0.6989
 4787SOL    HW125820   4.670   1.534   4.282 -0.7391  0.5450  2.9388
 4787SOL    HW225821   0.043   1.643   4.228  0.0804  1.1872  1.0218
 4788SOL     OW25822   3.951   1.937  15.556  0.0498 -0.3600 -0.0392
 4788SOL    HW125823   3.926   1.871  15.493  1.0408  0.8665 -1.7290
 4788SOL    HW225824   3.942   2.016  15.502  0.8799 -0.5913 -0.5184
 4789SOL     OW25825   3.546   4.135   5.013  0.2521  0.4018 -0.0303
 4789SOL    HW125826   3.600   4.110   5.087  0.5489 -1.8902 -1.0092
 4789SOL    HW225827   3.477   4.068   5.017 -0.9133  1.5999 -0.0001
 4790SOL     OW25828   1.807   1.144  12.453 -0.1839  0.0757  0.2143
 4790SOL    HW125829   1.831   1.052  12.454 -1.0586 -0.1756 -0.9015
 4790SOL    HW225830   1.892   1.187  12.462  0.3013 -1.0957  1.1731
 4791SOL     OW25831   0.150   0.739   2.724  0.1142 -0.1854  0.0018
 4791SOL    HW125832   0.077   0.716   2.781  1.9762 -2.1107  1.5862
 4791SOL    HW225833   0.227   0.706   2.769 -0.2365 -0.4702  0.3954
 4792SOL     OW25834   0.551   1.726   1.296 -0.1454  0.1992 -0.6405
 4792SOL    HW125835   0.529   1.682   1.379  0.2877  2.6495  0.7701
 4792SOL    HW225836   0.551   1.817   1.326 -1.5057 -0.9624  2.9778
 4793SOL     OW25837   0.628   0.986   5.020 -0.1291 -0.1755 -0.3105
 4793SOL    HW125838   0.535   0.968   5.009 -0.3261  1.7718 -1.7527
 4793SOL    HW225839   0.665   0.988   4.932  1.5118  0.8020  0.3952
 4794SOL     OW25840   2.627   2.710   5.933  0.0851  0.4820  0.0959
 4794SOL    HW125841   2.559   2.774   5.914 -0.1309 -0.1062 -1.0963
 4794SOL    HW225842   2.706   2.765   5.939 -1.4028  2.6575 -0.3571
 4795SOL     OW25843   3.701   3.684   8.815  0.3163  0.1682  0.1624
 4795SOL    HW125844   3.626   3.743   8.806  1.9548  2.3166  0.4714
 4795SOL    HW225845   3.756   3.701   8.739 -1.0959  0.0085 -0.8717
 4796SOL     OW25846   4.116   1.903   6.570  0.6824  0.2967  0.8400
 4796SOL    HW125847   4.039   1.961   6.563 -0.1411 -0.6603  2.0583
 4796SOL    HW225848   4.132   1.899   6.476 -3.4061  1.5308  0.0940
 4797SOL     OW25849   2.264   1.503  15.940  0.3605  0.0587  0.0674
 4797SOL    HW125850   2.339   1.450  15.967  0.3967 -1.7806 -3.5465
 4797SOL    HW225851   2.240   1.462  15.857 -0.1413  1.0439 -0.2696
 4798SOL     OW25852   3.371   2.563   2.938  0.6630  0.2579  0.0219
 4798SOL    HW125853   3.447   2.523   2.896  0.4463 -0.4853  0.3349
 4798SOL    HW225854   3.333   2.600   2.858  1.1160 -1.5750 -1.0257
 4799SOL     OW25855   4.119   4.519  16.406  1.0264 -0.0329 -0.3552
 4799SOL    HW125856   4.053   4.586  16.423 -0.4054 -1.5923  0.2731
 4799SOL    HW225857   4.197   4.574  16.400 -0.1435  1.6675  0.1961
 4800SOL     OW25858   1.936   0.821   5.343  0.2007  0.5809  0.3001
 4800SOL    HW125859   1.902   0.808   5.431 -0.2978 -2.5107 -0.3604
 4800SOL    HW225860   2.025   0.786   5.347  0.3322  0.9087  0.2579
 4801SOL     OW25861   0.947   3.481   3.070  0.2404  0.0424 -0.3923
 4801SOL    HW125862   0.906   3.409   3.118  2.0167 -0.5167  0.2990
 4801SOL    HW225863   0.939   3.447   2.981 -2.0793  3.0399 -1.2953
 4802SOL     OW25864   4.412   1.871   9.440  0.1798 -0.2127  0.4984
 4802SOL    HW125865   4.341   1.855   9.502 -1.0127 -0.5294 -0.9751
 4802SOL    HW225866   4.483   1.896   9.499  0.8724 -3.2063  0.9498
 4803SOL     OW25867   3.987   2.635   6.482  0.0755 -0.0233  0.9478
 4803SOL    HW125868   3.918   2.571   6.463  0.3097  0.3526 -1.1281
 4803SOL    HW225869   3.966   2.706   6.421  3.0618 -0.6284 -0.7705
 4804SOL     OW25870   0.086   1.103   0.881 -0.3554 -0.1623 -0.1571
 4804SOL    HW125871   0.017   1.058   0.929 -1.6063  0.0189 -1.8183
 4804SOL    HW225872   0.065   1.193   0.904  3.1732  0.1630  1.8556
 4805SOL     OW25873   0.885   3.774  10.352 -0.1883 -0.1321 -0.4085
 4805SOL    HW125874   0.872   3.857  10.399  0.3244 -1.2934  1.8012
 4805SOL    HW225875   0.901   3.805  10.263  0.7923  1.3452  0.2902
 4806SOL     OW25876   2.315   0.537   4.872 -0.5771 -0.1437  0.3067
 4806SOL    HW125877   2.238   0.581   4.836 -0.5491 -1.0345 -0.8468
 4806SOL    HW225878   2.306   0.445   4.847 -0.1194  0.5943 -2.5184
 4807SOL     OW25879   4.032   0.668   0.318  0.3246 -0.4172 -0.0099
 4807SOL    HW125880   4.122   0.634   0.316 -0.0301 -1.2832 -0.9745
 4807SOL    HW225881   4.038   0.752   0.273 -0.9814 -0.2931  0.0512
 4808SOL     OW25882   1.972   3.391  15.929  0.2252 -0.0254 -0.0614
 4808SOL    HW125883   2.013   3.476  15.944 -1.3557  0.6306  0.5869
 4808SOL    HW225884   1.988   3.351  16.015  2.3654 -1.5700 -1.1793
 4809SOL     OW25885   0.503   2.925   2.002 -0.4268  0.6154  0.6557
 4809SOL    HW125886   0.483   3.014   2.031  1.1513  2.0198 -2.5944
 4809SOL    HW225887   0.598   2.920   2.011 -0.3679  0.7589  0.1301
 4810SOL     OW25888   1.335   4.436  15.536  0.6532  0.1806 -0.3325
 4810SOL    HW125889   1.307   4.436  15.627  2.0530  0.2192  0.0941
 4810SOL    HW225890   1.275   4.373  15.497  1.4329  0.1928 -1.5566
 4811SOL     OW25891   0.662   0.435   6.985 -0.5244  0.7767  0.6773
 4811SOL    HW125892   0.620   0.374   7.046 -0.2982  0.1063  0.1698
 4811SOL    HW225893   0.609   0.416   6.907  2.9367 -0.2721 -1.4659
 4812SOL     OW25894   0.866   2.928   7.329 -0.1187  0.1398 -0.1843
 4812SOL    HW125895   0.774   2.952   7.343 -0.0710  1.1097 -1.5101
 4812SOL    HW225896   0.879   2.855   7.391  0.3610 -0.0119 -0.4609
 4813SOL     OW25897   3.173   1.869  10.358 -0.2727 -0.1287  0.0968
 4813SOL    HW125898   3.213   1.782  10.355  2.1257  0.9692  0.1357
 4813SOL    HW225899   3.245   1.907  10.308 -1.2569  1.6197  0.0159
 4814SOL     OW25900   3.621   1.414   2.361 -0.1731  0.1913  0.2580
 4814SOL    HW125901   3.610   1.360   2.439 -1.7095  0.8874  0.5420
 4814SOL    HW225902   3.534   1.454   2.350  0.1259  1.1301  1.2445
 4815SOL     OW25903   4.656   2.824   7.036  0.0793  0.1287  0.2217
 4815SOL    HW125904   0.031   2.821   7.054 -0.4148 -1.5017  2.5371
 4815SOL    HW225905   4.618   2.775   7.109  0.2928 -0.0120  0.2404
 4816SOL     OW25906   4.159   2.385   9.266 -0.5945 -0.0088  0.5423
 4816SOL    HW125907   4.216   2.320   9.306 -3.2225 -1.1218  2.5352
 4816SOL    HW225908   4.099   2.397   9.340 -1.6111 -2.0234  0.0606
 4817SOL     OW25909   3.047   3.918  13.585 -0.1891  0.4119 -0.0286
 4817SOL    HW125910   2.965   3.961  13.561  0.8765  1.7588 -1.2037
 4817SOL    HW225911   3.099   3.989  13.622  0.3328 -0.2457  0.5119
 4818SOL     OW25912   3.061   4.442   2.946  0.4302 -0.6322  0.4568
 4818SOL    HW125913   3.061   4.423   2.852  0.4676  1.3005  0.0741
 4818SOL    HW225914   3.152   4.437   2.976  0.5968 -0.7916 -0.0775
 4819SOL     OW25915   3.958   3.739   4.427  0.2373 -0.1559  0.5939
 4819SOL    HW125916   3.879   3.729   4.480 -0.1921  0.1255  0.0077
 4819SOL    HW225917   3.959   3.664   4.366 -0.1940  0.7361 -0.5092
 4820SOL     OW25918   3.049   0.627   7.059  0.5597  0.1142 -0.1647
 4820SOL    HW125919   3.116   0.671   7.112  1.2662  1.1538 -1.9289
 4820SOL    HW225920   3.066   0.535   7.081 -0.5089 -0.3299 -1.2175
 4821SOL     OW25921   0.177   0.216   7.381 -0.2736  0.7183  0.0235
 4821SOL    HW125922   0.207   0.307   7.383  0.9640  0.2687  1.6312
 4821SOL    HW225923   0.255   0.172   7.349 -1.1944 -1.9966  1.5512
 4822SOL     OW25924   1.241   2.722   7.817  0.4586  0.2295 -0.1457
 4822SOL    HW125925   1.307   2.762   7.760 -1.4220  1.8448 -1.1948
 4822SOL    HW225926   1.279   2.745   7.902  0.0377  0.8846 -0.1329
 4823SOL     OW25927   3.549   3.247   6.381  0.0261 -0.5838 -0.1228
 4823SOL    HW125928   3.533   3.340   6.363  0.8757 -0.4789 -0.3366
 4823SOL    HW225929   3.564   3.244   6.475  2.7402 -0.6794 -0.5718
 4824SOL     OW25930   2.520   2.369   8.471  0.1816 -0.5185 -0.0851
 4824SOL    HW125931   2.475   2.439   8.423  0.1569 -2.6991 -3.2924
 4824SOL    HW225932   2.547   2.308   8.402 -0.4091 -3.1532  1.9969
 4825SOL     OW25933   1.195   0.983   3.956 -0.3602 -0.0851  0.2611
 4825SOL    HW125934   1.265   1.048   3.952 -2.2869  1.9925  0.2195
 4825SOL    HW225935   1.201   0.960   3.863 -1.0669  2.4287 -0.4001
 4826SOL     OW25936   3.937   4.621   3.361  0.5530  0.3770 -0.3895
 4826SOL    HW125937   3.971   4.710   3.356 -1.3062  1.1640  1.1896
 4826SOL    HW225938   4.010   4.584   3.411  0.3333  0.7237  0.1914
 4827SOL     OW25939   4.681   0.800   5.510  0.4220 -0.6861  0.0774
 4827SOL    HW125940   4.605   0.746   5.490 -0.8168  0.2804  2.1355
 4827SOL    HW225941   4.646   0.890   5.505  0.0727 -0.7525  1.3300
 4828SOL     OW25942   3.527   3.966   3.115  0.0569 -0.6957 -0.2227
 4828SOL    HW125943   3.473   3.916   3.177 -1.7344 -0.5167 -1.6457
 4828SOL    HW225944   3.554   4.028   3.182 -2.8622 -1.0274  1.2627
 4829SOL     OW25945   3.071   1.693   6.206 -0.0025  0.6398  0.1860
 4829SOL    HW125946   3.128   1.770   6.203  0.7337  0.0359 -1.4108
 4829SOL    HW225947   2.994   1.735   6.244 -0.9927 -0.0099 -1.0725
 4830SOL     OW25948   2.803   3.529  13.769 -0.4019 -0.0356  0.2096
 4830SOL    HW125949   2.818   3.556  13.678 -0.0018  0.2743  0.3646
 4830SOL    HW225950   2.889   3.499  13.799 -1.2926 -1.3538  1.4472
 4831SOL     OW25951   0.212   1.221   3.234 -0.2054 -0.6005  0.0781
 4831SOL    HW125952   0.222   1.311   3.203  0.9798 -0.1692  1.7178
 4831SOL    HW225953   0.302   1.197   3.258  0.2552 -0.1777 -1.2042
 4832SOL     OW25954   3.596   4.093   3.364 -0.4611 -0.0430  0.1285
 4832SOL    HW125955   3.661   4.030   3.393 -0.3488 -0.9281 -2.0354
 4832SOL    HW225956   3.575   4.128   3.451  0.5351  1.3087 -0.1800
 4833SOL     OW25957   2.931   3.386  12.958 -0.1110  0.6243 -0.7760
 4833SOL    HW125958   2.997   3.444  12.920  0.0278  0.2662 -1.0873
 4833SOL    HW225959   2.883   3.443  13.018 -0.9653  0.5469 -1.3883
 4834SOL     OW25960   0.176   3.997  16.929 -0.1055  0.1023  0.3169
 4834SOL    HW125961   0.253   4.023  16.980  0.3504 -2.5948  0.9949
 4834SOL    HW225962   0.163   3.905  16.952 -1.0827  0.0884 -0.2951
 4835SOL     OW25963   3.857   4.389  10.425 -1.3290  0.5409 -0.7190
 4835SOL    HW125964   3.899   4.434  10.498 -1.2979  1.8929 -1.5817
 4835SOL    HW225965   3.816   4.466  10.385  0.0813  1.6381 -0.0344
 4836SOL     OW25966   3.506   2.423   5.754  0.2444  0.5081 -0.0247
 4836SOL    HW125967   3.422   2.412   5.709  0.4816 -2.3274  0.1932
 4836SOL    HW225968   3.504   2.515   5.781 -1.1465  1.0348 -1.9647
 4837SOL     OW25969   3.104   3.045  14.042  0.3114 -0.1452 -0.0947
 4837SOL    HW125970   3.196   3.046  14.015 -0.3438  0.2684 -2.3700
 4837SOL    HW225971   3.059   2.981  13.987  0.0561 -0.1911  0.1667
 4838SOL     OW25972   3.792   1.836   4.716  0.2110 -0.2861  0.4706
 4838SOL    HW125973   3.772   1.763   4.657  1.8289 -1.6179  1.5614
 4838SOL    HW225974   3.845   1.787   4.779  0.2086 -2.5926 -1.3112
 4839SOL     OW25975   1.695   0.297   5.047 -0.2575  0.5971 -0.4759
 4839SOL    HW125976   1.752   0.351   5.102  1.2070 -0.3157 -1.1048
 4839SOL    HW225977   1.684   0.219   5.101 -0.4948  1.5570  0.8773
 4840SOL     OW25978   0.851   2.538   6.744 -0.6832 -0.2759  0.4898
 4840SOL    HW125979   0.876   2.523   6.835  0.4952  1.5108  0.4669
 4840SOL    HW225980   0.814   2.626   6.740 -2.3840 -1.0083  0.2058
 4841SOL     OW25981   0.356   4.448   4.257 -0.3979  0.2803  0.0611
 4841SOL    HW125982   0.285   4.395   4.295  0.8851  0.6390  2.9494
 4841SOL    HW225983   0.318   4.535   4.269  2.3925  1.5956 -0.5391
 4842SOL     OW25984   1.166   3.449  12.558  0.0481  0.2962  0.5491
 4842SOL    HW125985   1.199   3.536  12.534 -0.9481  0.9670  1.6243
 4842SOL    HW225986   1.104   3.474  12.626 -0.6948 -0.5872  0.2000
 4843SOL     OW25987   4.573   1.001   5.210 -0.3205  0.7593  0.0158
 4843SOL    HW125988   4.602   0.923   5.164 -2.7646 -1.4471  2.1971
 4843SOL    HW225989   4.492   0.963   5.244  0.2597  0.5682  1.1672
 4844SOL     OW25990   0.172   0.724  10.088  0.1347 -0.3239 -0.1130
 4844SOL    HW125991   0.132   0.662  10.028  3.6540 -0.8517 -1.8644
 4844SOL    HW225992   0.247   0.677  10.123  0.8081  1.1693  0.4827
 4845SOL     OW25993   0.461   1.267   4.582  0.3809  0.1435  0.4496
 4845SOL    HW125994   0.438   1.259   4.675 -1.7814 -1.9793 -0.2456
 4845SOL    HW225995   0.509   1.186   4.565 -0.9406 -0.3961 -0.7475
 4846SOL     OW25996   1.691   0.046  10.562  0.2165  0.2677  0.1079
 4846SOL    HW125997   1.632   0.119  10.582 -2.9234 -1.6915 -2.0094
 4846SOL    HW225998   1.637   4.695  10.524 -0.5462  0.8202  0.1705
 4847SOL     OW25999   3.487   0.160   4.877  0.0574  0.2124  0.0900
 4847SOL    HW126000   3.524   0.166   4.789 -1.5783 -0.3705 -0.6277
 4847SOL    HW226001   3.464   0.067   4.878  1.6261 -0.1683  0.3783
 4848SOL     OW26002   3.413   2.169   2.515  0.4515  0.3469  0.3060
 4848SOL    HW126003   3.492   2.204   2.473 -0.1959 -0.3775 -1.5184
 4848SOL    HW226004   3.395   2.239   2.577  0.4235 -0.1071  0.8049
 4849SOL     OW26005   0.747   2.477  10.278 -0.0482 -0.1206  0.3707
 4849SOL    HW126006   0.749   2.401  10.220  1.0180  0.0615  0.1764
 4849SOL    HW226007   0.686   2.530  10.225 -2.0095 -3.3959 -0.6303
 4850SOL     OW26008   0.819   1.473   7.486  0.7937 -0.1123 -0.2596
 4850SOL    HW126009   0.724   1.471   7.476  0.6057  0.6588  1.2614
 4850SOL    HW226010   0.840   1.566   7.494 -0.7960  0.1699  0.8330
 4851SOL     OW26011   2.779   0.254   5.071 -0.3029  0.0558  0.4274
 4851SOL    HW126012   2.694   0.210   5.064 -0.1260 -0.5000  1.8095
 4851SOL    HW226013   2.814   0.238   4.983  1.1842  2.3787  0.5800
 4852SOL     OW26014   2.423   3.638   0.771  0.1164  0.3995  0.0302
 4852SOL    HW126015   2.447   3.685   0.851  1.5788  0.9151 -0.7100
 4852SOL    HW226016   2.394   3.563   0.823 -0.7264  1.7922  1.5728
 4853SOL     OW26017   0.270   4.075   4.753  0.3876 -0.2177 -0.5393
 4853SOL    HW126018   0.315   4.096   4.835 -0.8287 -3.5544  1.0047
 4853SOL    HW226019   0.186   4.119   4.760  0.6116 -0.3330  2.8967
 4854SOL     OW26020   1.313   3.156  14.920  0.0230 -0.5894  0.0538
 4854SOL    HW126021   1.405   3.142  14.898 -0.2751 -1.6183 -0.5085
 4854SOL    HW226022   1.295   3.241  14.881 -1.6502 -0.6835  0.6222
 4855SOL     OW26023   1.707   2.852   8.692 -0.2389  0.8077 -0.5716
 4855SOL    HW126024   1.735   2.772   8.648 -0.5929 -0.1104  0.8475
 4855SOL    HW226025   1.735   2.832   8.781  0.5071 -2.6733 -1.5944
 4856SOL     OW26026   3.186   2.268   8.605 -0.4118 -0.3723  0.4788
 4856SOL    HW126027   3.260   2.210   8.620  1.4295  1.6229 -0.8832
 4856SOL    HW226028   3.175   2.274   8.510 -1.9034  1.6476  0.7796
 4857SOL     OW26029   4.006   2.513  10.912 -0.5090 -0.0565  0.7113
 4857SOL    HW126030   4.028   2.606  10.908  0.7033 -0.4936 -2.2679
 4857SOL    HW226031   3.998   2.494  10.819  1.1724 -0.6994  0.6989
 4858SOL     OW26032   1.505   3.332   6.209  0.0848  0.0954  0.0334
 4858SOL    HW126033   1.482   3.414   6.254  0.7336  1.0777 -1.4338
 4858SOL    HW226034   1.520   3.277   6.286  2.6005  0.1101 -0.4299
 4859SOL     OW26035   0.454   4.478  17.612  0.0607  0.0083  0.1964
 4859SOL    HW126036   0.430   4.391  17.580 -0.0110  0.2509 -0.4132
 4859SOL    HW226037   0.549   4.476  17.624  0.1994 -0.3423 -0.9562
 4860SOL     OW26038   0.994   1.998  14.813  0.1904  0.2775 -0.6353
 4860SOL    HW126039   1.080   2.039  14.813 -0.0426  0.7752  0.7884
 4860SOL    HW226040   0.996   1.948  14.895  0.2076  0.2160 -0.6736
 4861SOL     OW26041   1.872   2.382   7.539  0.0532  0.3944 -0.3940
 4861SOL    HW126042   1.956   2.413   7.505  0.9199  0.9419  2.2814
 4861SOL    HW226043   1.854   2.459   7.593 -0.0352 -0.9702  1.5339
 4862SOL     OW26044   4.046   1.560   2.584  0.4870  0.2277  0.7261
 4862SOL    HW126045   3.953   1.545   2.566  0.1497  2.9118  0.2736
 4862SOL    HW226046   4.057   1.501   2.659 -0.9160 -0.6928  0.2107
 4863SOL     OW26047   3.991   0.934   3.543 -0.4369 -0.3451 -0.2700
 4863SOL    HW126048   4.040   0.868   3.494 -0.0396  0.8689 -1.5167
 4863SOL    HW226049   3.923   0.948   3.477  0.8579 -0.1796 -1.5684
 4864SOL     OW26050   1.561   3.454   5.551  0.0485  0.0273 -0.2745
 4864SOL    HW126051   1.524   3.481   5.636 -0.6441 -1.5088 -0.0939
 4864SOL    HW226052   1.586   3.542   5.521 -0.8029  0.1763 -0.5685
 4865SOL     OW26053   3.458   0.843   2.707 -0.1419 -0.2205  0.3172
 4865SOL    HW126054   3.447   0.933   2.678 -0.6923 -0.5464 -0.4904
 4865SOL    HW226055   3.384   0.798   2.667 -1.7593 -0.0763  3.1665
 4866SOL     OW26056   1.756   4.357   8.471  0.3301  0.4773 -0.4585
 4866SOL    HW126057   1.803   4.439   8.483  2.5053 -0.8480 -0.0198
 4866SOL    HW226058   1.793   4.332   8.386  3.3232 -0.7660  1.2161
 4867SOL     OW26059   2.548   1.863   8.635  0.3073  0.7531  0.4345
 4867SOL    HW126060   2.616   1.860   8.703 -0.1638 -0.2826  0.8616
 4867SOL    HW226061   2.530   1.957   8.630 -0.0706  0.6538 -0.0950
 4868SOL     OW26062   1.202   2.401  12.346  0.2454 -0.2464 -0.2542
 4868SOL    HW126063   1.121   2.452  12.342 -1.1500 -2.5364 -1.6134
 4868SOL    HW226064   1.217   2.390  12.440 -0.1386 -2.6592 -0.4727
 4869SOL     OW26065   0.121   3.843   8.081 -0.6307 -0.0410 -0.0871
 4869SOL    HW126066   0.110   3.841   7.986  0.2571 -1.8437 -0.1564
 4869SOL    HW226067   0.215   3.834   8.093 -0.4507  1.3132 -0.4834
 4870SOL     OW26068   0.764   4.649   2.510  0.4066  0.3350  0.1776
 4870SOL    HW126069   0.753   4.562   2.548 -3.6710  0.7633 -0.0394
 4870SOL    HW226070   0.673   4.663   2.486  0.7006 -1.1236 -1.7611
 4871SOL     OW26071   4.636   4.214  14.852  0.4027  0.0877  0.1206
 4871SOL    HW126072   4.634   4.295  14.801 -0.2522  0.7920  1.2664
 4871SOL    HW226073   4.550   4.232  14.889  0.3685 -0.3624  0.2606
 4872SOL     OW26074   3.110   2.300   5.185  0.1327  0.6442 -0.0969
 4872SOL    HW126075   3.119   2.304   5.089 -0.0295  1.6720 -0.0698
 4872SOL    HW226076   3.119   2.206   5.201 -0.1846  1.2082  3.2348
 4873SOL     OW26077   4.300   3.855   3.873  0.4925 -0.4342 -0.8426
 4873SOL    HW126078   4.235   3.896   3.817  1.8981 -0.2033 -2.3076
 4873SOL    HW226079   4.347   3.795   3.814 -1.6047  0.1749 -3.0960
 4874SOL     OW26080   0.921   3.557   8.387 -0.2023  0.2239  0.1466
 4874SOL    HW126081   0.956   3.615   8.455 -1.1347  0.1059  0.7292
 4874SOL    HW226082   0.999   3.520   8.346 -2.3322 -4.7853  0.6631
 4875SOL     OW26083   2.975   2.753   6.191 -0.4392 -0.3118 -0.0989
 4875SOL    HW126084   2.894   2.802   6.202 -0.8729 -1.0031 -0.2198
 4875SOL    HW226085   2.994   2.715   6.277 -0.8139 -0.1270  0.0620
 4876SOL     OW26086   4.087   2.175   2.403  0.0479  0.0688 -0.1605
 4876SOL    HW126087   4.047   2.097   2.366 -0.3429  0.1870  0.0156
 4876SOL    HW226088   4.109   2.220   2.321 -0.2367 -0.0603 -0.3046
 4877SOL     OW26089   2.810   3.080  17.328 -0.4927  0.1495  0.3930
 4877SOL    HW126090   2.732   3.079  17.384 -1.0317 -0.4406 -0.3571
 4877SOL    HW226091   2.803   2.993  17.290  1.9645 -0.2585  0.9100
 4878SOL     OW26092   3.210   1.050   4.915  0.1655  0.4420 -0.0258
 4878SOL    HW126093   3.147   1.033   4.845 -1.2492  2.4177  0.7979
 4878SOL    HW226094   3.203   1.145   4.924  1.1477  0.2700  2.7398
 4879SOL     OW26095   2.797   2.919  12.604 -0.1813 -0.0168 -0.0714
 4879SOL    HW126096   2.705   2.905  12.579 -0.8210  2.9343  0.5577
 4879SOL    HW226097   2.818   2.995  12.550 -0.8038  1.3642  1.5908
 4880SOL     OW26098   2.901   3.689  12.068  0.1996  0.2258 -0.3415
 4880SOL    HW126099   2.892   3.711  11.975  1.7432  0.4972 -0.4352
 4880SOL    HW226100   2.840   3.750  12.109  0.1705  0.3502 -0.5719
 4881SOL     OW26101   0.881   4.119   8.914 -0.1885 -0.0772  0.5795
 4881SOL    HW126102   0.795   4.076   8.923  0.5808 -2.1435 -1.7684
 4881SOL    HW226103   0.948   4.051   8.928 -1.9504 -2.3790 -2.0533
 4882SOL     OW26104   3.235   1.195   9.346 -0.0987  0.1692 -0.2080
 4882SOL    HW126105   3.256   1.171   9.436 -1.7832 -3.2170 -0.7323
 4882SOL    HW226106   3.245   1.111   9.302  0.1387 -0.7553  1.6234
 4883SOL     OW26107   2.414   3.803  15.221  0.1867 -0.8242 -0.2509
 4883SOL    HW126108   2.377   3.717  15.203 -0.5327 -0.7651  0.9454
 4883SOL    HW226109   2.364   3.859  15.162  0.7830 -2.2647 -2.1164
 4884SOL     OW26110   1.681   3.505   4.439  0.6475 -0.1718 -1.1384
 4884SOL    HW126111   1.678   3.594   4.475  1.7260 -0.8706  0.6203
 4884SOL    HW226112   1.741   3.461   4.499 -2.7054 -0.4356  1.9814
 4885SOL     OW26113   4.016   4.195   6.778 -0.6382  0.7509 -0.0483
 4885SOL    HW126114   3.929   4.159   6.758 -0.6711  1.5754 -1.4243
 4885SOL    HW226115   4.042   4.142   6.853 -0.0680  1.1523  0.0385
 4886SOL     OW26116   0.357   4.088   3.400 -0.1104 -0.1186 -0.3819
 4886SOL    HW126117   0.388   4.047   3.319 -0.4169 -3.0061  0.9790
 4886SOL    HW226118   0.320   4.012   3.445 -0.3625  0.8791  1.0670
 4887SOL     OW26119   1.442   3.540   2.334  0.2154  0.1968  0.4449
 4887SOL    HW126120   1.432   3.607   2.401  0.0610  1.4658 -0.8460
 4887SOL    HW226121   1.515   3.493   2.374 -1.5586 -2.0404  1.1043
 4888SOL     OW26122   3.055   4.521  12.906  0.2206 -0.3249  0.2172
 4888SOL    HW126123   2.977   4.559  12.865 -1.0093 -0.9857  1.9172
 4888SOL    HW226124   3.112   4.494  12.835  1.2993  1.9047  0.2463
 4889SOL     OW26125   0.895   1.721   7.561 -0.7393  0.2269 -0.0199
 4889SOL    HW126126   0.890   1.790   7.627 -1.0498  0.6659 -0.5111
 4889SOL    HW226127   0.942   1.761   7.488 -0.5430  0.6101  0.3129
 4890SOL     OW26128   1.549   3.637   5.045  0.1733 -0.0575  0.1404
 4890SOL    HW126129   1.508   3.551   5.035  0.2391 -0.0501 -0.1772
 4890SOL    HW226130   1.530   3.667   5.134  0.2794  0.8562 -0.1528
 4891SOL     OW26131   2.788   0.851   6.454  0.6604 -0.4361  0.3545
 4891SOL    HW126132   2.772   0.921   6.390  0.3178  0.2655  1.2178
 4891SOL    HW226133   2.874   0.879   6.485  1.7143 -1.0060 -2.0319
 4892SOL     OW26134   1.002   0.843   7.540 -0.0438  0.1509  0.2028
 4892SOL    HW126135   0.910   0.869   7.553 -0.4516 -1.3067  0.2179
 4892SOL    HW226136   0.994   0.810   7.450  0.1799  1.3324 -0.2551
 4893SOL     OW26137   1.525   3.060   4.028  0.6334  0.1246 -0.2278
 4893SOL    HW126138   1.567   2.975   4.041 -1.1142 -0.5750  0.8032
 4893SOL    HW226139   1.603   3.116   4.035  0.6707  0.4184 -2.7585
 4894SOL     OW26140   0.079   1.068   8.430  0.3143 -0.0369  0.2661
 4894SOL    HW126141   0.105   0.984   8.393  1.7180  0.4503  0.1693
 4894SOL    HW226142   0.014   1.099   8.367 -0.3954 -1.4738  0.2879
 4895SOL     OW26143   3.737   3.046   9.151 -0.1704 -0.4880  0.5142
 4895SOL    HW126144   3.786   3.115   9.107  0.0640 -0.9250  0.0761
 4895SOL    HW226145   3.718   3.102   9.226  3.0482  2.1463 -0.6697
 4896SOL     OW26146   1.673   2.214   7.655  0.1203 -0.1077  0.1486
 4896SOL    HW126147   1.649   2.248   7.741 -0.4963  0.8042 -0.3911
 4896SOL    HW226148   1.740   2.274   7.622  0.0779  1.1449  2.3771
 4897SOL     OW26149   2.376   2.171   2.157 -0.1286  0.1416  0.1919
 4897SOL    HW126150   2.467   2.144   2.171  0.3290  2.5041  1.7939
 4897SOL    HW226151   2.328   2.142   2.235 -1.6372  0.2434 -0.6913
 4898SOL     OW26152   1.580   4.466   7.395  0.2463  0.2640 -0.1551
 4898SOL    HW126153   1.526   4.426   7.327  1.6204  0.3356 -1.2863
 4898SOL    HW226154   1.571   4.560   7.381 -1.6374  0.1656  0.4243
 4899SOL     OW26155   0.883   2.538   4.460  0.4782  0.2766  0.1178
 4899SOL    HW126156   0.878   2.614   4.402 -2.2334 -0.6252 -0.8149
 4899SOL    HW226157   0.954   2.493   4.413  0.2674 -0.1670  0.2249
 4900SOL     OW26158   3.521   3.071  15.320 -0.5500 -0.1463 -0.1195
 4900SOL    HW126159   3.547   3.131  15.250 -0.5833  1.5938  1.3801
 4900SOL    HW226160   3.489   2.993  15.275 -2.0160 -0.2413  1.1183
 4901SOL     OW26161   4.416   1.567   3.243  0.1540 -0.2343  0.2608
 4901SOL    HW126162   4.416   1.500   3.312 -1.2283  0.1308  0.6088
 4901SOL    HW226163   4.443   1.515   3.167 -0.5286 -0.0127 -0.1293
 4902SOL     OW26164   2.274   4.640   1.235  0.0993  0.4302 -0.2889
 4902SOL    HW126165   2.236   4.683   1.159  1.3742 -4.4679 -3.6925
 4902SOL    HW226166   2.202   4.645   1.298  0.1168 -0.0132 -0.2337
 4903SOL     OW26167   3.464   2.336  15.243 -0.3160  0.4735  0.5119
 4903SOL    HW126168   3.509   2.332  15.158 -0.1798  2.2822  0.5099
 4903SOL    HW226169   3.376   2.364  15.219 -0.3550  0.7304  0.9669
 4904SOL     OW26170   3.033   0.973   6.454  0.0777 -0.5913 -0.6222
 4904SOL    HW126171   3.120   0.939   6.475  0.3769  0.3444 -0.3411
 4904SOL    HW226172   3.046   1.010   6.367 -0.5201  0.2773 -0.3410
 4905SOL     OW26173   3.341   0.631   7.781 -0.3117 -0.3573 -0.3091
 4905SOL    HW126174   3.329   0.552   7.729  1.6826 -1.4242  0.8778
 4905SOL    HW226175   3.419   0.675   7.747  0.9590 -1.7864  0.7480
 4906SOL     OW26176   3.857   3.273   8.676  0.0728  0.3961  0.1982
 4906SOL    HW126177   3.856   3.350   8.620 -2.7289  1.4486  1.6835
 4906SOL    HW226178   3.895   3.314   8.754  1.6536 -4.0909  1.8302
 4907SOL     OW26179   0.314   4.680   6.973  0.1691 -0.2968 -0.5184
 4907SOL    HW126180   0.318   0.055   6.955  0.5529 -0.3748 -0.8373
 4907SOL    HW226181   0.392   4.679   7.029 -1.3756 -0.5103  1.6351
 4908SOL     OW26182   2.579   1.895   7.792  0.1903  0.2854 -0.0571
 4908SOL    HW126183   2.581   1.801   7.808  0.1905  0.6068  1.7770
 4908SOL    HW226184   2.666   1.921   7.821  0.6199  1.4257 -2.3468
 4909SOL     OW26185   3.067   3.221   5.870  0.3323 -0.8514 -0.7653
 4909SOL    HW126186   3.057   3.279   5.946 -0.5532 -1.8686 -0.1122
 4909SOL    HW226187   2.991   3.247   5.818 -0.9430 -0.6210  1.2009
 4910SOL     OW26188   1.139   1.349   1.001 -0.3562 -0.2112 -0.3729
 4910SOL    HW126189   1.107   1.336   1.091  0.5272  1.6845  0.2149
 4910SOL    HW226190   1.199   1.274   0.999  0.3398  0.2299  2.8436
 4911SOL     OW26191   0.330   0.159   5.757 -0.4705  0.3859 -0.0000
 4911SOL    HW126192   0.235   0.167   5.750 -0.4435  0.7493  0.0581
 4911SOL    HW226193   0.356   0.227   5.695  0.2042 -0.0928 -0.2385
 4912SOL     OW26194   3.318   1.923  14.459  0.4538 -0.3757 -0.0507
 4912SOL    HW126195   3.353   1.914  14.547 -1.9747 -0.8183  0.8474
 4912SOL    HW226196   3.303   1.830  14.440  1.2470 -0.4342 -0.4272
 4913SOL     OW26197   0.941   2.501   7.201  0.2578 -0.1257 -0.1553
 4913SOL    HW126198   0.909   2.458   7.280  0.5823 -1.6223 -0.8520
 4913SOL    HW226199   0.997   2.567   7.243 -1.3383  0.5079  1.0031
 4914SOL     OW26200   1.592   2.975   7.872  0.6476  0.0653 -0.4359
 4914SOL    HW126201   1.618   2.963   7.963  1.0001 -0.6127 -0.6278
 4914SOL    HW226202   1.666   3.020   7.832 -0.7268  2.3966 -0.3879
 4915SOL     OW26203   4.431   4.413   8.782  0.3136 -0.1420 -0.2997
 4915SOL    HW126204   4.452   4.480   8.847 -1.9169 -0.5802  0.8809
 4915SOL    HW226205   4.351   4.453   8.746  1.3522  1.9033 -0.3447
 4916SOL     OW26206   4.664   2.986  11.878 -0.2035 -0.3076  0.2412
 4916SOL    HW126207   4.679   2.895  11.903 -0.7038 -0.0662  1.4576
 4916SOL    HW226208   4.636   2.963  11.790 -0.2651  0.3515  0.0884
 4917SOL     OW26209   3.641   3.491   4.829 -0.2004 -0.3715  0.0795
 4917SOL    HW126210   3.627   3.401   4.859 -1.2191 -0.7126 -1.4243
 4917SOL    HW226211   3.721   3.521   4.872 -1.0746 -0.1573  1.5823
 4918SOL     OW26212   3.588   3.178  14.320 -0.1920  0.8064  0.1176
 4918SOL    HW126213   3.680   3.155  14.320 -0.2243  0.6723  0.6681
 4918SOL    HW226214   3.557   3.090  14.344  0.8847  0.5429  0.5454
 4919SOL     OW26215   1.476   3.371   2.639 -0.4314 -0.2223  0.2532
 4919SOL    HW126216   1.501   3.280   2.654  0.0970 -0.0722  0.2929
 4919SOL    HW226217   1.522   3.418   2.709 -2.4187  1.8176  0.1719
 4920SOL     OW26218   1.265   2.612  14.123 -0.6691 -0.1317 -0.2571
 4920SOL    HW126219   1.269   2.707  14.118 -1.0344 -0.2255 -2.2029
 4920SOL    HW226220   1.172   2.595  14.136 -0.3442 -0.2103  2.0087
 4921SOL     OW26221   3.552   3.837  15.753 -0.0106 -0.2610 -0.2292
 4921SOL    HW126222   3.584   3.927  15.743  0.4155 -0.2276  1.3304
 4921SOL    HW226223   3.476   3.842  15.696 -0.3955 -0.3989  0.2693
 4922SOL     OW26224   0.762   0.840   5.927 -0.2492  0.3481  0.5745
 4922SOL    HW126225   0.737   0.814   6.016 -3.0748  1.0185 -0.0251
 4922SOL    HW226226   0.746   0.749   5.902  0.3074 -0.2569  2.4081
 4923SOL     OW26227   0.238   2.218   0.417 -0.0471  0.1301  0.3619
 4923SOL    HW126228   0.167   2.278   0.441 -0.6521 -0.4105 -0.0919
 4923SOL    HW226229   0.307   2.268   0.462 -0.0110  0.5022 -0.1042
 4924SOL     OW26230   1.142   3.869   4.375 -0.0939  0.5346  0.0562
 4924SOL    HW126231   1.120   3.861   4.282  1.6861 -0.1316 -0.3037
 4924SOL    HW226232   1.065   3.923   4.394  0.2640  1.3622 -0.8652
 4925SOL     OW26233   3.694   3.597   4.565 -0.2161  0.4096  0.3100
 4925SOL    HW126234   3.681   3.548   4.646 -3.2472  1.0344  0.1990
 4925SOL    HW226235   3.634   3.670   4.576 -2.5968 -1.5771  0.5163
 4926SOL     OW26236   3.794   3.802   4.980 -0.2147  0.2906  0.6153
 4926SOL    HW126237   3.842   3.731   4.938 -2.3637 -1.2116  0.7391
 4926SOL    HW226238   3.803   3.874   4.918 -1.8090  0.6409  0.7996
 4927SOL     OW26239   1.611   3.426   7.831  0.9263  0.0966 -0.2472
 4927SOL    HW126240   1.704   3.433   7.854  1.0857 -0.3590 -0.7593
 4927SOL    HW226241   1.589   3.505   7.783 -0.6795 -0.9457 -1.2023
 4928SOL     OW26242   3.842   2.916   3.252  0.0809  0.2195  0.6885
 4928SOL    HW126243   3.798   3.001   3.257 -0.5853 -0.0222 -1.1374
 4928SOL    HW226244   3.932   2.938   3.226  1.0700 -1.1407  2.9527
 4929SOL     OW26245   2.517   2.052   3.392  0.7622  0.2634 -0.3972
 4929SOL    HW126246   2.506   2.123   3.455  0.8129 -0.4716  0.4345
 4929SOL    HW226247   2.608   2.039   3.418  0.7274 -0.2931 -0.5607
 4930SOL     OW26248   1.108   1.449   4.906 -0.0635 -0.2182  0.0640
 4930SOL    HW126249   1.050   1.375   4.886 -1.1604  0.8534 -0.7838
 4930SOL    HW226250   1.127   1.444   4.999 -0.3613  1.3875  0.2144
 4931SOL     OW26251   2.176   4.500   6.988 -0.2696  0.0967 -0.4949
 4931SOL    HW126252   2.137   4.418   7.018  0.2114 -0.0901 -0.3947
 4931SOL    HW226253   2.163   4.551   7.068 -0.9563  0.1324 -0.6223
 4932SOL     OW26254   1.412   1.834  15.273  0.2036  0.1103  0.1297
 4932SOL    HW126255   1.436   1.764  15.334  4.2857 -0.0673 -1.6667
 4932SOL    HW226256   1.487   1.826  15.214  0.1830  0.3134  0.0768
 4933SOL     OW26257   0.658   1.222   5.805 -0.0938  0.0982  0.4178
 4933SOL    HW126258   0.676   1.203   5.897 -0.9666 -0.4712  0.4759
 4933SOL    HW226259   0.748   1.213   5.774  0.6116  1.5430  2.0856
 4934SOL     OW26260   0.085   2.833   2.448  0.1593  0.1263 -0.3471
 4934SOL    HW126261   0.038   2.874   2.375  0.8048 -0.8901 -1.3323
 4934SOL    HW226262   0.018   2.771   2.475 -0.2735  1.9275  2.6279
 4935SOL     OW26263   0.914   4.171   2.307  0.5522  0.0808  0.6215
 4935SOL    HW126264   0.937   4.188   2.216  0.5569  0.6194  0.7231
 4935SOL    HW226265   0.818   4.163   2.302  0.7288  0.0231 -2.8032
 4936SOL     OW26266   2.268   2.973   2.568  0.6759 -0.2893  0.1430
 4936SOL    HW126267   2.286   2.940   2.480  0.3790 -1.8432  0.6599
 4936SOL    HW226268   2.221   2.898   2.604  1.8875 -0.7872  0.7002
 4937SOL     OW26269   4.561   0.395   2.454  0.1916  0.3066  0.7421
 4937SOL    HW126270   4.484   0.346   2.426  0.6036 -0.3206  0.7133
 4937SOL    HW226271   4.609   0.393   2.371 -0.3431  1.2547  0.3963
 4938SOL     OW26272   4.307   1.515  11.476 -0.2834 -0.4702  0.2497
 4938SOL    HW126273   4.248   1.481  11.544  0.6121 -0.6775  0.9154
 4938SOL    HW226274   4.272   1.604  11.474 -0.6901 -0.6103  1.2945
 4939SOL     OW26275   0.139   0.506   7.667  0.0785  0.0133  0.0621
 4939SOL    HW126276   0.148   0.428   7.722  0.3441 -1.5098 -2.1645
 4939SOL    HW226277   0.214   0.544   7.714  0.5098  0.3600 -0.9098
 4940SOL     OW26278   1.294   0.693   9.876 -0.6651 -0.2033  0.0257
 4940SOL    HW126279   1.333   0.609   9.853  1.0506 -0.0353  2.3825
 4940SOL    HW226280   1.371   0.747   9.895 -0.7160 -0.1681  0.1305
 4941SOL     OW26281   4.286   1.656  16.619  0.4891 -0.4130 -0.1316
 4941SOL    HW126282   4.296   1.561  16.610 -2.7387 -0.7044 -0.9510
 4941SOL    HW226283   4.371   1.691  16.644  0.7211 -0.5131 -0.7621
 4942SOL     OW26284   0.198   0.257   1.675  0.2852 -0.4471 -0.5837
 4942SOL    HW126285   0.176   0.165   1.685  0.2624 -0.3434  0.3106
 4942SOL    HW226286   0.238   0.249   1.588  0.7503  0.3941 -0.4542
 4943SOL     OW26287   0.861   3.811   6.205 -0.3701  0.0448 -0.2808
 4943SOL    HW126288   0.918   3.826   6.130 -0.3423  0.9117 -0.0794
 4943SOL    HW226289   0.778   3.805   6.158 -0.9233 -1.9434  0.9452
 4944SOL     OW26290   3.711   0.191   2.445  0.6686  0.2092  0.5817
 4944SOL    HW126291   3.730   0.272   2.493  2.0438 -0.2952  0.8866
 4944SOL    HW226292   3.799   0.172   2.414  0.2586 -1.6001  0.5185
 4945SOL     OW26293   3.851   2.918   8.106  0.3096  0.3246 -0.0263
 4945SOL    HW126294   3.810   2.840   8.069 -0.7808  0.0938  1.6362
 4945SOL    HW226295   3.879   2.975   8.035 -1.1826 -1.0476 -1.6907
 4946SOL     OW26296   1.079   0.159   5.814 -0.0388  0.1836 -0.6907
 4946SOL    HW126297   1.101   0.237   5.866  0.1876 -1.7943  2.1588
 4946SOL    HW226298   1.133   0.176   5.737  0.7300 -0.9991 -0.4081
 4947SOL     OW26299   3.177   3.562   7.324 -0.2838 -0.2429  0.0371
 4947SOL    HW126300   3.154   3.546   7.232 -1.0255  2.6195 -0.2723
 4947SOL    HW226301   3.133   3.490   7.369  0.4737 -0.2489  0.7692
 4948SOL     OW26302   4.709   1.986   9.480  0.2406 -0.1082 -0.1249
 4948SOL    HW126303   0.077   2.025   9.489  0.6692 -0.8850 -0.9353
 4948SOL    HW226304   4.705   1.935   9.560  0.1800 -1.9787 -1.3165
 4949SOL     OW26305   4.206   4.375   7.636 -0.2643  0.3703  0.0154
 4949SOL    HW126306   4.296   4.395   7.660 -0.7618  0.7896  1.5716
 4949SOL    HW226307   4.162   4.453   7.670 -0.6928  0.2726 -0.3072
 4950SOL     OW26308   4.122   4.072   9.440 -0.8696  0.4824  0.5938
 4950SOL    HW126309   4.027   4.066   9.451 -1.1379  2.4856 -0.6834
 4950SOL    HW226310   4.131   4.164   9.464 -0.0760  0.3705  0.7330
 4951SOL     OW26311   4.288   4.689   3.395  0.1880  0.5653 -0.7532
 4951SOL    HW126312   4.306   4.710   3.303  1.4411 -1.5940 -1.0114
 4951SOL    HW226313   4.362   0.012   3.440 -0.1412  0.4538 -0.1085
 4952SOL     OW26314   1.431   0.917  10.479 -0.2378 -0.0616  0.4152
 4952SOL    HW126315   1.440   0.828  10.513 -0.8803 -1.0671 -2.1123
 4952SOL    HW226316   1.335   0.917  10.488  0.0887  1.3920  4.4004
 4953SOL     OW26317   4.556   1.945  10.474  0.1240 -0.0126  0.0869
 4953SOL    HW126318   4.473   1.991  10.462 -0.3714 -0.4689  1.8565
 4953SOL    HW226319   4.606   2.010  10.523 -0.0768 -1.0678  1.6787
 4954SOL     OW26320   1.028   4.177   5.679  0.0568  0.1280 -0.1707
 4954SOL    HW126321   1.000   4.150   5.767  1.5649 -0.0294  0.2583
 4954SOL    HW226322   0.943   4.193   5.637 -0.6357 -0.6868  0.9144
 4955SOL     OW26323   1.080   1.705   3.759 -0.4144 -0.0544  0.3208
 4955SOL    HW126324   1.093   1.777   3.698  1.5576 -0.5117  0.2141
 4955SOL    HW226325   1.052   1.757   3.834 -0.1905  0.4597  0.0402
 4956SOL     OW26326   1.523   3.807   5.256  0.0916  0.3663  0.5805
 4956SOL    HW126327   1.485   3.770   5.335 -0.0530 -1.0581 -0.1519
 4956SOL    HW226328   1.469   3.886   5.246 -0.2389  0.1408  0.6016
 4957SOL     OW26329   1.593   3.280   6.670 -0.8053 -0.0993  0.5823
 4957SOL    HW126330   1.545   3.332   6.734  0.1137  0.1739  1.0648
 4957SOL    HW226331   1.538   3.281   6.593 -0.6353 -1.7769  0.4373
 4958SOL     OW26332   1.095   4.581  13.721  0.2169 -0.2902 -0.0853
 4958SOL    HW126333   1.157   4.523  13.676 -0.2236  0.5478 -1.7694
 4958SOL    HW226334   1.083   4.528  13.800  0.2687 -0.6613 -0.3235
 4959SOL     OW26335   1.091   3.493   4.975 -0.6895  0.0629 -0.6849
 4959SOL    HW126336   1.170   3.506   5.028  0.4235 -0.4474 -2.2412
 4959SOL    HW226337   1.052   3.581   4.972  1.6400  0.9557 -4.4092
 4960SOL     OW26338   1.187   3.045   8.746 -0.1108 -0.6740 -0.0631
 4960SOL    HW126339   1.247   2.976   8.715  0.0992 -0.3403 -0.3983
 4960SOL    HW226340   1.230   3.061   8.830  2.2395  0.0413 -1.4052
 4961SOL     OW26341   4.057   1.738  10.230  0.0046  0.1836  0.1904
 4961SOL    HW126342   4.045   1.821  10.183  0.7111 -0.8950 -1.9088
 4961SOL    HW226343   4.142   1.755  10.270  0.7365 -1.3074 -0.7223
 4962SOL     OW26344   3.576   4.695   2.529  0.6754  0.6161  0.2636
 4962SOL    HW126345   3.570   0.027   2.609 -0.2605 -0.1291  0.6663
 4962SOL    HW226346   3.601   0.049   2.472 -0.3946  2.0934  1.7043
 4963SOL     OW26347   4.229   1.310   2.709 -0.4734  0.3920  0.0453
 4963SOL    HW126348   4.194   1.302   2.620 -0.0854 -0.0443 -0.0691
 4963SOL    HW226349   4.159   1.267   2.757  0.0252 -0.1255  0.3150
 4964SOL     OW26350   2.652   4.185   6.839  0.2734 -0.2464  0.6275
 4964SOL    HW126351   2.557   4.175   6.835  0.2657  0.4620 -1.1576
 4964SOL    HW226352   2.687   4.139   6.764 -3.1903 -1.2355 -0.3717
 4965SOL     OW26353   0.449   4.093  15.254 -0.2095  0.5382 -0.7119
 4965SOL    HW126354   0.488   4.139  15.179  1.5609 -1.5052 -1.0484
 4965SOL    HW226355   0.529   4.048  15.282 -0.5629  0.1835 -0.2872
 4966SOL     OW26356   4.665   2.937   5.212 -0.2976 -0.4478 -0.5224
 4966SOL    HW126357   4.577   2.964   5.188 -0.6056 -0.8703  0.1324
 4966SOL    HW226358   4.637   2.861   5.264  1.3933 -0.5123  0.3113
 4967SOL     OW26359   1.959   1.799   2.084  0.1568 -0.4707  0.3069
 4967SOL    HW126360   1.974   1.866   2.150  2.9976 -0.4520 -0.3755
 4967SOL    HW226361   1.944   1.854   2.007  0.4009 -0.6367  0.1437
 4968SOL     OW26362   4.025   3.604   3.255  0.4321  0.3845 -0.3090
 4968SOL    HW126363   4.000   3.696   3.255  0.5511  0.4177 -0.4302
 4968SOL    HW226364   4.110   3.608   3.212  0.6611 -2.1729 -0.1187
 4969SOL     OW26365   0.205   0.639  14.403 -0.7980  0.7455  0.0983
 4969SOL    HW126366   0.201   0.544  14.419  1.9803  0.4560 -0.8645
 4969SOL    HW226367   0.126   0.653  14.455 -1.3736  2.7742 -1.3364
 4970SOL     OW26368   0.832   2.512   9.173 -0.2168 -0.0314 -0.1813
 4970SOL    HW126369   0.750   2.525   9.126 -1.1338  1.9823  1.9948
 4970SOL    HW226370   0.828   2.417   9.166  0.3752 -0.1069  0.4837
 4971SOL     OW26371   0.157   0.688   3.282 -0.2971 -0.6737  0.5307
 4971SOL    HW126372   0.084   0.633   3.310 -0.1099 -1.0723  0.2427
 4971SOL    HW226373   0.129   0.708   3.192  0.3228 -0.7820  0.3125
 4972SOL     OW26374   3.886   3.102   5.646  0.3744 -0.3582 -0.2618
 4972SOL    HW126375   3.798   3.115   5.611 -0.4144  1.5180  2.4739
 4972SOL    HW226376   3.930   3.077   5.564 -0.8695 -0.0436 -1.0276
 4973SOL     OW26377   2.514   2.603   1.933 -0.0410  0.1693 -0.6781
 4973SOL    HW126378   2.550   2.546   1.865 -0.2218 -1.9528  1.0059
 4973SOL    HW226379   2.515   2.540   2.006 -1.9377  2.3969  1.2873
 4974SOL     OW26380   4.533   1.627  11.980 -0.2121  0.6115  0.2287
 4974SOL    HW126381   4.445   1.611  12.015  0.1498  0.8622  1.2501
 4974SOL    HW226382   4.529   1.721  11.998  0.6280  0.9409 -1.3203
 4975SOL     OW26383   4.695   1.533  14.881  0.4370 -0.0411 -0.3383
 4975SOL    HW126384   0.045   1.549  14.816  0.5283 -2.4632 -0.8310
 4975SOL    HW226385   0.012   1.453  14.920 -1.8970 -1.1715 -0.5033
 4976SOL     OW26386   1.714   1.437   2.565 -0.5340 -0.0111  0.3945
 4976SOL    HW126387   1.732   1.454   2.657 -1.9959 -0.3052  0.7382
 4976SOL    HW226388   1.750   1.516   2.524 -0.1404  0.2711  1.2685
 4977SOL     OW26389   0.276   0.554   9.203 -0.0354 -0.2026  0.2403
 4977SOL    HW126390   0.289   0.489   9.272 -0.9381  0.0212  0.6107
 4977SOL    HW226391   0.244   0.624   9.260 -1.8514 -0.6079 -0.2728
 4978SOL     OW26392   3.726   3.188   8.369  0.4968 -0.4408  0.5924
 4978SOL    HW126393   3.683   3.103   8.364 -3.0515  1.4850 -1.1462
 4978SOL    HW226394   3.698   3.200   8.460 -0.9777  3.2508 -0.3702
 4979SOL     OW26395   3.686   3.289   7.605  0.4224 -0.3681  0.0122
 4979SOL    HW126396   3.780   3.274   7.613 -0.0969 -2.5895  2.0237
 4979SOL    HW226397   3.676   3.385   7.609  1.4914 -0.2363 -0.4765
 4980SOL     OW26398   3.916   4.284   2.823 -0.0758  0.6976  0.0952
 4980SOL    HW126399   3.934   4.369   2.784 -1.4909  0.6863 -0.5847
 4980SOL    HW226400   3.828   4.266   2.790  0.4009  0.8083 -1.2695
 4981SOL     OW26401   0.664   4.389   9.439  0.1978  0.0175  0.6336
 4981SOL    HW126402   0.758   4.375   9.451 -0.0914 -1.4227  1.1805
 4981SOL    HW226403   0.660   4.372   9.344  0.6116 -0.9195  0.7815
 4982SOL     OW26404   3.451   2.424   6.690  0.1234 -0.1017  0.4947
 4982SOL    HW126405   3.480   2.468   6.770  0.9595  0.8484 -0.3319
 4982SOL    HW226406   3.454   2.332   6.716 -2.2522 -0.6392 -1.1763
 4983SOL     OW26407   2.350   1.599   8.007 -0.5849  0.0486 -0.1244
 4983SOL    HW126408   2.325   1.685   8.041  0.7962  0.1479  0.6486
 4983SOL    HW226409   2.303   1.545   8.071  1.1172 -0.2443  0.8795
 4984SOL     OW26410   0.860   0.598   4.058  0.2285 -0.5848 -0.0270
 4984SOL    HW126411   0.952   0.626   4.049  0.4602 -1.2271  0.3685
 4984SOL    HW226412   0.816   0.681   4.076 -0.8795 -1.7678  2.5945
 4985SOL     OW26413   1.051   1.512  13.742  0.9814 -0.0157 -0.1287
 4985SOL    HW126414   1.138   1.471  13.734  0.8241 -0.7484  2.0696
 4985SOL    HW226415   1.049   1.506  13.837 -0.2672  4.6365  0.1259
 4986SOL     OW26416   0.906   0.814   9.434  0.5322  0.1605  0.0459
 4986SOL    HW126417   0.968   0.757   9.480  0.1527  0.6104  1.1270
 4986SOL    HW226418   0.842   0.756   9.393 -0.8201  2.3207 -0.9018
 4987SOL     OW26419   1.192   4.168   3.106  0.1795  0.2491  0.2671
 4987SOL    HW126420   1.115   4.113   3.088  0.6388 -0.6973  1.1982
 4987SOL    HW226421   1.195   4.156   3.201 -2.1362 -2.2161  0.0594
 4988SOL     OW26422   0.781   0.575   4.700  0.1579 -0.3089  0.4952
 4988SOL    HW126423   0.697   0.601   4.739 -0.2520  1.4211 -1.5129
 4988SOL    HW226424   0.772   0.480   4.693 -0.1035 -0.1298 -1.4650
 4989SOL     OW26425   0.856   1.440   4.002 -0.3501  0.3545 -0.3095
 4989SOL    HW126426   0.902   1.360   4.029  1.3734  1.2465 -0.6436
 4989SOL    HW226427   0.903   1.504   4.055 -0.5365  0.4004 -0.1990
 4990SOL     OW26428   1.518   4.272  13.566 -0.3296  0.2357 -0.0052
 4990SOL    HW126429   1.552   4.235  13.648 -2.4715 -0.3932  0.5830
 4990SOL    HW226430   1.483   4.197  13.518  2.9536  0.7365 -3.2221
 4991SOL     OW26431   3.609   2.261   2.365  0.3669 -0.9481 -0.3894
 4991SOL    HW126432   3.616   2.198   2.294  0.7558 -1.2537 -0.0747
 4991SOL    HW226433   3.659   2.332   2.326  2.0101 -3.0996 -2.1536
 4992SOL     OW26434   3.734   4.202   0.177 -0.0773 -0.0909 -0.1591
 4992SOL    HW126435   3.798   4.153   0.228  0.1409 -0.4490 -0.7775
 4992SOL    HW226436   3.659   4.146   0.196  0.3404 -0.5687  0.0690
 4993SOL     OW26437   2.551   0.535  10.631 -0.1186 -0.0418 -0.0166
 4993SOL    HW126438   2.630   0.492  10.663  0.1792 -0.5186 -1.4027
 4993SOL    HW226439   2.595   0.602  10.579  1.3829 -1.5780 -0.7064
 4994SOL     OW26440   1.626   2.237   2.459 -0.5257  0.2234  0.4776
 4994SOL    HW126441   1.549   2.186   2.484 -0.2818 -0.8142 -0.8963
 4994SOL    HW226442   1.600   2.304   2.395  1.8772 -1.0982 -1.8633
 4995SOL     OW26443   0.969   1.678   7.869 -0.3237  0.2068  0.0174
 4995SOL    HW126444   0.933   1.767   7.866 -0.5124  0.0991 -0.8502
 4995SOL    HW226445   0.985   1.662   7.776 -0.4091  1.2710 -0.1807
 4996SOL     OW26446   2.190   0.637   1.791  0.0077  0.0732 -0.8323
 4996SOL    HW126447   2.186   0.655   1.885 -1.8564  0.0467 -0.9113
 4996SOL    HW226448   2.273   0.682   1.772  0.0295 -1.4853 -4.5573
 4997SOL     OW26449   3.371   0.535   5.602 -0.1123  0.1261 -0.0740
 4997SOL    HW126450   3.307   0.575   5.543  2.1428  5.1367  0.8984
 4997SOL    HW226451   3.434   0.604   5.618  0.7608 -0.8400  0.6596
 4998SOL     OW26452   2.214   2.883  10.103 -0.1156  0.6814 -0.2239
 4998SOL    HW126453   2.201   2.871  10.009 -2.3944 -1.1053  0.3309
 4998SOL    HW226454   2.295   2.831  10.107  1.0469  2.4670 -0.6033
 4999SOL     OW26455   1.023   1.265  10.905  0.4022  0.7999 -0.0149
 4999SOL    HW126456   1.045   1.297  10.993  0.3071  0.4993  0.1151
 4999SOL    HW226457   0.928   1.260  10.918  0.7758  0.1840  2.5879
 5000SOL     OW26458   1.399   1.925  16.731 -0.6480  0.4086  0.2784
 5000SOL    HW126459   1.456   2.002  16.725 -0.5715  0.3190 -0.0954
 5000SOL    HW226460   1.409   1.902  16.824  3.1129 -0.8851 -0.4623
 5001SOL     OW26461   0.381   1.506   8.278  0.4137 -0.1568 -0.1190
 5001SOL    HW126462   0.336   1.423   8.260  1.0442 -0.9859  2.0549
 5001SOL    HW226463   0.340   1.568   8.218 -0.0254  0.8351  1.1836
 5002SOL     OW26464   2.557   0.236  11.415 -0.1365 -0.6059  0.3902
 5002SOL    HW126465   2.532   0.144  11.428  0.8872 -1.0217 -0.5560
 5002SOL    HW226466   2.498   0.262  11.344 -1.2167 -1.4738  0.9617
 5003SOL     OW26467   4.668   1.534   7.643 -0.5576  0.0345 -0.2359
 5003SOL    HW126468   4.692   1.443   7.658  0.2478  0.0093 -1.7206
 5003SOL    HW226469   0.016   1.582   7.693  0.1957 -1.7374  0.4350
 5004SOL     OW26470   2.774   4.207   5.391  1.0398 -0.1003 -0.2935
 5004SOL    HW126471   2.711   4.279   5.392 -0.4960 -1.4594 -0.5427
 5004SOL    HW226472   2.726   4.128   5.414  0.1813  0.9882  1.6607
 5005SOL     OW26473   3.114   1.316   4.852 -0.3666 -0.4945 -0.2946
 5005SOL    HW126474   3.098   1.370   4.930  1.8227 -0.7427  0.3507
 5005SOL    HW226475   3.139   1.387   4.793 -0.6320  0.7137  1.0386
 5006SOL     OW26476   2.438   0.009   8.128 -0.5005  0.4031  0.3561
 5006SOL    HW126477   2.382   4.658   8.095 -2.7780  2.0320  0.7380
 5006SOL    HW226478   2.401   0.031   8.214  1.7127  0.1360  1.3814
 5007SOL     OW26479   0.070   1.703   2.734  0.3166 -0.1046  0.0975
 5007SOL    HW126480   0.033   1.791   2.726 -0.4741 -0.4201  0.2619
 5007SOL    HW226481   0.147   1.711   2.678  0.3985  0.8606  0.3476
 5008SOL     OW26482   2.863   4.342   8.811  0.3421 -0.1969 -0.1577
 5008SOL    HW126483   2.861   4.401   8.886  1.0675  1.4869 -1.4602
 5008SOL    HW226484   2.772   4.312   8.816  0.7925 -1.7695 -1.2677
 5009SOL     OW26485   0.031   3.937  15.513 -0.0646 -0.3510  0.3033
 5009SOL    HW126486   0.116   3.930  15.468  0.2361 -0.2391  0.8540
 5009SOL    HW226487   0.011   3.848  15.540 -0.5351 -0.2666  0.2240
 5010SOL     OW26488   3.046   2.792   3.320 -0.1240 -0.4651 -0.2746
 5010SOL    HW126489   3.068   2.724   3.257 -0.8500 -1.4003  0.4934
 5010SOL    HW226490   2.952   2.797   3.303 -0.1465 -0.8380 -0.2541
 5011SOL     OW26491   4.095   3.144   1.956  0.1720  0.0129 -0.3586
 5011SOL    HW126492   4.121   3.064   2.002 -0.5166  0.3431  0.5938
 5011SOL    HW226493   4.121   3.126   1.865 -1.6157 -0.6664 -0.7396
 5012SOL     OW26494   1.844   2.544  16.683  0.6092  0.2823  0.2578
 5012SOL    HW126495   1.892   2.463  16.701 -0.6566 -0.5252 -0.0421
 5012SOL    HW226496   1.840   2.548  16.587 -3.2934  0.5744  0.4373
 5013SOL     OW26497   1.511   1.781   8.109 -0.0283 -0.1989  0.1658
 5013SOL    HW126498   1.432   1.782   8.163 -1.6861 -0.6306 -2.2652
 5013SOL    HW226499   1.573   1.787   8.182 -0.3187 -0.7260  0.4534
 5014SOL     OW26500   1.112   1.809  12.286 -0.6372 -0.0573  0.7434
 5014SOL    HW126501   1.042   1.747  12.266  1.2907 -2.4894  1.5509
 5014SOL    HW226502   1.089   1.817  12.379  1.4459  0.2640  1.2510
 5015SOL     OW26503   1.469   4.169  11.821 -0.0735  0.2434  0.5485
 5015SOL    HW126504   1.540   4.224  11.855  1.2332  0.4664 -2.5139
 5015SOL    HW226505   1.388   4.204  11.858 -0.7054 -0.7177  0.0698
 5016SOL     OW26506   3.379   3.883   7.816  0.2552  0.1632 -0.2573
 5016SOL    HW126507   3.362   3.970   7.851  1.2100  0.5008 -0.6471
 5016SOL    HW226508   3.302   3.875   7.759  0.0568 -0.1265  0.0458
 5017SOL     OW26509   1.878   3.159  17.222 -0.0693 -0.0117 -0.2574
 5017SOL    HW126510   1.969   3.177  17.243 -0.3438  1.2208 -0.1189
 5017SOL    HW226511   1.870   3.072  17.262  1.5416  0.4096  0.9436
 5018SOL     OW26512   3.557   1.100  15.672  0.2153 -0.3116  0.0417
 5018SOL    HW126513   3.609   1.030  15.710  0.6626  1.3631  2.4878
 5018SOL    HW226514   3.581   1.162  15.740  1.8306 -2.5233  1.4795
 5019SOL     OW26515   1.411   2.303  12.837  0.2265  0.3794 -0.3288
 5019SOL    HW126516   1.473   2.236  12.865 -1.0757 -1.5351 -1.9775
 5019SOL    HW226517   1.326   2.265  12.862  0.2721 -1.5288 -2.9427
 5020SOL     OW26518   4.606   0.133   3.076  0.4240  0.0664  0.4031
 5020SOL    HW126519   4.631   0.077   3.003 -0.5623  0.6473 -0.3988
 5020SOL    HW226520   4.687   0.178   3.101 -0.2573 -0.0588  2.8109
 5021SOL     OW26521   4.445   0.254   8.681  0.0798  0.2628  0.2741
 5021SOL    HW126522   4.450   0.344   8.713  1.0413  0.7388 -1.2309
 5021SOL    HW226523   4.535   0.224   8.691  0.2806  1.0686  0.8754
 5022SOL     OW26524   2.795   2.288   7.809 -0.6712 -0.1347 -0.0258
 5022SOL    HW126525   2.701   2.296   7.791 -0.2588 -3.1417 -3.6352
 5022SOL    HW226526   2.831   2.350   7.747 -0.5835  0.7376  0.8939
 5023SOL     OW26527   1.503   3.505  16.015  0.1555 -0.3636 -0.3514
 5023SOL    HW126528   1.559   3.583  16.019  0.6355 -0.7358  0.1643
 5023SOL    HW226529   1.513   3.462  16.100  1.5853  1.7073  0.5354
 5024SOL     OW26530   1.797   1.683   8.570  0.1630  0.0975  0.0726
 5024SOL    HW126531   1.756   1.640   8.496 -0.4611  0.6839  0.0811
 5024SOL    HW226532   1.754   1.641   8.645  0.6195 -0.9792 -0.2800
 5025SOL     OW26533   3.216   1.710  11.713 -0.2292  0.2440 -0.2704
 5025SOL    HW126534   3.258   1.743  11.792  1.2931 -0.2747 -0.8727
 5025SOL    HW226535   3.138   1.673  11.755  0.2406  1.5903  1.7937
 5026SOL     OW26536   2.360   2.463   8.000 -0.1504 -0.5380 -0.7652
 5026SOL    HW126537   2.293   2.472   8.068  1.5649  1.8426  0.6087
 5026SOL    HW226538   2.310   2.456   7.918  0.7350  1.6522 -1.4910
 5027SOL     OW26539   0.335   3.301   3.862  0.2189 -0.1827 -1.1361
 5027SOL    HW126540   0.300   3.257   3.784  1.3718 -0.3439 -1.5662
 5027SOL    HW226541   0.283   3.380   3.851 -0.1153 -0.8740 -4.7038
 5028SOL     OW26542   2.451   2.111   8.309 -0.1145  0.1618 -0.1195
 5028SOL    HW126543   2.522   2.047   8.317 -0.4489 -0.4031 -1.6080
 5028SOL    HW226544   2.457   2.132   8.216 -0.5188 -3.3779 -0.9435
 5029SOL     OW26545   3.416   3.121  12.084  0.0379  0.9633  0.4240
 5029SOL    HW126546   3.496   3.172  12.072  1.2807 -0.5183  2.3593
 5029SOL    HW226547   3.360   3.197  12.100  0.1607  1.5446 -1.9069
 5030SOL     OW26548   1.641   3.883   2.762  0.2714 -0.0674 -0.6521
 5030SOL    HW126549   1.640   3.978   2.776 -1.3952 -0.2706  0.5664
 5030SOL    HW226550   1.616   3.875   2.670  0.1209 -1.3019 -0.4945
 5031SOL     OW26551   0.129   1.095   3.867  0.2867  0.3645 -0.1283
 5031SOL    HW126552   0.047   1.111   3.820 -1.0071  0.3991  2.1485
 5031SOL    HW226553   0.137   1.159   3.937 -0.6406 -1.7912  1.9377
 5032SOL     OW26554   1.682   1.111   7.702 -0.2359 -0.0065 -0.9536
 5032SOL    HW126555   1.609   1.154   7.656 -1.3771 -0.1204  0.7628
 5032SOL    HW226556   1.738   1.179   7.741 -2.1754 -0.1695  2.0712
 5033SOL     OW26557   4.190   3.110   1.692 -0.2762  0.5490  0.0939
 5033SOL    HW126558   4.160   3.200   1.678 -0.5619  0.9707  3.3081
 5033SOL    HW226559   4.228   3.093   1.606 -0.3997 -1.8270  0.5107
 5034SOL     OW26560   1.064   3.950   0.186  0.2877 -0.6997 -0.2040
 5034SOL    HW126561   1.089   4.041   0.203 -0.8429 -0.2621 -0.8924
 5034SOL    HW226562   1.118   3.931   0.110 -1.0469 -2.9433 -0.6016
 5035SOL     OW26563   0.006   1.310   1.951 -0.0176  0.3760  0.3484
 5035SOL    HW126564   0.008   1.238   1.887 -0.2659 -0.0489  0.8177
 5035SOL    HW226565   0.002   1.265   2.035 -0.1610 -0.1507  0.0657
 5036SOL     OW26566   2.413   2.121   4.477 -0.1316 -0.1485 -0.5206
 5036SOL    HW126567   2.453   2.075   4.551 -0.3929 -1.0845 -0.9588
 5036SOL    HW226568   2.327   2.148   4.509  0.8067  1.1658  0.8875
 5037SOL     OW26569   3.240   1.714   9.961  0.1615 -0.3028  0.3628
 5037SOL    HW126570   3.170   1.659   9.997  0.8482 -2.3126 -1.3422
 5037SOL    HW226571   3.248   1.693   9.868 -0.1091 -1.2057  0.5413
 5038SOL     OW26572   3.686   2.955  15.960  0.1071 -0.2019 -0.2009
 5038SOL    HW126573   3.691   2.879  16.019 -2.0403 -0.7822 -0.7510
 5038SOL    HW226574   3.670   3.017  16.031  0.0954  1.5260 -1.7409
 5039SOL     OW26575   1.321   3.033   1.135  0.0153 -0.6059  0.4098
 5039SOL    HW126576   1.287   2.987   1.212 -0.3942  4.2153  3.1214
 5039SOL    HW226577   1.245   3.051   1.079  0.2318 -0.1239  0.2718
 5040SOL     OW26578   2.085   2.443   7.365  0.3183  0.5190 -0.0256
 5040SOL    HW126579   2.103   2.529   7.326  0.8402  0.9553  1.2011
 5040SOL    HW226580   2.171   2.400   7.357 -0.9451 -2.0630  0.1491
 5041SOL     OW26581   1.207   0.432   7.124 -0.1928  0.1638  0.1357
 5041SOL    HW126582   1.295   0.464   7.144 -0.9365  2.1076  0.3717
 5041SOL    HW226583   1.172   0.491   7.057  0.8429  0.6111 -0.0111
 5042SOL     OW26584   1.640   1.129   6.443  0.0793 -0.4552 -0.0557
 5042SOL    HW126585   1.579   1.056   6.429 -0.9008  0.0250  1.7565
 5042SOL    HW226586   1.648   1.135   6.538 -0.1095 -1.6052  0.0403
 5043SOL     OW26587   3.158   1.779   3.555 -0.2655  0.7836  0.3396
 5043SOL    HW126588   3.115   1.754   3.473  0.2335  1.0707 -0.0106
 5043SOL    HW226589   3.235   1.823   3.519  0.2248 -0.3604 -0.0118
 5044SOL     OW26590   2.022   4.352   7.214 -0.0904  0.2926  0.5440
 5044SOL    HW126591   1.959   4.423   7.217  0.0243  0.2932  2.7716
 5044SOL    HW226592   1.972   4.271   7.227  1.8070 -1.6680 -4.0988
 5045SOL     OW26593   1.599   3.655  12.599 -0.2185  0.2022 -0.3581
 5045SOL    HW126594   1.670   3.718  12.610  1.6003 -2.0559  0.7469
 5045SOL    HW226595   1.641   3.576  12.564 -1.2774 -1.3427  1.8236
 5046SOL     OW26596   3.284   0.752   7.530 -0.2263 -0.2084 -0.4005
 5046SOL    HW126597   3.248   0.740   7.617  0.2691 -0.4274 -0.2287
 5046SOL    HW226598   3.263   0.845   7.523 -1.2319 -0.3644  0.6364
 5047SOL     OW26599   1.883   1.093   9.438 -0.5081  0.1131  0.2307
 5047SOL    HW126600   1.909   1.153   9.368  0.3028 -0.3006  0.1756
 5047SOL    HW226601   1.842   1.157   9.496  1.3069  2.2483 -0.8660
 5048SOL     OW26602   1.795   1.277   1.563  1.1294 -0.0337 -0.7618
 5048SOL    HW126603   1.888   1.255   1.563  1.0633 -0.3070 -1.1435
 5048SOL    HW226604   1.756   1.190   1.571 -0.9706  0.8805 -0.9882
 5049SOL     OW26605   0.052   1.005   7.046  0.1259  0.0480 -0.1569
 5049SOL    HW126606   0.057   0.948   6.970  0.2303 -0.7610  0.4538
 5049SOL    HW226607   0.099   1.082   7.013 -0.8474  0.4131 -0.6968
 5050SOL     OW26608   4.240   1.842   7.197  0.2186 -0.7663 -0.4180
 5050SOL    HW126609   4.319   1.895   7.193  0.2046 -0.7168 -0.0362
 5050SOL    HW226610   4.234   1.813   7.106  0.4395 -2.5322  0.1356
 5051SOL     OW26611   2.718   1.547  10.999  0.2294 -0.1742  0.3694
 5051SOL    HW126612   2.739   1.459  11.029 -0.5317 -0.6536 -0.4845
 5051SOL    HW226613   2.783   1.564  10.931  0.6879 -0.3110  0.7762
 5052SOL     OW26614   4.185   2.741   7.920  0.5959  0.5249 -0.3410
 5052SOL    HW126615   4.186   2.730   8.015  2.3330 -1.3040 -0.5672
 5052SOL    HW226616   4.277   2.727   7.899  0.0946  1.1274 -3.0035
 5053SOL     OW26617   2.136   2.137  13.316  0.5486 -0.3522  0.1531
 5053SOL    HW126618   2.095   2.212  13.361  1.7846  0.0401  0.6218
 5053SOL    HW226619   2.211   2.175  13.270 -0.1610  0.0288 -0.6927
 5054SOL     OW26620   0.079   4.259   6.313  0.2202  0.5460 -0.2038
 5054SOL    HW126621   0.079   4.257   6.409 -4.4520 -1.4787 -0.2489
 5054SOL    HW226622   0.056   4.170   6.287 -1.4914  0.9060  0.1219
 5055SOL     OW26623   3.711   0.952   7.875 -0.0684 -0.3940  0.2271
 5055SOL    HW126624   3.633   0.943   7.931  0.2283 -3.5562  0.1309
 5055SOL    HW226625   3.770   1.007   7.925 -0.6444  0.5815 -0.1693
 5056SOL     OW26626   0.875   4.567  17.554  0.2452 -0.1746  0.6563
 5056SOL    HW126627   0.805   4.517  17.595  0.2882 -0.0802  0.8416
 5056SOL    HW226628   0.839   4.655  17.546  0.2236 -0.2756 -0.4356
 5057SOL     OW26629   3.617   3.941  14.586 -0.4601 -0.1613  0.0886
 5057SOL    HW126630   3.646   3.866  14.535 -0.9756  0.7037 -1.5024
 5057SOL    HW226631   3.681   4.005  14.555 -0.5866 -0.2122 -0.2865
 5058SOL     OW26632   3.177   3.987   8.575  0.0410  0.4691  0.3315
 5058SOL    HW126633   3.128   3.911   8.605  1.0806  0.2848  1.5463
 5058SOL    HW226634   3.109   4.054   8.587  1.4606  1.9562  0.1391
 5059SOL     OW26635   3.842   1.880   1.143  0.2523  0.5186  0.3087
 5059SOL    HW126636   3.884   1.893   1.228 -0.0955 -1.5799  0.8128
 5059SOL    HW226637   3.867   1.794   1.109  1.1758  0.9995 -0.2482
 5060SOL     OW26638   2.804   4.315   7.585  0.5696 -0.7544 -0.3642
 5060SOL    HW126639   2.772   4.400   7.613  1.9980 -0.0143 -0.9466
 5060SOL    HW226640   2.898   4.330   7.595  0.5940 -0.6638 -0.7164
 5061SOL     OW26641   3.043   3.424   8.962 -0.0112 -0.6822 -0.2718
 5061SOL    HW126642   2.960   3.425   8.914 -0.4646  1.6395  0.5791
 5061SOL    HW226643   3.027   3.497   9.021  1.0248 -0.5140 -0.1995
 5062SOL     OW26644   1.064   3.070   4.424  0.2054 -0.0502 -0.2694
 5062SOL    HW126645   1.001   3.123   4.473 -0.0104  0.0554 -0.6594
 5062SOL    HW226646   1.075   3.119   4.342  0.6550 -0.3628 -0.3902
 5063SOL     OW26647   1.981   3.076   3.329 -0.4592 -0.1185 -0.6042
 5063SOL    HW126648   2.065   3.122   3.331  0.1786 -1.2858 -0.7514
 5063SOL    HW226649   1.993   3.018   3.253 -1.8341  0.4137 -1.2382
 5064SOL     OW26650   3.455   1.590   3.408  0.1869  0.8299 -0.1382
 5064SOL    HW126651   3.550   1.580   3.419 -0.0092 -1.2003 -0.3639
 5064SOL    HW226652   3.450   1.649   3.483  1.3086  0.3707  0.2894
 5065SOL     OW26653   1.347   3.452  15.806  0.1984  0.0482  0.2869
 5065SOL    HW126654   1.385   3.378  15.759  2.4782  0.7042  1.0931
 5065SOL    HW226655   1.412   3.479  15.870 -0.0674 -2.0544  1.4290
 5066SOL     OW26656   0.528   0.615  11.210 -0.1566  0.0206 -0.2327
 5066SOL    HW126657   0.526   0.525  11.242 -1.9174 -0.0697 -0.5921
 5066SOL    HW226658   0.436   0.614  11.183  0.5515 -2.0684 -2.5317
 5067SOL     OW26659   4.098   4.026   6.314  0.6288 -0.5422  0.0027
 5067SOL    HW126660   4.126   3.966   6.245  0.7816  1.7756 -1.9422
 5067SOL    HW226661   4.181   4.066   6.341  0.5212 -0.7008  0.5602
 5068SOL     OW26662   3.492   1.631   4.436  0.8027  0.4297  0.4633
 5068SOL    HW126663   3.406   1.629   4.394  0.1923 -0.7133  1.7884
 5068SOL    HW226664   3.532   1.709   4.397  1.3399 -0.8347 -1.5317
 5069SOL     OW26665   4.560   3.593   8.987  0.2961 -1.0018 -0.1397
 5069SOL    HW126666   4.504   3.662   9.021 -1.2262 -0.8256 -2.9581
 5069SOL    HW226667   4.535   3.525   9.049 -0.0874  0.7533  1.6092
 5070SOL     OW26668   2.812   3.615   1.012  0.8065  0.1437 -0.4999
 5070SOL    HW126669   2.776   3.552   1.075  0.4899  2.2209  1.3878
 5070SOL    HW226670   2.879   3.553   0.984  0.7557 -0.6973  1.1967
 5071SOL     OW26671   0.380   1.859  16.164  0.3977  0.0752 -0.1522
 5071SOL    HW126672   0.308   1.810  16.206  0.2083  1.9105  1.6514
 5071SOL    HW226673   0.356   1.950  16.181  0.7951  0.4726 -1.7465
 5072SOL     OW26674   3.619   4.443   1.258  0.7065 -0.2520  0.7147
 5072SOL    HW126675   3.653   4.460   1.169  0.2627 -0.0724  0.5790
 5072SOL    HW226676   3.683   4.486   1.315  0.0834  1.8865 -0.1765
 5073SOL     OW26677   4.328   0.223   6.130  0.0623  0.1301 -0.0777
 5073SOL    HW126678   4.245   0.201   6.173  0.7459  0.3454  1.3263
 5073SOL    HW226679   4.333   0.141   6.081 -1.7792 -1.2321  2.0298
 5074SOL     OW26680   0.164   3.535   7.827  0.7436 -0.0091  0.2589
 5074SOL    HW126681   0.201   3.493   7.904 -1.7289 -1.4773  0.6395
 5074SOL    HW226682   0.075   3.500   7.830  0.9971 -0.4582  2.4033
 5075SOL     OW26683   1.110   4.494  10.123 -0.5294 -0.5933 -0.1826
 5075SOL    HW126684   1.164   4.565  10.157 -1.0041  0.1522 -0.9806
 5075SOL    HW226685   1.165   4.460  10.052  0.4607 -1.3495  0.9445
 5076SOL     OW26686   1.833   2.805   6.414 -0.1186 -0.8614  0.1348
 5076SOL    HW126687   1.821   2.820   6.508  1.6013 -1.4660  0.4602
 5076SOL    HW226688   1.768   2.735   6.404 -1.1640  0.1811 -0.2638
 5077SOL     OW26689   1.104   2.446   4.869  0.0510 -0.0335 -0.1232
 5077SOL    HW126690   1.070   2.516   4.814  1.4355  1.2697  0.6917
 5077SOL    HW226691   1.091   2.478   4.959  0.4327  1.2018 -0.5148
 5078SOL     OW26692   0.522   0.890  16.031  0.0564  0.7299  0.2499
 5078SOL    HW126693   0.519   0.972  16.080  1.7063 -0.8348  2.9701
 5078SOL    HW226694   0.455   0.833  16.068 -0.3520  0.8244 -0.3470
 5079SOL     OW26695   4.498   3.315  10.438 -0.2649 -0.7839 -0.1791
 5079SOL    HW126696   4.408   3.286  10.425 -1.2462  0.9056  2.8581
 5079SOL    HW226697   4.529   3.232  10.474 -0.4493 -0.0309  1.7029
 5080SOL     OW26698   1.834   2.860  13.310  0.0242 -0.4401  0.1964
 5080SOL    HW126699   1.869   2.824  13.228 -0.5948 -0.0118 -0.2550
 5080SOL    HW226700   1.743   2.839  13.290  0.2032  0.2980 -1.3943
 5081SOL     OW26701   2.663   0.794   5.614 -0.0869  0.3267 -0.1308
 5081SOL    HW126702   2.694   0.735   5.546 -1.1670  1.0883 -1.2872
 5081SOL    HW226703   2.705   0.759   5.693 -0.1555 -0.5164 -0.4640
 5082SOL     OW26704   1.079   0.003  15.045 -0.2851 -0.1085  0.1477
 5082SOL    HW126705   1.004   0.056  15.072  0.4214 -0.1475  2.1804
 5082SOL    HW226706   1.037   4.636  15.044 -1.1134  0.2967 -0.0259
 5083SOL     OW26707   2.123   2.442   3.569 -0.4765  0.0796 -0.1566
 5083SOL    HW126708   2.188   2.435   3.499  0.5517  1.3726  0.6669
 5083SOL    HW226709   2.049   2.444   3.509 -0.7162  1.8059  0.1912
 5084SOL     OW26710   0.646   2.705   7.914 -0.6325  0.5185  0.3230
 5084SOL    HW126711   0.653   2.665   8.000 -0.3705  0.5948  0.3387
 5084SOL    HW226712   0.666   2.632   7.855 -1.5562 -0.0805  0.7677
 5085SOL     OW26713   3.761   1.097  16.975  0.2053 -0.0862  0.5318
 5085SOL    HW126714   3.688   1.130  16.922 -0.7873 -2.2580  0.5354
 5085SOL    HW226715   3.715   1.081  17.057 -1.1630  0.0287 -0.2241
 5086SOL     OW26716   1.310   0.831   1.038  0.3386 -0.9200 -0.3731
 5086SOL    HW126717   1.345   0.765   0.978 -1.5243 -1.1049 -1.2749
 5086SOL    HW226718   1.348   0.800   1.120  2.0421 -0.0081 -0.8265
 5087SOL     OW26719   3.914   4.524   6.392  0.2661 -0.4017  0.2763
 5087SOL    HW126720   3.833   4.527   6.341 -0.5516  0.6662  1.6316
 5087SOL    HW226721   3.942   4.433   6.394 -1.0653 -0.8288 -0.5637
 5088SOL     OW26722   1.105   0.814   5.922 -0.3374 -0.6381  0.2197
 5088SOL    HW126723   1.103   0.903   5.957 -1.0669 -0.9072  0.8687
 5088SOL    HW226724   1.025   0.808   5.870 -1.2534 -0.0672  1.5840
 5089SOL     OW26725   0.994   2.745   5.699 -0.0681 -0.1211  0.2554
 5089SOL    HW126726   0.955   2.749   5.612 -0.7907  1.8250  0.6695
 5089SOL    HW226727   1.051   2.822   5.705 -0.6264  0.2828  0.3767
 5090SOL     OW26728   2.050   1.184   1.560 -0.0939  0.3793 -0.3123
 5090SOL    HW126729   2.087   1.216   1.642  0.3079 -1.0103  0.0495
 5090SOL    HW226730   1.984   1.122   1.591 -0.5060  1.4117  0.8716
 5091SOL     OW26731   1.815   3.520   5.071  0.4535  0.0784  0.0917
 5091SOL    HW126732   1.839   3.583   5.004  1.2361  1.9834  2.1503
 5091SOL    HW226733   1.723   3.547   5.073  0.4726  0.0894  1.1119
 5092SOL     OW26734   0.262   3.391  10.798 -0.0687  0.1564 -0.1541
 5092SOL    HW126735   0.353   3.405  10.774  0.2646 -0.7967  0.5399
 5092SOL    HW226736   0.255   3.295  10.795 -0.0178  0.2173 -1.9457
 5093SOL     OW26737   2.233   3.107   8.957  0.4914  0.1237  0.2004
 5093SOL    HW126738   2.268   3.195   8.968  1.6163 -0.4020  0.7867
 5093SOL    HW226739   2.182   3.095   9.037  0.3350  1.6044  0.3205
 5094SOL     OW26740   1.390   3.671   9.222  0.4198  0.4493 -0.2394
 5094SOL    HW126741   1.296   3.665   9.204  0.5711 -2.1861 -0.1186
 5094SOL    HW226742   1.437   3.658   9.139 -1.2637 -1.2988 -0.9234
 5095SOL     OW26743   3.556   2.146   7.600 -0.0434  0.0014 -0.6610
 5095SOL    HW126744   3.561   2.064   7.551  1.6552 -0.8515  0.9318
 5095SOL    HW226745   3.465   2.175   7.591 -0.4945 -1.4138 -0.7255
 5096SOL     OW26746   1.557   0.813  16.476 -0.4233  0.2194 -0.4575
 5096SOL    HW126747   1.567   0.906  16.459  0.7187  0.1021 -0.4081
 5096SOL    HW226748   1.499   0.827  16.551  1.9868  2.2682  1.0235
 5097SOL     OW26749   0.312   0.810   4.309 -0.0367  0.6409 -0.2055
 5097SOL    HW126750   0.245   0.826   4.242 -2.0810 -1.5414  1.2970
 5097SOL    HW226751   0.379   0.869   4.275  1.4179 -0.1951  1.2308
 5098SOL     OW26752   3.136   0.058   5.384 -0.0283 -0.2532  0.4128
 5098SOL    HW126753   3.101   4.690   5.366 -0.3614 -0.1233  0.4265
 5098SOL    HW226754   3.169   0.090   5.300  0.4759 -2.4050 -0.2075
 5099SOL     OW26755   4.243   2.760   6.931 -0.1942 -1.0085 -0.3172
 5099SOL    HW126756   4.286   2.734   7.012  1.5321  2.5164 -0.0984
 5099SOL    HW226757   4.204   2.845   6.954 -1.0805 -1.6998  0.7402
 5100SOL     OW26758   3.094   0.226   6.325  0.0884  0.0819 -0.2263
 5100SOL    HW126759   3.159   0.290   6.297 -0.6912  1.3860  0.9264
 5100SOL    HW226760   3.144   0.144   6.325  2.7203  1.6781 -2.1905
 5101SOL     OW26761   3.910   1.046  17.674 -0.0961  0.1282 -0.0360
 5101SOL    HW126762   3.915   1.130   0.042  3.0436  0.1829 -0.4431
 5101SOL    HW226763   3.846   0.995   0.043 -0.8077  0.3776 -0.7145
 5102SOL     OW26764   4.640   1.718   6.080  0.1426 -0.2363  0.0272
 5102SOL    HW126765   4.617   1.811   6.077  0.6802 -0.1206 -0.3825
 5102SOL    HW226766   4.704   1.711   6.010  2.1353 -1.1946  1.9538
 5103SOL     OW26767   1.841   3.192  15.239 -0.2686  0.0107 -0.0746
 5103SOL    HW126768   1.928   3.173  15.275 -0.5174 -1.3327 -0.1831
 5103SOL    HW226769   1.808   3.103  15.242  0.0065 -0.0547  0.8462
 5104SOL     OW26770   1.986   4.131   4.335  0.1576  0.2417 -0.7283
 5104SOL    HW126771   1.934   4.052   4.352 -0.5373  1.1464  1.2459
 5104SOL    HW226772   2.040   4.096   4.263 -0.5170 -2.1190 -0.0711
 5105SOL     OW26773   4.472   0.764   0.781 -0.2242  0.0254 -0.4231
 5105SOL    HW126774   4.430   0.716   0.710 -1.5203 -0.9612  0.9872
 5105SOL    HW226775   4.548   0.705   0.786 -0.5723 -0.4559 -0.8733
 5106SOL     OW26776   0.338   0.057   4.722 -0.0037 -0.0404  0.0908
 5106SOL    HW126777   0.261   0.015   4.682  0.8122 -1.6431  0.2054
 5106SOL    HW226778   0.380   4.718   4.785  1.3249  1.4928  0.6027
 5107SOL     OW26779   0.999   0.560   6.159  0.4073 -0.7315 -0.3821
 5107SOL    HW126780   1.053   0.612   6.100  0.7880 -0.0538  0.5675
 5107SOL    HW226781   0.981   0.620   6.232  0.1612 -0.2403 -0.8502
 5108SOL     OW26782   2.147   4.010   2.248 -0.1938 -0.0731 -0.5674
 5108SOL    HW126783   2.209   3.979   2.315  0.9327  1.1604 -1.0277
 5108SOL    HW226784   2.164   3.958   2.169 -0.5604 -0.3544 -0.4576
 5109SOL     OW26785   1.163   0.921   5.253  0.1645  0.1351  0.2629
 5109SOL    HW126786   1.135   0.915   5.162  2.8577  1.8513 -0.6843
 5109SOL    HW226787   1.256   0.934   5.232  0.6477 -0.6036  1.9340
 5110SOL     OW26788   1.380   0.271   7.851  0.3829 -0.1591  0.3780
 5110SOL    HW126789   1.349   0.207   7.914 -1.9672  1.5697  0.9761
 5110SOL    HW226790   1.337   0.251   7.768 -0.8467 -0.3018  1.0508
 5111SOL     OW26791   3.117   1.042   2.887 -0.3508 -0.4383 -0.1833
 5111SOL    HW126792   3.119   1.090   2.804  3.7099 -2.5463 -1.2874
 5111SOL    HW226793   3.092   1.113   2.946  1.0566  0.3968 -0.6082
 5112SOL     OW26794   3.964   1.940   5.584  0.2910 -0.1112 -0.3212
 5112SOL    HW126795   3.903   2.011   5.561  1.6478  1.4546  0.9185
 5112SOL    HW226796   3.900   1.876   5.615  2.0162 -1.1544  1.0746
 5113SOL     OW26797   1.790   1.341  14.052 -0.6173  0.0201 -0.3451
 5113SOL    HW126798   1.857   1.273  14.063 -0.0389  0.2607 -2.3951
 5113SOL    HW226799   1.844   1.420  14.045 -1.0906  0.3111 -0.7110
 5114SOL     OW26800   1.586   0.471   1.297  0.2564  0.1912 -0.8796
 5114SOL    HW126801   1.520   0.408   1.326  0.0367  1.3985  1.2583
 5114SOL    HW226802   1.604   0.522   1.376  1.5407  0.7614 -1.5339
 5115SOL     OW26803   2.557   4.040  15.285 -0.4996 -0.4962 -0.0449
 5115SOL    HW126804   2.626   4.014  15.346 -2.1775 -1.3021  1.5041
 5115SOL    HW226805   2.517   3.956  15.262  1.6153 -0.6784 -3.1623
 5116SOL     OW26806   4.002   1.160   1.114  0.0878  0.8848 -0.0447
 5116SOL    HW126807   4.067   1.091   1.099  0.8461  1.3664  1.0354
 5116SOL    HW226808   3.998   1.157   1.209  1.1775 -0.6660 -0.0327
 5117SOL     OW26809   1.957   1.248   9.220 -0.3878 -0.1257  0.3488
 5117SOL    HW126810   1.940   1.338   9.193  1.2703 -0.1010 -0.6227
 5117SOL    HW226811   2.052   1.252   9.233 -0.5367  1.8509  0.7900
 5118SOL     OW26812   3.097   2.956   9.852  0.6727 -0.5890  0.2484
 5118SOL    HW126813   3.054   2.877   9.819  2.4904 -1.3537 -0.2949
 5118SOL    HW226814   3.067   2.947   9.942 -0.2575  3.1907  0.3310
 5119SOL     OW26815   3.891   3.461   4.408 -0.1421  0.0381  0.5730
 5119SOL    HW126816   3.831   3.505   4.468  2.2546  1.5440  1.8409
 5119SOL    HW226817   3.888   3.373   4.445 -0.8603  0.6708  2.0161
 5120SOL     OW26818   2.538   3.554  13.901  0.5874  0.0668 -0.5136
 5120SOL    HW126819   2.577   3.535  13.986 -0.6439 -0.0862  0.0185
 5120SOL    HW226820   2.614   3.541  13.846 -0.8592 -2.3580 -1.9517
 5121SOL     OW26821   3.420   2.825  11.435  0.1746  0.2908  0.2013
 5121SOL    HW126822   3.507   2.818  11.476 -0.1058 -1.1199  0.5242
 5121SOL    HW226823   3.365   2.825  11.513 -1.8474  1.3858 -1.2370
 5122SOL     OW26824   1.995   1.371   4.751  0.1662 -0.4682  0.1896
 5122SOL    HW126825   2.084   1.404   4.740  0.7143 -2.1037 -0.3999
 5122SOL    HW226826   1.958   1.373   4.662 -0.7134  0.5358  0.5793
 5123SOL     OW26827   3.256   0.066  13.963  0.2225 -0.1174 -0.1659
 5123SOL    HW126828   3.175   0.068  14.013 -0.3238  2.7802 -1.1460
 5123SOL    HW226829   3.247   0.156  13.931 -1.1452  0.1256  0.9371
 5124SOL     OW26830   0.950   1.223   4.806  0.2821 -0.0122  0.0422
 5124SOL    HW126831   1.038   1.221   4.771  1.0018 -0.2561  1.8501
 5124SOL    HW226832   0.908   1.147   4.766  0.2535  0.0161  0.0182
 5125SOL     OW26833   0.015   1.601  14.163  0.2771  0.2063  0.2694
 5125SOL    HW126834   0.049   1.653  14.090  1.2437 -0.7487  0.0426
 5125SOL    HW226835   0.077   1.529  14.152  0.9209  1.0400 -1.5513
 5126SOL     OW26836   1.832   4.611   6.842  0.0416 -0.6120 -0.2356
 5126SOL    HW126837   1.751   4.609   6.792 -0.7257  2.0618  0.8948
 5126SOL    HW226838   1.881   4.678   6.793 -0.0827 -0.1557  0.2619
 5127SOL     OW26839   1.030   0.855  16.863  0.1665 -0.4357  0.1797
 5127SOL    HW126840   0.963   0.806  16.815 -1.2566  1.9804 -0.3311
 5127SOL    HW226841   1.101   0.798  16.835  0.2558 -0.0251 -0.4206
 5128SOL     OW26842   2.274   1.561   6.013  0.5520  0.3223  0.0094
 5128SOL    HW126843   2.268   1.503   5.936 -1.9447  1.3866 -0.6001
 5128SOL    HW226844   2.179   1.562   6.030  0.7018  0.4566  0.8300
 5129SOL     OW26845   0.613   1.770   7.664  0.4770 -0.2504 -0.8607
 5129SOL    HW126846   0.629   1.697   7.724 -0.6268 -0.3484 -0.6849
 5129SOL    HW226847   0.698   1.815   7.673  0.6721 -1.4789  3.5286
 5130SOL     OW26848   2.492   3.849   2.708 -0.1470  0.1434 -0.5617
 5130SOL    HW126849   2.568   3.907   2.717 -0.0663  0.2084 -1.6477
 5130SOL    HW226850   2.525   3.787   2.644 -1.9827 -1.6843  0.2805
 5131SOL     OW26851   1.344   1.379   0.720  0.2023 -0.3098  0.1016
 5131SOL    HW126852   1.403   1.418   0.784 -1.6306 -0.9293  2.1841
 5131SOL    HW226853   1.344   1.291   0.757 -0.6647 -0.1883  0.3988
 5132SOL     OW26854   2.856   0.269   4.781  0.0544  0.3686  0.2051
 5132SOL    HW126855   2.827   0.359   4.766  1.5348  0.7411 -0.4338
 5132SOL    HW226856   2.949   0.294   4.779  0.3940 -0.9199  0.1922
 5133SOL     OW26857   3.178   3.618   6.247  0.1126 -0.0378  0.0933
 5133SOL    HW126858   3.262   3.629   6.201 -0.2504  0.4247 -0.4692
 5133SOL    HW226859   3.186   3.528   6.279 -3.7987 -1.4722 -3.0073
 5134SOL     OW26860   2.093   0.040   1.069  0.1276  0.1558 -0.2772
 5134SOL    HW126861   2.048   0.114   1.108 -0.1657 -0.0741 -0.1796
 5134SOL    HW226862   2.148   0.087   1.007  2.5918 -0.0535  1.7417
 5135SOL     OW26863   1.233   4.300  11.018  0.2705  0.3100  0.3391
 5135SOL    HW126864   1.277   4.228  11.062  2.5875  2.5376  1.6552
 5135SOL    HW226865   1.212   4.250  10.939 -0.2849  0.6129  0.2922
 5136SOL     OW26866   3.575   3.741   7.641 -0.6555  0.1844 -0.6188
 5136SOL    HW126867   3.516   3.799   7.690  1.6348  0.0440  2.3060
 5136SOL    HW226868   3.499   3.696   7.604 -0.7416  1.6289 -2.1960
 5137SOL     OW26869   2.017   1.290   6.893 -0.6398 -0.0270 -0.5611
 5137SOL    HW126870   2.042   1.213   6.844  0.7663  0.1176 -0.0833
 5137SOL    HW226871   1.940   1.251   6.934  0.1342 -1.8097 -0.8331
 5138SOL     OW26872   2.316   3.411   5.777 -0.1334 -0.3684  0.0097
 5138SOL    HW126873   2.271   3.488   5.741 -0.5464 -0.1590  0.9916
 5138SOL    HW226874   2.282   3.399   5.865 -3.2423  1.6632 -0.8911
 5139SOL     OW26875   4.248   4.612  12.266  0.3791 -0.3828  0.1990
 5139SOL    HW126876   4.218   4.619  12.357 -1.0690  2.7459 -0.5159
 5139SOL    HW226877   4.279   4.521  12.267 -1.6210 -1.0544  0.4568
 5140SOL     OW26878   1.194   4.295   6.003  0.3967  0.0555  0.4849
 5140SOL    HW126879   1.248   4.246   6.065 -0.0188 -0.3296  0.5386
 5140SOL    HW226880   1.153   4.360   6.061  1.7691  0.6762  0.7532
 5141SOL     OW26881   2.628   4.152   4.863  0.2059 -0.1745  0.4449
 5141SOL    HW126882   2.698   4.104   4.907  1.6565  1.0163 -0.5682
 5141SOL    HW226883   2.686   4.214   4.819  0.8074 -0.2620  1.1063
 5142SOL     OW26884   0.148   4.257   4.440 -0.4139 -0.7077  0.2502
 5142SOL    HW126885   0.205   4.262   4.516  1.3775  0.5129 -1.1855
 5142SOL    HW226886   0.125   4.349   4.435 -3.6712 -1.5622 -0.4664
 5143SOL     OW26887   2.877   2.760  15.649  0.4153  0.1021  0.2722
 5143SOL    HW126888   2.842   2.840  15.688 -1.3348  0.7421 -2.6286
 5143SOL    HW226889   2.801   2.702  15.653  0.9395 -0.3525  3.8608
 5144SOL     OW26890   1.119   2.844   4.153  0.1945  0.3684 -0.0788
 5144SOL    HW126891   1.060   2.865   4.081  0.4140 -0.0098 -0.3695
 5144SOL    HW226892   1.171   2.924   4.165  1.2014 -0.3502  0.3268
 5145SOL     OW26893   3.717   4.077   2.960  0.3532  0.6901  0.0731
 5145SOL    HW126894   3.667   4.150   2.997 -0.5820  0.9737 -1.7632
 5145SOL    HW226895   3.681   4.003   3.010 -0.5504  1.0451 -0.0416
 5146SOL     OW26896   3.076   1.967   3.768 -0.5548 -0.0031  0.2957
 5146SOL    HW126897   3.000   2.018   3.740 -1.5367 -1.6758 -0.0561
 5146SOL    HW226898   3.098   1.926   3.685 -3.0769 -0.1130 -0.3328
 5147SOL     OW26899   1.314   1.757   5.460  0.1048  0.1799 -0.4612
 5147SOL    HW126900   1.291   1.738   5.369 -2.0898  1.2301 -0.1262
 5147SOL    HW226901   1.266   1.688   5.506  0.9671 -2.3511 -3.3375
 5148SOL     OW26902   1.816   1.016   9.127 -0.5173 -0.2396  0.1927
 5148SOL    HW126903   1.898   0.969   9.112 -0.4488 -1.4509  4.2849
 5148SOL    HW226904   1.855   1.098   9.155 -0.5551 -1.3088  3.4204
 5149SOL     OW26905   2.488   3.696  13.072  0.1461 -0.1055 -0.1682
 5149SOL    HW126906   2.479   3.789  13.052  0.7813  0.2685  1.2310
 5149SOL    HW226907   2.471   3.652  12.988 -2.1607  2.9230 -1.2628
 5150SOL     OW26908   1.757   0.590  12.560 -1.2127  0.2673 -0.0798
 5150SOL    HW126909   1.739   0.504  12.598 -1.8273  0.1355 -0.6780
 5150SOL    HW226910   1.807   0.636  12.627  1.0578  1.8807 -2.8799
 5151SOL     OW26911   1.618   2.260  15.993  0.0297  0.0730 -0.2956
 5151SOL    HW126912   1.655   2.347  15.979 -0.4290  0.5003  1.1040
 5151SOL    HW226913   1.570   2.233  15.915  0.2779 -1.3405  0.0446
 5152SOL     OW26914   1.416   1.554   4.789 -0.3517  0.2486  1.5650
 5152SOL    HW126915   1.360   1.516   4.857 -2.0374  0.1410  0.1203
 5152SOL    HW226916   1.497   1.573   4.835 -0.1406  1.4555  0.6802
 5153SOL     OW26917   0.202   0.591   1.880 -0.5855 -0.1410 -0.2652
 5153SOL    HW126918   0.261   0.530   1.836 -0.3413  1.0141 -1.5643
 5153SOL    HW226919   0.114   0.556   1.882 -0.4138 -0.5385  0.2916
 5154SOL     OW26920   0.821   2.476   4.850 -0.1187 -0.4353  0.5459
 5154SOL    HW126921   0.859   2.395   4.817 -1.4684 -1.0860  0.5648
 5154SOL    HW226922   0.861   2.482   4.936 -0.5670  3.6474  0.4927
 5155SOL     OW26923   0.903   2.874  11.940  0.4852 -0.3047  0.2479
 5155SOL    HW126924   0.820   2.878  11.988 -0.1988 -2.6816 -0.7620
 5155SOL    HW226925   0.874   2.863  11.849  0.5307  3.1795 -0.2009
 5156SOL     OW26926   2.719   0.718  10.533 -0.1006 -0.6338 -0.4427
 5156SOL    HW126927   2.769   0.726  10.614 -4.1296 -0.2239  1.9582
 5156SOL    HW226928   2.783   0.732  10.463 -0.0545 -0.1966 -0.3114
 5157SOL     OW26929   1.431   3.063   7.502  0.2073 -0.1360 -0.0881
 5157SOL    HW126930   1.452   3.151   7.469  0.9614  1.1280  3.7926
 5157SOL    HW226931   1.411   3.101   7.588  0.3361 -1.0154  0.3343
 5158SOL     OW26932   3.385   2.823   5.565  0.9509 -0.3826  0.6213
 5158SOL    HW126933   3.453   2.877   5.605 -0.0172  1.5837 -0.3817
 5158SOL    HW226934   3.408   2.730   5.566  0.4379 -0.5601 -3.3763
 5159SOL     OW26935   0.771   0.184   3.864 -0.2606 -0.2275 -0.6997
 5159SOL    HW126936   0.742   0.269   3.896  0.4307  0.1232 -1.0157
 5159SOL    HW226937   0.686   0.146   3.885  0.0562  0.6934  2.2376
 5160SOL     OW26938   1.258   1.336   2.305  0.4107 -0.2402 -0.3801
 5160SOL    HW126939   1.201   1.342   2.228 -1.1897  0.1115  0.8173
 5160SOL    HW226940   1.301   1.252   2.289  1.2895 -0.1789  1.6746
 5161SOL     OW26941   1.932   1.116   4.841  0.1119  0.3679 -0.3152
 5161SOL    HW126942   1.948   1.210   4.830 -0.5137  0.3406 -1.5020
 5161SOL    HW226943   1.955   1.082   4.755 -1.7916 -0.7390 -0.3984
 5162SOL     OW26944   0.997   0.528   5.044  0.0476 -0.2131  0.3987
 5162SOL    HW126945   0.926   0.583   5.011  1.3894  1.6843  0.6323
 5162SOL    HW226946   0.949   0.446   5.034  0.9168 -0.6306 -0.3643
 5163SOL     OW26947   3.871   2.700   3.451  0.5638 -0.1493 -0.4233
 5163SOL    HW126948   3.823   2.631   3.406  1.0038 -0.6091 -0.1755
 5163SOL    HW226949   3.862   2.777   3.393 -0.1777  1.7634  2.2474
 5164SOL     OW26950   4.019   0.600   1.051 -0.0970 -0.1195 -0.4538
 5164SOL    HW126951   3.938   0.556   1.023 -2.0762  1.6023  2.6499
 5164SOL    HW226952   4.045   0.638   0.967  2.3156 -0.4573  0.1248
 5165SOL     OW26953   1.201   1.543   5.591 -0.5719  0.5288 -0.0127
 5165SOL    HW126954   1.166   1.496   5.666  0.4428  1.8723  1.2965
 5165SOL    HW226955   1.182   1.464   5.540 -0.4662  0.3465  0.2278
 5166SOL     OW26956   0.158   0.591   5.837  0.0577  0.6394 -0.1129
 5166SOL    HW126957   0.100   0.588   5.913 -0.7325  0.2893 -0.7428
 5166SOL    HW226958   0.097   0.564   5.768 -2.8739  0.4805  2.5397
 5167SOL     OW26959   4.433   0.323   5.121 -0.0846 -0.0959 -0.3337
 5167SOL    HW126960   4.348   0.307   5.163  0.7114 -2.5163  0.3461
 5167SOL    HW226961   4.401   0.368   5.042  0.4352 -1.5248 -1.3390
 5168SOL     OW26962   3.728   0.651  10.522  0.1442  0.0730 -0.0771
 5168SOL    HW126963   3.804   0.681  10.472  0.6555  2.0196  1.8444
 5168SOL    HW226964   3.763   0.614  10.602  0.0178 -0.3900 -0.2366
 5169SOL     OW26965   3.342   2.828  14.453  0.2615 -0.0321  0.0051
 5169SOL    HW126966   3.298   2.896  14.401  1.2767 -0.5168 -1.4662
 5169SOL    HW226967   3.433   2.857  14.445  0.2180  0.1552  0.1809
 5170SOL     OW26968   2.191   1.110  14.392  0.0368 -0.7356  0.7565
 5170SOL    HW126969   2.199   1.015  14.385  1.8304 -0.4808 -0.7374
 5170SOL    HW226970   2.279   1.142  14.371 -0.3533 -2.4632 -3.6314
 5171SOL     OW26971   3.993   1.798  17.284  0.1407 -0.2236  0.5534
 5171SOL    HW126972   3.906   1.808  17.245  1.4169  0.7583 -2.0126
 5171SOL    HW226973   3.986   1.861  17.356  1.1762  0.3360  0.1661
 5172SOL     OW26974   3.641   4.441  12.346 -0.2593  0.3145  0.3636
 5172SOL    HW126975   3.650   4.356  12.302 -1.1155  1.2236 -1.6010
 5172SOL    HW226976   3.731   4.474  12.352  0.1439 -0.2862 -2.0929
 5173SOL     OW26977   1.150   0.875  10.551  0.0305  0.2108 -0.2624
 5173SOL    HW126978   1.108   0.853  10.468  0.1635  1.1178 -0.5626
 5173SOL    HW226979   1.104   0.958  10.560 -0.1245 -0.0092  0.9653
 5174SOL     OW26980   4.592   2.806  12.138 -0.5497 -0.8468 -0.1244
 5174SOL    HW126981   4.538   2.779  12.063 -0.9799 -0.0544 -0.1034
 5174SOL    HW226982   4.585   2.741  12.207  1.5901 -0.6247  0.3143
 5175SOL     OW26983   4.100   2.529  13.850  0.3883 -0.3528  0.1207
 5175SOL    HW126984   4.068   2.555  13.763 -0.0420  2.5151  1.1159
 5175SOL    HW226985   4.042   2.583  13.905  0.0557 -1.3839  0.7843
 5176SOL     OW26986   2.607   3.918   8.478 -0.1920  0.3684  0.5175
 5176SOL    HW126987   2.603   3.914   8.383 -0.7086 -0.8007  0.6003
 5176SOL    HW226988   2.684   3.867   8.504 -1.6745 -1.1876  1.8593
 5177SOL     OW26989   2.575   3.697   3.789  0.2893  1.0874  0.1848
 5177SOL    HW126990   2.522   3.648   3.852  2.2337 -1.4850 -0.2055
 5177SOL    HW226991   2.504   3.752   3.756 -0.7067 -0.5069 -0.3398
 5178SOL     OW26992   2.378   3.405   6.343 -0.1568 -0.8653  0.6350
 5178SOL    HW126993   2.345   3.315   6.337  0.8068 -1.1938  0.2487
 5178SOL    HW226994   2.404   3.412   6.252 -0.0125 -0.3001  0.7169
 5179SOL     OW26995   3.234   4.392   4.793 -0.2164  0.2879 -0.1728
 5179SOL    HW126996   3.204   4.315   4.842 -2.0002  0.6081 -0.7365
 5179SOL    HW226997   3.264   4.354   4.710 -0.8998 -0.2837 -0.1563
 5180SOL     OW26998   2.267   2.864   3.552  0.4421 -0.0016  1.3522
 5180SOL    HW126999   2.258   2.789   3.612 -0.1002 -0.8054  0.2662
 5180SOL    HW227000   2.320   2.930   3.597  1.0473  1.0486 -0.9223
 5181SOL     OW27001   3.529   0.657  14.481 -0.5103 -0.0263  0.3546
 5181SOL    HW127002   3.514   0.720  14.410  0.4473  1.7206  1.7104
 5181SOL    HW227003   3.489   0.573  14.458 -0.9746  0.0359  0.9347
 5182SOL     OW27004   0.643   2.764  14.445 -0.9206 -0.3018  0.1611
 5182SOL    HW127005   0.646   2.710  14.366  0.7488  0.5713 -0.3789
 5182SOL    HW227006   0.693   2.710  14.506 -2.4140  1.5201  2.9912
 5183SOL     OW27007   4.640   3.209   3.167 -0.0827 -0.5176  0.4099
 5183SOL    HW127008   4.696   3.276   3.129  0.8076 -0.6238  1.5522
 5183SOL    HW227009   4.701   3.135   3.160 -0.2883 -0.6617  0.1053
 5184SOL     OW27010   1.405   4.579   4.742  0.0525 -0.1326 -0.2474
 5184SOL    HW127011   1.394   4.522   4.666 -1.4828 -0.1340 -0.0211
 5184SOL    HW227012   1.323   4.628   4.744  0.0541 -0.1089 -0.6413
 5185SOL     OW27013   0.436   3.182   5.619 -0.0445 -0.6495  0.3852
 5185SOL    HW127014   0.519   3.219   5.590  0.0146 -0.7621  0.4113
 5185SOL    HW227015   0.422   3.090   5.595  2.0107 -0.7773 -0.3223
 5186SOL     OW27016   2.277   3.601   6.492 -0.2177 -0.0998 -0.0127
 5186SOL    HW127017   2.304   3.526   6.439  1.4425  0.3297  0.2305
 5186SOL    HW227018   2.341   3.667   6.465  1.0490 -1.4083 -0.2029
 5187SOL     OW27019   2.818   3.361   9.652  0.2783  0.0014  0.3932
 5187SOL    HW127020   2.809   3.274   9.692 -0.5024 -0.6973 -1.2887
 5187SOL    HW227021   2.860   3.413   9.720  0.0194  2.4405 -1.3093
 5188SOL     OW27022   1.395   0.188   9.740 -0.8431  0.0122 -0.0401
 5188SOL    HW127023   1.330   0.243   9.697  1.2104  1.2627 -1.5348
 5188SOL    HW227024   1.442   0.157   9.662  0.6323 -0.4447  1.0121
 5189SOL     OW27025   3.123   3.119   4.526  0.0950 -0.1406 -0.2704
 5189SOL    HW127026   3.067   3.140   4.452 -0.6312 -0.3204  0.2290
 5189SOL    HW227027   3.145   3.210   4.546 -2.3168  0.6567 -1.2742
 5190SOL     OW27028   1.039   1.146  17.237 -0.1961 -0.0468 -0.0484
 5190SOL    HW127029   1.059   1.239  17.251  1.4645 -0.3502 -0.4305
 5190SOL    HW227030   1.050   1.130  17.144 -4.0539 -2.3787 -0.0997
 5191SOL     OW27031   4.458   3.866   9.649 -0.1642 -0.1683 -0.1766
 5191SOL    HW127032   4.447   3.880   9.743  0.4101  0.8947 -0.2673
 5191SOL    HW227033   4.523   3.796   9.654 -1.1175 -1.0094  0.4262
 5192SOL     OW27034   4.215   0.185   7.443 -0.2035  0.0393  0.2705
 5192SOL    HW127035   4.161   0.231   7.379 -1.2719 -1.5698 -0.0065
 5192SOL    HW227036   4.258   0.119   7.388 -0.8756  1.1793 -1.6100
 5193SOL     OW27037   3.583   4.226   9.907  0.0170  0.0533 -0.1054
 5193SOL    HW127038   3.635   4.302   9.932  1.2509 -0.3955 -1.3505
 5193SOL    HW227039   3.646   4.155   9.898  0.5331  0.3350  1.1571
 5194SOL     OW27040   4.343   4.522   3.774 -0.2177  0.7179  0.7255
 5194SOL    HW127041   4.437   4.528   3.761 -0.1361 -0.2189  0.8739
 5194SOL    HW227042   4.320   4.559   3.860  0.8231 -2.0688  2.2173
 5195SOL     OW27043   1.618   3.078   8.128 -0.4299  0.4131 -1.1237
 5195SOL    HW127044   1.634   3.112   8.216  1.0054 -1.4698 -0.6544
 5195SOL    HW227045   1.690   3.114   8.077 -0.0888 -0.8020 -1.4960
 5196SOL     OW27046   1.816   2.505   8.938 -0.2830  0.2605  0.3161
 5196SOL    HW127047   1.881   2.568   8.907 -1.2076  1.9697  1.8270
 5196SOL    HW227048   1.791   2.544   9.022 -1.8504  1.5685 -0.7530
 5197SOL     OW27049   3.304   2.421  13.264 -0.1359 -0.0727 -0.5529
 5197SOL    HW127050   3.393   2.415  13.298 -0.0611 -1.8545 -1.0654
 5197SOL    HW227051   3.303   2.349  13.200 -0.7952  0.0213 -0.6515
 5198SOL     OW27052   2.063   2.731   6.951 -0.3315 -0.2157 -0.1642
 5198SOL    HW127053   2.011   2.761   7.025 -1.1612 -1.7689 -0.1043
 5198SOL    HW227054   2.147   2.724   6.996 -2.1647 -0.7311  3.1696
 5199SOL     OW27055   3.260   1.676   4.892  0.4551 -0.0679 -0.6427
 5199SOL    HW127056   3.184   1.733   4.877  1.5255  2.3083  3.1234
 5199SOL    HW227057   3.243   1.660   4.985  0.0700  0.7496 -0.5692
 5200SOL     OW27058   2.161   0.272   3.615 -0.0319 -0.1746  0.4576
 5200SOL    HW127059   2.120   0.302   3.534 -1.9448 -2.8900  0.4380
 5200SOL    HW227060   2.158   0.176   3.617  3.3627 -0.2644  0.5197
 5201SOL     OW27061   3.062   1.400   6.244 -0.0408  0.5623 -0.1076
 5201SOL    HW127062   3.062   1.492   6.216 -0.1613  1.5051  2.9835
 5201SOL    HW227063   3.151   1.391   6.280  0.9523  0.7116 -2.4935
 5202SOL     OW27064   3.909   4.412   0.554  0.7432  0.0285 -0.9451
 5202SOL    HW127065   3.887   4.345   0.619 -0.6578 -0.8876 -2.3792
 5202SOL    HW227066   4.001   4.387   0.542  0.8430 -0.6755  1.3005
 5203SOL     OW27067   2.577   1.141   2.965  0.5816  0.2602  0.0450
 5203SOL    HW127068   2.660   1.094   2.960  2.4377  3.2546  2.5841
 5203SOL    HW227069   2.592   1.218   2.911 -0.0740  0.3914  0.0511
 5204SOL     OW27070   4.073   2.980   8.468  0.1866 -0.1996  0.0300
 5204SOL    HW127071   4.068   2.994   8.562  0.9927  1.0805 -0.1150
 5204SOL    HW227072   4.039   2.891   8.467 -0.9620  0.2621 -2.8867
 5205SOL     OW27073   1.327   0.114  11.737  0.0275 -0.3081 -0.0808
 5205SOL    HW127074   1.247   0.062  11.742  2.0574 -3.3067  1.0412
 5205SOL    HW227075   1.310   0.186  11.799  0.7361  0.1546 -0.4257
 5206SOL     OW27076   3.043   4.276   4.323 -0.2807 -0.8225 -0.1067
 5206SOL    HW127077   3.062   4.341   4.391 -1.3404 -0.1323 -0.4573
 5206SOL    HW227078   3.023   4.331   4.247  0.9120 -0.9032 -0.4648
 5207SOL     OW27079   1.103   2.340   3.605 -0.6150  0.2910 -0.1199
 5207SOL    HW127080   1.114   2.367   3.514  1.1094 -1.4045 -0.4144
 5207SOL    HW227081   1.105   2.425   3.648  0.9499 -0.3013  0.9954
 5208SOL     OW27082   3.083   0.809   8.576 -0.2471 -0.0333  0.5811
 5208SOL    HW127083   3.140   0.809   8.499 -0.0930 -0.9322  0.6927
 5208SOL    HW227084   3.093   0.721   8.612 -1.0643 -1.1360 -1.8764
 5209SOL     OW27085   0.865   3.474  17.064 -0.3796  0.2710 -0.2988
 5209SOL    HW127086   0.918   3.553  17.072 -0.8020  0.5824 -0.5488
 5209SOL    HW227087   0.932   3.405  17.070 -2.2346 -1.5252 -0.1065
 5210SOL     OW27088   0.139   0.329   8.336 -0.3394 -0.2831 -0.2432
 5210SOL    HW127089   0.173   0.406   8.381  1.3517 -0.7235 -0.7598
 5210SOL    HW227090   0.044   0.335   8.346 -0.2771 -1.3870  1.0063
 5211SOL     OW27091   2.513   0.563   5.071  0.2610  0.3371 -0.1994
 5211SOL    HW127092   2.448   0.569   5.001  0.6545 -1.6260 -0.7169
 5211SOL    HW227093   2.482   0.481   5.108  0.8588  0.4874  0.6350
 5212SOL     OW27094   0.226   0.144  10.797 -0.5423  0.6377 -0.2351
 5212SOL    HW127095   0.140   0.111  10.822 -0.3003  0.7704  0.8066
 5212SOL    HW227096   0.217   0.201  10.721 -0.8920 -0.7596 -1.2426
 5213SOL     OW27097   4.334   0.998   8.793 -0.0702  0.3249  0.9422
 5213SOL    HW127098   4.295   0.910   8.794  0.8659 -0.0801  2.5417
 5213SOL    HW227099   4.298   1.036   8.713  1.0917 -0.8944 -0.1505
 5214SOL     OW27100   2.792   4.426   5.929 -0.0709 -0.9251 -0.3057
 5214SOL    HW127101   2.701   4.401   5.950 -0.4264  2.7673  2.6350
 5214SOL    HW227102   2.832   4.341   5.946 -0.3544 -1.6733 -3.3582
 5215SOL     OW27103   1.595   0.599  13.010  0.3684 -0.3997 -0.1612
 5215SOL    HW127104   1.503   0.624  13.005  0.5173  0.3858  0.8872
 5215SOL    HW227105   1.605   0.623  13.102 -1.1590  0.3798 -0.2023
 5216SOL     OW27106   3.943   2.518   4.624  0.1445 -0.3290  0.0790
 5216SOL    HW127107   4.017   2.543   4.679 -0.8298  2.3440  0.1728
 5216SOL    HW227108   3.894   2.598   4.641 -0.3463 -0.9301  1.4821
 5217SOL     OW27109   3.452   1.473   5.573 -0.0334 -0.6172 -0.1706
 5217SOL    HW127110   3.423   1.564   5.579 -1.4534 -1.0633 -0.2554
 5217SOL    HW227111   3.411   1.436   5.652 -0.3175 -0.1674 -0.1113
 5218SOL     OW27112   2.919   3.651   7.492 -0.1053 -0.5955  0.0465
 5218SOL    HW127113   2.860   3.597   7.544  0.4437  0.1906  1.5047
 5218SOL    HW227114   2.869   3.649   7.411  2.4628  0.0815 -1.5592
 5219SOL     OW27115   2.406   2.124   6.072 -0.0382  0.5057 -0.3834
 5219SOL    HW127116   2.442   2.087   6.153 -0.5078  1.8376  0.4361
 5219SOL    HW227117   2.328   2.071   6.059 -0.5813  0.9179  1.1500
 5220SOL     OW27118   2.414   1.082   6.523 -0.0680  0.0872  0.3704
 5220SOL    HW127119   2.406   1.017   6.592  2.0895  0.5041  1.0311
 5220SOL    HW227120   2.363   1.030   6.462  0.2989 -0.0860  0.2113
 5221SOL     OW27121   3.288   3.764   9.152 -0.9090 -0.3247  0.0341
 5221SOL    HW127122   3.319   3.848   9.184 -1.3264 -0.9823  2.1282
 5221SOL    HW227123   3.359   3.710   9.185  0.1824 -0.1064 -1.9687
 5222SOL     OW27124   1.927   2.931  16.214  0.6188 -0.2176  0.0141
 5222SOL    HW127125   1.885   3.016  16.203  1.3817  0.1331 -0.1403
 5222SOL    HW227126   2.013   2.945  16.254 -0.4550  1.3306  1.7489
 5223SOL     OW27127   0.422   3.076   4.278 -0.3324  0.1803  0.1806
 5223SOL    HW127128   0.367   3.124   4.216 -0.3491  0.0939  0.1278
 5223SOL    HW227129   0.446   2.994   4.235 -3.2253 -0.0343 -0.9815
 5224SOL     OW27130   4.627   1.144   4.857  0.0517 -0.1081 -0.3222
 5224SOL    HW127131   4.643   1.237   4.872  2.6708 -0.4015 -1.2507
 5224SOL    HW227132   4.532   1.137   4.859  0.3014 -2.8943  1.4152
 5225SOL     OW27133   3.192   1.943   8.415 -0.4681  0.3310 -0.3259
 5225SOL    HW127134   3.185   2.038   8.425  2.4623  0.5931 -0.8490
 5225SOL    HW227135   3.276   1.932   8.460 -1.0234 -2.7876 -0.0653
 5226SOL     OW27136   3.843   3.313   9.440 -0.0881  0.7374  0.0674
 5226SOL    HW127137   3.833   3.257   9.516 -0.8524  1.6336  0.6325
 5226SOL    HW227138   3.771   3.274   9.389 -0.7203 -0.1283  1.6340
 5227SOL     OW27139   0.619   3.839  13.200  0.2267 -0.4640  0.2417
 5227SOL    HW127140   0.711   3.863  13.210  0.6048 -2.1686  0.9276
 5227SOL    HW227141   0.623   3.743  13.205  2.3488 -0.2275  3.5004
 5228SOL     OW27142   4.173   3.728  11.199 -0.3555 -0.7478  0.4486
 5228SOL    HW127143   4.227   3.700  11.272 -1.0280 -0.6964  0.9664
 5228SOL    HW227144   4.184   3.646  11.151 -0.2980  1.3981 -3.2237
 5229SOL     OW27145   1.137   2.979   5.770  0.5246 -0.2771 -0.0756
 5229SOL    HW127146   1.113   2.970   5.862 -1.0835  1.6896 -0.3077
 5229SOL    HW227147   1.227   3.008   5.781  0.2817  0.0785  0.9316
 5230SOL     OW27148   4.704   0.684   8.706  0.5217 -0.0922 -0.5243
 5230SOL    HW127149   4.703   0.751   8.774  0.0484  1.4502 -2.0513
 5230SOL    HW227150   0.079   0.673   8.690  0.5802  0.3629 -0.4900
 5231SOL     OW27151   2.775   3.862   7.232 -0.4648 -0.0791  0.0329
 5231SOL    HW127152   2.718   3.936   7.211  0.1278  1.2998  3.2709
 5231SOL    HW227153   2.836   3.852   7.160 -0.4669  0.0177  0.0181
 5232SOL     OW27154   3.310   3.320   4.804  0.4993  0.1322  0.1696
 5232SOL    HW127155   3.274   3.342   4.718  0.9688  1.0066  0.1965
 5232SOL    HW227156   3.381   3.261   4.781  0.5229  0.4825 -0.6348
 5233SOL     OW27157   1.820   2.682   3.407 -0.6157  0.1453  0.0086
 5233SOL    HW127158   1.873   2.623   3.353 -0.2722  1.9377 -1.6189
 5233SOL    HW227159   1.885   2.738   3.450  3.3131 -2.8151 -1.9836
 5234SOL     OW27160   3.121   3.539  10.284 -0.8277 -0.0125 -0.2176
 5234SOL    HW127161   3.200   3.543  10.338 -0.7710 -0.5416 -0.2654
 5234SOL    HW227162   3.108   3.446  10.265  3.1409 -0.6634  0.2173
 5235SOL     OW27163   0.226   1.069  17.577  0.8115  0.1540  0.1121
 5235SOL    HW127164   0.199   1.005  17.643  1.5953  0.7930  1.0618
 5235SOL    HW227165   0.140   1.111  17.566 -0.0127 -1.4040  0.5699
 5236SOL     OW27166   2.112   2.729   2.566 -0.0077 -0.1986  0.1017
 5236SOL    HW127167   2.177   2.737   2.496 -0.3263 -0.2293 -0.1971
 5236SOL    HW227168   2.038   2.709   2.509  2.1244 -0.4735 -2.6040
 5237SOL     OW27169   0.010   4.486   3.784  0.6259  0.4951 -0.5177
 5237SOL    HW127170   4.667   4.442   3.844 -0.5705  1.9732 -0.6672
 5237SOL    HW227171   0.065   4.414   3.754 -1.3693 -0.5485 -1.6546
 5238SOL     OW27172   2.075   2.835  11.573 -0.9870 -0.0242  0.2166
 5238SOL    HW127173   2.119   2.888  11.640  0.3921  0.5005 -1.0875
 5238SOL    HW227174   2.029   2.776  11.633 -0.6407  1.4436  1.9215
 5239SOL     OW27175   2.723   3.259   5.518  0.2803  0.1237 -0.1454
 5239SOL    HW127176   2.726   3.337   5.463  0.0073  0.0865 -0.2098
 5239SOL    HW227177   2.631   3.233   5.510  0.2561  0.1616  0.0174
 5240SOL     OW27178   0.432   0.511   4.946 -0.3836 -0.7271 -0.1459
 5240SOL    HW127179   0.338   0.524   4.937  0.1475  0.8544 -3.4157
 5240SOL    HW227180   0.451   0.435   4.890 -2.8183  0.9068 -3.1733
 5241SOL     OW27181   3.347   3.485  11.712 -0.3763  0.4368 -0.0695
 5241SOL    HW127182   3.272   3.497  11.654 -0.8764 -0.3058  0.4284
 5241SOL    HW227183   3.374   3.575  11.729  0.7470  0.1164 -0.1523
 5242SOL     OW27184   0.448   0.321   5.536  0.2368  0.3955 -0.5621
 5242SOL    HW127185   0.451   0.388   5.468 -2.4164  0.5016 -0.5907
 5242SOL    HW227186   0.514   0.357   5.595 -1.5775  1.3991  0.8903
 5243SOL     OW27187   4.116   4.032   6.969 -0.0911  0.0187 -0.2630
 5243SOL    HW127188   4.200   4.000   6.935 -0.5100  1.6012 -2.7424
 5243SOL    HW227189   4.144   4.090   7.039  0.6650 -0.7634  0.0922
 5244SOL     OW27190   1.162   3.114   3.721 -0.9427  0.0082  0.0218
 5244SOL    HW127191   1.079   3.160   3.731 -1.4192 -0.7080 -0.6961
 5244SOL    HW227192   1.228   3.177   3.752 -0.3079 -0.3633 -0.5698
 5245SOL     OW27193   3.184   2.255  12.584 -0.4177  0.5182 -0.4050
 5245SOL    HW127194   3.206   2.318  12.516 -1.9080  0.6697 -0.7496
 5245SOL    HW227195   3.090   2.241  12.569  0.1123 -1.5268 -1.7658
 5246SOL     OW27196   3.397   3.260  14.147 -0.3290 -0.2513 -0.0219
 5246SOL    HW127197   3.397   3.168  14.121  0.8550 -0.3110  0.1499
 5246SOL    HW227198   3.449   3.252  14.227  0.6761  1.1507 -0.5266
 5247SOL     OW27199   2.251   0.997   7.403 -0.0947 -0.2172  0.2643
 5247SOL    HW127200   2.304   1.052   7.345 -1.2935 -1.5201 -2.0646
 5247SOL    HW227201   2.244   1.056   7.479  1.5528  0.7832 -0.3594
 5248SOL     OW27202   3.113   0.961   5.969 -0.5528 -0.1136  0.4240
 5248SOL    HW127203   3.196   0.915   5.957 -0.4827  0.0696  0.2002
 5248SOL    HW227204   3.092   0.961   5.876 -1.7362  1.3341  0.6819
 5249SOL     OW27205   0.656   0.417   3.978 -0.2662  0.4190  0.4949
 5249SOL    HW127206   0.570   0.443   4.010 -1.1235 -1.2680 -0.4746
 5249SOL    HW227207   0.716   0.466   4.035  0.8213  0.2687 -0.5089
 5250SOL     OW27208   2.269   3.840  10.058 -0.4431 -0.4198  1.1187
 5250SOL    HW127209   2.218   3.910  10.016  2.8224  0.1188 -1.9336
 5250SOL    HW227210   2.208   3.767  10.050  0.9922 -1.4335 -0.5044
 5251SOL     OW27211   1.059   3.410  15.929 -0.0222  0.3714  0.1811
 5251SOL    HW127212   1.094   3.467  15.997  0.2080 -0.5642  0.8525
 5251SOL    HW227213   1.143   3.379  15.896 -0.0760  1.2430 -0.7621
 5252SOL     OW27214   1.912   0.814   4.466 -0.1465  0.0075 -0.1861
 5252SOL    HW127215   1.832   0.762   4.465 -0.3231  0.2994 -1.2015
 5252SOL    HW227216   1.981   0.748   4.460 -0.1743 -0.0609  0.2455
 5253SOL     OW27217   1.660   3.032   3.217 -0.2335 -0.9003 -0.1470
 5253SOL    HW127218   1.688   2.965   3.154 -0.9936 -1.3476 -0.0176
 5253SOL    HW227219   1.749   3.045   3.248 -0.5621  0.3630  0.2613
 5254SOL     OW27220   2.604   1.935   9.371  0.6331  0.1671 -0.1721
 5254SOL    HW127221   2.598   1.880   9.293  1.8452  0.1993 -0.2808
 5254SOL    HW227222   2.511   1.959   9.381  0.7878  0.4328  0.6730
 5255SOL     OW27223   2.668   2.721   3.559  0.1881 -0.4364 -0.7408
 5255SOL    HW127224   2.705   2.634   3.575 -0.4306 -0.6950 -0.7119
 5255SOL    HW227225   2.725   2.766   3.497 -0.9907  1.2172 -0.6257
 5256SOL     OW27226   0.898   0.803   4.271 -0.6646  0.0958  0.0316
 5256SOL    HW127227   0.867   0.722   4.312 -0.2807 -0.0865 -0.0397
 5256SOL    HW227228   0.819   0.829   4.222  0.5289 -1.4412 -2.6736
 5257SOL     OW27229   1.487   2.147  12.383 -0.1926 -0.0242 -0.2778
 5257SOL    HW127230   1.409   2.187  12.346 -1.2805 -1.1541  0.8079
 5257SOL    HW227231   1.432   2.110  12.452  0.1514  0.2993  0.1716
 5258SOL     OW27232   0.108   0.484  16.985 -0.0048 -0.1391  0.1606
 5258SOL    HW127233   0.018   0.454  16.973  0.2370 -0.3844 -1.0731
 5258SOL    HW227234   0.151   0.409  17.027 -0.4331  0.2361  1.2565
 5259SOL     OW27235   2.568   3.519   2.157  0.1795  0.1617 -0.2783
 5259SOL    HW127236   2.553   3.425   2.162 -0.1174  0.2579  0.6650
 5259SOL    HW227237   2.477   3.547   2.164 -0.3131 -1.6791  0.6191
 5260SOL     OW27238   2.477   1.562   8.862  0.1405 -0.4963  0.1142
 5260SOL    HW127239   2.478   1.476   8.820 -2.4548  0.0958 -1.1075
 5260SOL    HW227240   2.526   1.606   8.792  3.1371 -1.9872  1.2428
 5261SOL     OW27241   2.180   4.552   6.725  0.1665  0.1297  0.4245
 5261SOL    HW127242   2.201   4.535   6.817  0.4707  1.4291  0.5971
 5261SOL    HW227243   2.215   4.474   6.681  0.2487  1.3136 -1.6137
 5262SOL     OW27244   4.182   2.254   4.157 -0.2364  0.0677 -0.4858
 5262SOL    HW127245   4.219   2.265   4.070 -2.5785  1.3842 -1.3371
 5262SOL    HW227246   4.262   2.246   4.209  0.1489  2.4547 -0.7264
 5263SOL     OW27247   1.164   3.018   7.929 -0.7956 -0.3324 -0.2349
 5263SOL    HW127248   1.238   3.011   7.869 -0.9216  1.1489 -0.5583
 5263SOL    HW227249   1.209   3.067   7.999  0.2933  1.1510 -1.9696
 5264SOL     OW27250   0.279   0.242  17.411 -0.5036  0.0918 -0.3134
 5264SOL    HW127251   0.340   0.223  17.483 -1.0865  0.2193  0.2181
 5264SOL    HW227252   0.338   0.285  17.349 -0.0973 -1.6569 -1.1572
 5265SOL     OW27253   2.989   3.416  14.968 -0.1807  0.5066 -0.5306
 5265SOL    HW127254   2.989   3.497  15.018  2.4958  1.1431 -1.5906
 5265SOL    HW227255   2.897   3.387  14.972  0.0073  0.5400  3.8455
 5266SOL     OW27256   3.326   1.009  17.201 -0.2696 -0.6307  0.5605
 5266SOL    HW127257   3.334   1.010  17.106 -2.8478  0.1658  0.3533
 5266SOL    HW227258   3.420   1.009  17.221 -0.0413  0.6240 -0.4949
 5267SOL     OW27259   3.610   2.237   3.190  0.3912  0.6810  0.6671
 5267SOL    HW127260   3.701   2.263   3.177  0.2768 -0.4292 -2.2766
 5267SOL    HW227261   3.599   2.182   3.113  0.5876 -0.6066  1.5555
 5268SOL     OW27262   2.877   3.457   9.244  0.0596  0.2084  0.0422
 5268SOL    HW127263   2.945   3.514   9.207  0.3805  0.5067  1.0882
 5268SOL    HW227264   2.817   3.465   9.170  0.8866 -0.7804 -0.7537
 5269SOL     OW27265   3.243   2.015  15.751  0.7927  0.8889 -0.0329
 5269SOL    HW127266   3.321   2.051  15.793  0.5453 -0.2028  1.3742
 5269SOL    HW227267   3.245   2.077  15.678 -3.8914  0.0108 -0.9587
 5270SOL     OW27268   4.601   2.646  14.570 -0.3351 -0.1047  0.6919
 5270SOL    HW127269   4.558   2.612  14.492 -1.0319  1.7270  0.2867
 5270SOL    HW227270   4.692   2.654  14.542 -0.6957  0.7103 -0.2454
 5271SOL     OW27271   2.396   0.082   9.338  0.6627  0.1068 -0.5703
 5271SOL    HW127272   2.305   0.065   9.314  0.7713 -1.2015 -0.0492
 5271SOL    HW227273   2.418   4.716   9.376  0.8053  0.2374 -0.3599
 5272SOL     OW27274   4.067   1.296   5.572 -0.2978  0.1558 -0.6402
 5272SOL    HW127275   4.144   1.255   5.532 -0.0656  2.1472 -2.2265
 5272SOL    HW227276   4.015   1.216   5.572 -0.5661  0.3354  0.4857
 5273SOL     OW27277   0.677   4.267  16.577 -0.2332  0.1630 -0.3246
 5273SOL    HW127278   0.661   4.252  16.484  0.4724 -3.7709  0.1716
 5273SOL    HW227279   0.630   4.350  16.583  0.3158  0.3901  0.7235
 5274SOL     OW27280   0.810   1.195   1.777  0.1667  0.2530  0.2380
 5274SOL    HW127281   0.834   1.286   1.756  1.2606  0.0856  0.7566
 5274SOL    HW227282   0.786   1.200   1.869 -1.2973 -0.3115 -0.1219
 5275SOL     OW27283   2.147   4.518   6.313 -0.4129  0.2303  0.1471
 5275SOL    HW127284   2.127   4.601   6.270 -1.0935 -0.7427 -1.4178
 5275SOL    HW227285   2.070   4.463   6.303 -2.4106  3.1053 -0.2764
 5276SOL     OW27286   3.929   1.620   1.079  0.0821  0.1500 -0.0371
 5276SOL    HW127287   3.872   1.634   1.003 -0.1938 -0.8694 -0.0182
 5276SOL    HW227288   3.975   1.543   1.046  0.3186 -0.2522  1.2346
 5277SOL     OW27289   1.331   0.935  16.996  0.4259 -0.2904  0.2571
 5277SOL    HW127290   1.258   0.997  16.990  1.8620  1.2528 -1.2621
 5277SOL    HW227291   1.312   0.870  16.928  0.6307 -0.0921  0.0092
 5278SOL     OW27292   2.543   0.289   1.149  0.5127 -0.1646 -0.3466
 5278SOL    HW127293   2.526   0.196   1.139 -0.3739 -0.4032  3.2128
 5278SOL    HW227294   2.521   0.308   1.058 -0.8948 -1.7925 -0.3361
 5279SOL     OW27295   1.532   2.154  16.722 -0.0732  0.4369 -0.6312
 5279SOL    HW127296   1.477   2.231  16.709  2.8628  2.3370 -1.7632
 5279SOL    HW227297   1.591   2.160  16.647 -0.5393 -1.1046 -1.1232
 5280SOL     OW27298   4.618   4.302   3.933 -0.2043 -0.0545 -0.2378
 5280SOL    HW127299   4.550   4.251   3.890  0.8016 -1.2128 -0.4611
 5280SOL    HW227300   4.635   4.239   4.003 -0.5302  0.3311  0.1953
 5281SOL     OW27301   0.430   3.245   0.235 -0.3358 -0.4294  0.0568
 5281SOL    HW127302   0.425   3.184   0.309 -0.1915 -1.3325 -0.6825
 5281SOL    HW227303   0.466   3.325   0.273  0.8310 -2.3339  2.9721
 5282SOL     OW27304   1.935   1.021   6.213 -0.4765 -0.6910 -0.3198
 5282SOL    HW127305   1.862   1.006   6.153  0.2084  2.2814 -1.9411
 5282SOL    HW227306   1.918   0.960   6.285  0.9811  1.4296  1.8155
 5283SOL     OW27307   1.371   3.159   8.052 -0.1315 -0.0345  0.0348
 5283SOL    HW127308   1.378   3.254   8.067  0.7262 -0.0163 -0.4775
 5283SOL    HW227309   1.461   3.140   8.077 -0.0809 -1.6054 -1.3303
 5284SOL     OW27310   0.188   0.318  10.622  0.0667  0.0622  0.2942
 5284SOL    HW127311   0.243   0.375  10.568  2.0126 -1.0194  1.1309
 5284SOL    HW227312   0.129   0.278  10.557 -1.2916  1.2440  0.8009
 5285SOL     OW27313   3.393   1.549   5.988  0.1418  0.1064 -0.1039
 5285SOL    HW127314   3.366   1.504   5.908  1.1215  0.6751 -0.7531
 5285SOL    HW227315   3.402   1.638   5.955  2.2362  0.2847  0.9676
 5286SOL     OW27316   3.725   1.324   1.233 -0.5792 -0.2285  0.1155
 5286SOL    HW127317   3.758   1.256   1.174  0.3185  0.8011 -0.5736
 5286SOL    HW227318   3.673   1.382   1.177 -0.4866 -1.2317 -1.0131
 5287SOL     OW27319   2.114   0.224   8.226  0.0030 -0.3160  0.4516
 5287SOL    HW127320   2.144   0.139   8.194  2.6148  0.5734  0.5556
 5287SOL    HW227321   2.117   0.206   8.320 -2.0597  1.4179  0.8451
 5288SOL     OW27322   0.717   1.493  13.886  0.1781 -0.7035  0.2918
 5288SOL    HW127323   0.740   1.405  13.857  1.9371 -0.3656  0.6313
 5288SOL    HW227324   0.700   1.531  13.800  0.1812 -2.6690 -0.5571
 5289SOL     OW27325   2.526   3.172   7.088 -0.0372 -0.8253  0.0709
 5289SOL    HW127326   2.471   3.136   7.158  0.7093  1.7864  1.9791
 5289SOL    HW227327   2.518   3.267   7.096 -0.2628 -0.7245 -1.3534
 5290SOL     OW27328   0.637   4.089   2.385 -0.1222  0.7216  0.0885
 5290SOL    HW127329   0.641   4.035   2.464 -1.2727 -2.1503 -1.8348
 5290SOL    HW227330   0.546   4.083   2.357  0.1746 -1.6321 -0.4083
 5291SOL     OW27331   1.652   0.157   6.733  0.0896 -0.0294 -0.2797
 5291SOL    HW127332   1.672   0.133   6.823  1.4662  0.4674 -0.4591
 5291SOL    HW227333   1.561   0.183   6.746 -0.1564 -0.9773 -0.0955
 5292SOL     OW27334   2.340   2.969  11.769 -0.1888  0.3117  0.2648
 5292SOL    HW127335   2.320   2.925  11.852  0.6336 -0.7318 -0.0917
 5292SOL    HW227336   2.390   2.896  11.732  1.5059  0.9359  1.3114
 5293SOL     OW27337   1.139   0.212  14.844 -0.5583 -0.2425  0.4182
 5293SOL    HW127338   1.167   0.293  14.802 -0.7367 -1.3929 -1.8900
 5293SOL    HW227339   1.071   0.241  14.906 -1.1081  1.7836 -1.1314
 5294SOL     OW27340   2.032   0.279   7.160  0.1625 -0.2147  0.3185
 5294SOL    HW127341   1.953   0.237   7.193  0.2352 -0.5213  0.0978
 5294SOL    HW227342   1.999   0.368   7.145  2.4003  0.5144 -0.2255
 5295SOL     OW27343   1.364   0.497   9.410  0.3652  0.0994 -0.3417
 5295SOL    HW127344   1.314   0.425   9.373 -0.4388  0.5340 -0.0965
 5295SOL    HW227345   1.395   0.454   9.490  1.8660  1.7952 -0.0084
 5296SOL     OW27346   2.765   1.017  11.166  0.1906 -0.3954  0.2266
 5296SOL    HW127347   2.727   0.933  11.141 -0.1700 -0.0142 -0.5022
 5296SOL    HW227348   2.800   1.008  11.254  3.4490 -0.9720 -1.1282
 5297SOL     OW27349   2.920   4.430  11.645 -0.3684 -0.5167 -0.2240
 5297SOL    HW127350   2.856   4.472  11.588 -0.0940 -0.9408 -0.8402
 5297SOL    HW227351   2.996   4.413  11.590 -1.1932 -2.9433 -0.6192
 5298SOL     OW27352   0.038   3.676   6.307 -0.0990 -0.4737 -0.4739
 5298SOL    HW127353   4.711   3.666   6.390  2.3659 -1.0008  0.8332
 5298SOL    HW227354   0.100   3.603   6.306 -0.1126 -0.4857 -0.4189
 5299SOL     OW27355   2.345   1.474   7.364  0.3165 -0.3656  0.3812
 5299SOL    HW127356   2.360   1.388   7.324  0.7987  0.0319 -0.2822
 5299SOL    HW227357   2.432   1.505   7.389  0.0728 -0.1865  1.0115
 5300SOL     OW27358   0.930   1.240   5.704 -0.5853  0.5476  0.6034
 5300SOL    HW127359   0.923   1.152   5.667  0.8312  1.0648 -0.9221
 5300SOL    HW227360   0.910   1.301   5.632 -2.2221  1.2414  1.6376
 5301SOL     OW27361   4.659   0.551   2.853  0.1479  0.5843 -0.7005
 5301SOL    HW127362   4.588   0.588   2.800  0.9223  0.9609 -1.4788
 5301SOL    HW227363   4.711   0.509   2.785  2.5092  1.7991  0.3351
 5302SOL     OW27364   0.979   1.299   8.206  0.3996  0.1158 -0.2441
 5302SOL    HW127365   0.969   1.388   8.173  0.6684  0.3592  0.3390
 5302SOL    HW227366   0.908   1.302   8.271  0.5728  2.2292 -0.1739
 5303SOL     OW27367   0.701   0.792   6.198  0.3155  0.0202  0.0349
 5303SOL    HW127368   0.755   0.829   6.268 -0.8056 -0.1472  0.9847
 5303SOL    HW227369   0.616   0.780   6.241 -0.2112 -0.7715 -1.2346
 5304SOL     OW27370   2.533   3.924   9.184 -0.4477 -0.6086 -0.0078
 5304SOL    HW127371   2.443   3.895   9.173 -0.6617  0.6539 -1.5990
 5304SOL    HW227372   2.581   3.845   9.210 -2.3095 -2.7228 -3.0936
 5305SOL     OW27373   3.155   2.782   5.422  0.0871  0.5699 -0.2329
 5305SOL    HW127374   3.106   2.795   5.502  0.0718 -0.7551 -0.0343
 5305SOL    HW227375   3.239   2.796   5.465  1.0190 -1.3266 -1.4344
 5306SOL     OW27376   3.088   0.432   8.110  0.8080 -0.1131  0.2217
 5306SOL    HW127377   3.155   0.417   8.043 -2.0775 -1.1471 -2.4479
 5306SOL    HW227378   3.008   0.394   8.074  0.4423  1.3393 -0.4745
 5307SOL     OW27379   4.293   0.854  13.221 -0.0378  0.0667 -0.3455
 5307SOL    HW127380   4.299   0.947  13.198  1.3664  0.1336  0.3059
 5307SOL    HW227381   4.381   0.828  13.191  1.4800  1.4633  2.9007
 5308SOL     OW27382   1.915   4.329   3.609  0.1996 -0.0157 -0.2955
 5308SOL    HW127383   1.876   4.244   3.588  2.4112 -1.3922  1.1788
 5308SOL    HW227384   1.960   4.344   3.526 -2.9118  0.2166 -1.9095
 5309SOL     OW27385   0.230   2.861   6.010 -0.2018 -0.2939 -0.1696
 5309SOL    HW127386   0.297   2.859   6.079  0.7266  2.1457 -0.9999
 5309SOL    HW227387   0.273   2.825   5.933  0.4002  1.5426 -0.6973
 5310SOL     OW27388   3.792   1.105   6.710  0.4380  0.3631 -0.1447
 5310SOL    HW127389   3.829   1.086   6.796 -0.2483  3.3159  0.7980
 5310SOL    HW227390   3.698   1.093   6.727  0.3747  0.5125 -0.3794
 5311SOL     OW27391   1.525   0.490   3.056 -0.2086  0.2735 -0.3245
 5311SOL    HW127392   1.491   0.432   2.988 -1.1400  1.9304 -1.2991
 5311SOL    HW227393   1.554   0.432   3.126 -1.8472  0.6260  0.6640
 5312SOL     OW27394   1.648   1.156   2.502 -0.1307 -0.1463  0.5582
 5312SOL    HW127395   1.667   1.248   2.521  3.5958 -0.8698  0.3379
 5312SOL    HW227396   1.735   1.115   2.497 -0.9838 -1.8725 -0.0936
 5313SOL     OW27397   0.647   3.173   9.925  0.1204 -0.2171  0.4722
 5313SOL    HW127398   0.703   3.243   9.892 -2.7258  1.2639 -1.2126
 5313SOL    HW227399   0.672   3.092   9.881 -2.4097  0.2400 -1.8005
 5314SOL     OW27400   3.085   3.871   7.764 -0.3087 -0.0407  0.0149
 5314SOL    HW127401   3.026   3.943   7.740  0.2030  0.7766  1.1985
 5314SOL    HW227402   3.035   3.803   7.810 -1.1579 -0.4024 -1.4447
 5315SOL     OW27403   4.497   0.959   7.486 -0.3932  0.2534 -0.3053
 5315SOL    HW127404   4.403   0.946   7.475 -0.3632  0.6859 -1.0689
 5315SOL    HW227405   4.532   0.920   7.406 -2.2009 -1.8318 -0.0909
 5316SOL     OW27406   2.135   2.362  14.568 -0.3944 -0.1140  0.3401
 5316SOL    HW127407   2.141   2.299  14.640  2.1463 -0.7665 -0.4566
 5316SOL    HW227408   2.046   2.397  14.572 -0.4752 -0.3735  0.8303
 5317SOL     OW27409   0.257   1.375  14.874 -0.5634  0.1967  0.3369
 5317SOL    HW127410   0.330   1.314  14.885 -0.8454  0.1148  1.7190
 5317SOL    HW227411   0.220   1.355  14.788  0.9150  0.9317 -0.4877
 5318SOL     OW27412   0.744   2.219  11.088 -0.3120  0.0137 -0.4323
 5318SOL    HW127413   0.721   2.219  11.181  0.0771  1.8696 -0.3278
 5318SOL    HW227414   0.667   2.260  11.048 -1.0123  0.5368  1.4330
 5319SOL     OW27415   3.238   2.076   5.411 -0.1968  0.1373 -0.3383
 5319SOL    HW127416   3.283   2.037   5.337 -1.7743 -2.3356  0.0228
 5319SOL    HW227417   3.243   2.011   5.482  2.0889 -1.3180 -1.8285
 5320SOL     OW27418   1.840   0.062   7.204 -0.5208  0.3108  0.0667
 5320SOL    HW127419   1.821   4.693   7.173  0.8902 -0.0365  0.1605
 5320SOL    HW227420   1.799   0.063   7.291  0.7878 -1.9447  0.7237
 5321SOL     OW27421   2.899   0.184   8.971  0.1324  0.7192 -0.2497
 5321SOL    HW127422   2.825   0.241   8.949 -0.1038 -0.7206 -3.0762
 5321SOL    HW227423   2.942   0.163   8.888 -1.6981  2.3040 -1.5943
 5322SOL     OW27424   3.944   0.397  10.574 -0.1053 -0.1835 -0.2946
 5322SOL    HW127425   3.970   0.458  10.644 -2.6702 -1.6352  1.9325
 5322SOL    HW227426   3.967   0.453  10.500 -0.5718  1.4570  0.7866
 5323SOL     OW27427   1.091   4.246  10.283 -0.4691 -0.1862  0.2459
 5323SOL    HW127428   1.137   4.319  10.242 -0.8205 -0.3217 -0.3746
 5323SOL    HW227429   1.171   4.203  10.315 -0.7270 -1.9219 -1.4166
 5324SOL     OW27430   0.283   3.543   6.371 -0.5976  0.3529  0.0165
 5324SOL    HW127431   0.354   3.607   6.380  0.3644 -0.4827 -1.4721
 5324SOL    HW227432   0.312   3.501   6.290 -0.3104  0.6177 -0.0203
 5325SOL     OW27433   4.532   4.353   6.974 -0.0019 -0.1972 -0.0850
 5325SOL    HW127434   4.551   4.306   6.893  2.5635 -2.8586  2.0375
 5325SOL    HW227435   4.533   4.285   7.041  1.8859  1.6049  1.7395
 5326SOL     OW27436   0.835   1.883   1.946  0.4385  0.8398  0.1015
 5326SOL    HW127437   0.757   1.866   2.000  0.4822 -1.1580 -0.4495
 5326SOL    HW227438   0.880   1.932   2.014  0.3514  1.7423 -0.4884
 5327SOL     OW27439   4.220   0.265   3.573  0.2315 -0.3018 -0.4027
 5327SOL    HW127440   4.224   0.300   3.484 -1.3589  0.8536 -0.0177
 5327SOL    HW227441   4.298   0.210   3.574  1.1394  0.9530 -1.4016
 5328SOL     OW27442   4.036   3.322   2.879  0.1999 -0.1023  0.3240
 5328SOL    HW127443   3.948   3.300   2.909 -0.1748 -2.4063 -2.5135
 5328SOL    HW227444   4.083   3.311   2.961  0.5732  0.8212  0.2384
 5329SOL     OW27445   4.649   2.245   8.772  0.7664  0.5638  0.0392
 5329SOL    HW127446   4.620   2.229   8.862  3.1267 -0.3646  0.6381
 5329SOL    HW227447   4.566   2.217   8.733 -0.3273  0.1729  2.6420
 5330SOL     OW27448   0.512   1.138   7.533 -0.2670 -0.3091  0.3950
 5330SOL    HW127449   0.459   1.173   7.604  0.4597 -1.2204  1.4023
 5330SOL    HW227450   0.446   1.085   7.489 -0.6737  1.2172 -0.8314
 5331SOL     OW27451   1.685   0.667   4.491  0.6763 -0.1582 -0.1171
 5331SOL    HW127452   1.635   0.608   4.548 -2.3377  0.7223 -1.8307
 5331SOL    HW227453   1.632   0.659   4.412  1.3453  0.6056 -0.6394
 5332SOL     OW27454   1.338   3.180  13.564  0.4430 -0.0216 -0.7720
 5332SOL    HW127455   1.286   3.258  13.582 -0.9261 -1.7305  2.5677
 5332SOL    HW227456   1.272   3.137  13.509 -1.1207  2.6585 -1.0246
 5333SOL     OW27457   4.344   0.600   3.695 -0.5099  0.0722 -0.3586
 5333SOL    HW127458   4.317   0.513   3.724 -1.7656  0.2787 -0.9165
 5333SOL    HW227459   4.275   0.657   3.729 -1.8949 -1.2027 -1.0689
 5334SOL     OW27460   2.370   0.134  14.400 -0.9826  0.0540  0.1251
 5334SOL    HW127461   2.364   0.198  14.470 -0.0769 -0.5778  0.7855
 5334SOL    HW227462   2.279   0.125  14.373 -1.3271 -1.1987  1.7275
 5335SOL     OW27463   2.270   3.193   0.933 -0.1499 -0.4018 -0.0390
 5335SOL    HW127464   2.313   3.271   0.899  1.1690  0.0260  2.6256
 5335SOL    HW227465   2.183   3.227   0.951  0.2718  0.7357 -0.1552
 5336SOL     OW27466   2.410   1.530   6.224 -0.6349  0.3198  0.3473
 5336SOL    HW127467   2.496   1.572   6.215  0.0147 -0.6328  2.0086
 5336SOL    HW227468   2.363   1.548   6.143 -0.8878 -0.9093  0.2275
 5337SOL     OW27469   2.020   3.232   5.371 -0.5000 -0.7326 -0.3645
 5337SOL    HW127470   1.969   3.162   5.412  0.4950 -0.5600  1.2128
 5337SOL    HW227471   2.079   3.183   5.313  1.1024  2.8789 -1.8059
 5338SOL     OW27472   0.071   3.400  15.782 -0.2298 -0.4888 -0.1157
 5338SOL    HW127473   4.699   3.418  15.758  0.2352  1.2444 -0.5474
 5338SOL    HW227474   0.112   3.467  15.727 -0.2651 -0.2116  0.1951
 5339SOL     OW27475   4.321   3.723   0.054  0.1649 -0.1306  0.0055
 5339SOL    HW127476   4.403   3.705   0.008 -0.7154  0.4153 -1.7606
 5339SOL    HW227477   4.289   3.636   0.078  0.3446 -0.2034 -0.0174
 5340SOL     OW27478   0.300   1.955   3.371 -0.0125 -0.2598  0.0309
 5340SOL    HW127479   0.387   1.995   3.372  0.5621 -1.4599 -1.6975
 5340SOL    HW227480   0.313   1.877   3.424 -1.6185 -0.1915  0.5098
 5341SOL     OW27481   2.890   1.765   9.461 -0.0697  0.0834  0.3656
 5341SOL    HW127482   2.820   1.777   9.525 -1.1030 -0.4402 -0.6564
 5341SOL    HW227483   2.859   1.787   9.373  0.9018 -2.0411 -0.5136
 5342SOL     OW27484   1.832   0.556   0.657 -0.4091 -0.4822  0.1460
 5342SOL    HW127485   1.787   0.628   0.614 -0.5634  0.3409  1.6955
 5342SOL    HW227486   1.917   0.557   0.612  0.4089  1.3371  1.7370
 5343SOL     OW27487   0.522   0.575  15.438  0.1241  0.3721 -0.2022
 5343SOL    HW127488   0.605   0.609  15.469  0.3174  0.6038 -0.9616
 5343SOL    HW227489   0.463   0.617  15.500  0.3110  2.4715 -1.4630
 5344SOL     OW27490   0.299   3.994   8.358  0.0325  0.1403  0.0357
 5344SOL    HW127491   0.347   3.932   8.414  1.2108  0.3586 -0.7317
 5344SOL    HW227492   0.268   4.068   8.409  0.6549  1.3192 -1.2919
 5345SOL     OW27493   0.249   1.693  11.563 -0.3429  0.0243 -0.0228
 5345SOL    HW127494   0.315   1.747  11.605 -1.3925  0.2575  1.3609
 5345SOL    HW227495   0.181   1.679  11.629  0.5913  1.1773  1.1809
 5346SOL     OW27496   0.862   1.915   7.806  0.2548 -0.8472  0.5714
 5346SOL    HW127497   0.798   1.974   7.847 -0.9209 -1.2340 -0.7277
 5346SOL    HW227498   0.950   1.952   7.809  1.2656 -3.4236  2.2121
 5347SOL     OW27499   2.678   1.894   6.567 -0.2872 -0.0582 -0.3070
 5347SOL    HW127500   2.597   1.910   6.519 -1.6372 -1.2962  1.5649
 5347SOL    HW227501   2.648   1.825   6.627  1.3289 -0.5221 -0.0258
 5348SOL     OW27502   0.629   0.833  15.795  0.0511  0.0664 -0.0768
 5348SOL    HW127503   0.576   0.854  15.872  0.1588 -2.9194  0.8094
 5348SOL    HW227504   0.715   0.842  15.836 -0.5707  2.2147  0.7865
 5349SOL     OW27505   1.025   4.507   1.680  0.2583 -0.0077 -0.9819
 5349SOL    HW127506   1.119   4.521   1.690 -0.0127  1.8515 -1.0523
 5349SOL    HW227507   1.001   4.566   1.609 -1.0286  0.5786 -0.0556
 5350SOL     OW27508   3.699   4.561   3.286  0.3848 -0.3471  0.0661
 5350SOL    HW127509   3.717   4.545   3.193  0.5686  2.2980 -0.3553
 5350SOL    HW227510   3.788   4.586   3.311  0.8586 -2.6277  0.6328
 5351SOL     OW27511   0.320   2.995  12.029  0.2921 -0.4783 -0.0068
 5351SOL    HW127512   0.274   2.912  12.023 -0.9020  0.2371 -0.7606
 5351SOL    HW227513   0.325   3.003  12.125  0.1920 -1.1583  0.0548
 5352SOL     OW27514   4.449   0.443   5.721 -0.5845 -0.1672  0.0874
 5352SOL    HW127515   4.451   0.349   5.705  2.4730 -0.2807  1.2842
 5352SOL    HW227516   4.354   0.459   5.727 -0.0439  2.3682  1.8707
 5353SOL     OW27517   0.714   1.864   2.619  0.2472 -0.2600 -0.2264
 5353SOL    HW127518   0.682   1.778   2.591  2.3397 -1.2615  0.4018
 5353SOL    HW227519   0.650   1.926   2.585  0.3758  0.6805  1.2572
 5354SOL     OW27520   4.400   2.667   6.732 -0.0525 -0.0374 -0.3177
 5354SOL    HW127521   4.358   2.712   6.805  1.3245  0.6182  0.0762
 5354SOL    HW227522   4.414   2.580   6.769  0.1189 -0.9296 -2.4254
 5355SOL     OW27523   4.282   0.730   4.997  0.0395 -0.2176  0.2975
 5355SOL    HW127524   4.203   0.719   4.945 -0.2392 -1.4275  0.9935
 5355SOL    HW227525   4.302   0.823   5.009  1.6354 -0.5073  0.0087
 5356SOL     OW27526   0.355   0.531   6.038  0.1276 -0.0719  0.1310
 5356SOL    HW127527   0.280   0.550   5.981 -0.3945  0.2970  0.9411
 5356SOL    HW227528   0.382   0.444   6.008 -1.9467 -1.0832  1.1547
 5357SOL     OW27529   3.617   3.094   7.307  0.1484 -0.1957 -0.5792
 5357SOL    HW127530   3.673   3.167   7.335 -0.5406  0.8899 -2.0375
 5357SOL    HW227531   3.566   3.083   7.387 -0.1230 -0.1619 -0.7473
 5358SOL     OW27532   0.961   0.490   5.694  0.2428  0.1307 -0.2874
 5358SOL    HW127533   0.915   0.414   5.658  0.8789 -0.1768 -0.4564
 5358SOL    HW227534   1.033   0.501   5.632  1.7319 -0.4676  1.3462
 5359SOL     OW27535   0.213   0.699   0.927  0.2576  0.2926 -0.0122
 5359SOL    HW127536   0.243   0.781   0.888 -1.0063  1.0228  0.5327
 5359SOL    HW227537   0.291   0.644   0.917  0.1142  0.2253 -0.7575
 5360SOL     OW27538   0.717   2.560   6.114 -0.0428 -0.2166 -0.0075
 5360SOL    HW127539   0.777   2.604   6.053  1.0458 -0.0901  1.1712
 5360SOL    HW227540   0.640   2.543   6.059  0.2209  0.9085 -0.7314
 5361SOL     OW27541   0.885   0.613   6.853 -0.1232  0.5269 -0.0792
 5361SOL    HW127542   0.859   0.658   6.933 -1.2599  2.4286 -1.5031
 5361SOL    HW227543   0.867   0.522   6.876 -2.0412  1.0126  0.3099
 5362SOL     OW27544   1.298   4.360  16.819  0.1488 -0.3442  0.6321
 5362SOL    HW127545   1.373   4.419  16.812 -0.4390  0.6455  2.5818
 5362SOL    HW227546   1.252   4.394  16.896 -1.0565  0.9489 -0.6599
 5363SOL     OW27547   4.585   2.583   8.535 -0.1217 -0.0241  0.2314
 5363SOL    HW127548   4.657   2.637   8.570 -0.5344  0.3604  0.4876
 5363SOL    HW227549   4.517   2.589   8.602 -0.8421  2.3283 -0.7120
 5364SOL     OW27550   1.471   3.334   7.482 -0.5669  0.0705  0.7765
 5364SOL    HW127551   1.411   3.346   7.556 -1.7594  2.0368 -0.5148
 5364SOL    HW227552   1.421   3.370   7.409  1.5324 -0.6707 -1.0388
 5365SOL     OW27553   3.939   1.405  10.444  0.1118  0.1722 -0.0427
 5365SOL    HW127554   3.940   1.427  10.537  1.0517 -1.7044  0.4081
 5365SOL    HW227555   3.895   1.485  10.417 -0.1298 -0.0926 -0.4317
 5366SOL     OW27556   3.630   2.011   5.803 -0.0301  0.0880  0.3157
 5366SOL    HW127557   3.672   2.014   5.890  0.4580 -0.5555  0.1012
 5366SOL    HW227558   3.690   1.962   5.747 -0.1531  0.1084  0.1688
 5367SOL     OW27559   1.345   2.624  12.339  0.0297  0.0164 -0.5482
 5367SOL    HW127560   1.316   2.535  12.321 -0.2930 -0.1223  0.6645
 5367SOL    HW227561   1.340   2.655  12.248 -0.9003  1.5815  0.0404
 5368SOL     OW27562   2.647   0.765   8.482  0.5628 -0.6696 -0.6355
 5368SOL    HW127563   2.682   0.754   8.394  1.9174 -1.0694 -0.0498
 5368SOL    HW227564   2.705   0.837   8.508 -1.2224  0.1086  1.2254
 5369SOL     OW27565   4.609   4.549   5.987 -0.1809 -0.1888 -0.3217
 5369SOL    HW127566   4.513   4.552   5.979 -0.2239 -0.0294  0.2211
 5369SOL    HW227567   4.623   4.572   5.895  2.1791  0.9494  0.3150
 5370SOL     OW27568   1.712   1.940   6.795 -0.1760  0.3361 -0.0111
 5370SOL    HW127569   1.739   1.877   6.861  0.4178 -1.1323 -1.6451
 5370SOL    HW227570   1.622   1.920   6.767 -0.6223  0.5183  1.2750
 5371SOL     OW27571   1.094   2.759   3.042  0.1956  0.6101 -0.0654
 5371SOL    HW127572   1.112   2.774   3.135 -1.2955 -2.9424  0.8261
 5371SOL    HW227573   1.017   2.702   3.050 -0.0201  0.9248  0.1329
 5372SOL     OW27574   3.838   0.894   7.184 -0.4858  0.0718  0.6846
 5372SOL    HW127575   3.870   0.954   7.251 -0.0844  0.1976  0.3818
 5372SOL    HW227576   3.790   0.830   7.236 -0.2261  0.2430  1.1274
 5373SOL     OW27577   0.992   3.649  12.962 -0.2446  0.1594  0.1157
 5373SOL    HW127578   1.018   3.617  13.048  0.8297 -0.0903 -0.2942
 5373SOL    HW227579   1.063   3.714  12.952  0.5903 -0.6988  0.4953
 5374SOL     OW27580   2.135   4.325   2.216 -0.4455 -0.1583  0.5017
 5374SOL    HW127581   2.045   4.356   2.204 -1.0601 -1.6747  1.1183
 5374SOL    HW227582   2.131   4.230   2.227 -0.1402 -0.1289  0.8432
 5375SOL     OW27583   3.320   0.293   2.586 -0.6780 -0.1749 -0.2585
 5375SOL    HW127584   3.247   0.310   2.646 -0.0215  0.2761  0.4327
 5375SOL    HW227585   3.341   0.380   2.553  0.5496 -0.4468 -0.2004
 5376SOL     OW27586   4.000   4.511   8.952 -0.4411 -0.0813  0.4854
 5376SOL    HW127587   4.074   4.556   8.910  0.4807 -0.9694  1.1321
 5376SOL    HW227588   3.973   4.455   8.879  1.7973  1.3238 -1.4423
 5377SOL     OW27589   2.108   0.466  14.180 -0.0278 -0.1378  0.1452
 5377SOL    HW127590   2.145   0.537  14.127  1.3778  1.0947  2.7449
 5377SOL    HW227591   2.170   0.473  14.252  0.7682  1.6565 -0.7175
 5378SOL     OW27592   0.125   0.816   7.614 -0.4003  0.4463 -0.3845
 5378SOL    HW127593   0.112   0.722   7.616  1.1876  0.2082 -1.0020
 5378SOL    HW227594   0.117   0.848   7.524  1.2098  1.1143 -0.2891
 5379SOL     OW27595   1.861   3.138   3.016  0.4714  0.3552 -0.0294
 5379SOL    HW127596   1.817   3.091   2.946  0.7160 -1.6812  1.1940
 5379SOL    HW227597   1.925   3.072   3.042 -1.0174 -0.4804  1.4605
 5380SOL     OW27598   4.207   0.681   7.085 -0.4649 -0.0600  0.5695
 5380SOL    HW127599   4.125   0.637   7.107  0.7530 -1.9829  1.2079
 5380SOL    HW227600   4.254   0.700   7.166  0.0109  0.2022  0.2323
 5381SOL     OW27601   1.535   2.379  12.605 -0.3677 -0.5152  0.2600
 5381SOL    HW127602   1.553   2.294  12.565  1.7834  1.1718 -2.4373
 5381SOL    HW227603   1.521   2.360  12.697  2.7451  2.3346  1.3284
 5382SOL     OW27604   3.076   0.075   9.348  0.0411  0.6647 -0.0430
 5382SOL    HW127605   3.047   0.126   9.272 -1.0728  0.5331  0.2926
 5382SOL    HW227606   3.001   0.018   9.366 -0.1829  1.5384  1.7117
 5383SOL     OW27607   3.572   1.870   3.185 -0.2535 -0.4997  0.0718
 5383SOL    HW127608   3.582   1.926   3.109  0.7932  0.4156  0.8883
 5383SOL    HW227609   3.653   1.877   3.235 -1.3033 -0.3087  1.7504
 5384SOL     OW27610   0.173   3.299   0.480 -0.0575  0.0414  0.1211
 5384SOL    HW127611   0.085   3.335   0.471  0.0050 -0.1338 -1.3092
 5384SOL    HW227612   0.152   3.208   0.499  0.8900 -0.5343 -1.6130
 5385SOL     OW27613   4.611   2.569  15.707 -0.3131  0.1806 -0.2761
 5385SOL    HW127614   4.665   2.511  15.653  1.2751  2.4654 -1.1270
 5385SOL    HW227615   4.570   2.619  15.637  0.3074  0.5415 -0.3788
 5386SOL     OW27616   1.285   0.043  10.662  0.6067  0.2791  0.6475
 5386SOL    HW127617   1.215   4.698  10.675  1.9015 -0.9604  1.5459
 5386SOL    HW227618   1.235   0.111  10.615  0.0877  0.5075  1.5372
 5387SOL     OW27619   1.739   4.544   9.936 -0.1604 -0.3022 -0.0515
 5387SOL    HW127620   1.798   4.616   9.914  1.1503 -1.2827  0.2339
 5387SOL    HW227621   1.772   4.476   9.877 -0.5764  1.4224 -2.2911
 5388SOL     OW27622   4.477   4.327  14.515 -0.2248  0.1429  0.0324
 5388SOL    HW127623   4.538   4.363  14.580  0.0721  0.2241 -0.2894
 5388SOL    HW227624   4.402   4.385  14.529 -0.4982 -0.7836  2.4404
 5389SOL     OW27625   3.038   1.706  12.776  0.3548 -0.4360 -0.0918
 5389SOL    HW127626   3.038   1.801  12.782  2.6455 -0.2720 -2.8680
 5389SOL    HW227627   3.083   1.667  12.851 -0.1199 -1.2774 -0.2411
 5390SOL     OW27628   1.838   2.102   7.417 -0.2071  0.1212 -0.1914
 5390SOL    HW127629   1.853   2.055   7.499 -1.1141 -0.6754 -0.4738
 5390SOL    HW227630   1.869   2.189   7.441 -0.0053  0.6083 -2.2013
 5391SOL     OW27631   1.473   0.855   6.683  0.1230  0.5384 -0.6645
 5391SOL    HW127632   1.473   0.778   6.739 -0.1327  0.1636 -1.1780
 5391SOL    HW227633   1.382   0.885   6.682  0.0956  0.4400 -1.1685
 5392SOL     OW27634   1.038   2.348   0.183  0.2785 -0.1964  0.0342
 5392SOL    HW127635   1.045   2.290   0.258 -0.3532 -0.7305 -0.3240
 5392SOL    HW227636   1.133   2.359   0.172  0.1968 -1.9242 -2.4766
 5393SOL     OW27637   2.348   3.376   8.048 -0.3445 -0.2730 -0.0387
 5393SOL    HW127638   2.332   3.306   8.111 -0.2731 -0.1758  0.0883
 5393SOL    HW227639   2.374   3.339   7.964 -1.2346  0.0449 -0.4576
 5394SOL     OW27640   3.753   1.160  12.374 -0.5479 -0.5816 -0.3936
 5394SOL    HW127641   3.730   1.205  12.293  0.1926 -0.4652 -0.5410
 5394SOL    HW227642   3.770   1.071  12.344  3.2555  0.0800 -0.2077
 5395SOL     OW27643   3.292   1.415   7.492 -0.1143  0.0733 -0.1822
 5395SOL    HW127644   3.200   1.421   7.467 -0.1328 -2.5929 -0.8419
 5395SOL    HW227645   3.327   1.338   7.445 -2.8043 -0.6187 -1.0235
 5396SOL     OW27646   1.166   1.523   3.518 -0.1431 -0.0509  0.2134
 5396SOL    HW127647   1.204   1.608   3.542 -0.9504 -0.2249  2.0862
 5396SOL    HW227648   1.079   1.549   3.486 -0.5041 -0.8238  0.5868
 5397SOL     OW27649   1.261   4.427   4.312  0.0428  0.1080 -0.4343
 5397SOL    HW127650   1.173   4.390   4.312 -0.7408  1.9508 -1.7998
 5397SOL    HW227651   1.298   4.384   4.235 -2.1777 -2.7645  0.1322
 5398SOL     OW27652   0.055   3.798   8.410  0.1592 -0.1150  0.4989
 5398SOL    HW127653   0.087   3.870   8.357  0.4558  0.1992  1.1027
 5398SOL    HW227654   0.114   3.724   8.397 -0.1507 -0.2130 -0.3277
 5399SOL     OW27655   2.348   2.099   9.311  0.1840  0.3905 -0.0366
 5399SOL    HW127656   2.404   2.120   9.237  0.2766  2.2684  0.5819
 5399SOL    HW227657   2.278   2.151   9.272 -0.9653 -1.6891 -0.7398
 5400SOL     OW27658   0.942   1.464   6.294  0.6122 -0.2399  0.0497
 5400SOL    HW127659   0.896   1.384   6.318  0.6199 -0.6630 -1.3049
 5400SOL    HW227660   1.006   1.468   6.364 -0.1179  2.9964  0.5183
 5401SOL     OW27661   3.707   2.136   4.152  0.1911  0.3274  0.4604
 5401SOL    HW127662   3.789   2.185   4.159 -0.8017  1.8694  1.4184
 5401SOL    HW227663   3.675   2.166   4.067 -3.1302 -0.7954  1.2881
 5402SOL     OW27664   2.223   0.706   7.437  0.0573  0.1499  0.2850
 5402SOL    HW127665   2.129   0.687   7.437  0.2838 -0.9097  2.0262
 5402SOL    HW227666   2.223   0.796   7.404 -2.7985 -0.2033 -0.6813
 5403SOL     OW27667   4.114   2.397  12.495  0.1564 -0.6703  0.2325
 5403SOL    HW127668   4.162   2.435  12.568 -2.2855  1.3584  0.7838
 5403SOL    HW227669   4.135   2.456  12.423 -0.1577 -0.0393  0.6595
 5404SOL     OW27670   2.985   1.909   7.584 -0.5688  0.1294  0.3526
 5404SOL    HW127671   2.995   1.845   7.513  0.8136 -0.0268  0.6941
 5404SOL    HW227672   3.058   1.969   7.572  0.9316 -1.6189  0.6804
 5405SOL     OW27673   0.408   4.373   4.594 -0.0379  0.3521 -0.5175
 5405SOL    HW127674   0.491   4.376   4.642 -0.4424 -0.6683  0.2520
 5405SOL    HW227675   0.354   4.424   4.655 -1.0866 -0.8724 -0.4311
 5406SOL     OW27676   0.529   0.256   7.150  0.0477 -0.1677 -0.2790
 5406SOL    HW127677   0.490   0.245   7.237  1.6238 -3.0285  0.0631
 5406SOL    HW227678   0.444   0.249   7.106 -0.6830 -1.2205  1.2781
 5407SOL     OW27679   4.227   3.624   6.181 -0.1584 -0.0555  0.0579
 5407SOL    HW127680   4.277   3.542   6.177  1.6852  1.0474  0.8033
 5407SOL    HW227681   4.175   3.616   6.260 -1.6037 -0.7604 -0.9542
 5408SOL     OW27682   1.794   0.573  12.306 -0.0769 -0.5727 -0.3508
 5408SOL    HW127683   1.759   0.593  12.393  2.4971 -0.5221  0.6761
 5408SOL    HW227684   1.779   0.647  12.247 -0.5434 -1.1410 -0.9335
 5409SOL     OW27685   1.509   4.570  10.488 -0.0838  0.2966 -0.1956
 5409SOL    HW127686   1.470   4.504  10.545 -0.0470  0.5187  0.0871
 5409SOL    HW227687   1.437   4.594  10.430 -1.7624 -0.6741  1.5010
 5410SOL     OW27688   4.637   0.945   2.319 -0.1798 -0.1374 -0.3525
 5410SOL    HW127689   4.553   0.911   2.350 -1.0233  3.4120  1.2922
 5410SOL    HW227690   4.681   0.861   2.307  1.7282  0.8293  0.0420
 5411SOL     OW27691   2.348   3.084   6.890  0.2112  0.7075  0.0560
 5411SOL    HW127692   2.311   3.166   6.856  0.5947  1.6680  1.9381
 5411SOL    HW227693   2.419   3.116   6.947  2.4904  0.3876 -2.5785
 5412SOL     OW27694   3.350   1.049   9.064 -0.0987 -0.0708 -0.4672
 5412SOL    HW127695   3.356   0.982   9.133 -0.0287 -0.6178 -1.0066
 5412SOL    HW227696   3.270   1.038   9.014 -0.1042 -1.1664 -0.2066
 5413SOL     OW27697   3.559   3.138   3.060  0.2360  0.2705 -0.5886
 5413SOL    HW127698   3.533   3.053   3.025 -1.0282  0.5692 -0.3907
 5413SOL    HW227699   3.526   3.127   3.150  1.2258  0.7203 -0.1739
 5414SOL     OW27700   1.256   2.292   4.719  0.4205  0.2875  0.6672
 5414SOL    HW127701   1.227   2.329   4.803  0.6057  0.9758  0.4313
 5414SOL    HW227702   1.295   2.375   4.691  1.9215 -0.1731  1.3822
 5415SOL     OW27703   1.484   1.961   8.525  0.0944  0.0084 -0.0769
 5415SOL    HW127704   1.419   1.902   8.486  0.9060  0.0730 -1.5368
 5415SOL    HW227705   1.470   1.956   8.619 -0.5643  1.3831 -0.0895
 5416SOL     OW27706   4.062   4.411   5.704  0.0037  0.3845  0.1688
 5416SOL    HW127707   3.968   4.415   5.721  0.1187 -1.0769  1.1553
 5416SOL    HW227708   4.050   4.453   5.618  3.9473 -0.1707 -0.6496
 5417SOL     OW27709   4.425   0.702   0.518 -0.2659  0.1853  0.0583
 5417SOL    HW127710   4.375   0.781   0.500  0.0045  0.0431 -1.3192
 5417SOL    HW227711   4.366   0.639   0.475 -1.3290  2.2870 -1.5786
 5418SOL     OW27712   2.534   2.858   5.521 -0.0770  0.4093 -0.6904
 5418SOL    HW127713   2.569   2.774   5.492  0.1919  0.1056  0.5123
 5418SOL    HW227714   2.458   2.870   5.465  1.3263  2.7344 -2.1040
 5419SOL     OW27715   1.914   3.924   0.457 -0.4806 -0.3593  0.2250
 5419SOL    HW127716   1.940   3.999   0.404 -1.3054 -0.6953 -0.6485
 5419SOL    HW227717   1.886   3.963   0.539 -0.8722 -2.4947  1.1026
 5420SOL     OW27718   0.469   3.013   3.954 -0.0154  0.1256 -0.0680
 5420SOL    HW127719   0.394   2.958   3.976 -0.9284  1.1367 -0.6900
 5420SOL    HW227720   0.521   2.965   3.889  0.3122 -0.2821  0.5007
 5421SOL     OW27721   2.684   1.044  15.451  0.2829  0.3049  0.0117
 5421SOL    HW127722   2.648   1.131  15.468 -0.1024 -0.1476  1.5876
 5421SOL    HW227723   2.692   1.039  15.356  0.2573  0.1670  0.0166
 5422SOL     OW27724   1.994   3.465   6.221  0.6447  0.0512  0.3230
 5422SOL    HW127725   1.952   3.512   6.149 -3.0941 -1.6469  1.4259
 5422SOL    HW227726   1.959   3.380   6.194  0.3376  0.0009  0.8966
 5423SOL     OW27727   0.377   1.340   7.306 -0.1011 -0.0732 -0.3045
 5423SOL    HW127728   0.328   1.407   7.259 -1.6536 -0.6369  0.5210
 5423SOL    HW227729   0.337   1.256   7.284 -0.8290  0.4162 -0.8436
 5424SOL     OW27730   4.029   2.062   5.310  0.2819  0.0763  0.1158
 5424SOL    HW127731   3.963   2.110   5.360  0.7281 -1.3200  2.0466
 5424SOL    HW227732   3.967   2.004   5.266  1.0093  1.6211 -2.9029
 5425SOL     OW27733   3.524   1.640   7.272  0.5979  0.2612  0.6729
 5425SOL    HW127734   3.531   1.588   7.192 -3.5674  0.3419  0.2564
 5425SOL    HW227735   3.440   1.615   7.309  0.0474  1.7307  0.4110
 5426SOL     OW27736   4.186   1.718   1.266 -0.5747  0.5490 -0.2650
 5426SOL    HW127737   4.121   1.777   1.305  1.8562  1.8378  1.8052
 5426SOL    HW227738   4.242   1.784   1.225 -1.0660  1.3498  0.3401
 5427SOL     OW27739   3.026   1.133   7.397 -0.1794 -0.1130 -0.2399
 5427SOL    HW127740   2.960   1.161   7.460 -1.2706 -2.6568 -0.2744
 5427SOL    HW227741   3.055   1.219   7.367  0.0944 -1.0516 -2.6311
 5428SOL     OW27742   1.085   1.856   6.741  0.1676 -0.2931 -0.6082
 5428SOL    HW127743   1.131   1.805   6.807  0.8053 -0.2280 -0.9990
 5428SOL    HW227744   1.012   1.893   6.790  0.4393  0.9026 -1.1016
 5429SOL     OW27745   1.369   1.349  12.807  0.0614  0.0769 -0.2525
 5429SOL    HW127746   1.341   1.280  12.747  0.8701 -0.8530  0.4508
 5429SOL    HW227747   1.335   1.424  12.758 -1.9950 -0.9073 -0.3082
 5430SOL     OW27748   4.107   2.015   8.463  0.1502  0.0382 -0.1959
 5430SOL    HW127749   4.146   1.954   8.526 -0.2565  0.7321  0.7272
 5430SOL    HW227750   4.096   1.961   8.385 -0.3122  0.2527 -0.2787
 5431SOL     OW27751   3.508   1.072   8.632  0.0616  0.2946  0.2157
 5431SOL    HW127752   3.517   1.163   8.608 -3.4848  1.4258  3.0823
 5431SOL    HW227753   3.550   1.076   8.718  0.1512  2.4224  0.0564
 5432SOL     OW27754   1.637   2.413   2.219  0.3982  0.2247  0.0737
 5432SOL    HW127755   1.629   2.365   2.136  0.6771  0.9361 -0.3619
 5432SOL    HW227756   1.572   2.483   2.208 -1.6061 -1.7853 -0.9278
 5433SOL     OW27757   2.707   1.092   2.626  0.2210 -0.0125  0.1075
 5433SOL    HW127758   2.680   1.008   2.663 -1.9659  0.4959 -0.3550
 5433SOL    HW227759   2.695   1.075   2.533 -3.6154 -1.9609  0.9817
 5434SOL     OW27760   3.196   3.499  16.877  0.5054 -0.0612  0.2131
 5434SOL    HW127761   3.161   3.410  16.875  2.5316 -0.8484 -0.0951
 5434SOL    HW227762   3.176   3.525  16.787 -1.6030  0.7110  0.9037
 5435SOL     OW27763   2.513   0.837   4.342 -0.0448  0.1775  0.3943
 5435SOL    HW127764   2.592   0.800   4.382  0.0938 -0.2546 -0.2787
 5435SOL    HW227765   2.444   0.814   4.404 -1.0767 -1.7480 -1.4919
 5436SOL     OW27766   3.559   2.329   4.785  0.6838  0.0254 -0.4581
 5436SOL    HW127767   3.512   2.326   4.868 -0.1595 -0.4641 -0.9486
 5436SOL    HW227768   3.579   2.422   4.789 -2.0169  0.5105  1.8921
 5437SOL     OW27769   1.016   0.398   3.232 -0.1084 -0.3433 -0.7302
 5437SOL    HW127770   1.083   0.461   3.204 -0.4589 -0.0661 -0.9432
 5437SOL    HW227771   0.972   0.454   3.296 -0.2217  1.3313 -2.2634
 5438SOL     OW27772   4.541   4.136   2.101  0.6157  0.5579  0.2299
 5438SOL    HW127773   4.615   4.080   2.078 -0.0476 -0.0582 -0.4212
 5438SOL    HW227774   4.504   4.091   2.177 -0.5397  1.0981 -0.0175
 5439SOL     OW27775   4.175   1.655   4.634  0.1148  0.0231  0.0797
 5439SOL    HW127776   4.242   1.586   4.640 -2.1236 -2.0011  1.9514
 5439SOL    HW227777   4.133   1.627   4.553  1.3550  0.6308 -0.7797
 5440SOL     OW27778   0.135   1.725  12.074  0.0424 -0.0887 -0.9121
 5440SOL    HW127779   0.099   1.639  12.097 -0.9055  0.3486 -0.7816
 5440SOL    HW227780   0.088   1.780  12.137 -0.5966 -1.8098  0.1202
 5441SOL     OW27781   4.003   1.676   0.053  0.2919  0.3640 -0.3933
 5441SOL    HW127782   4.034   1.755   0.008  2.3721 -1.7841 -2.7418
 5441SOL    HW227783   3.915   1.697   0.082  0.9218  0.7204  1.2887
 5442SOL     OW27784   1.482   0.963  10.953  0.4821 -0.5809  0.2984
 5442SOL    HW127785   1.417   1.001  10.893  0.0301 -1.6414  0.1100
 5442SOL    HW227786   1.546   1.030  10.974  1.8011 -1.8455  0.3681
 5443SOL     OW27787   2.577   1.584   9.104 -0.2025 -0.2271  0.6408
 5443SOL    HW127788   2.538   1.588   9.017 -0.5441 -2.4811  0.6825
 5443SOL    HW227789   2.503   1.593   9.165  0.7590  0.1608  1.7577
 5444SOL     OW27790   3.346   1.172   4.444 -0.3765 -0.1436 -0.0356
 5444SOL    HW127791   3.343   1.146   4.352 -0.0062 -1.5276  0.3450
 5444SOL    HW227792   3.429   1.220   4.449  0.8313 -2.0862 -1.0724
 5445SOL     OW27793   0.009   1.282   6.450  0.3987 -1.1587  0.2149
 5445SOL    HW127794   4.717   1.187   6.444 -3.4908 -0.7331  0.7143
 5445SOL    HW227795   4.674   1.303   6.525  2.7468  1.4646  1.1719
 5446SOL     OW27796   3.409   4.086   8.661 -0.1086 -0.6095 -0.4947
 5446SOL    HW127797   3.328   4.047   8.628 -0.8373 -1.1474  1.8597
 5446SOL    HW227798   3.378   4.144   8.731 -0.0930 -0.1216 -0.8979
 5447SOL     OW27799   2.484   0.531   2.719 -0.4118 -0.0105  0.3116
 5447SOL    HW127800   2.502   0.506   2.810 -1.3292  1.5486  0.9227
 5447SOL    HW227801   2.488   0.452   2.666 -0.3662  1.0993 -1.3159
 5448SOL     OW27802   2.224   0.407  17.137 -0.8388 -0.1843  0.7716
 5448SOL    HW127803   2.215   0.314  17.158  0.5727 -0.2854  0.8789
 5448SOL    HW227804   2.203   0.444  17.223  0.5377 -2.9301  2.3185
 5449SOL     OW27805   2.819   1.998   3.433  0.0043 -0.0957  0.0818
 5449SOL    HW127806   2.799   2.000   3.526 -3.3267 -0.2767 -0.6382
 5449SOL    HW227807   2.880   2.072   3.434 -1.2988  1.0026 -1.2468
 5450SOL     OW27808   2.754   2.378   6.669  0.4420 -0.5118 -0.0893
 5450SOL    HW127809   2.806   2.298   6.672 -0.0748 -0.8792 -0.9393
 5450SOL    HW227810   2.663   2.347   6.672  0.5663 -0.9923 -1.1714
 5451SOL     OW27811   0.751   0.966   5.705 -0.0403 -0.4075 -0.0448
 5451SOL    HW127812   0.749   0.926   5.792  1.4113  0.1636  0.2451
 5451SOL    HW227813   0.798   0.898   5.655  1.7453  0.4061  0.5486
 5452SOL     OW27814   3.791   0.716   4.585  0.0454  0.1507 -0.0494
 5452SOL    HW127815   3.847   0.643   4.613  0.7707  0.2787 -1.1525
 5452SOL    HW227816   3.838   0.748   4.508  0.7624  0.1802  0.3983
 5453SOL     OW27817   1.851   1.742   7.757  0.4439 -0.2370 -0.2381
 5453SOL    HW127818   1.820   1.808   7.820 -1.6238 -0.5608 -0.9111
 5453SOL    HW227819   1.946   1.745   7.746  0.2853  1.6271 -1.0059
 5454SOL     OW27820   4.263   2.371   4.691  0.3177  0.2553 -0.0814
 5454SOL    HW127821   4.335   2.412   4.643 -0.9884  1.5711 -0.9441
 5454SOL    HW227822   4.248   2.434   4.762  0.0925  1.5987 -1.3160
 5455SOL     OW27823   4.132   4.159   5.491  0.3157 -0.0256  0.2153
 5455SOL    HW127824   4.171   4.206   5.417 -1.2589  1.1241  0.1337
 5455SOL    HW227825   4.049   4.204   5.505  0.2176 -0.2848  0.4566
 5456SOL     OW27826   2.590   0.398   5.431  0.0345  0.8811  0.2791
 5456SOL    HW127827   2.553   0.408   5.519 -2.2157 -0.3082 -0.5406
 5456SOL    HW227828   2.657   0.330   5.438 -0.8603  0.0736  0.9319
 5457SOL     OW27829   3.874   4.349   9.926  0.1710 -0.2156 -0.0336
 5457SOL    HW127830   3.828   4.430   9.947 -1.6721 -1.4658  0.7249
 5457SOL    HW227831   3.879   4.314  10.015 -0.1443 -1.7299 -0.6078
 5458SOL     OW27832   2.524   1.397  12.375  0.0017 -0.6816 -0.7283
 5458SOL    HW127833   2.485   1.337  12.312  1.4802 -1.3500 -0.9945
 5458SOL    HW227834   2.600   1.429  12.326 -0.2774  1.6093  0.3379
 5459SOL     OW27835   4.714   0.254  10.002  0.3627 -0.0802 -0.3470
 5459SOL    HW127836   4.674   0.213  10.079 -0.8240  2.5682  0.4521
 5459SOL    HW227837   0.089   0.251  10.018  0.1696 -0.4801  0.7016
 5460SOL     OW27838   0.549   4.027   4.292 -0.4603  0.2235 -0.3518
 5460SOL    HW127839   0.556   4.034   4.387  0.2372  0.3016 -0.4032
 5460SOL    HW227840   0.551   3.932   4.279 -0.9240  0.5926 -3.1486
 5461SOL     OW27841   1.057   0.672  14.895  0.1703  0.7266 -0.1409
 5461SOL    HW127842   0.976   0.677  14.844 -0.4006 -0.3162  0.6692
 5461SOL    HW227843   1.031   0.719  14.974  0.7536  0.5982  0.1294
 5462SOL     OW27844   1.482   1.916  12.123 -0.2714 -0.0607 -0.5855
 5462SOL    HW127845   1.523   1.856  12.185  0.4052 -0.0446 -1.0275
 5462SOL    HW227846   1.539   1.918  12.046  3.5538  2.6137  2.3236
 5463SOL     OW27847   1.484   2.918  10.331 -0.4087 -0.6218 -0.3609
 5463SOL    HW127848   1.429   2.896  10.406 -2.2764  1.6589 -1.0679
 5463SOL    HW227849   1.464   2.842  10.276  0.3398 -0.5189 -0.7817
 5464SOL     OW27850   4.397   2.723  11.553 -0.3047  0.3185 -0.1655
 5464SOL    HW127851   4.377   2.759  11.467 -1.9321 -2.1269 -0.8343
 5464SOL    HW227852   4.306   2.697  11.567 -0.6681  1.3700 -0.6101
 5465SOL     OW27853   2.701   0.300   1.360 -0.1784 -0.3414  0.0748
 5465SOL    HW127854   2.654   0.309   1.277 -0.8485 -2.2688  0.2568
 5465SOL    HW227855   2.638   0.261   1.420  1.0414 -1.4994  0.6044
 5466SOL     OW27856   4.340   0.954   0.463  0.7362  0.4394 -0.3809
 5466SOL    HW127857   4.379   1.024   0.411  1.1533  1.1426  0.8756
 5466SOL    HW227858   4.250   0.950   0.430 -0.0967  0.0239  1.9494
 5467SOL     OW27859   2.602   4.138   1.051 -0.3735  0.0551 -0.5514
 5467SOL    HW127860   2.654   4.059   1.041 -0.0292 -0.0444  2.0038
 5467SOL    HW227861   2.666   4.196   1.009 -0.6995  1.4441  0.8500
 5468SOL     OW27862   0.011   3.398   4.426  0.6015  0.1952 -0.2008
 5468SOL    HW127863   0.025   3.305   4.445  0.1123 -0.0567 -1.0799
 5468SOL    HW227864   0.062   3.426   4.502 -0.9995 -1.1147  1.3496
 5469SOL     OW27865   1.081   3.764   2.693  0.0998  0.6508  0.4702
 5469SOL    HW127866   1.115   3.812   2.617 -0.1345 -0.5180 -0.3824
 5469SOL    HW227867   1.139   3.688   2.698 -1.2758 -0.4141  0.1185
 5470SOL     OW27868   1.016   4.473   0.176  0.4259  0.2454 -0.4655
 5470SOL    HW127869   0.960   4.549   0.162 -0.9471 -1.1118 -2.3198
 5470SOL    HW227870   1.039   4.456   0.085 -2.4376 -0.8020 -1.0097
 5471SOL     OW27871   4.603   0.456   2.184 -0.3631 -0.0652  0.2777
 5471SOL    HW127872   4.602   0.543   2.223 -1.5007 -0.0389  0.1828
 5471SOL    HW227873   4.651   0.467   2.102 -0.9362  0.2695 -0.0115
 5472SOL     OW27874   1.829   3.933   5.990  0.0439 -0.1030  0.4229
 5472SOL    HW127875   1.911   3.983   5.992 -0.1623  0.2448 -0.1282
 5472SOL    HW227876   1.790   3.948   6.076 -0.3967  1.1301  0.0098
 5473SOL     OW27877   4.487   0.601   4.570 -0.2459  0.6652  0.3983
 5473SOL    HW127878   4.485   0.505   4.575  3.3482  0.5195 -1.2513
 5473SOL    HW227879   4.447   0.612   4.484  1.0041  1.0094 -0.1387
 5474SOL     OW27880   4.700   1.090   7.913 -0.2341  0.4553  0.2300
 5474SOL    HW127881   0.054   1.031   7.894  0.0494  0.5763  0.9598
 5474SOL    HW227882   4.657   1.044   7.984  0.0600  0.6538  0.5381
 5475SOL     OW27883   3.560   0.178   2.741  0.0868 -1.1643  0.2968
 5475SOL    HW127884   3.595   0.239   2.806  0.7982 -2.6636  1.3531
 5475SOL    HW227885   3.492   0.232   2.702  2.4930  0.5334 -1.5673
 5476SOL     OW27886   4.324   3.426   3.812  0.4547  0.0268  0.0115
 5476SOL    HW127887   4.292   3.380   3.733 -2.9969  1.2802  0.6678
 5476SOL    HW227888   4.239   3.448   3.851  0.4354  3.3807 -1.9534
 5477SOL     OW27889   3.892   0.784  16.741 -1.4206 -0.1251  0.4209
 5477SOL    HW127890   3.899   0.739  16.825  0.8864  0.9034  0.7944
 5477SOL    HW227891   3.797   0.791  16.735 -1.1911  1.5770 -1.2626
 5478SOL     OW27892   2.028   2.545   6.704  0.1908  0.4214  0.0882
 5478SOL    HW127893   1.993   2.612   6.763  0.0061  1.2828 -1.0041
 5478SOL    HW227894   2.110   2.593   6.686 -0.7196  1.8978 -0.1427
 5479SOL     OW27895   1.596   3.344  11.041 -0.7166 -0.0328  0.2998
 5479SOL    HW127896   1.619   3.259  11.004  1.0554 -0.0232  1.3953
 5479SOL    HW227897   1.581   3.399  10.964  0.6845 -0.6402 -0.4059
 5480SOL     OW27898   3.471   2.087  15.861 -0.0540  0.3395 -0.4927
 5480SOL    HW127899   3.477   2.086  15.956  0.3167  0.5763 -0.5156
 5480SOL    HW227900   3.550   2.041  15.834 -0.3981 -0.1075 -0.7504
 5481SOL     OW27901   0.316   0.418   2.851 -0.6365 -0.0034  0.3360
 5481SOL    HW127902   0.222   0.408   2.834 -0.3029  0.3430 -1.6525
 5481SOL    HW227903   0.347   0.379   2.769 -0.1014  0.8404  0.1411
 5482SOL     OW27904   0.299   1.030   2.636  0.4039  0.0870 -0.1733
 5482SOL    HW127905   0.355   1.052   2.562  1.5321 -0.5072  0.4941
 5482SOL    HW227906   0.309   0.936   2.650 -0.6777  0.3340  2.2651
 5483SOL     OW27907   0.322   1.749   2.595 -0.0010 -0.1819 -0.0622
 5483SOL    HW127908   0.345   1.675   2.538  1.1962 -0.5918  0.9369
 5483SOL    HW227909   0.382   1.819   2.568 -0.4711  0.6497  1.0462
 5484SOL     OW27910   2.709   0.840   7.800 -0.0942  0.2476  0.4195
 5484SOL    HW127911   2.617   0.837   7.827 -0.0077 -2.0349  0.4998
 5484SOL    HW227912   2.750   0.777   7.859  0.2790  0.0229 -0.0795
 5485SOL     OW27913   0.057   2.172  12.702 -0.7840 -0.0327 -0.0799
 5485SOL    HW127914   0.130   2.187  12.763 -1.2231 -0.3932  0.5367
 5485SOL    HW227915   4.707   2.146  12.762  0.9024 -1.9916  1.0104
 5486SOL     OW27916   4.139   0.954  10.535 -0.5591 -0.4951  0.3255
 5486SOL    HW127917   4.231   0.977  10.529 -0.7449 -0.3818 -1.9233
 5486SOL    HW227918   4.117   0.912  10.452 -1.7803 -1.8043  1.2941
 5487SOL     OW27919   1.324   4.374   7.890  0.3079 -0.5596  0.7956
 5487SOL    HW127920   1.393   4.364   7.824 -0.9786 -0.0239 -0.6056
 5487SOL    HW227921   1.245   4.348   7.843  1.6570  0.4456 -2.0771
 5488SOL     OW27922   2.335   3.447   9.759  0.6304  0.1272  0.4450
 5488SOL    HW127923   2.348   3.528   9.808 -1.5551 -0.3856  1.8806
 5488SOL    HW227924   2.295   3.394   9.828 -0.7827 -0.0094 -0.4824
 5489SOL     OW27925   3.742   4.557   6.141 -0.0870  0.3031 -0.3982
 5489SOL    HW127926   3.731   4.652   6.129  1.3142  0.2497 -2.2651
 5489SOL    HW227927   3.663   4.535   6.091  1.3553 -1.9418 -1.6805
 5490SOL     OW27928   1.013   3.430   7.179 -0.6655  0.3183  0.2129
 5490SOL    HW127929   1.026   3.429   7.273  0.7064 -2.7722 -0.0190
 5490SOL    HW227930   0.933   3.377   7.169 -0.7192  0.1644  1.4416
 5491SOL     OW27931   2.182   1.619  11.332  0.1631  0.0637 -0.2879
 5491SOL    HW127932   2.263   1.665  11.312 -0.4286  1.6839  1.1162
 5491SOL    HW227933   2.197   1.545  11.272  2.8129  0.4165 -0.0522
 5492SOL     OW27934   3.904   1.826   6.280  0.0645 -0.3444 -0.0670
 5492SOL    HW127935   3.912   1.732   6.260 -1.2194 -0.1940 -1.2429
 5492SOL    HW227936   3.908   1.869   6.194  0.5549  0.9121  0.5878
 5493SOL     OW27937   2.776   4.192  16.956  0.2824 -0.8218 -0.0581
 5493SOL    HW127938   2.824   4.109  16.961  2.2678  0.3627  0.4185
 5493SOL    HW227939   2.795   4.242  17.036 -1.3466  1.3534 -1.0455
 5494SOL     OW27940   1.006   4.499   8.389  0.3048 -0.1055  0.4484
 5494SOL    HW127941   1.033   4.431   8.327  1.1296  1.6692 -1.0995
 5494SOL    HW227942   1.071   4.480   8.457 -1.5917 -0.3045  2.1874
 5495SOL     OW27943   3.572   4.427   5.482 -0.2247 -0.3063 -0.7717
 5495SOL    HW127944   3.611   4.443   5.568  0.3408 -2.0946 -0.6980
 5495SOL    HW227945   3.512   4.502   5.484  0.1057 -0.1211  1.9601
 5496SOL     OW27946   3.767   0.462   0.934 -0.2831  0.3790  0.3624
 5496SOL    HW127947   3.739   0.371   0.943  0.6043  0.2326  1.6378
 5496SOL    HW227948   3.756   0.493   0.844 -2.9295  0.1139  0.5953
 5497SOL     OW27949   3.525   0.174  13.113 -0.2599 -0.0072 -0.0989
 5497SOL    HW127950   3.489   0.106  13.057  0.7517 -0.9221  0.3563
 5497SOL    HW227951   3.602   0.130  13.149  1.8322  0.2816 -4.1750
 5498SOL     OW27952   3.328   4.002   3.975  0.2254 -0.2307 -0.7480
 5498SOL    HW127953   3.323   4.084   4.024  0.1734  0.3731 -1.7601
 5498SOL    HW227954   3.303   4.035   3.889 -0.7014 -0.3149 -0.5046
 5499SOL     OW27955   0.955   0.766   5.316 -0.4241 -0.2373 -0.3727
 5499SOL    HW127956   1.018   0.832   5.290  1.7917 -2.8870 -1.6837
 5499SOL    HW227957   0.867   0.797   5.294  0.2873  1.5778 -0.5989
 5500SOL     OW27958   3.029   1.998  12.903  0.2739  0.2814 -0.1281
 5500SOL    HW127959   3.107   2.019  12.852 -0.1951  1.7424 -0.2547
 5500SOL    HW227960   2.963   2.039  12.847 -0.1246  1.7607  1.4116
 5501SOL     OW27961   2.244   4.462   4.299 -0.2238  0.3163  0.0250
 5501SOL    HW127962   2.227   4.508   4.381 -0.0485 -1.0702  0.8422
 5501SOL    HW227963   2.157   4.460   4.259 -0.3228  2.2130  0.1757
 5502SOL     OW27964   0.496   3.807   2.126 -0.6571  0.2150  0.0770
 5502SOL    HW127965   0.481   3.897   2.155 -0.0159 -0.0532  1.2328
 5502SOL    HW227966   0.487   3.771   2.215 -1.9225 -0.2860 -0.2513
 5503SOL     OW27967   1.583   0.127   4.507  0.4277 -0.8426  0.3478
 5503SOL    HW127968   1.525   0.146   4.581 -1.3533  0.4956 -1.4091
 5503SOL    HW227969   1.616   0.042   4.536 -1.7537 -2.2122 -1.2751
 5504SOL     OW27970   2.610   1.421   2.802 -0.0819 -0.6838 -0.0695
 5504SOL    HW127971   2.577   1.364   2.732 -0.2718  0.0808 -0.6134
 5504SOL    HW227972   2.605   1.510   2.767  2.6181 -0.6177 -0.2934
 5505SOL     OW27973   0.757   2.414   3.633 -0.4699 -0.6367  0.2907
 5505SOL    HW127974   0.735   2.504   3.611 -1.8049 -0.9212  0.4288
 5505SOL    HW227975   0.814   2.432   3.708  1.1940 -1.2661 -0.8082
 5506SOL     OW27976   4.464   2.690  11.923 -0.4175 -0.1682 -0.4859
 5506SOL    HW127977   4.370   2.675  11.920 -0.1518 -1.9258 -0.1923
 5506SOL    HW227978   4.489   2.658  11.836  1.3795  1.2188 -0.4942
 5507SOL     OW27979   4.313   3.684   4.303  0.2484  0.0923  0.3330
 5507SOL    HW127980   4.389   3.656   4.354  0.6904 -0.0053 -0.3730
 5507SOL    HW227981   4.355   3.731   4.231  0.9145 -1.0672 -0.0532
 5508SOL     OW27982   2.385   1.764   2.414  0.0035 -0.4919 -0.5257
 5508SOL    HW127983   2.399   1.778   2.321 -1.8559 -1.0137 -0.8977
 5508SOL    HW227984   2.472   1.783   2.449 -0.5100  0.2675  0.3319
 5509SOL     OW27985   2.276   3.333   3.201 -0.1062  0.8690 -0.2119
 5509SOL    HW127986   2.207   3.324   3.135  0.6190  0.2362 -0.8912
 5509SOL    HW227987   2.279   3.245   3.237  0.7613  0.6521 -0.8238
 5510SOL     OW27988   4.710   2.259   4.583  0.3156  0.0824 -0.0846
 5510SOL    HW127989   0.011   2.303   4.665 -1.4305 -1.6015  1.2219
 5510SOL    HW227990   0.032   2.173   4.586 -0.3127 -0.2178 -0.1365
 5511SOL     OW27991   1.673   1.648   0.109  0.2788  0.5191 -0.0518
 5511SOL    HW127992   1.641   1.573   0.160 -2.0538  1.1637 -0.5350
 5511SOL    HW227993   1.650   1.713   0.175  1.3226 -0.3236  1.1338
 5512SOL     OW27994   0.555   3.556   1.988 -0.4385  0.7062 -0.1738
 5512SOL    HW127995   0.547   3.514   2.074  0.0121 -0.9099 -0.9215
 5512SOL    HW227996   0.502   3.634   2.002 -1.2719  0.0718  0.2242
 5513SOL     OW27997   3.452   1.569   6.705 -0.7546  0.5079 -0.0543
 5513SOL    HW127998   3.375   1.517   6.683 -0.0218 -0.4476 -0.3793
 5513SOL    HW227999   3.521   1.515   6.666 -1.1776  0.0407 -0.1494
 5514SOL     OW28000   0.332   1.207   6.759 -0.2543  0.3036  0.3714
 5514SOL    HW128001   0.342   1.301   6.778 -1.5367  0.4889  0.1213
 5514SOL    HW228002   0.420   1.183   6.788  0.1848  0.5716 -0.7427
 5515SOL     OW28003   3.711   0.063  17.043 -0.0713 -0.5280 -0.6401
 5515SOL    HW128004   3.780   0.001  17.019  0.8853  0.6946 -1.0854
 5515SOL    HW228005   3.641   0.028  16.988  1.0395 -0.2083 -2.2724
 5516SOL     OW28006   3.862   1.670  16.429  0.5141  0.7996 -0.8112
 5516SOL    HW128007   3.822   1.650  16.514  0.3759 -3.1472 -1.8147
 5516SOL    HW228008   3.941   1.694  16.478 -1.1054  1.7957  1.3132
 5517SOL     OW28009   3.126   4.502   5.317  0.5411  0.2355 -0.0060
 5517SOL    HW128010   3.162   4.413   5.320 -0.6935 -0.1071  4.3081
 5517SOL    HW228011   3.154   4.510   5.226 -0.8135  2.9709 -0.1702
 5518SOL     OW28012   2.842   2.516   1.884  0.1099  0.4454  0.0512
 5518SOL    HW128013   2.890   2.470   1.814 -0.7872  1.0110 -0.9186
 5518SOL    HW228014   2.839   2.608   1.859  2.2932  0.3532 -0.5431
 5519SOL     OW28015   4.399   1.797   5.061 -0.2724 -0.1435 -0.2736
 5519SOL    HW128016   4.455   1.826   5.133 -1.6408 -2.2274  1.6500
 5519SOL    HW228017   4.325   1.857   5.069 -0.6645 -0.5371 -0.9795
 5520SOL     OW28018   1.680   0.414   5.780  0.1496  1.0152 -0.0612
 5520SOL    HW128019   1.735   0.492   5.786  1.5421  0.0886 -0.7892
 5520SOL    HW228020   1.604   0.430   5.836 -0.3034 -0.0000 -0.3898
 5521SOL     OW28021   0.298   3.678   0.510 -0.0418 -0.0561  0.2218
 5521SOL    HW128022   0.295   3.731   0.430  0.3121 -0.0445  0.2144
 5521SOL    HW228023   0.264   3.745   0.570 -2.9748 -2.6708  1.4076
 5522SOL     OW28024   2.109   0.840   5.706  0.2281  0.0163  0.1461
 5522SOL    HW128025   2.046   0.913   5.712  0.2518  0.0154  0.3898
 5522SOL    HW228026   2.191   0.887   5.692 -0.3601  1.5499  1.8169
 5523SOL     OW28027   1.472   2.817   7.673  0.1342 -0.0226 -0.4915
 5523SOL    HW128028   1.499   2.858   7.756  1.2910  1.2575 -1.5074
 5523SOL    HW228029   1.502   2.886   7.615  1.1280 -0.2817 -0.2901
 5524SOL     OW28030   3.553   2.031  15.036  0.2457  0.4653 -0.1868
 5524SOL    HW128031   3.569   1.991  15.122  0.5797  0.9295 -0.0316
 5524SOL    HW228032   3.459   2.024  15.020 -0.5241  0.4166  4.2603
 5525SOL     OW28033   1.006   2.463   5.652  0.5128  0.6857 -0.0599
 5525SOL    HW128034   1.007   2.542   5.705  1.5529  0.5240  0.1659
 5525SOL    HW228035   0.987   2.400   5.722 -0.9928  0.6206 -0.5360
 5526SOL     OW28036   2.822   2.545   9.959  0.4459  0.2817 -0.0155
 5526SOL    HW128037   2.875   2.490   9.901  0.0562  0.8906 -0.9438
 5526SOL    HW228038   2.732   2.518   9.941 -0.1444  2.4174 -0.2139
 5527SOL     OW28039   3.443   4.557   9.072 -0.5906  0.1239  0.4794
 5527SOL    HW128040   3.493   4.496   9.018 -0.5811  0.8460 -0.3285
 5527SOL    HW228041   3.495   4.544   9.151 -0.2602  2.5437  0.6790
 5528SOL     OW28042   1.804   1.664   6.004 -0.0423 -0.3269  0.2392
 5528SOL    HW128043   1.710   1.680   6.001 -0.1257 -0.5327  1.5813
 5528SOL    HW228044   1.815   1.580   5.959  0.3902 -0.1339 -0.0199
 5529SOL     OW28045   1.094   3.289  15.302 -0.0246  0.3185  0.3404
 5529SOL    HW128046   1.166   3.350  15.288  2.8340 -3.0088  0.3872
 5529SOL    HW228047   1.147   3.209  15.292  1.1431  1.1790 -0.3822
 5530SOL     OW28048   3.275   0.523   4.168  0.0468 -0.7833 -0.1820
 5530SOL    HW128049   3.179   0.518   4.164 -0.1087  0.3744  1.7954
 5530SOL    HW228050   3.296   0.437   4.132 -1.8642 -1.0173 -0.7722
 5531SOL     OW28051   3.224   2.649   5.901 -0.3936 -0.7283  0.5172
 5531SOL    HW128052   3.134   2.634   5.872 -1.2898  0.9970  2.4343
 5531SOL    HW228053   3.259   2.725   5.854  0.5825 -1.1238  0.6122
 5532SOL     OW28054   0.554   0.568  12.492 -0.0086  0.5076  0.3988
 5532SOL    HW128055   0.629   0.607  12.537  0.1230  1.7832 -0.9093
 5532SOL    HW228056   0.571   0.476  12.510  1.4398  0.3873 -1.5750
 5533SOL     OW28057   1.919   0.263   1.096  0.2575  0.1520 -0.2238
 5533SOL    HW128058   1.831   0.228   1.079 -0.3055  0.8675  1.1880
 5533SOL    HW228059   1.924   0.310   1.013 -1.1298  0.8242  0.0628
 5534SOL     OW28060   2.375   0.487   4.256  0.1590  0.0833  0.4140
 5534SOL    HW128061   2.384   0.412   4.197 -1.3455  0.4349 -0.2799
 5534SOL    HW228062   2.359   0.561   4.198  1.0441 -1.2185 -1.4827
 5535SOL     OW28063   3.382   3.203   1.971  0.1061 -0.2309  0.6338
 5535SOL    HW128064   3.378   3.136   1.903  2.5044 -0.4633  0.6885
 5535SOL    HW228065   3.434   3.166   2.044  2.7196 -0.4660 -1.3393
 5536SOL     OW28066   2.968   0.621  12.053  0.5107  0.0051 -0.4413
 5536SOL    HW128067   2.938   0.542  12.096 -1.6542  1.1409  0.1412
 5536SOL    HW228068   3.022   0.575  11.988 -0.8788 -2.2619  0.0117
 5537SOL     OW28069   1.291   2.229   1.538 -0.4475  0.0560  0.2467
 5537SOL    HW128070   1.221   2.211   1.600  0.6301 -0.1732  1.3901
 5537SOL    HW228071   1.247   2.198   1.459 -0.0506  1.5740 -0.5832
 5538SOL     OW28072   0.302   3.563  15.021  0.3617  0.5645 -0.8072
 5538SOL    HW128073   0.309   3.523  14.935  1.4063 -1.3721  0.1868
 5538SOL    HW228074   0.310   3.485  15.076 -1.4234  0.3748 -0.7954
 5539SOL     OW28075   1.080   1.231  13.028  0.2572  0.7301  0.9228
 5539SOL    HW128076   0.997   1.258  13.066 -1.6201  0.0787 -2.7995
 5539SOL    HW228077   1.122   1.317  13.030 -0.3478  1.0571 -1.0778
 5540SOL     OW28078   0.550   1.772   4.447 -0.2363 -0.4327 -0.1854
 5540SOL    HW128079   0.571   1.688   4.486 -1.7734  0.3720  2.3684
 5540SOL    HW228080   0.590   1.747   4.363  2.5725 -0.5742  1.2061
 5541SOL     OW28081   0.695   3.657   9.346  0.3323 -0.3014 -0.7956
 5541SOL    HW128082   0.654   3.573   9.365 -1.3682  1.0035  1.3342
 5541SOL    HW228083   0.613   3.706   9.345  1.0122  0.8206 -1.1727
 5542SOL     OW28084   2.392   3.483   9.477  0.1958 -0.4146 -0.1463
 5542SOL    HW128085   2.389   3.485   9.573 -0.9561 -0.0907 -0.1870
 5542SOL    HW228086   2.474   3.439   9.457  1.4137  2.1432 -0.7672
 5543SOL     OW28087   4.354   4.638   8.592 -0.0617 -0.6134 -0.1259
 5543SOL    HW128088   4.312   0.002   8.570  1.4600 -0.0883 -1.0183
 5543SOL    HW228089   4.433   4.652   8.540  0.3655  0.2030  0.7484
 5544SOL     OW28090   3.678   3.396   6.788  0.2242  0.0698  0.2612
 5544SOL    HW128091   3.622   3.450   6.843 -0.3840  0.5999 -0.8864
 5544SOL    HW228092   3.614   3.362   6.726  0.4728 -1.2058  0.7126
 5545SOL     OW28093   2.707   0.501   7.182  0.3120 -0.3017  0.0409
 5545SOL    HW128094   2.670   0.497   7.094 -0.6925 -0.2022  0.4601
 5545SOL    HW228095   2.792   0.458   7.176 -0.5989 -2.0492 -0.5167
 5546SOL     OW28096   3.041   2.845  13.900  0.2508 -0.0038  0.5306
 5546SOL    HW128097   3.101   2.787  13.948  1.5955  0.6837 -0.3234
 5546SOL    HW228098   2.983   2.777  13.865 -1.2902  2.2804 -1.3549
 5547SOL     OW28099   2.538   3.587   5.676 -0.1993 -0.4369  0.0624
 5547SOL    HW128100   2.462   3.547   5.718 -1.4386  0.0598 -1.7130
 5547SOL    HW228101   2.587   3.511   5.643 -0.8854 -1.4181  1.2731
 5548SOL     OW28102   2.605   0.104  15.170 -0.2262 -0.2716 -0.1814
 5548SOL    HW128103   2.530   0.046  15.156 -0.1210  0.1305 -2.4615
 5548SOL    HW228104   2.630   0.095  15.262  1.6243 -0.3007 -0.6841
 5549SOL     OW28105   0.179   1.029  16.723  0.8357  0.5650 -0.2967
 5549SOL    HW128106   0.135   0.974  16.788 -1.5653  2.2057 -0.5245
 5549SOL    HW228107   0.271   1.013  16.748  1.0273 -1.5866 -2.4294
 5550SOL     OW28108   1.036   0.007   2.925 -0.5189 -0.2583 -0.2163
 5550SOL    HW128109   1.126   4.695   2.913 -0.5226 -0.5926  0.6340
 5550SOL    HW228110   1.052   0.095   2.959 -0.5259 -0.5677  0.6049
 5551SOL     OW28111   0.197   1.086   3.582  1.2643  0.2673 -0.1677
 5551SOL    HW128112   0.142   1.162   3.604 -0.1830 -0.7328 -0.3532
 5551SOL    HW228113   0.281   1.132   3.591  1.4160 -0.0953  0.2586
 5552SOL     OW28114   0.140   1.140  17.051 -0.2162 -0.1654 -0.6331
 5552SOL    HW128115   0.189   1.083  16.991 -0.6576  2.9022 -3.9169
 5552SOL    HW228116   0.192   1.219  17.067  1.3896 -1.2317 -0.6273
 5553SOL     OW28117   3.465   3.764   5.613  0.1531 -0.0587  0.4779
 5553SOL    HW128118   3.398   3.724   5.668 -1.8357  1.2865 -1.0099
 5553SOL    HW228119   3.471   3.852   5.652  0.8830 -0.3193  0.9592
 5554SOL     OW28120   1.635   3.484  10.282 -0.1548  0.4923 -0.3281
 5554SOL    HW128121   1.583   3.553  10.322 -1.2156 -0.2423 -0.4537
 5554SOL    HW228122   1.692   3.463  10.356  0.8888 -0.4664 -1.3840
 5555SOL     OW28123   3.997   0.071  16.390 -0.2430  0.2880  0.1457
 5555SOL    HW128124   4.002   0.088  16.485  1.0837  0.2581  0.0851
 5555SOL    HW228125   3.903   0.057  16.385 -0.7458  3.4245  0.6583
 5556SOL     OW28126   0.791   2.031   5.414  0.2458  0.1136  0.2608
 5556SOL    HW128127   0.855   2.068   5.353 -0.4838 -0.9336 -1.1430
 5556SOL    HW228128   0.720   2.000   5.357 -2.6149  0.9986  3.3459
 5557SOL     OW28129   0.473   2.546   5.173 -0.3213 -0.6503 -0.0281
 5557SOL    HW128130   0.511   2.496   5.100 -0.7727 -0.3713 -0.4573
 5557SOL    HW228131   0.416   2.477   5.207  1.3289 -2.1621 -0.3308
 5558SOL     OW28132   1.913   2.343   3.378  0.0161 -0.6904 -0.2063
 5558SOL    HW128133   1.892   2.270   3.320 -3.3821 -0.3814  0.6313
 5558SOL    HW228134   1.827   2.361   3.416  2.1546 -1.3609  4.8698
 5559SOL     OW28135   2.350   2.208   3.179 -0.3024  0.5060 -0.2319
 5559SOL    HW128136   2.379   2.172   3.263  1.5850  2.6762  0.0463
 5559SOL    HW228137   2.281   2.143   3.162  0.4472 -1.3684  3.7285
 5560SOL     OW28138   1.782   4.100   3.568 -0.5298  0.2646 -0.0331
 5560SOL    HW128139   1.861   4.047   3.581  0.6832  1.5525 -1.9867
 5560SOL    HW228140   1.718   4.041   3.528 -0.1195  0.1232 -0.4858
 5561SOL     OW28141   0.267   0.433   6.743 -0.0017  0.2241  0.3094
 5561SOL    HW128142   0.310   0.468   6.665  1.2847  1.5012  1.5931
 5561SOL    HW228143   0.225   0.518   6.760 -0.4803  0.0276  0.1282
 5562SOL     OW28144   1.889   4.287   5.312 -0.8463  0.2208 -0.0245
 5562SOL    HW128145   1.839   4.232   5.252 -2.0189  1.4652 -0.1790
 5562SOL    HW228146   1.954   4.219   5.331 -0.5589  0.2101 -1.1001
 5563SOL     OW28147   2.312   0.782   2.965  0.1922  0.1839 -0.3436
 5563SOL    HW128148   2.292   0.854   3.025  2.3030 -0.3387  1.0008
 5563SOL    HW228149   2.407   0.790   2.972  0.1000  0.6272  0.4156
 5564SOL     OW28150   2.142   3.668   7.300 -0.1416  0.7011  0.0384
 5564SOL    HW128151   2.075   3.736   7.307  0.2781  0.8695  2.3248
 5564SOL    HW228152   2.223   3.717   7.291  0.3495 -0.1927 -0.3852
 5565SOL     OW28153   1.713   0.537  16.069 -0.1687 -0.4746  0.1879
 5565SOL    HW128154   1.661   0.595  16.013 -1.0901 -1.5781 -0.0738
 5565SOL    HW228155   1.697   0.450  16.033  1.1560 -0.7599  0.2883
 5566SOL     OW28156   0.798   3.813   7.386  0.3218 -0.0720  0.1268
 5566SOL    HW128157   0.761   3.869   7.455 -0.1862 -1.5522  1.0610
 5566SOL    HW228158   0.885   3.853   7.380 -0.5248  1.5895 -0.9380
 5567SOL     OW28159   2.787   3.768   8.911 -0.2651  0.2192  0.3687
 5567SOL    HW128160   2.727   3.831   8.871  0.7092  1.6633  1.1879
 5567SOL    HW228161   2.826   3.821   8.980  0.4380  2.3851 -1.7093
 5568SOL     OW28162   2.259   0.511  14.404 -0.4560 -0.1567  0.2141
 5568SOL    HW128163   2.299   0.472  14.482 -1.7566 -1.8524  0.0323
 5568SOL    HW228164   2.321   0.581  14.387  2.8608 -3.2970 -0.7491
 5569SOL     OW28165   2.087   4.017   8.866  0.0808  0.7896 -0.1128
 5569SOL    HW128166   2.063   3.932   8.904  0.7424  0.4955 -0.3513
 5569SOL    HW228167   2.139   4.061   8.933 -1.1483 -1.2768  2.2244
 5570SOL     OW28168   0.645   1.607   7.903 -0.1365 -0.0640  0.7178
 5570SOL    HW128169   0.735   1.585   7.881 -0.2259  1.6190 -1.2648
 5570SOL    HW228170   0.659   1.650   7.987 -2.1514 -1.1161  1.6101
 5571SOL     OW28171   4.261   2.057   4.484  0.1461  0.4465 -0.5414
 5571SOL    HW128172   4.318   2.066   4.408  1.5308 -0.0515  0.4546
 5571SOL    HW228173   4.305   1.988   4.533 -0.6128  1.5241  1.6729
 5572SOL     OW28174   4.406   3.787   8.555  0.4305  0.0923  0.5122
 5572SOL    HW128175   4.489   3.831   8.574  1.2078 -1.3900  0.6165
 5572SOL    HW228176   4.379   3.831   8.475 -0.0397 -3.1953 -1.1386
 5573SOL     OW28177   3.347   4.044   9.256  0.2388 -0.2055  0.0010
 5573SOL    HW128178   3.275   4.108   9.247 -1.4629 -1.8165  2.1061
 5573SOL    HW228179   3.320   3.990   9.330  1.5048 -1.4138 -0.4286
 5574SOL     OW28180   3.871   1.435  12.276  0.2549  0.4848  0.4094
 5574SOL    HW128181   3.904   1.374  12.341  3.0507  0.1749 -1.3116
 5574SOL    HW228182   3.790   1.386  12.264  1.8241 -1.7149 -1.2818
 5575SOL     OW28183   0.562   0.781   0.457 -0.1677 -0.4467  0.0852
 5575SOL    HW128184   0.602   0.856   0.503  1.6886 -2.2371  1.3791
 5575SOL    HW228185   0.628   0.716   0.433 -0.7796 -0.4309 -1.6021
 5576SOL     OW28186   1.784   2.134  10.309  0.0013  0.1111  0.6470
 5576SOL    HW128187   1.827   2.132  10.223  2.2120  3.2763  1.7064
 5576SOL    HW228188   1.859   2.162  10.359  0.4250 -0.3369  0.2666
 5577SOL     OW28189   1.896   1.014  16.353  0.1809  0.5228 -0.5655
 5577SOL    HW128190   1.876   0.924  16.377  2.9073  0.6843  2.3355
 5577SOL    HW228191   1.902   1.050  16.441 -1.2579  2.3766 -1.2197
 5578SOL     OW28192   3.213   2.469  16.902 -0.2638  0.0376 -0.0454
 5578SOL    HW128193   3.212   2.395  16.962 -0.0277  0.6248  0.6898
 5578SOL    HW228194   3.175   2.415  16.832  0.0590 -1.5416  1.0066
 5579SOL     OW28195   2.071   3.667  14.417 -0.3905  0.1290  0.2928
 5579SOL    HW128196   2.028   3.586  14.443 -0.1181  0.0759  0.5774
 5579SOL    HW228197   2.090   3.662  14.323  3.0297 -2.7791  1.1068
 5580SOL     OW28198   3.456   1.647   9.292  0.0560  0.0229 -0.1072
 5580SOL    HW128199   3.502   1.577   9.336  0.7090  0.1743 -0.5506
 5580SOL    HW228200   3.382   1.597   9.259 -0.1055 -1.0341  1.9066
 5581SOL     OW28201   0.938   3.030   8.936 -0.4433 -0.1100 -0.1972
 5581SOL    HW128202   0.979   3.056   8.853 -0.6587 -0.1654 -0.3227
 5581SOL    HW228203   1.005   2.978   8.980 -0.4523 -0.6934 -0.8710
 5582SOL     OW28204   2.571   4.354   8.324 -0.2813  0.2627 -0.5503
 5582SOL    HW128205   2.591   4.313   8.409 -0.4052  1.7226  0.1904
 5582SOL    HW228206   2.476   4.343   8.324 -0.4659  1.8883 -0.1346
 5583SOL     OW28207   1.678   0.964   3.338 -0.5345  0.3999  0.1151
 5583SOL    HW128208   1.613   1.034   3.342  0.8427  1.7376 -0.8621
 5583SOL    HW228209   1.660   0.906   3.413  0.7764  2.0379  1.7015
 5584SOL     OW28210   4.261   2.834   9.148 -0.5545  0.6554  1.3328
 5584SOL    HW128211   4.250   2.829   9.053 -2.3847  0.9703  1.5329
 5584SOL    HW228212   4.270   2.739   9.158  1.7395  0.9232  1.9501
 5585SOL     OW28213   1.169   3.157  12.604  0.5071  0.3966  0.3179
 5585SOL    HW128214   1.151   3.247  12.576 -0.8294  0.2993  0.8684
 5585SOL    HW228215   1.088   3.111  12.583  0.1778  1.1860 -0.1425
 5586SOL     OW28216   2.471   1.594   0.778 -0.3999  0.0969 -0.4592
 5586SOL    HW128217   2.512   1.550   0.852 -0.9628 -2.2334 -1.5169
 5586SOL    HW228218   2.550   1.623   0.733 -0.6062 -2.9043 -2.7825
 5587SOL     OW28219   2.264   3.741  11.669 -0.0478 -0.0628 -0.6556
 5587SOL    HW128220   2.268   3.719  11.577  2.1692  0.3055 -0.6517
 5587SOL    HW228221   2.356   3.734  11.693 -0.4345 -0.0538  0.8918
 5588SOL     OW28222   0.837   1.267   6.653 -0.0694 -0.1015 -0.3622
 5588SOL    HW128223   0.929   1.239   6.655  0.1493  0.6831  0.5275
 5588SOL    HW228224   0.848   1.349   6.703 -0.5437 -0.3773  0.1946
 5589SOL     OW28225   3.865   4.319   3.523  0.9432 -0.0758 -0.4141
 5589SOL    HW128226   3.897   4.270   3.447  1.6891 -0.0365 -0.1161
 5589SOL    HW228227   3.908   4.400   3.494  0.1581  0.6620  0.4714
 5590SOL     OW28228   1.259   3.121   4.932  0.1215 -0.0466 -0.3966
 5590SOL    HW128229   1.210   3.089   4.857 -1.3237 -1.0583  0.9707
 5590SOL    HW228230   1.301   3.206   4.918  0.2349  0.1837  1.2897
 5591SOL     OW28231   0.048   4.021   6.051  0.1409  0.2179  0.1982
 5591SOL    HW128232   0.044   3.991   5.960 -0.1344  2.8906 -0.6467
 5591SOL    HW228233   0.131   4.067   6.042  1.1814 -1.3489  1.7912
 5592SOL     OW28234   0.722   3.586  13.169 -0.1601 -0.1163  0.3309
 5592SOL    HW128235   0.722   3.495  13.198 -0.3808  0.0681  0.9242
 5592SOL    HW228236   0.814   3.606  13.189  0.0924  0.1230 -1.0855
 5593SOL     OW28237   4.430   2.513   7.300  0.2086  0.0303  0.2507
 5593SOL    HW128238   4.467   2.599   7.277  0.6083 -0.1822  0.0817
 5593SOL    HW228239   4.429   2.523   7.395  3.1077  1.1943  0.1679
 5594SOL     OW28240   0.498   4.169   8.246 -0.1429 -0.1552  0.0341
 5594SOL    HW128241   0.429   4.129   8.298  1.2215 -0.1205  1.8749
 5594SOL    HW228242   0.464   4.137   8.162  1.2230  1.4189 -1.1154
 5595SOL     OW28243   4.438   3.644   3.709 -0.6258  0.3040 -0.0688
 5595SOL    HW128244   4.389   3.572   3.748  1.5944 -0.8528  0.5428
 5595SOL    HW228245   4.528   3.622   3.730 -0.6654  0.4096  0.2030
 5596SOL     OW28246   4.099   1.909   6.039 -0.0609  0.5256  0.2233
 5596SOL    HW128247   4.114   1.814   6.035  3.5703  1.1583 -0.9309
 5596SOL    HW228248   4.151   1.928   5.961  0.3300  1.4979  0.7238
 5597SOL     OW28249   1.146   0.641   6.941 -0.3159 -0.4747  0.7243
 5597SOL    HW128250   1.144   0.572   6.874 -0.1242 -0.5265  0.7727
 5597SOL    HW228251   1.060   0.680   6.926 -1.0943 -2.7674 -0.8751
 5598SOL     OW28252   4.396   1.181  16.689 -0.8267 -0.5133  0.4099
 5598SOL    HW128253   4.321   1.186  16.748  0.5902 -1.2055  2.2724
 5598SOL    HW228254   4.407   1.086  16.695 -1.3540 -0.6318 -0.5060
 5599SOL     OW28255   0.901   4.178   0.051 -0.0666 -0.1601  0.0980
 5599SOL    HW128256   0.876   4.085   0.058 -3.8215  0.9870  1.8583
 5599SOL    HW228257   0.901   4.207   0.142 -0.1941  0.8122 -0.2119
 5600SOL     OW28258   0.080   3.014   8.518  0.2650 -0.2187 -0.7451
 5600SOL    HW128259   0.170   3.038   8.497 -0.1255  0.6711 -1.4347
 5600SOL    HW228260   0.063   2.941   8.458 -0.1834 -0.6077 -0.1462
 5601SOL     OW28261   1.203   4.383   7.411 -0.0211  0.0043 -0.2563
 5601SOL    HW128262   1.286   4.404   7.367 -0.7836  2.3633 -0.5565
 5601SOL    HW228263   1.143   4.428   7.352 -1.2258 -0.1422  0.8744
 5602SOL     OW28264   2.576   4.568   3.851 -0.1378  0.9402  0.0459
 5602SOL    HW128265   2.643   4.619   3.897 -2.3121  2.6409  1.3133
 5602SOL    HW228266   2.528   4.543   3.931 -1.8783 -3.2275 -2.3413
 5603SOL     OW28267   2.809   4.054   7.713  0.9241 -0.5278  0.0190
 5603SOL    HW128268   2.785   4.140   7.680  1.2206  0.0922  1.4368
 5603SOL    HW228269   2.851   4.006   7.641 -0.8519 -1.4626 -0.3751
 5604SOL     OW28270   4.074   1.521   3.828  0.0442 -0.1535 -0.1016
 5604SOL    HW128271   4.110   1.482   3.748 -0.0936  0.2251 -0.3504
 5604SOL    HW228272   4.115   1.607   3.827  0.4674 -0.3578 -0.2051
 5605SOL     OW28273   1.069   0.953  14.176  0.0047  0.0697 -0.7504
 5605SOL    HW128274   1.091   0.950  14.083  0.4733 -2.8773 -0.5608
 5605SOL    HW228275   1.108   0.866  14.188  0.2955  0.4082  0.7751
 5606SOL     OW28276   0.657   3.120   4.728 -0.6881  0.2304  0.1196
 5606SOL    HW128277   0.710   3.043   4.706  0.3953  1.1450 -0.5087
 5606SOL    HW228278   0.621   3.146   4.643  0.4169  2.3551  0.2890
 5607SOL     OW28279   0.254   4.543   7.237 -0.1259  0.4866 -0.4785
 5607SOL    HW128280   0.338   4.496   7.230  0.1759  0.7176  1.4513
 5607SOL    HW228281   0.278   4.630   7.205 -1.9741  1.4032  0.6353
 5608SOL     OW28282   0.019   1.081   3.382  0.5571 -0.2734 -0.2175
 5608SOL    HW128283   0.061   1.081   3.468 -0.3357 -2.3481  0.2231
 5608SOL    HW228284   0.080   1.119   3.319  1.2741 -0.7093  0.2068
 5609SOL     OW28285   0.535   0.863  11.620 -0.0503 -0.8200  0.3209
 5609SOL    HW128286   0.587   0.795  11.576  1.8989  0.8572  0.0443
 5609SOL    HW228287   0.601   0.928  11.643 -0.3256 -0.4563  0.0913
 5610SOL     OW28288   1.290   4.511   2.890  0.4252 -0.5287  0.6368
 5610SOL    HW128289   1.211   4.466   2.860 -1.0567  2.8059 -0.4657
 5610SOL    HW228290   1.277   4.481   2.981  0.8657  2.8182  1.7833
 5611SOL     OW28291   2.674   3.340   6.014 -0.0417  0.1797  0.1147
 5611SOL    HW128292   2.757   3.364   5.973 -0.6835 -0.4466 -1.5268
 5611SOL    HW228293   2.638   3.277   5.952 -3.3991  0.8078  1.3838
 5612SOL     OW28294   4.172   3.655   4.791  0.0864  0.5921  0.3928
 5612SOL    HW128295   4.253   3.673   4.744  0.6788 -0.5559  0.9718
 5612SOL    HW228296   4.209   3.632   4.876 -0.2617  1.5734  0.8201
 5613SOL     OW28297   2.309   2.079  17.407 -0.1889 -0.2967  0.3907
 5613SOL    HW128298   2.276   1.991  17.423  1.3859 -1.1352 -1.0133
 5613SOL    HW228299   2.368   2.064  17.333  0.7389  0.0036  1.0645
 5614SOL     OW28300   0.116   3.145   4.787 -0.2842  0.2365 -0.3174
 5614SOL    HW128301   0.032   3.111   4.818  0.6395 -3.3120 -1.7494
 5614SOL    HW228302   0.177   3.099   4.845 -0.6843  0.8118  0.5698
 5615SOL     OW28303   0.289   1.425  11.950  0.0177 -0.4178  0.3017
 5615SOL    HW128304   0.269   1.361  12.018 -1.2915  2.2277  2.4142
 5615SOL    HW228305   0.339   1.367  11.892 -0.3353  0.6429 -1.0673
 5616SOL     OW28306   3.661   3.527   5.786  0.0178  0.0543 -0.7549
 5616SOL    HW128307   3.620   3.522   5.700  0.8040 -2.0969 -1.0053
 5616SOL    HW228308   3.618   3.446   5.815 -2.5397  0.9221 -2.1277
 5617SOL     OW28309   3.549   1.460   9.050 -0.0890 -1.0153 -0.1235
 5617SOL    HW128310   3.548   1.449   9.145 -2.8669 -1.8282 -0.2273
 5617SOL    HW228311   3.528   1.550   9.026  2.0024 -0.2806  0.8386
 5618SOL     OW28312   2.413   2.926   7.832 -0.2382 -0.1889  0.0201
 5618SOL    HW128313   2.317   2.919   7.826 -0.2849  0.5887 -0.1471
 5618SOL    HW228314   2.442   2.888   7.749  0.2130  0.8751 -0.3019
 5619SOL     OW28315   2.488   0.918  16.711  0.1737 -0.1667 -0.6989
 5619SOL    HW128316   2.433   0.840  16.720  3.0965 -1.8697  2.6191
 5619SOL    HW228317   2.523   0.898  16.624 -1.0951 -1.5503 -0.8846
 5620SOL     OW28318   1.730   0.905  10.333 -0.7089  0.0561  0.4448
 5620SOL    HW128319   1.718   0.819  10.292 -1.3009 -0.0054  0.7417
 5620SOL    HW228320   1.694   0.954  10.259 -0.5074 -0.5337 -0.0426
 5621SOL     OW28321   1.044   3.144   6.938 -0.2537  0.2464  0.1356
 5621SOL    HW128322   1.042   3.083   7.012  0.6305 -0.0500 -0.0942
 5621SOL    HW228323   1.001   3.089   6.873  0.1477 -0.4662  0.4789
 5622SOL     OW28324   0.479   1.485  11.568 -0.6251 -0.0910  0.1094
 5622SOL    HW128325   0.414   1.553  11.548 -0.3231  0.6413  1.6282
 5622SOL    HW228326   0.468   1.429  11.491 -1.1611  0.5418 -0.2863
 5623SOL     OW28327   1.216   2.630   3.890  0.5384 -0.1808  0.4403
 5623SOL    HW128328   1.269   2.563   3.848 -1.7854  0.0109 -2.8024
 5623SOL    HW228329   1.205   2.692   3.818 -0.2545  0.2866  0.9581
 5624SOL     OW28330   1.729   0.771  12.105  0.4783  0.6209  0.0916
 5624SOL    HW128331   1.702   0.862  12.090 -2.6422 -0.3463 -0.1165
 5624SOL    HW228332   1.686   0.730  12.030  0.6987  0.2598  0.1630
 5625SOL     OW28333   1.946   2.709   8.588 -0.2577 -0.2333 -0.1661
 5625SOL    HW128334   1.944   2.793   8.541  1.3192  0.3186  0.7549
 5625SOL    HW228335   1.968   2.648   8.519 -2.6905 -1.1253 -0.1565
 5626SOL     OW28336   1.249   3.507   7.645  0.2528 -0.4947 -0.1720
 5626SOL    HW128337   1.166   3.516   7.693  0.2484 -1.3954 -0.0109
 5626SOL    HW228338   1.304   3.551   7.709 -0.5884  1.4688 -0.7566
 5627SOL     OW28339   0.712   4.292  12.364  0.1977  0.0204 -0.1396
 5627SOL    HW128340   0.800   4.305  12.327  0.3872 -1.2316 -0.1181
 5627SOL    HW228341   0.716   4.198  12.383 -2.0720 -0.1289 -0.4346
 5628SOL     OW28342   3.444   1.773   4.681  0.0149  0.0035  0.4577
 5628SOL    HW128343   3.451   1.729   4.765  2.0673  0.2489  0.4106
 5628SOL    HW228344   3.468   1.706   4.617 -0.6267  1.0107 -0.8574
 5629SOL     OW28345   2.208   4.110   6.328 -0.5981 -0.0661 -0.7985
 5629SOL    HW128346   2.219   4.018   6.355  1.6745  0.1535 -1.0406
 5629SOL    HW228347   2.293   4.153   6.336 -1.6791  1.9252 -0.1381
 5630SOL     OW28348   0.665   3.012  15.126  0.1955 -0.1515 -0.4875
 5630SOL    HW128349   0.597   2.996  15.061  2.6137  0.2011 -3.1025
 5630SOL    HW228350   0.606   3.031  15.199  0.2016 -1.9600 -0.0267
 5631SOL     OW28351   4.269   3.036   8.122  0.4692 -0.1351 -0.2076
 5631SOL    HW128352   4.346   2.995   8.161 -1.2006 -1.0830  2.1213
 5631SOL    HW228353   4.211   2.960   8.129 -1.9429  1.7362 -0.0356
 5632SOL     OW28354   0.302   3.847   1.902  0.1814  0.2523 -0.2223
 5632SOL    HW128355   0.284   3.941   1.902 -0.3590  0.1554  0.3162
 5632SOL    HW228356   0.366   3.840   1.973  2.8752 -0.7957 -2.7769
 5633SOL     OW28357   0.063   3.514  11.431  0.1574 -0.1587  0.4130
 5633SOL    HW128358   0.054   3.427  11.392  0.3308  0.0310 -0.0442
 5633SOL    HW228359   0.065   3.560  11.347 -1.0789 -0.7452  0.0594
 5634SOL     OW28360   1.910   1.891   3.473 -0.5163 -0.0044 -0.1150
 5634SOL    HW128361   1.862   1.888   3.389  0.8721 -0.1822 -0.8930
 5634SOL    HW228362   1.989   1.931   3.437  0.5192 -1.5297  0.5271
 5635SOL     OW28363   1.534   2.199   1.713 -0.0507  0.3428 -0.1680
 5635SOL    HW128364   1.623   2.165   1.729  0.3255  0.6133 -1.7472
 5635SOL    HW228365   1.492   2.118   1.682  0.3172  0.0614  0.0624
 5636SOL     OW28366   1.034   4.098  15.210 -0.1456 -0.1262  0.0277
 5636SOL    HW128367   1.024   4.161  15.138  2.5631 -0.5479 -0.7276
 5636SOL    HW228368   1.088   4.026  15.176 -0.2977 -0.6705  0.9498
 5637SOL     OW28369   2.271   3.259   0.646 -0.0286 -0.4622 -0.2498
 5637SOL    HW128370   2.186   3.294   0.621 -1.5815 -1.9522  2.9401
 5637SOL    HW228371   2.238   3.169   0.645 -0.8868 -0.1582  0.4441
 5638SOL     OW28372   4.654   0.136   9.015 -0.2545 -0.3201  0.6342
 5638SOL    HW128373   4.636   0.136   9.109  0.7995 -0.2936  0.8374
 5638SOL    HW228374   4.687   0.223   8.994 -1.9707  0.7519  2.3782
 5639SOL     OW28375   2.392   2.757   8.871  0.4556 -0.2341 -0.1062
 5639SOL    HW128376   2.390   2.763   8.967  2.1339  0.2865 -0.0909
 5639SOL    HW228377   2.453   2.826   8.846 -0.6460  0.6097 -0.4812
 5640SOL     OW28378   0.539   3.042  11.853  0.0096 -0.2009  0.2152
 5640SOL    HW128379   0.559   2.951  11.876 -1.8229 -0.2605  1.5606
 5640SOL    HW228380   0.473   3.057  11.920 -0.6661 -1.8061 -0.0846
 5641SOL     OW28381   1.211   2.342   2.653  0.8253 -0.6114  0.2378
 5641SOL    HW128382   1.283   2.405   2.646 -1.0697  1.6949  1.7493
 5641SOL    HW228383   1.233   2.291   2.575  1.2060 -0.3425  0.1724
 5642SOL     OW28384   3.631   4.120   8.482  0.0885 -0.2660 -0.2742
 5642SOL    HW128385   3.601   4.085   8.398  1.8221 -2.7151  0.1201
 5642SOL    HW228386   3.562   4.079   8.534  0.3672  0.1632  0.4219
 5643SOL     OW28387   2.156   0.142   5.178  0.7666 -0.4209 -0.2758
 5643SOL    HW128388   2.192   0.229   5.162  0.2123  0.1327  1.5542
 5643SOL    HW228389   2.106   0.133   5.097  1.7371 -0.5680 -0.8608
 5644SOL     OW28390   2.702   0.501   4.631 -0.3236  0.2083  0.0353
 5644SOL    HW128391   2.643   0.461   4.567 -1.1857 -0.0982  1.0332
 5644SOL    HW228392   2.654   0.575   4.668 -0.5475  0.0080  0.1457
 5645SOL     OW28393   3.978   3.619  15.829  0.0804 -0.4938 -0.5642
 5645SOL    HW128394   4.040   3.631  15.758  0.5897  1.6265  0.2548
 5645SOL    HW228395   3.980   3.701  15.877  1.3353 -1.1038  0.4203
 5646SOL     OW28396   4.162   1.230   7.350  0.5929  0.4600  0.2786
 5646SOL    HW128397   4.250   1.221   7.313 -0.2371 -0.2415 -1.5204
 5646SOL    HW228398   4.110   1.241   7.270 -0.1697 -0.9313  0.5761
 5647SOL     OW28399   3.199   1.426   6.593 -0.0365 -0.1117  0.1341
 5647SOL    HW128400   3.153   1.370   6.530 -1.4485  1.0813  0.1203
 5647SOL    HW228401   3.127   1.471   6.637  0.3424  1.5183 -0.9355
 5648SOL     OW28402   2.152   4.469  12.772  0.1375 -0.3009  0.4051
 5648SOL    HW128403   2.224   4.530  12.753  0.4111 -0.5141  0.7746
 5648SOL    HW228404   2.196   4.390  12.803 -1.1012 -2.0031 -2.0885
 5649SOL     OW28405   4.030   1.805   8.773  0.1589  0.4719  0.6599
 5649SOL    HW128406   3.960   1.800   8.708  1.1423 -0.1035 -0.3437
 5649SOL    HW228407   4.020   1.720   8.815 -0.0879  0.8260  1.3221
 5650SOL     OW28408   2.943   1.779   3.349  0.0345 -0.2923 -0.1412
 5650SOL    HW128409   2.898   1.750   3.429  0.4858  1.7281  0.8216
 5650SOL    HW228410   2.903   1.866   3.349 -0.9403 -0.7417 -2.3596
 5651SOL     OW28411   3.674   1.728  10.572  0.8502 -0.0989 -0.0140
 5651SOL    HW128412   3.664   1.694  10.483  0.5175  1.7352 -0.6842
 5651SOL    HW228413   3.700   1.654  10.626 -1.7796 -0.6816  0.4202
 5652SOL     OW28414   3.931   1.776   6.901  0.6064 -0.3413 -0.5884
 5652SOL    HW128415   3.942   1.816   6.988  1.7479 -3.3434  0.6552
 5652SOL    HW228416   3.895   1.855   6.859  1.2412 -0.9480 -2.2601
 5653SOL     OW28417   4.278   3.634  15.539  0.3992 -0.7145 -0.0442
 5653SOL    HW128418   4.211   3.694  15.571  1.4631 -0.2251  1.2666
 5653SOL    HW228419   4.278   3.582  15.619 -1.2449 -1.0123 -0.2421
 5654SOL     OW28420   3.463   2.307   8.355  0.2720  0.0418 -0.1974
 5654SOL    HW128421   3.550   2.333   8.325  0.1419  0.2219 -0.4143
 5654SOL    HW228422   3.449   2.227   8.305  2.3458 -0.7602  0.5426
 5655SOL     OW28423   2.136   0.459   7.667 -0.1254  0.4829  0.5238
 5655SOL    HW128424   2.139   0.547   7.703  3.9351  0.3785  0.3713
 5655SOL    HW228425   2.053   0.461   7.618 -0.5402 -2.3062  1.1237
 5656SOL     OW28426   3.390   1.345   6.309 -0.5396  0.0782  0.3958
 5656SOL    HW128427   3.411   1.376   6.221  1.2280 -2.0377  0.0601
 5656SOL    HW228428   3.395   1.426   6.358 -0.1763  1.6092 -2.1539
 5657SOL     OW28429   2.052   1.288  12.414  0.1570 -0.0468 -0.4094
 5657SOL    HW128430   2.097   1.329  12.340  0.2224 -1.0772 -0.9459
 5657SOL    HW228431   2.052   1.361  12.476 -1.9238 -0.5311  0.1637
 5658SOL     OW28432   3.174   2.213   8.348  0.1487  0.2732 -0.4288
 5658SOL    HW128433   3.267   2.217   8.324 -0.2350  1.9254 -1.6639
 5658SOL    HW228434   3.139   2.195   8.260 -0.0125  2.0334 -0.7195
 5659SOL     OW28435   2.049   0.743   7.691 -0.4117  0.0920 -0.9583
 5659SOL    HW128436   2.067   0.837   7.693  2.0750 -0.3831 -0.9241
 5659SOL    HW228437   1.968   0.731   7.641 -0.3753 -0.4596 -0.8874
 5660SOL     OW28438   4.496   3.196   1.634 -0.5244 -0.4239 -0.3958
 5660SOL    HW128439   4.559   3.155   1.575  1.3429  2.3991 -0.3564
 5660SOL    HW228440   4.442   3.246   1.572 -0.7339 -0.8026 -0.5201
 5661SOL     OW28441   3.798   0.058   2.790  0.4809 -0.3063  0.0342
 5661SOL    HW128442   3.720   0.103   2.760  1.6670  0.7265 -1.4856
 5661SOL    HW228443   3.875   0.113   2.771  0.8849 -0.0588  2.3160
 5662SOL     OW28444   2.430   4.326  12.571  0.2320 -0.0205  0.4863
 5662SOL    HW128445   2.526   4.336  12.570  0.4271 -1.8760  0.4088
 5662SOL    HW228446   2.425   4.341  12.665  0.2748  2.1851  0.1244
 5663SOL     OW28447   0.901   3.662   6.449 -0.0681  0.3028 -0.3574
 5663SOL    HW128448   0.830   3.602   6.425 -2.2239  2.4071  0.8156
 5663SOL    HW228449   0.871   3.739   6.400  1.6714  2.6845  2.3401
 5664SOL     OW28450   3.788   4.260   2.426 -0.0522 -0.1092 -0.5016
 5664SOL    HW128451   3.805   4.354   2.419  0.0744 -0.1029 -0.0919
 5664SOL    HW228452   3.743   4.249   2.510  1.1613  0.3004  0.1968
 5665SOL     OW28453   1.502   0.692   6.422  0.0173 -0.0585 -0.6165
 5665SOL    HW128454   1.478   0.629   6.354 -1.4303 -0.8612  0.6167
 5665SOL    HW228455   1.426   0.705   6.479  0.8916 -0.1730  0.5657
 5666SOL     OW28456   0.037   0.542   9.922  0.2729  0.6199 -0.2051
 5666SOL    HW128457   0.015   0.453   9.950  0.4841  1.2218  1.8626
 5666SOL    HW228458   0.060   0.520   9.832 -0.5767 -1.3956  0.0812
 5667SOL     OW28459   0.147   1.621   2.267  0.7673  0.0431  0.0166
 5667SOL    HW128460   0.220   1.596   2.324  0.4739 -0.2815  0.2545
 5667SOL    HW228461   0.188   1.683   2.208  0.0906 -0.2870 -0.8096
 5668SOL     OW28462   1.320   3.318   3.850  0.2887 -0.1229  0.0236
 5668SOL    HW128463   1.330   3.412   3.830 -0.9485  0.1966  0.9218
 5668SOL    HW228464   1.285   3.323   3.939  1.3840  1.5484  0.3660
 5669SOL     OW28465   3.622   2.856  15.718  0.2137  0.3529  0.6898
 5669SOL    HW128466   3.656   2.895  15.798 -0.8737  0.2454  1.2082
 5669SOL    HW228467   3.562   2.923  15.687 -2.2673 -1.9353  0.5055
 5670SOL     OW28468   2.243   3.935   6.674  0.0920  0.7728 -0.2177
 5670SOL    HW128469   2.191   4.015   6.681  1.2792  1.5134  0.0731
 5670SOL    HW228470   2.173   3.875   6.646  0.6283  0.6426 -1.2979
 5671SOL     OW28471   3.267   3.413   0.278  0.9848 -0.0929 -1.0673
 5671SOL    HW128472   3.311   3.498   0.286  1.4536 -0.3656 -0.7384
 5671SOL    HW228473   3.277   3.382   0.368 -0.6410  1.3994 -0.3698
 5672SOL     OW28474   4.526   4.044   6.185  0.3153 -0.3499  0.1975
 5672SOL    HW128475   4.603   4.047   6.129 -1.0610  0.8832 -1.6078
 5672SOL    HW228476   4.564   4.037   6.273  1.5655  3.1506 -0.0752
 5673SOL     OW28477   3.251   1.361   8.781 -0.5640  0.0924 -0.1749
 5673SOL    HW128478   3.243   1.342   8.875 -1.5813  4.0822  0.5529
 5673SOL    HW228479   3.216   1.450   8.782 -0.5767  0.0911 -0.6907
 5674SOL     OW28480   0.369   0.281   4.536  0.1204  0.1243  0.1885
 5674SOL    HW128481   0.430   0.208   4.545 -1.5386 -1.3004 -0.0114
 5674SOL    HW228482   0.296   0.245   4.485  0.5993 -0.4513 -0.0853
 5675SOL     OW28483   4.019   1.685  16.619 -0.1581  0.4678 -0.0618
 5675SOL    HW128484   4.105   1.646  16.603 -0.7997 -0.3999 -1.3628
 5675SOL    HW228485   4.018   1.722  16.707  0.3795 -0.6034  0.3899
 5676SOL     OW28486   3.066   1.028   2.311 -0.7875 -0.6242 -0.0176
 5676SOL    HW128487   3.029   0.942   2.296 -0.7882 -0.5086 -0.6913
 5676SOL    HW228488   3.107   1.036   2.225  3.0913  0.7482  1.9596
 5677SOL     OW28489   2.928   3.233  14.144  0.1031 -0.1779  0.1407
 5677SOL    HW128490   2.966   3.162  14.091  1.1642  0.9565 -0.6456
 5677SOL    HW228491   3.009   3.285  14.144  1.1260 -1.7801  0.7773
 5678SOL     OW28492   0.096   2.209   7.253 -0.1404  0.3083 -0.4107
 5678SOL    HW128493   0.087   2.113   7.246 -1.3747  0.4369 -0.5505
 5678SOL    HW228494   0.005   2.236   7.248 -0.0778  0.5889  0.0189
 5679SOL     OW28495   0.527   3.797   7.296  0.0747  0.2680 -0.2140
 5679SOL    HW128496   0.536   3.890   7.279  2.8780  0.1426  0.6416
 5679SOL    HW228497   0.621   3.781   7.303  0.1894  1.4263  0.7915
 5680SOL     OW28498   3.993   0.171   7.913  0.4206 -0.8095  0.2487
 5680SOL    HW128499   3.908   0.200   7.947 -1.0857  0.4656 -4.4971
 5680SOL    HW228500   4.023   0.252   7.870 -1.6556 -0.9013 -1.3932
 5681SOL     OW28501   3.282   2.042  14.994  0.2479 -0.3905 -0.2479
 5681SOL    HW128502   3.266   2.083  15.078 -0.4941 -1.9827  0.3852
 5681SOL    HW228503   3.196   2.041  14.953  0.9601  5.0404 -1.8840
 5682SOL     OW28504   3.067   1.091   6.208  0.1026  0.8099 -0.5382
 5682SOL    HW128505   3.078   1.179   6.173 -1.1915  1.8603  1.7217
 5682SOL    HW228506   3.089   1.052   6.123 -0.9670  0.4490 -0.6513
 5683SOL     OW28507   2.032   1.016   8.113 -0.1717  0.9316 -0.2345
 5683SOL    HW128508   1.959   0.979   8.064 -0.2242  0.3292  0.2950
 5683SOL    HW228509   1.987   1.050   8.190 -2.2148 -3.1455  0.3313
 5684SOL     OW28510   1.215   3.556  12.193 -0.1009 -0.1734 -0.3617
 5684SOL    HW128511   1.180   3.499  12.124 -0.6986 -1.6757  1.1725
 5684SOL    HW228512   1.160   3.634  12.188 -0.4393 -0.4274 -0.5879
 5685SOL     OW28513   2.419   2.165  16.718 -0.3352  0.0174  0.0461
 5685SOL    HW128514   2.325   2.164  16.736 -0.1185  0.0989  1.1859
 5685SOL    HW228515   2.439   2.071  16.717 -0.6387 -0.0731  3.2695
 5686SOL     OW28516   4.220   1.750   3.712  0.3925 -0.0635  0.7023
 5686SOL    HW128517   4.250   1.824   3.764 -2.2927  1.9232 -0.5861
 5686SOL    HW228518   4.300   1.720   3.668  1.4092  1.1340  1.7624
 5687SOL     OW28519   4.682   0.002   3.654 -0.0058 -0.2395 -0.0212
 5687SOL    HW128520   4.693   4.643   3.708  1.7986 -0.0860 -0.1792
 5687SOL    HW228521   0.049   0.014   3.614  1.9655 -0.8679  3.9863
 5688SOL     OW28522   1.306   1.108   3.047 -0.1268 -0.2900 -0.3973
 5688SOL    HW128523   1.269   1.170   3.110 -1.0206 -1.6759  0.4489
 5688SOL    HW228524   1.255   1.030   3.069 -0.9634  0.6614  1.0656
 5689SOL     OW28525   1.604   2.469   4.926 -0.2765 -0.3069  0.1231
 5689SOL    HW128526   1.535   2.533   4.943  1.0137  1.0097  0.4168
 5689SOL    HW228527   1.663   2.526   4.877 -0.9465 -1.7256 -2.3529
 5690SOL     OW28528   3.738   1.732   5.939  0.0506  0.3164  0.4685
 5690SOL    HW128529   3.696   1.691   6.015 -1.1547 -0.5874 -0.6753
 5690SOL    HW228530   3.758   1.822   5.964 -1.3046  0.4847  0.9687
 5691SOL     OW28531   4.591   3.589   7.881  0.1504  0.1793  0.6057
 5691SOL    HW128532   4.524   3.656   7.868 -1.5949 -0.9763  3.4006
 5691SOL    HW228533   4.598   3.588   7.977 -1.5241  0.3287  0.7291
 5692SOL     OW28534   1.515   0.290  14.897 -0.4169  0.5084  0.4721
 5692SOL    HW128535   1.560   0.355  14.951  0.0825 -0.1280  0.8269
 5692SOL    HW228536   1.589   0.274  14.837  0.0480 -0.2229  1.2505
 5693SOL     OW28537   4.643   3.872   4.798  0.1981 -0.4412  0.0234
 5693SOL    HW128538   4.683   3.843   4.880 -0.9616  0.1576  0.8029
 5693SOL    HW228539   4.613   3.961   4.816 -1.5559 -0.2575 -3.8882
 5694SOL     OW28540   2.879   3.232  14.435 -0.8611  0.0425 -0.4404
 5694SOL    HW128541   2.894   3.235  14.340 -1.4629 -2.1222 -0.5949
 5694SOL    HW228542   2.792   3.194  14.442 -1.3484  1.0001 -1.1980
 5695SOL     OW28543   0.348   2.790   5.284 -0.2256 -0.2324  0.4977
 5695SOL    HW128544   0.361   2.709   5.235  1.5531  1.5699 -1.9789
 5695SOL    HW228545   0.440   2.805   5.305 -0.0444 -0.0386 -0.4437
 5696SOL     OW28546   0.409   1.830  15.608  0.5926 -0.4776 -0.1824
 5696SOL    HW128547   0.385   1.788  15.525 -0.2492 -2.9372  1.3061
 5696SOL    HW228548   0.498   1.857  15.585  1.2180 -3.0452 -0.6947
 5697SOL     OW28549   4.231   0.635   5.279  0.1168  0.0967  0.4056
 5697SOL    HW128550   4.184   0.696   5.221 -2.2523 -1.3758  0.7645
 5697SOL    HW228551   4.184   0.553   5.265 -0.1761  0.1140  1.3142
 5698SOL     OW28552   3.461   4.215   9.069 -0.2014 -0.7667  0.5620
 5698SOL    HW128553   3.506   4.241   9.149 -0.6391 -1.1616  0.9388
 5698SOL    HW228554   3.404   4.146   9.103 -0.2003 -0.9575  0.1794
 5699SOL     OW28555   0.486   0.345   3.445  0.5886  0.4438  0.0375
 5699SOL    HW128556   0.581   0.336   3.454  0.7113  1.9623  0.2460
 5699SOL    HW228557   0.481   0.437   3.420  0.3907  0.4419  0.0692
 5700SOL     OW28558   3.245   3.758   2.926  0.7223  0.2941 -0.0201
 5700SOL    HW128559   3.260   3.806   3.008 -1.7059  2.4338 -0.8216
 5700SOL    HW228560   3.157   3.730   2.952 -0.2769  0.6214 -3.0107
 5701SOL     OW28561   2.180   0.576   5.654  0.0923  0.4610 -0.5960
 5701SOL    HW128562   2.248   0.639   5.681  0.2487  0.3030 -0.6210
 5701SOL    HW228563   2.106   0.637   5.653  0.9168  1.4752 -0.5523
 5702SOL     OW28564   3.530   4.317   9.319  0.4427  0.7409  0.3686
 5702SOL    HW128565   3.570   4.252   9.375 -1.5777 -0.0805  0.8421
 5702SOL    HW228566   3.528   4.391   9.380  3.3795  2.1081 -1.1513
 5703SOL     OW28567   3.130   0.822  14.474 -0.3270 -0.5138 -0.1102
 5703SOL    HW128568   3.060   0.758  14.480  0.6254 -1.6709 -1.4885
 5703SOL    HW228569   3.100   0.876  14.547 -1.6698 -2.5812  0.8442
 5704SOL     OW28570   4.471   4.659   2.092  0.4878 -0.5688 -0.6554
 5704SOL    HW128571   4.386   4.614   2.095  0.6309 -0.7162  1.3021
 5704SOL    HW228572   4.476   4.676   1.998 -2.5820  0.0229 -0.7165
 5705SOL     OW28573   2.419   0.275   2.307  0.0924 -0.3359  0.0939
 5705SOL    HW128574   2.382   0.303   2.223  1.8936 -0.5452 -0.7658
 5705SOL    HW228575   2.406   0.183   2.282 -4.6544  0.4708 -0.3962
 5706SOL     OW28576   3.867   0.537   4.224  0.0382  0.2521  0.0040
 5706SOL    HW128577   3.833   0.514   4.137 -0.4701 -0.1439  0.3129
 5706SOL    HW228578   3.834   0.626   4.228 -1.4114 -0.2904 -0.0607
 5707SOL     OW28579   2.267   0.546   3.621  0.2391 -0.0697 -0.5715
 5707SOL    HW128580   2.185   0.581   3.656 -0.1570  0.6932 -2.2593
 5707SOL    HW228581   2.245   0.454   3.605  0.5644 -0.2291 -0.1042
 5708SOL     OW28582   0.099   4.510   6.176 -1.0475  0.1689  0.2711
 5708SOL    HW128583   0.088   4.420   6.205  1.1175  0.1421  1.0364
 5708SOL    HW228584   0.024   4.528   6.120  0.7377  0.3856 -2.0774
 5709SOL     OW28585   1.395   3.971   4.250  0.3586 -0.3267  0.4151
 5709SOL    HW128586   1.434   3.938   4.331 -0.1344 -0.5988  0.5363
 5709SOL    HW228587   1.303   3.952   4.268 -0.5839  2.6919 -1.1611
 5710SOL     OW28588   3.711   2.694   6.685 -0.0816  0.1477 -0.3062
 5710SOL    HW128589   3.670   2.766   6.638  0.2540  0.3313 -0.3147
 5710SOL    HW228590   3.801   2.725   6.695 -0.5570  0.4713  3.1046
 5711SOL     OW28591   1.750   3.596   8.435  0.5456  0.2710 -0.0003
 5711SOL    HW128592   1.778   3.556   8.518 -2.3664  2.7142  2.1717
 5711SOL    HW228593   1.806   3.673   8.443 -0.4928  0.8639  1.6808
 5712SOL     OW28594   1.544   2.494   4.209  0.4279 -0.0096 -0.3836
 5712SOL    HW128595   1.531   2.458   4.121  0.0581  0.7763 -0.6509
 5712SOL    HW228596   1.467   2.547   4.228  1.3083 -0.0671  3.2939
 5713SOL     OW28597   0.711   3.707   0.350  0.5011  0.2020  0.0395
 5713SOL    HW128598   0.683   3.724   0.260  1.2011  1.5710  0.0851
 5713SOL    HW228599   0.682   3.617   0.363 -4.2105  1.6878  0.1201
 5714SOL     OW28600   2.781   3.470   8.016 -0.2812 -0.1225  0.3665
 5714SOL    HW128601   2.695   3.428   8.015  0.1872 -1.0669 -1.4832
 5714SOL    HW228602   2.769   3.520   8.096 -0.4990  1.6193 -0.7647
 5715SOL     OW28603   3.342   1.207   1.044  0.2989 -0.5748  0.0555
 5715SOL    HW128604   3.249   1.204   1.069  0.2780 -0.5171 -0.0154
 5715SOL    HW228605   3.360   1.113   1.046  2.1673 -0.2391 -1.0171
 5716SOL     OW28606   0.745   1.092   6.044  0.5210  0.1734  0.1540
 5716SOL    HW128607   0.681   1.094   6.116 -3.1024 -3.4806 -2.9716
 5716SOL    HW228608   0.743   1.004   6.007 -0.3219  0.2333  0.0540
 5717SOL     OW28609   1.848   4.616   4.239  0.2179 -0.1082 -0.2502
 5717SOL    HW128610   1.882   4.692   4.192  0.8167 -0.7103 -0.7915
 5717SOL    HW228611   1.896   4.546   4.195  1.9058  1.1764 -0.4700
 5718SOL     OW28612   3.911   0.590   8.333  0.2755  0.3961  0.2163
 5718SOL    HW128613   3.846   0.534   8.375  0.0311  1.9963  1.9981
 5718SOL    HW228614   3.870   0.676   8.346 -0.8333 -0.5387  2.9862
 5719SOL     OW28615   1.845   3.964   9.183  0.2568  0.2997  0.3255
 5719SOL    HW128616   1.853   3.918   9.099  0.7691 -0.0188  0.5532
 5719SOL    HW228617   1.756   3.946   9.215  0.8885 -1.5213  1.0261
 5720SOL     OW28618   4.013   3.997   2.962  0.0254 -0.3457  0.3920
 5720SOL    HW128619   3.946   3.934   2.937 -0.5094  0.5818 -0.5246
 5720SOL    HW228620   3.954   4.073   2.955 -1.3914 -1.4451  0.3866
 5721SOL     OW28621   2.390   0.952   8.341  0.0574 -0.5828 -0.2815
 5721SOL    HW128622   2.388   0.906   8.425  0.7592 -1.5381 -0.7880
 5721SOL    HW228623   2.465   1.009   8.358 -1.6606  1.5972  0.0322
 5722SOL     OW28624   4.557   0.663   0.134  0.2241  0.2526  0.0985
 5722SOL    HW128625   4.641   0.690   0.171  0.0544  0.0330  0.6350
 5722SOL    HW228626   4.591   0.599   0.071  0.0560  2.2871 -2.0880
 5723SOL     OW28627   0.607   4.568  14.877  0.2884  0.0298 -0.5876
 5723SOL    HW128628   0.528   4.541  14.925  0.1612  0.9385 -0.2801
 5723SOL    HW228629   0.573   4.648  14.835  0.5853  0.5822  0.2122
 5724SOL     OW28630   1.790   2.294   5.027  0.6719  0.8368  0.6985
 5724SOL    HW128631   1.755   2.252   5.105  0.8194  0.8470  0.7714
 5724SOL    HW228632   1.731   2.367   5.009 -3.1875 -2.2645  0.9094
 5725SOL     OW28633   1.175   0.270  12.590  0.1876 -0.2048 -0.4611
 5725SOL    HW128634   1.096   0.218  12.606  0.5348 -0.5135  0.2536
 5725SOL    HW228635   1.191   0.237  12.501  0.5220 -0.9221 -0.1387
 5726SOL     OW28636   3.293   3.871  10.908  0.1814 -0.0221  0.1125
 5726SOL    HW128637   3.351   3.816  10.856  0.6126 -1.5339  2.1936
 5726SOL    HW228638   3.241   3.807  10.957 -0.4214  1.9003  1.9976
 5727SOL     OW28639   2.672   0.581   0.967  0.4978  0.1626 -0.3466
 5727SOL    HW128640   2.734   0.653   0.954  0.2555  0.1520 -1.5891
 5727SOL    HW228641   2.596   0.634   0.990  1.2479  1.1347 -0.0863
 5728SOL     OW28642   2.671   3.482   9.070  0.2939  0.2643  0.2508
 5728SOL    HW128643   2.662   3.567   9.026 -0.3778  0.0249 -0.0648
 5728SOL    HW228644   2.679   3.416   9.002 -1.6650  2.4074 -2.0689
 5729SOL     OW28645   0.899   0.281   1.818  0.1316  0.4540  0.1489
 5729SOL    HW128646   0.925   0.189   1.817  0.8081  0.6468  1.5766
 5729SOL    HW228647   0.914   0.292   1.912  0.5963  1.3325 -0.0201
 5730SOL     OW28648   4.162   4.436   2.350 -0.0422 -0.2354 -0.0121
 5730SOL    HW128649   4.191   4.400   2.434 -1.0520  0.9941  0.8602
 5730SOL    HW228650   4.102   4.372   2.310 -0.5066 -0.8168  1.6309
 5731SOL     OW28651   2.680   3.425   3.253  0.4252  0.6143  0.2620
 5731SOL    HW128652   2.615   3.458   3.191  1.8196 -0.2252 -1.6669
 5731SOL    HW228653   2.727   3.370   3.190  0.4026  1.2163 -0.2845
 5732SOL     OW28654   0.609   1.845  12.519  0.0095  0.5083  0.0360
 5732SOL    HW128655   0.543   1.836  12.451  0.2011  1.7997 -0.3086
 5732SOL    HW228656   0.680   1.791  12.483  1.4381  1.4349  1.4361
 5733SOL     OW28657   2.172   4.168   5.724  0.0474 -0.3284 -0.0207
 5733SOL    HW128658   2.080   4.144   5.737  0.0431 -0.4765 -0.3115
 5733SOL    HW228659   2.177   4.194   5.632  0.0587  0.5550  0.2301
 5734SOL     OW28660   0.909   3.977   5.867  0.0264 -0.0082 -0.1804
 5734SOL    HW128661   0.903   4.004   5.958  1.4502  0.8456 -0.3433
 5734SOL    HW228662   0.836   4.030   5.834 -0.0224 -1.3442 -2.2422
 5735SOL     OW28663   1.108   4.054  17.045  0.5355 -0.3000  0.3148
 5735SOL    HW128664   1.176   4.101  17.093  0.9373 -2.3754  1.7445
 5735SOL    HW228665   1.147   4.058  16.957 -2.4173  1.3392 -0.9355
 5736SOL     OW28666   1.710   0.895   4.678 -0.1696  0.0854  0.1609
 5736SOL    HW128667   1.681   0.830   4.614  0.1484 -2.1481  2.2930
 5736SOL    HW228668   1.780   0.944   4.636 -0.3266  0.7358  0.6548
 5737SOL     OW28669   4.494   2.951   6.722 -0.3323  0.2338  0.1043
 5737SOL    HW128670   4.584   2.918   6.729  0.3092  1.8258 -0.8908
 5737SOL    HW228671   4.461   2.940   6.812 -3.5188 -1.7263 -1.3006
 5738SOL     OW28672   3.726   0.287   9.579  0.3797  0.2953 -0.2265
 5738SOL    HW128673   3.660   0.275   9.512  0.8032 -0.1358 -0.5667
 5738SOL    HW228674   3.789   0.354   9.550 -1.3475  2.0018 -0.0365
 5739SOL     OW28675   4.300   0.510  11.141  0.1148  0.0402 -0.1528
 5739SOL    HW128676   4.316   0.416  11.133 -0.5288 -0.2322  1.6624
 5739SOL    HW228677   4.244   0.532  11.067  0.4570  1.1665 -0.0743
 5740SOL     OW28678   1.001   1.671   6.565  0.7095 -0.2799 -0.7157
 5740SOL    HW128679   1.034   1.740   6.623 -2.2741  0.7038 -0.1604
 5740SOL    HW228680   1.079   1.654   6.513  2.2480 -1.8457  2.0949
 5741SOL     OW28681   0.947   1.543   2.879 -0.5360 -0.3780 -0.6724
 5741SOL    HW128682   1.042   1.557   2.883 -0.6101 -0.0741  0.0297
 5741SOL    HW228683   0.938   1.605   2.807  1.5824 -0.3011 -0.8839
 5742SOL     OW28684   2.704   1.097   4.416 -0.2670 -0.2487 -0.1300
 5742SOL    HW128685   2.753   1.179   4.410  1.2783 -1.1476  0.2983
 5742SOL    HW228686   2.665   1.107   4.329 -0.6164 -0.3080  0.0208
 5743SOL     OW28687   2.339   0.111   9.014 -0.1745 -0.3274 -0.0575
 5743SOL    HW128688   2.375   0.095   9.101 -1.1189 -0.9268  0.2218
 5743SOL    HW228689   2.362   0.026   8.978  2.5255  0.7223 -0.8161
 5744SOL     OW28690   3.323   2.215  14.292 -0.4887 -0.2302  0.0833
 5744SOL    HW128691   3.284   2.253  14.214 -2.3925  1.6334  1.9151
 5744SOL    HW228692   3.396   2.167  14.255 -1.6200 -2.0435  0.2208
 5745SOL     OW28693   1.970   4.305  12.622 -0.1741 -0.0896  0.7641
 5745SOL    HW128694   2.032   4.362  12.668  1.4032 -0.5022 -0.8894
 5745SOL    HW228695   1.890   4.317  12.673 -0.3882 -1.4376  0.7435
 5746SOL     OW28696   2.995   0.822  13.734 -0.9378 -0.3180 -0.3420
 5746SOL    HW128697   2.961   0.733  13.742  0.3349 -0.6630  1.3065
 5746SOL    HW228698   2.914   0.869  13.714 -1.4552 -1.4148 -0.7766
 5747SOL     OW28699   4.201   1.398   3.625  0.1826 -0.1780  0.3489
 5747SOL    HW128700   4.186   1.323   3.567  0.9923 -1.0399  1.2367
 5747SOL    HW228701   4.297   1.392   3.626  0.3900  2.6209 -1.9207
 5748SOL     OW28702   4.703   0.396  10.957  0.3786  0.1678 -0.0308
 5748SOL    HW128703   0.001   0.333  11.027 -1.5752 -0.7312 -0.3699
 5748SOL    HW228704   4.631   0.443  11.000 -1.4704 -1.3134 -1.5102
 5749SOL     OW28705   4.329   0.413   4.189  0.0247 -0.1467  0.1797
 5749SOL    HW128706   4.321   0.317   4.189 -0.3498 -0.1184 -0.9146
 5749SOL    HW228707   4.236   0.421   4.171 -0.2546  0.1791  1.7810
 5750SOL     OW28708   0.905   1.779   5.498 -0.0486 -0.0115 -0.0384
 5750SOL    HW128709   0.901   1.777   5.403 -0.2294 -1.4348 -0.0064
 5750SOL    HW228710   0.924   1.871   5.516 -0.4765  0.2817 -1.1140
 5751SOL     OW28711   0.560   3.221   4.486 -0.1303  0.2594 -0.2187
 5751SOL    HW128712   0.500   3.295   4.477  0.3944  0.6836 -0.2829
 5751SOL    HW228713   0.517   3.163   4.423 -2.2361  2.1151 -0.4758
 5752SOL     OW28714   0.203   1.656   2.996  0.0871  0.0886  0.7190
 5752SOL    HW128715   0.128   1.618   2.950 -0.1783 -0.1982  1.3978
 5752SOL    HW228716   0.251   1.684   2.918 -0.2454  0.7790  0.7598
 5753SOL     OW28717   4.553   1.476  14.337  0.1488  0.0605  0.2970
 5753SOL    HW128718   4.607   1.397  14.343 -1.7305 -1.3147 -0.5574
 5753SOL    HW228719   4.606   1.538  14.287  0.8354  0.6404  1.7317
 5754SOL     OW28720   2.608   4.564   4.546 -0.2658  0.6117  0.0846
 5754SOL    HW128721   2.514   4.584   4.543 -0.2065  0.9171  0.2210
 5754SOL    HW228722   2.618   4.530   4.634 -0.4309  1.2336  0.3467
 5755SOL     OW28723   1.932   1.735  13.461 -0.1050  0.0682 -0.1148
 5755SOL    HW128724   1.883   1.817  13.462 -0.8191 -0.3787  1.4236
 5755SOL    HW228725   2.023   1.766  13.465  0.0356 -0.5977  1.8743
 5756SOL     OW28726   3.513   4.562   8.365 -0.5161 -0.1222  0.7957
 5756SOL    HW128727   3.461   4.607   8.298 -0.9382 -1.6081  0.1319
 5756SOL    HW228728   3.459   4.484   8.378 -1.4995  0.2066 -1.3599
 5757SOL     OW28729   2.608   3.719   1.971  0.2473 -0.3681  0.2539
 5757SOL    HW128730   2.684   3.749   2.021 -0.3056 -0.6864  1.2972
 5757SOL    HW228731   2.590   3.640   2.023 -2.1765 -0.1200 -0.1942
 5758SOL     OW28732   4.315   2.760   8.461 -0.3953 -0.3060  0.1879
 5758SOL    HW128733   4.239   2.705   8.480 -1.9776  1.8242  0.1385
 5758SOL    HW228734   4.368   2.728   8.534 -0.1376 -0.6656 -0.1604
 5759SOL     OW28735   4.347   0.115   9.839 -0.7508  0.1290 -0.2730
 5759SOL    HW128736   4.299   0.043   9.880  1.5859 -1.3217 -0.0956
 5759SOL    HW228737   4.288   0.189   9.854 -0.3981  0.8741 -2.5914
 5760SOL     OW28738   1.150   0.658   9.288 -0.0904  0.1401  0.3848
 5760SOL    HW128739   1.135   0.572   9.249  2.9996  0.7118 -2.0086
 5760SOL    HW228740   1.221   0.638   9.349 -0.4776 -0.8314  0.5067
 5761SOL     OW28741   2.135   2.213   2.705  0.5204  0.1708 -0.1758
 5761SOL    HW128742   2.154   2.126   2.672 -1.7791 -1.2147  2.0911
 5761SOL    HW228743   2.110   2.259   2.625 -1.6040 -2.7074 -1.1679
 5762SOL     OW28744   4.604   2.548  11.659  0.1330 -0.3879  0.4927
 5762SOL    HW128745   4.612   2.506  11.574  0.5184  0.9705 -0.1508
 5762SOL    HW228746   4.555   2.627  11.637 -1.7495 -2.0471 -1.1949
 5763SOL     OW28747   1.183   4.314   8.666 -0.2539 -0.1749  0.2432
 5763SOL    HW128748   1.106   4.335   8.719 -1.3738 -0.3620 -1.2804
 5763SOL    HW228749   1.243   4.294   8.737  0.9606  1.6094 -0.2530
 5764SOL     OW28750   3.323   0.424   6.470 -0.0460  0.0117 -0.3987
 5764SOL    HW128751   3.399   0.469   6.506 -0.3943  1.1392 -1.0633
 5764SOL    HW228752   3.322   0.343   6.522 -2.0353  0.6383  0.5389
 5765SOL     OW28753   1.235   1.085   1.016 -0.2587  0.5556 -0.0760
 5765SOL    HW128754   1.140   1.075   1.016 -0.2683  0.7552  1.5372
 5765SOL    HW228755   1.263   0.993   1.018  1.8233  1.1748 -0.3848
 5766SOL     OW28756   2.478   2.555   5.745  0.4559  0.0378  0.0371
 5766SOL    HW128757   2.528   2.601   5.812  0.2137  1.9536 -1.1011
 5766SOL    HW228758   2.477   2.470   5.790  2.3445 -0.3755 -0.7123
 5767SOL     OW28759   4.250   2.871   0.982  0.3143  0.3676  0.1521
 5767SOL    HW128760   4.208   2.799   1.029 -0.7905  2.2858  2.0787
 5767SOL    HW228761   4.287   2.825   0.907  1.4661  0.8500  0.4192
 5768SOL     OW28762   2.082   3.976   9.324 -0.0989 -0.5958 -0.4321
 5768SOL    HW128763   2.050   4.014   9.406 -1.0850 -0.1480 -1.0358
 5768SOL    HW228764   1.997   3.959   9.285 -0.3282 -0.9787  0.2255
 5769SOL     OW28765   0.204   3.821  10.659 -0.3919 -0.3209  0.2075
 5769SOL    HW128766   0.162   3.814  10.744  1.1257  0.1553  0.9930
 5769SOL    HW228767   0.129   3.797  10.604  0.1811 -0.6415 -0.4503
 5770SOL     OW28768   3.266   2.395   4.456  0.1357  0.6437 -0.3646
 5770SOL    HW128769   3.355   2.374   4.428  0.1821 -0.7152  0.8321
 5770SOL    HW228770   3.275   2.488   4.477  2.4928  0.7608 -1.9457
 5771SOL     OW28771   1.477   2.503   7.646  0.1154 -0.1585  0.2179
 5771SOL    HW128772   1.479   2.598   7.633 -0.3951  0.1094  2.1996
 5771SOL    HW228773   1.554   2.508   7.702  0.1245 -4.2691  0.5831
 5772SOL     OW28774   0.914   1.764  12.542 -0.3613  0.0309  0.1879
 5772SOL    HW128775   0.913   1.686  12.598 -0.1717  1.5719  2.3330
 5772SOL    HW228776   0.860   1.725  12.474 -0.7172  0.9822 -0.0749
 5773SOL     OW28777   1.810   3.515   8.684  0.1307  0.4942  0.1745
 5773SOL    HW128778   1.894   3.554   8.710  0.5446 -0.2940  0.0194
 5773SOL    HW228779   1.760   3.517   8.765 -2.6203  0.4250 -1.5363
 5774SOL     OW28780   3.253   2.927  14.960 -0.5145 -0.5160  0.6797
 5774SOL    HW128781   3.268   2.897  14.870  0.2100 -1.4622  1.1134
 5774SOL    HW228782   3.325   2.885  15.007  0.1117 -0.3776 -0.1486
 5775SOL     OW28783   2.169   2.225   6.935 -0.3426 -0.0458  0.4287
 5775SOL    HW128784   2.252   2.254   6.974  0.1150 -0.0548 -0.5470
 5775SOL    HW228785   2.166   2.253   6.844  3.6348  0.8413  0.5771
 5776SOL     OW28786   3.129   2.818  10.414 -0.5534 -0.0273 -0.0840
 5776SOL    HW128787   3.219   2.793  10.394 -1.0168 -0.6734 -1.3202
 5776SOL    HW228788   3.117   2.752  10.482 -0.2165  0.2411  0.2348
 5777SOL     OW28789   1.732   4.307   2.265 -0.1609  0.0535  0.3657
 5777SOL    HW128790   1.789   4.299   2.189 -0.7491 -1.2070  0.0625
 5777SOL    HW228791   1.717   4.401   2.257 -1.2062 -0.1751 -0.2647
 5778SOL     OW28792   3.104   2.876   7.576  0.7924  0.7801  0.3421
 5778SOL    HW128793   3.192   2.880   7.538  1.7448  0.0135  2.4899
 5778SOL    HW228794   3.088   2.782   7.574  0.2940  0.8768 -0.2581
 5779SOL     OW28795   3.589   2.694   9.046 -0.3665 -0.3182  0.5188
 5779SOL    HW128796   3.521   2.759   9.066 -0.8239 -0.8125  0.5785
 5779SOL    HW228797   3.642   2.743   8.983 -1.9323  0.9761  0.1958
 5780SOL     OW28798   1.222   3.851   6.892  0.2861  0.0378 -0.2854
 5780SOL    HW128799   1.159   3.910   6.852 -1.7787 -1.9235  0.0840
 5780SOL    HW228800   1.166   3.777   6.918  0.0370 -0.4777 -2.3322
 5781SOL     OW28801   0.000   1.479   8.848  0.0710  0.2241 -0.2300
 5781SOL    HW128802   0.037   1.414   8.908 -3.1722 -0.4504  1.0281
 5781SOL    HW228803   0.009   1.559   8.899 -0.6232  0.2852 -0.2047
 5782SOL     OW28804   1.078   1.261   2.123  0.8510  0.8812  0.5731
 5782SOL    HW128805   1.108   1.329   2.062  1.7528 -0.2124 -0.1899
 5782SOL    HW228806   0.988   1.251   2.091  1.1892  1.2245 -0.4956
 5783SOL     OW28807   3.948   1.139   9.629  0.5034  0.5242  0.0191
 5783SOL    HW128808   3.909   1.203   9.569 -3.3592  0.8743  2.8906
 5783SOL    HW228809   3.994   1.075   9.575  0.1319 -0.0631  0.3970
 5784SOL     OW28810   3.853   1.249   5.260  0.0532 -0.5873 -0.5584
 5784SOL    HW128811   3.771   1.215   5.225  1.7123 -0.6116 -4.3266
 5784SOL    HW228812   3.844   1.341   5.236  2.1774 -0.7037 -1.8153
 5785SOL     OW28813   0.736   0.963   2.989  0.1213  0.4171 -0.4349
 5785SOL    HW128814   0.743   0.881   3.037  0.1280  0.3256 -0.5946
 5785SOL    HW228815   0.641   0.964   2.974  0.2321 -0.7694 -1.1475
 5786SOL     OW28816   1.383   0.947  11.954 -0.0930 -0.7458 -0.5164
 5786SOL    HW128817   1.415   1.037  11.949  0.3658 -0.8501  0.5007
 5786SOL    HW228818   1.298   0.958  11.913 -0.9501 -0.0251  1.4437
 5787SOL     OW28819   4.669   2.619   3.703 -0.1000  0.2077  0.7228
 5787SOL    HW128820   4.619   2.548   3.744  0.5999  0.2910  1.7386
 5787SOL    HW228821   0.034   2.575   3.688 -1.6884 -1.2620 -3.6482
 5788SOL     OW28822   3.409   3.044   7.528 -0.2243  0.1753  0.4880
 5788SOL    HW128823   3.458   3.025   7.608 -0.4785  2.9626  1.3071
 5788SOL    HW228824   3.379   2.963   7.487  0.3454  0.7775 -1.1197
 5789SOL     OW28825   1.662   2.608   6.677 -0.4533  0.3189  0.3373
 5789SOL    HW128826   1.639   2.551   6.750 -0.5296  0.6919  0.6071
 5789SOL    HW228827   1.751   2.573   6.671  0.6369  3.0061  0.8867
 5790SOL     OW28828   0.183   0.852   5.337  0.0852 -0.1805 -0.4304
 5790SOL    HW128829   0.147   0.895   5.415 -0.3156 -0.1804 -0.6141
 5790SOL    HW228830   0.114   0.847   5.271 -3.1283  1.0924  2.8124
 5791SOL     OW28831   1.624   1.146   5.395  0.3319  0.3152 -0.1018
 5791SOL    HW128832   1.616   1.061   5.436  2.5984 -0.1896 -0.7166
 5791SOL    HW228833   1.717   1.157   5.374  0.0328 -0.0726 -1.6759
 5792SOL     OW28834   2.593   2.439   8.806  0.0235  0.7548 -0.2582
 5792SOL    HW128835   2.623   2.529   8.817 -2.7247  1.9373 -2.4831
 5792SOL    HW228836   2.529   2.443   8.735 -0.3671  1.8044  0.1524
 5793SOL     OW28837   2.790   2.738   0.616  0.1160  0.8590  0.0083
 5793SOL    HW128838   2.743   2.686   0.551 -0.2562 -0.5582  1.4239
 5793SOL    HW228839   2.858   2.680   0.650  0.8725  0.8312 -1.5607
 5794SOL     OW28840   1.924   3.351   7.561 -0.2480 -0.2396  0.5694
 5794SOL    HW128841   1.962   3.417   7.619  0.4242 -0.2881  0.1809
 5794SOL    HW228842   1.991   3.346   7.493  0.0660  0.4035  0.8316
 5795SOL     OW28843   3.902   1.028   8.629  0.6678  0.4364  0.1211
 5795SOL    HW128844   3.911   1.121   8.607  0.3917  0.3694 -0.2714
 5795SOL    HW228845   3.870   1.033   8.720 -0.6004 -1.4222 -0.2264
 5796SOL     OW28846   3.560   3.099  17.569  0.0588 -0.2481 -0.2668
 5796SOL    HW128847   3.529   3.172  17.624 -1.1384 -0.2493 -0.9489
 5796SOL    HW228848   3.647   3.137  17.555 -1.0511  2.6990  0.7197
 5797SOL     OW28849   4.317   0.522   0.286  0.5464 -0.4996 -0.1339
 5797SOL    HW128850   4.398   0.563   0.253  1.3192 -1.0900  1.0208
 5797SOL    HW228851   4.337   0.430   0.268  0.2289 -1.0992  2.5916
 5798SOL     OW28852   2.425   4.500   6.225 -0.8081  0.2071  0.1853
 5798SOL    HW128853   2.348   4.513   6.279 -0.2280 -3.1958  1.8450
 5798SOL    HW228854   2.467   4.585   6.214 -1.4740  0.6760  1.2969
 5799SOL     OW28855   0.891   3.171   3.671  0.2036 -0.1586 -0.3537
 5799SOL    HW128856   0.797   3.179   3.691  0.2673  1.8438 -0.8734
 5799SOL    HW228857   0.896   3.232   3.598  0.2706 -1.8381 -1.7411
 5800SOL     OW28858   0.452   0.847   2.404  0.3867  0.6307  0.3968
 5800SOL    HW128859   0.491   0.849   2.491  1.4217 -2.5780 -0.0074
 5800SOL    HW228860   0.516   0.785   2.370  0.1471  0.5382  0.1075
 5801SOL     OW28861   4.361   3.144   9.183  0.3456  0.1826 -0.1364
 5801SOL    HW128862   4.338   3.052   9.170 -0.1893  0.0523  1.6867
 5801SOL    HW228863   4.289   3.171   9.241  0.8798  0.9412  0.1705
 5802SOL     OW28864   0.458   3.307  13.864  0.4353  0.2760  0.0872
 5802SOL    HW128865   0.460   3.396  13.899  1.8583  0.8150 -1.3912
 5802SOL    HW228866   0.438   3.247  13.936  0.9656 -0.5796 -0.4875
 5803SOL     OW28867   3.275   4.613   9.864  0.5699  0.5227 -0.1249
 5803SOL    HW128868   3.290   4.520   9.845  0.9587  0.5184  0.1968
 5803SOL    HW228869   3.228   4.610   9.947 -1.5344  1.7607 -1.2727
 5804SOL     OW28870   3.269   2.335   6.442  0.3693  0.4632  0.7216
 5804SOL    HW128871   3.358   2.349   6.474  0.3475 -0.4921  1.2075
 5804SOL    HW228872   3.224   2.336   6.526 -1.5403 -1.0033 -0.2836
 5805SOL     OW28873   0.285   0.394   2.470 -0.5524  0.5589 -0.1888
 5805SOL    HW128874   0.277   0.488   2.454  1.3860  0.6669 -0.5164
 5805SOL    HW228875   0.251   0.371   2.384  0.5784  1.9348 -1.0107
 5806SOL     OW28876   3.266   1.299   3.410  0.0607  0.2939 -0.2426
 5806SOL    HW128877   3.323   1.344   3.472  1.2020 -0.6013 -0.6178
 5806SOL    HW228878   3.296   1.336   3.327  0.8110  0.3262  0.0450
 5807SOL     OW28879   0.940   4.096   6.110  0.3213 -0.5538  0.0338
 5807SOL    HW128880   1.009   4.162   6.117  0.8583 -1.3823  2.5028
 5807SOL    HW228881   0.878   4.119   6.179  0.1070 -2.2427  0.4117
 5808SOL     OW28882   1.506   0.477   8.029 -0.1145  0.1563 -0.1247
 5808SOL    HW128883   1.458   0.408   7.983  0.3991 -1.1262  1.2527
 5808SOL    HW228884   1.491   0.556   7.977 -0.6271 -0.2756 -0.6312
 5809SOL     OW28885   4.331   1.361   0.481 -0.0004  0.0462 -0.5168
 5809SOL    HW128886   4.358   1.294   0.418  1.2358  0.7758 -0.7733
 5809SOL    HW228887   4.352   1.442   0.435  0.8911  0.6489  0.9422
 5810SOL     OW28888   2.605   3.533   8.504 -0.3230 -0.7871  0.6035
 5810SOL    HW128889   2.585   3.579   8.585 -3.4314 -1.0097 -0.0204
 5810SOL    HW228890   2.529   3.547   8.448  0.5647 -0.3347 -0.4808
 5811SOL     OW28891   1.436   2.491   1.354  0.1826 -0.1995  0.0040
 5811SOL    HW128892   1.417   2.584   1.363  2.5932  0.5096 -2.2406
 5811SOL    HW228893   1.531   2.494   1.346  0.0167  0.3311 -1.6913
 5812SOL     OW28894   4.334   0.346   2.133 -0.0365  0.7372 -0.1936
 5812SOL    HW128895   4.371   0.347   2.045 -0.8739 -0.5461 -0.5543
 5812SOL    HW228896   4.412   0.370   2.184 -0.1198  1.3746 -0.3648
 5813SOL     OW28897   0.011   4.032   7.847  0.5002 -0.3745 -0.2544
 5813SOL    HW128898   4.651   4.066   7.805  0.8149  0.6141 -0.0317
 5813SOL    HW228899   4.711   4.048   7.940  0.9372 -2.6107  0.2249
 5814SOL     OW28900   3.001   2.575  11.505  0.2818 -0.2424  0.2279
 5814SOL    HW128901   3.083   2.535  11.534  1.8212  1.5466 -1.6414
 5814SOL    HW228902   3.003   2.668  11.528 -1.0188  0.1373 -1.2479
 5815SOL     OW28903   4.309   1.818   1.535  0.1242 -0.0904  0.1888
 5815SOL    HW128904   4.292   1.767   1.456 -2.0333 -2.1759  2.0053
 5815SOL    HW228905   4.232   1.875   1.533  1.5207  1.8581  1.4431
 5816SOL     OW28906   3.199   1.789  15.173  0.4321 -0.0962 -0.2261
 5816SOL    HW128907   3.287   1.752  15.174 -0.6083 -2.4437  4.2286
 5816SOL    HW228908   3.191   1.828  15.260 -0.1760  0.2515 -0.4317
 5817SOL     OW28909   2.583   2.125   2.439  0.1333  0.0529  0.0976
 5817SOL    HW128910   2.658   2.178   2.465  0.2832 -0.2415  0.2620
 5817SOL    HW228911   2.514   2.188   2.458 -1.9426 -1.8321 -1.1436
 5818SOL     OW28912   2.007   2.384  13.373 -0.1425 -0.5104  0.2122
 5818SOL    HW128913   1.937   2.425  13.423  0.6360  2.6498 -1.3093
 5818SOL    HW228914   2.080   2.431  13.413 -0.5682  0.9161 -0.7110
 5819SOL     OW28915   0.174   1.413   1.073  0.3051  0.2437 -0.1510
 5819SOL    HW128916   0.213   1.327   1.088  2.1982  1.3917  1.6839
 5819SOL    HW228917   0.260   1.456   1.082 -0.1309  1.0528  0.1528
 5820SOL     OW28918   4.664   2.459  12.808  0.1179  0.3223 -0.3349
 5820SOL    HW128919   4.604   2.534  12.814  0.8279  0.7304  1.6725
 5820SOL    HW228920   4.643   2.398  12.879 -1.2770 -0.7191 -1.6411
 5821SOL     OW28921   0.700   0.508   6.286 -0.0003  0.3970 -0.3232
 5821SOL    HW128922   0.690   0.478   6.196 -2.3825 -0.6460  0.2983
 5821SOL    HW228923   0.789   0.542   6.275  0.4138 -0.4770  0.2889
 5822SOL     OW28924   1.944   2.678  11.753  0.5338  0.4079 -0.0482
 5822SOL    HW128925   1.971   2.614  11.819 -0.6994 -0.8153 -0.7341
 5822SOL    HW228926   1.902   2.616  11.693  0.3853  0.3445  0.1223
 5823SOL     OW28927   1.959   1.118  14.066  0.0252  0.7420  0.2546
 5823SOL    HW128928   1.978   1.038  14.018 -0.7439 -0.8475  2.5798
 5823SOL    HW228929   2.046   1.159  14.069 -0.0361  0.9261 -0.7795
 5824SOL     OW28930   3.314   4.086   1.390  0.3142 -0.3117  0.0685
 5824SOL    HW128931   3.256   4.036   1.334 -1.2846  0.7486  0.7581
 5824SOL    HW228932   3.293   4.173   1.354 -1.1261 -0.9073 -0.5450
 5825SOL     OW28933   0.167   3.185   5.829 -0.0566  0.3748  0.3183
 5825SOL    HW128934   0.095   3.166   5.890  0.1871  0.5811  0.6740
 5825SOL    HW228935   0.138   3.131   5.756  0.6284 -0.0339  0.3463
 5826SOL     OW28936   2.347   4.492   9.293 -0.6052  0.5393  0.0598
 5826SOL    HW128937   2.294   4.462   9.220 -0.2256 -0.6751  0.2930
 5826SOL    HW228938   2.314   4.432   9.360 -1.2028  0.5182 -0.2583
 5827SOL     OW28939   0.446   1.562   9.897 -0.0335 -0.2150  0.1801
 5827SOL    HW128940   0.502   1.632   9.864 -1.3182  0.7915  0.1547
 5827SOL    HW228941   0.440   1.579   9.991 -0.0257 -0.9149  0.3030
 5828SOL     OW28942   0.843   3.316  15.153 -0.0292  0.4198 -0.3723
 5828SOL    HW128943   0.917   3.271  15.114 -0.0887  1.6670 -1.9543
 5828SOL    HW228944   0.855   3.298  15.246 -2.2533  0.8263  0.0050
 5829SOL     OW28945   3.797   1.975   6.743  0.4828 -0.0701 -0.1910
 5829SOL    HW128946   3.720   1.924   6.769  1.3520 -2.1641 -1.7047
 5829SOL    HW228947   3.813   1.949   6.652 -0.5722 -0.8275 -0.1707
 5830SOL     OW28948   3.807   0.798   8.495  0.6061 -0.0787 -0.0710
 5830SOL    HW128949   3.727   0.845   8.471 -0.1347 -0.3457  1.8550
 5830SOL    HW228950   3.866   0.866   8.529 -0.4038  1.2415 -0.9571
 5831SOL     OW28951   2.870   1.307   4.757 -0.4663  0.3421  0.0175
 5831SOL    HW128952   2.956   1.301   4.797 -1.3784 -1.3969  1.6752
 5831SOL    HW228953   2.863   1.401   4.738  0.3348  0.0023 -1.9686
 5832SOL     OW28954   1.287   2.588   5.938 -0.4918  0.1656 -0.1256
 5832SOL    HW128955   1.276   2.667   5.991  3.5743  1.2118 -0.8157
 5832SOL    HW228956   1.375   2.608   5.907 -0.0933  0.5357  1.2823
 5833SOL     OW28957   3.990   2.405   0.478  0.0814 -0.6983  0.2241
 5833SOL    HW128958   4.014   2.387   0.568 -3.0267  1.8750  1.5669
 5833SOL    HW228959   4.060   2.356   0.433  1.6043 -0.8824  2.8165
 5834SOL     OW28960   0.566   0.739  13.812 -0.7076  0.1111  0.1251
 5834SOL    HW128961   0.552   0.662  13.756  1.0612 -0.7261  0.8540
 5834SOL    HW228962   0.487   0.786  13.786 -0.4851  0.5267  0.2044
 5835SOL     OW28963   3.068   3.998   6.203  0.0767  0.3200 -0.4527
 5835SOL    HW128964   3.086   3.962   6.117  0.8427 -0.7544  0.1626
 5835SOL    HW228965   2.974   3.982   6.212  0.1688  0.1597  0.2619
 5836SOL     OW28966   2.573   3.369   4.104  0.1587  0.4604 -0.7372
 5836SOL    HW128967   2.646   3.422   4.072 -0.0740  0.6651 -0.9382
 5836SOL    HW228968   2.579   3.383   4.198 -0.2557 -1.6758 -0.3755
 5837SOL     OW28969   4.418   0.777   2.398  0.0733 -0.6398 -0.4304
 5837SOL    HW128970   4.382   0.756   2.312  0.9308  1.2238 -1.2455
 5837SOL    HW228971   4.341   0.757   2.452 -0.1904 -1.4721 -1.1199
 5838SOL     OW28972   3.859   3.762   8.620  0.2770  0.1715 -0.2073
 5838SOL    HW128973   3.863   3.848   8.661 -1.2500  0.1010  0.0779
 5838SOL    HW228974   3.844   3.787   8.529 -0.4288  1.8036  0.3581
 5839SOL     OW28975   1.511   2.386   9.018 -0.1113 -0.2691  0.0424
 5839SOL    HW128976   1.591   2.340   9.041 -0.0071 -0.1496 -0.0824
 5839SOL    HW228977   1.470   2.318   8.963  0.2098 -1.6724  1.5467
 5840SOL     OW28978   1.041   2.033   5.533 -0.5954 -0.6340  0.1575
 5840SOL    HW128979   1.097   2.096   5.488 -1.3976  1.4091  2.0526
 5840SOL    HW228980   0.952   2.066   5.522 -0.4012 -0.4083 -0.7302
 5841SOL     OW28981   0.419   4.627   3.493 -0.5737  0.4931  0.1281
 5841SOL    HW128982   0.515   4.637   3.496 -0.4562 -0.9391  1.2792
 5841SOL    HW228983   0.399   4.540   3.460  2.3294 -1.6577  3.8707
 5842SOL     OW28984   3.989   3.182   8.305 -0.2570  0.5032  0.3357
 5842SOL    HW128985   4.028   3.125   8.371  1.0039 -0.1985 -1.0189
 5842SOL    HW228986   3.896   3.165   8.321 -0.2930 -0.5195 -0.8959
 5843SOL     OW28987   4.125   4.523   7.022  0.7305 -0.1022  0.2971
 5843SOL    HW128988   4.152   4.446   7.071 -0.1217 -0.5487  0.0628
 5843SOL    HW228989   4.115   4.486   6.934  0.9494 -1.7827  0.9945
 5844SOL     OW28990   2.378   1.335   2.435 -0.3825 -0.2453  0.3955
 5844SOL    HW128991   2.369   1.278   2.511  0.2485 -1.2875 -0.3266
 5844SOL    HW228992   2.306   1.306   2.379 -0.3124  0.0726  0.1431
 5845SOL     OW28993   3.505   3.363  15.140 -0.2315 -0.3472  0.3367
 5845SOL    HW128994   3.523   3.444  15.189 -2.5117  1.6503 -2.1214
 5845SOL    HW228995   3.409   3.360  15.142 -0.2795  1.6335  1.5569
 5846SOL     OW28996   2.446   0.969  14.310 -0.3408 -0.3891  0.3070
 5846SOL    HW128997   2.428   0.971  14.216  0.3531 -4.8867  0.0636
 5846SOL    HW228998   2.537   0.999  14.316 -1.0899  1.8366  0.5148
 5847SOL     OW28999   0.643   4.647   9.449  0.1818  0.2004  0.2518
 5847SOL    HW129000   0.637   4.640   9.545  3.2741 -0.2989  0.4262
 5847SOL    HW229001   0.605   4.564   9.420  1.5801  0.1807 -1.4904
 5848SOL     OW29002   3.608   0.886   3.284  0.2617  0.3706  0.1674
 5848SOL    HW129003   3.543   0.927   3.226  0.8045  0.6368 -0.2507
 5848SOL    HW229004   3.612   0.798   3.247  1.3765 -0.2113  1.7017
 5849SOL     OW29005   0.541   4.396   7.004 -0.2943 -0.3500  0.3144
 5849SOL    HW129006   0.622   4.394   7.056  1.4363  1.0910 -2.3033
 5849SOL    HW229007   0.481   4.351   7.063  0.0983  0.7067  1.5443
 5850SOL     OW29008   0.728   0.978   7.914  0.2547  0.4934 -0.3564
 5850SOL    HW129009   0.720   1.073   7.919  2.1159  0.5837  0.8885
 5850SOL    HW229010   0.818   0.958   7.891 -0.4835 -0.9702 -1.9547
 5851SOL     OW29011   3.585   1.978  12.780 -0.0474  0.0450 -0.1363
 5851SOL    HW129012   3.530   1.942  12.849  0.3499  1.2865  0.8301
 5851SOL    HW229013   3.557   1.932  12.701 -0.1598  2.0410 -1.2623
 5852SOL     OW29014   2.485   1.037   1.541  0.2666  0.3180 -0.5178
 5852SOL    HW129015   2.452   0.959   1.586 -0.2120  0.5191 -0.5211
 5852SOL    HW229016   2.405   1.069   1.500  0.9116 -0.0537 -2.0406
 5853SOL     OW29017   2.032   2.484   4.827 -0.4341 -0.8091 -0.1436
 5853SOL    HW129018   2.016   2.390   4.819 -1.5141 -0.7582  1.4797
 5853SOL    HW229019   2.066   2.490   4.916 -0.3766  1.5684 -0.3238
 5854SOL     OW29020   2.853   3.472  15.336  0.6776 -0.2304 -0.1347
 5854SOL    HW129021   2.842   3.377  15.325  1.5367 -0.2331 -0.9672
 5854SOL    HW229022   2.768   3.505  15.308 -0.1229 -0.7393  1.6672
 5855SOL     OW29023   3.606   0.897   4.801 -0.1499 -0.2190  0.4045
 5855SOL    HW129024   3.568   0.947   4.729 -3.0545 -1.7176  0.9286
 5855SOL    HW229025   3.702   0.890   4.792 -0.1630  0.9998 -0.7694
 5856SOL     OW29026   3.726   3.927   6.407  0.3029 -0.7621  0.4327
 5856SOL    HW129027   3.791   3.997   6.409 -0.9512  0.4513 -1.2893
 5856SOL    HW229028   3.774   3.852   6.441  1.8014 -1.1415 -2.5017
 5857SOL     OW29029   2.553   2.557   8.259 -0.6101  0.0346  0.1686
 5857SOL    HW129030   2.489   2.599   8.317 -0.3425 -0.4553  0.8145
 5857SOL    HW229031   2.566   2.624   8.191  1.2912  0.1681  0.6642
 5858SOL     OW29032   0.205   0.098   3.553  0.8745  0.0389  0.5183
 5858SOL    HW129033   0.207   0.192   3.571 -0.8226  0.4130 -1.3331
 5858SOL    HW229034   0.277   0.057   3.600 -0.4567 -0.3319  2.2259
 5859SOL     OW29035   3.669   1.522   8.123 -0.5079 -0.0841  0.2096
 5859SOL    HW129036   3.594   1.465   8.104  0.0824 -0.2309 -1.7111
 5859SOL    HW229037   3.736   1.459   8.150 -0.5551 -0.4499 -0.5237
 5860SOL     OW29038   1.851   4.221  16.404  0.2973 -0.0730  0.3321
 5860SOL    HW129039   1.861   4.230  16.309  0.3098 -0.9015  0.2577
 5860SOL    HW229040   1.883   4.303  16.442  1.7437  0.2659 -1.6249
 5861SOL     OW29041   0.063   2.004   4.509  0.4337  0.8197  0.0672
 5861SOL    HW129042   0.064   2.045   4.422  3.1473  1.1865  0.2864
 5861SOL    HW229043   0.113   1.925   4.492  0.1956  0.9752 -1.3320
 5862SOL     OW29044   1.706   4.191   8.048 -0.0168  0.1290  0.2654
 5862SOL    HW129045   1.749   4.144   8.119  0.8124 -1.0997 -1.0420
 5862SOL    HW229046   1.651   4.253   8.096  0.5858 -0.6525  1.9491
 5863SOL     OW29047   2.730   4.624  11.426  0.5023  0.3486  0.5047
 5863SOL    HW129048   2.706   4.656  11.339  2.8670 -0.7058 -0.5474
 5863SOL    HW229049   2.705   4.532  11.421  0.6143  0.4551 -2.4767
 5864SOL     OW29050   0.472   0.537  13.648  0.3470  0.0619 -0.3523
 5864SOL    HW129051   0.465   0.453  13.694 -2.3504  1.4132  1.7037
 5864SOL    HW229052   0.534   0.526  13.576 -1.3553 -2.2256 -1.4564
 5865SOL     OW29053   3.913   1.014   2.154  0.2895  0.0632 -0.4670
 5865SOL    HW129054   3.998   1.027   2.198  0.6222 -2.0117 -0.5234
 5865SOL    HW229055   3.851   1.065   2.206 -0.0986 -0.4380 -0.4434
 5866SOL     OW29056   4.281   3.426   0.122 -0.5079 -0.4709  0.1032
 5866SOL    HW129057   4.215   3.422   0.192 -0.6110  2.7109  0.1941
 5866SOL    HW229058   4.359   3.382   0.155  0.6802  1.6401  0.1420
 5867SOL     OW29059   3.507   2.340   7.062  0.0879  0.4474  0.6647
 5867SOL    HW129060   3.521   2.337   7.157  0.7312  2.3862  0.6222
 5867SOL    HW229061   3.572   2.401   7.027  0.0995 -0.4090 -0.7836
 5868SOL     OW29062   2.958   1.753  12.515  0.1805 -0.7896 -0.0771
 5868SOL    HW129063   2.994   1.747  12.604 -0.3053 -1.6049  0.0649
 5868SOL    HW229064   2.902   1.830  12.515  1.2133 -0.0272  1.6114
 5869SOL     OW29065   2.258   0.682  15.818  0.1786  0.2621  0.2646
 5869SOL    HW129066   2.244   0.776  15.807 -2.9134 -0.1050  1.2135
 5869SOL    HW229067   2.244   0.667  15.912 -0.6144 -2.1157 -0.2451
 5870SOL     OW29068   2.127   2.667   7.724  0.1977  0.1951  0.2275
 5870SOL    HW129069   2.156   2.757   7.708 -0.1439  0.0739 -1.0982
 5870SOL    HW229070   2.111   2.684   7.817  2.6927 -2.1550  1.0605
 5871SOL     OW29071   4.641   1.683   0.324 -0.3523 -0.2958  0.2366
 5871SOL    HW129072   4.716   1.705   0.380 -1.1083 -0.3088  1.2539
 5871SOL    HW229073   4.650   1.743   0.250  1.4565 -0.0852  0.6312
 5872SOL     OW29074   0.142   1.971   2.793 -0.1403 -0.1954  0.7340
 5872SOL    HW129075   0.149   2.014   2.879 -0.6986  1.2682  0.0487
 5872SOL    HW229076   0.055   2.002   2.769  0.7516  0.8220 -1.1806
 5873SOL     OW29077   4.225   1.039  10.099 -0.0991  0.2117 -0.1527
 5873SOL    HW129078   4.319   1.050  10.083  0.0708 -0.2535  0.5269
 5873SOL    HW229079   4.185   1.011  10.017 -0.4203 -0.8255  0.3557
 5874SOL     OW29080   2.388   1.369   5.367 -0.1350 -0.3127  0.3550
 5874SOL    HW129081   2.461   1.385   5.427  0.1761 -1.1313  0.1836
 5874SOL    HW229082   2.325   1.320   5.420  0.6364  0.7924  2.3146
 5875SOL     OW29083   1.631   4.308   8.979  0.1774  0.0400 -0.0886
 5875SOL    HW129084   1.625   4.401   9.002  2.1285 -0.0649  0.8537
 5875SOL    HW229085   1.624   4.270   9.067 -4.8434 -2.6796 -1.6757
 5876SOL     OW29086   4.696   3.900  11.158  0.2504 -0.4015  0.2854
 5876SOL    HW129087   4.601   3.909  11.151  0.1709 -0.0491  1.7826
 5876SOL    HW229088   4.694   3.805  11.152 -2.7815 -0.2415 -1.0988
 5877SOL     OW29089   2.084   3.624   9.990  0.1646  0.3122 -0.0045
 5877SOL    HW129090   2.007   3.602  10.042  1.3470  0.6379  1.8627
 5877SOL    HW229091   2.122   3.544   9.953  2.1988  0.8147  1.0140
 5878SOL     OW29092   0.224   1.029   5.628  0.3421  0.0024  0.4056
 5878SOL    HW129093   0.255   1.082   5.701 -2.0467 -0.8586  2.0574
 5878SOL    HW229094   0.220   0.944   5.671  2.4093 -0.4706 -0.3509
 5879SOL     OW29095   1.372   1.750   6.665  0.1569  0.3225 -0.2299
 5879SOL    HW129096   1.399   1.766   6.755  3.4059  0.5591 -1.2374
 5879SOL    HW229097   1.376   1.843   6.642  1.1388  0.6238  1.1748
 5880SOL     OW29098   2.264   1.211   3.820  0.2206 -0.3491 -0.4173
 5880SOL    HW129099   2.263   1.251   3.733 -1.1360  0.7536  0.1052
 5880SOL    HW229100   2.356   1.187   3.817  0.2185 -0.3370 -0.5762
 5881SOL     OW29101   3.741   4.005   8.706 -0.1102 -0.1440  0.1862
 5881SOL    HW129102   3.656   3.962   8.721 -0.1551  0.5145  1.8068
 5881SOL    HW229103   3.715   4.055   8.628 -0.6658 -0.6987  0.0080
 5882SOL     OW29104   2.412   2.335   2.487 -0.2556 -0.0916 -0.3824
 5882SOL    HW129105   2.399   2.355   2.580  0.4572  0.3072 -0.3690
 5882SOL    HW229106   2.429   2.426   2.463 -0.4128 -0.2893 -1.2199
 5883SOL     OW29107   1.806   0.506   8.903 -0.3169  0.5153 -0.0192
 5883SOL    HW129108   1.758   0.587   8.916 -0.4515  0.0763  2.2685
 5883SOL    HW229109   1.895   0.536   8.920  0.0257 -1.4946  1.8461
 5884SOL     OW29110   2.486   0.824   3.875 -0.1406  0.8887 -0.7433
 5884SOL    HW129111   2.569   0.865   3.849  0.0457  0.7740 -0.3140
 5884SOL    HW229112   2.484   0.760   3.803  1.4341  0.4730 -0.4187
 5885SOL     OW29113   3.494   2.459   0.550 -0.3310 -0.2152  0.1159
 5885SOL    HW129114   3.469   2.552   0.547  1.4202  0.3133  1.9045
 5885SOL    HW229115   3.546   2.447   0.471 -0.1122  0.0823  0.2152
 5886SOL     OW29116   2.215   1.184   7.987  0.0309 -0.1717 -0.6323
 5886SOL    HW129117   2.154   1.120   8.021  0.7487 -0.2408  0.5000
 5886SOL    HW229118   2.156   1.226   7.924  2.4745  1.3066 -1.9556
 5887SOL     OW29119   4.675   2.427   8.104 -0.9772  0.0600 -0.2766
 5887SOL    HW129120   4.620   2.446   8.029 -0.5452  0.3256 -0.5259
 5887SOL    HW229121   0.026   2.377   8.061  1.4648  2.3595  1.0136
 5888SOL     OW29122   4.043   0.813   7.547 -0.3143 -0.8289  0.4578
 5888SOL    HW129123   4.082   0.726   7.547 -0.0055 -0.6877  0.2257
 5888SOL    HW229124   3.970   0.800   7.608 -1.7623  0.2038 -1.0448
 5889SOL     OW29125   3.245   4.572   7.998  0.2613 -0.2438  0.8099
 5889SOL    HW129126   3.279   4.497   8.047  0.0113  0.3171  1.8525
 5889SOL    HW229127   3.173   4.531   7.951  1.1782  0.8511 -1.5434
 5890SOL     OW29128   1.925   3.836  14.569  0.1112 -0.2996  0.1194
 5890SOL    HW129129   1.993   3.881  14.520  0.6488 -0.0405  1.1004
 5890SOL    HW229130   1.949   3.752  14.530  1.5295  0.2346 -0.1286
 5891SOL     OW29131   0.137   2.959   4.272  0.0723  0.3036 -0.1258
 5891SOL    HW129132   0.164   3.025   4.208  0.3095  0.3563  0.0281
 5891SOL    HW229133   0.124   3.015   4.348 -2.8574 -0.6467  0.0725
 5892SOL     OW29134   4.660   0.785  14.356 -0.1652 -0.3536 -0.1045
 5892SOL    HW129135   4.702   0.782  14.271 -0.2775  1.2570 -0.2176
 5892SOL    HW229136   4.570   0.794  14.323 -1.1412  1.4248  2.9602
 5893SOL     OW29137   0.276   4.462   6.645 -0.2873  0.3911 -0.0157
 5893SOL    HW129138   0.259   4.511   6.564  0.0100 -0.7258 -0.7577
 5893SOL    HW229139   0.357   4.414   6.629  0.3773  2.0052 -1.4829
 5894SOL     OW29140   1.272   1.190   7.555  0.0951 -0.3542 -0.3514
 5894SOL    HW129141   1.359   1.231   7.553 -0.6813  1.2455 -1.1657
 5894SOL    HW229142   1.242   1.217   7.468  2.1692 -1.3194 -1.3640
 5895SOL     OW29143   3.552   3.743   1.755  0.1165  0.1273  0.1243
 5895SOL    HW129144   3.645   3.731   1.774  0.2142  1.7535  0.6981
 5895SOL    HW229145   3.518   3.675   1.697  0.3284  1.5778 -1.7231
 5896SOL     OW29146   2.170   0.344   3.872  0.0545  0.6168  0.0152
 5896SOL    HW129147   2.107   0.416   3.871  1.1853  1.6184  1.7532
 5896SOL    HW229148   2.175   0.332   3.777  1.8149 -1.8849  0.4206
 5897SOL     OW29149   2.578   4.702   9.649 -0.6314  0.0764  0.2746
 5897SOL    HW129150   2.494   4.662   9.669 -0.7991 -0.0622 -0.7074
 5897SOL    HW229151   2.627   4.628   9.614 -1.2829  0.6387 -1.7948
 5898SOL     OW29152   4.068   0.394   2.830 -0.0873 -0.0292 -0.2095
 5898SOL    HW129153   4.129   0.385   2.757 -1.0780 -2.4615 -0.7378
 5898SOL    HW229154   3.983   0.410   2.789 -0.0759  0.8199  0.0982
 5899SOL     OW29155   1.259   2.452  15.929 -0.2244  0.6583  0.3808
 5899SOL    HW129156   1.278   2.523  15.991  1.4186  0.6114 -0.0792
 5899SOL    HW229157   1.202   2.493  15.864 -1.6313 -1.9783 -0.0503
 5900SOL     OW29158   1.482   0.531   9.125  0.1488 -0.4843  0.2417
 5900SOL    HW129159   1.565   0.576   9.143  0.0313 -0.7025  1.3449
 5900SOL    HW229160   1.440   0.557   9.208  0.6026  3.9273 -0.8933
 5901SOL     OW29161   0.183   1.692  16.257  0.0444 -0.6662  0.4460
 5901SOL    HW129162   0.216   1.625  16.197 -0.8483  1.2526 -2.1627
 5901SOL    HW229163   0.175   1.637  16.335 -2.0024  0.2278  0.8537
 5902SOL     OW29164   3.556   0.925   8.942 -0.2429 -0.0579 -0.2115
 5902SOL    HW129165   3.487   0.978   8.982  0.0540 -1.2472  1.8669
 5902SOL    HW229166   3.510   0.844   8.920  0.9276 -1.0083  0.7925
 5903SOL     OW29167   2.368   4.265   2.851 -0.3799 -0.5973  0.5767
 5903SOL    HW129168   2.314   4.200   2.808  1.0103 -0.5701 -1.2272
 5903SOL    HW229169   2.353   4.244   2.943  0.0288  1.6507  1.1697
 5904SOL     OW29170   1.900   1.418  17.638 -0.0729 -0.4267 -0.1519
 5904SOL    HW129171   1.994   1.411  17.651 -0.2793 -3.4807 -0.2859
 5904SOL    HW229172   1.893   1.495  17.582  1.1617 -1.7930 -2.1738
 5905SOL     OW29173   0.736   1.480  11.657 -0.3748  0.3078  0.1324
 5905SOL    HW129174   0.645   1.494  11.631  0.0923  1.9961 -0.5961
 5905SOL    HW229175   0.729   1.476  11.753  0.8639  2.3652  0.3148
 5906SOL     OW29176   0.796   0.135   6.254 -0.0920 -0.1601 -0.1599
 5906SOL    HW129177   0.798   0.212   6.197  0.9905  0.3465  0.5727
 5906SOL    HW229178   0.751   0.064   6.209 -2.5290  1.4888 -0.3525
 5907SOL     OW29179   4.176   0.768   4.155  0.0530 -0.2144 -0.0718
 5907SOL    HW129180   4.145   0.708   4.088 -0.7308 -0.1135  0.2020
 5907SOL    HW229181   4.163   0.852   4.112 -1.0664 -1.4569 -2.1807
 5908SOL     OW29182   3.339   4.280   4.519  0.2995  0.3994 -0.4058
 5908SOL    HW129183   3.312   4.356   4.467 -0.7883  0.8948  0.8612
 5908SOL    HW229184   3.312   4.202   4.470 -0.0977  0.6716 -0.6182
 5909SOL     OW29185   2.229   1.218   3.553  0.3484  0.6850  0.2106
 5909SOL    HW129186   2.186   1.133   3.544 -0.9233  1.2366  0.9950
 5909SOL    HW229187   2.159   1.270   3.513 -0.1064 -0.0084  0.1128
 5910SOL     OW29188   0.878   3.174   8.105 -0.2373  0.4202 -0.3127
 5910SOL    HW129189   0.827   3.099   8.135 -1.0805  0.9955 -0.3317
 5910SOL    HW229190   0.890   3.141   8.016  1.6169 -0.4827  0.2687
 5911SOL     OW29191   0.989   1.172   5.178 -0.5323  0.0075  0.0429
 5911SOL    HW129192   1.079   1.185   5.208  1.0685 -1.8609 -3.9705
 5911SOL    HW229193   0.997   1.114   5.102 -1.2065  1.8586 -1.4205
 5912SOL     OW29194   3.089   3.920   0.342  0.0118  0.1716  0.6188
 5912SOL    HW129195   3.178   3.898   0.368  0.7208  1.8878 -0.3574
 5912SOL    HW229196   3.054   3.930   0.431 -0.3797  1.2661  0.3332
 5913SOL     OW29197   0.201   3.985  13.570  0.4967 -0.3823  0.3965
 5913SOL    HW129198   0.226   4.065  13.616  0.4378 -0.4651  0.5762
 5913SOL    HW229199   0.271   3.932  13.611  0.1982 -2.2638 -1.5134
 5914SOL     OW29200   2.256   4.390   8.933  0.3521  0.2008  0.4269
 5914SOL    HW129201   2.235   4.342   8.853  0.0853  0.5623  0.2817
 5914SOL    HW229202   2.226   4.329   9.000  0.2278 -0.0973  0.0971
 5915SOL     OW29203   3.848   1.654  12.499  0.4892 -0.1228 -0.0454
 5915SOL    HW129204   3.877   1.566  12.479  0.5490 -0.2321  0.5089
 5915SOL    HW229205   3.907   1.689  12.567 -1.1206  0.7498  0.9096
 5916SOL     OW29206   1.925   2.735  16.863 -0.1995 -0.1511  0.1162
 5916SOL    HW129207   1.910   2.701  16.774 -0.3990 -0.5981  0.3170
 5916SOL    HW229208   1.886   2.665  16.916  0.9077 -1.8063 -1.2536
 5917SOL     OW29209   1.475   1.962   2.467 -0.3777 -0.3207  0.0114
 5917SOL    HW129210   1.525   1.965   2.385 -1.8352  2.3375 -0.7575
 5917SOL    HW229211   1.542   1.930   2.528 -0.1580 -3.1583 -1.6910
 5918SOL     OW29212   3.142   2.334   2.546  0.1428  0.2345  0.1196
 5918SOL    HW129213   3.100   2.253   2.515  1.7897 -0.8711  0.7964
 5918SOL    HW229214   3.063   2.374   2.584  0.2707  1.0150 -0.4399
 5919SOL     OW29215   3.182   0.136   3.489 -0.5319 -0.2372 -0.9445
 5919SOL    HW129216   3.251   0.202   3.482 -1.3087  0.7263  0.5680
 5919SOL    HW229217   3.105   0.190   3.470 -1.5688 -0.7901  1.6860
 5920SOL     OW29218   0.254   0.382  12.365 -0.1708 -0.2922 -0.1997
 5920SOL    HW129219   0.341   0.397  12.330  0.0758 -2.1525 -0.3725
 5920SOL    HW229220   0.193   0.383  12.291  0.0098 -1.2086 -0.3583
 5921SOL     OW29221   1.915   3.436   6.840 -0.1601 -0.4117 -0.4159
 5921SOL    HW129222   1.833   3.483   6.825 -0.0055  0.5697  1.8456
 5921SOL    HW229223   1.938   3.428   6.747 -1.5128  2.9350 -1.0419
 5922SOL     OW29224   1.976   0.139   8.788  0.4896 -0.0913  0.2509
 5922SOL    HW129225   1.994   0.228   8.757 -1.3863  1.5190  3.7526
 5922SOL    HW229226   1.905   0.157   8.850  0.9050 -1.2414  1.0567
 5923SOL     OW29227   0.516   1.312   1.641  0.5967  0.2419 -0.4437
 5923SOL    HW129228   0.590   1.251   1.637  1.1098  0.6985  2.4125
 5923SOL    HW229229   0.489   1.325   1.550 -0.3724  1.1948 -0.0108
 5924SOL     OW29230   4.445   3.479   5.882 -0.1044 -0.0095  0.1430
 5924SOL    HW129231   4.390   3.538   5.831 -1.0166  0.2543  1.4354
 5924SOL    HW229232   4.501   3.540   5.931 -1.9766  1.0579  0.9253
 5925SOL     OW29233   1.933   4.230   9.143 -0.0564 -0.2779  0.0257
 5925SOL    HW129234   1.854   4.265   9.184 -0.3439 -0.5527 -0.2906
 5925SOL    HW229235   1.928   4.140   9.176  1.0862 -0.6502 -0.7961
 5926SOL     OW29236   0.716   2.717   2.994 -0.4191  0.3671  0.5267
 5926SOL    HW129237   0.631   2.678   3.014  0.2973 -0.7363  1.3743
 5926SOL    HW229238   0.713   2.708   2.899 -2.8284  1.5529  0.4944
 5927SOL     OW29239   1.228   2.774   5.266 -0.3335 -0.4352  0.0340
 5927SOL    HW129240   1.299   2.833   5.240 -0.8639  0.3461  0.3524
 5927SOL    HW229241   1.224   2.792   5.360  0.0541 -0.5804  0.0784
 5928SOL     OW29242   0.631   3.550   7.450 -0.5576 -0.3361 -0.1179
 5928SOL    HW129243   0.575   3.514   7.518 -2.8359  2.2539 -0.6386
 5928SOL    HW229244   0.649   3.641   7.474 -2.3454  0.2005 -0.8452
 5929SOL     OW29245   3.083   1.066   3.455  0.2470  0.4795 -0.3222
 5929SOL    HW129246   3.137   1.144   3.447  1.4966 -0.4175 -0.5923
 5929SOL    HW229247   3.154   1.004   3.472  0.4508  0.1922 -2.2772
 5930SOL     OW29248   2.875   4.300   7.021 -0.0265 -0.1646  0.4051
 5930SOL    HW129249   2.823   4.269   6.946  0.1630  1.1770 -0.2738
 5930SOL    HW229250   2.928   4.374   6.993 -0.7016  0.6814  1.3853
 5931SOL     OW29251   1.730   2.448   8.434  0.5403 -0.0167 -0.3297
 5931SOL    HW129252   1.653   2.439   8.378  0.2299  0.1098  0.0800
 5931SOL    HW229253   1.687   2.493   8.507  2.2345 -0.1612  0.7522
 5932SOL     OW29254   2.141   1.476   3.734 -0.2188 -0.1389 -0.2151
 5932SOL    HW129255   2.049   1.457   3.715 -0.3348  1.6115 -1.3759
 5932SOL    HW229256   2.182   1.462   3.649 -1.8686  0.7199 -1.1645
 5933SOL     OW29257   0.096   0.119  15.976 -0.2179  0.3907 -0.3758
 5933SOL    HW129258   0.072   0.077  16.059 -0.1763  2.3784  0.6415
 5933SOL    HW229259   0.094   0.047  15.912 -0.1169  1.1178 -1.1999
 5934SOL     OW29260   4.141   0.419   9.724  0.0708 -0.3314 -0.0193
 5934SOL    HW129261   4.202   0.390   9.792  1.2995 -1.6349 -1.6322
 5934SOL    HW229262   4.199   0.442   9.651 -0.0565  0.9776  0.3041
 5935SOL     OW29263   0.163   4.624   1.186 -0.3820 -0.1167 -0.0681
 5935SOL    HW129264   0.211   4.542   1.201 -0.7974 -0.2179  0.7248
 5935SOL    HW229265   0.101   4.597   1.119 -1.2059  2.1065 -0.1700
 5936SOL     OW29266   3.275   3.113   4.145  0.0108 -0.5679 -0.6867
 5936SOL    HW129267   3.284   3.043   4.080  1.4025 -1.0852  0.0675
 5936SOL    HW229268   3.359   3.157   4.130 -0.6926  1.2065  0.6023
 5937SOL     OW29269   2.744   2.290  15.726 -0.6188  0.1121  0.0003
 5937SOL    HW129270   2.724   2.277  15.819 -1.3721 -0.1783 -0.2052
 5937SOL    HW229271   2.840   2.292  15.723 -0.5814  0.3094  1.2844
 5938SOL     OW29272   3.100   3.981  15.280 -0.3895  0.0335  0.1712
 5938SOL    HW129273   3.162   3.915  15.312 -0.0722  1.0461  1.6200
 5938SOL    HW229274   3.039   3.921  15.238 -0.0504 -0.0102 -0.2624
 5939SOL     OW29275   2.968   3.464   3.764  0.0844  0.7276 -0.0349
 5939SOL    HW129276   2.915   3.527   3.715 -1.3191 -0.2590  0.1958
 5939SOL    HW229277   2.988   3.402   3.694 -3.0570  0.9590 -1.1381
 5940SOL     OW29278   4.041   0.148   1.404  0.3445  0.3546  0.2861
 5940SOL    HW129279   4.104   0.102   1.459 -0.3727 -0.8373  0.0972
 5940SOL    HW229280   3.984   0.190   1.468 -0.4195 -2.1057  1.2341
 5941SOL     OW29281   4.286   4.215   7.403 -0.0740 -0.0929  0.3213
 5941SOL    HW129282   4.252   4.130   7.432 -0.9101  0.1970  0.1821
 5941SOL    HW229283   4.241   4.278   7.460  2.0182  1.7619 -0.0519
 5942SOL     OW29284   1.782   2.119   6.593  0.2662 -0.1326  0.1465
 5942SOL    HW129285   1.855   2.155   6.642  0.2388  1.1475 -0.7708
 5942SOL    HW229286   1.791   2.025   6.612  2.7197  1.0256  4.7115
 5943SOL     OW29287   4.585   1.692  11.691  0.3712  0.0191 -0.1914
 5943SOL    HW129288   4.584   1.781  11.725  0.8140 -0.4891  1.1788
 5943SOL    HW229289   4.645   1.649  11.753  0.4845 -0.4883 -0.6461
 5944SOL     OW29290   2.925   2.424   5.670 -0.1035  0.1005  0.6699
 5944SOL    HW129291   2.993   2.363   5.641 -2.1496 -1.6173 -0.5084
 5944SOL    HW229292   2.914   2.475   5.590 -0.4530 -0.1917  0.5348
 5945SOL     OW29293   1.426   4.222   4.742 -0.4081  0.1973  0.2992
 5945SOL    HW129294   1.382   4.143   4.710 -1.6946  0.9479  0.1965
 5945SOL    HW229295   1.424   4.270   4.659  2.3524 -2.4480 -1.3089
 5946SOL     OW29296   0.740   3.169   1.066  0.2289 -0.1682 -0.4486
 5946SOL    HW129297   0.654   3.210   1.067  0.7204  0.8175  1.0228
 5946SOL    HW229298   0.752   3.182   0.972  0.8689  0.6436 -0.2575
 5947SOL     OW29299   3.875   2.712   7.273 -0.5876  0.3952  0.5468
 5947SOL    HW129300   3.803   2.715   7.209 -0.1080 -1.6041 -0.0513
 5947SOL    HW229301   3.860   2.632   7.323 -1.7849 -0.5753 -1.3312
 5948SOL     OW29302   3.226   3.308  12.135 -0.1209 -0.5647  0.5584
 5948SOL    HW129303   3.186   3.282  12.052 -2.7711  0.1699  1.5963
 5948SOL    HW229304   3.192   3.398  12.137  1.2641  0.0038 -2.2338
 5949SOL     OW29305   3.002   0.340   5.534 -0.0264 -0.0615  0.5156
 5949SOL    HW129306   2.929   0.282   5.515 -0.2678  0.4022  0.0247
 5949SOL    HW229307   3.026   0.352   5.442 -0.3865  0.3997  0.4827
 5950SOL     OW29308   0.655   0.991  11.050 -0.1022 -0.1940 -0.4775
 5950SOL    HW129309   0.738   0.992  11.003  0.4722  0.9366  0.5551
 5950SOL    HW229310   0.596   0.942  10.994  0.4766 -1.4303  0.0069
 5951SOL     OW29311   3.312   3.316   7.503 -0.0366 -0.1745 -0.1194
 5951SOL    HW129312   3.360   3.234   7.492 -1.7478 -1.0225 -1.2258
 5951SOL    HW229313   3.238   3.296   7.446  0.4396 -0.5007 -0.6266
 5952SOL     OW29314   2.111   3.536  16.342  0.0347  0.3702  0.0380
 5952SOL    HW129315   2.173   3.560  16.410 -1.0753 -0.7909  1.4453
 5952SOL    HW229316   2.048   3.607  16.353  3.2181  2.9813  1.3680
 5953SOL     OW29317   4.600   2.578  12.377 -0.2458  0.2646 -0.2900
 5953SOL    HW129318   4.531   2.519  12.345 -0.5747  0.3411  0.2803
 5953SOL    HW229319   4.636   2.516  12.441  0.1727 -0.5758 -1.3377
 5954SOL     OW29320   0.430   3.273  15.047 -0.8647 -0.0753  0.0100
 5954SOL    HW129321   0.385   3.230  15.120 -0.6747 -1.6693 -0.8130
 5954SOL    HW229322   0.434   3.204  14.981  0.1798 -1.3777  1.4356
 5955SOL     OW29323   0.360   1.880   4.688 -0.0622  0.2918  0.1576
 5955SOL    HW129324   0.439   1.879   4.634 -1.4048 -0.0704 -1.8372
 5955SOL    HW229325   0.387   1.932   4.763 -0.3405 -1.4117  1.4261
 5956SOL     OW29326   4.167   4.365   7.993 -1.1166  0.1188 -0.2391
 5956SOL    HW129327   4.157   4.391   8.084 -1.6891 -1.0253  0.0246
 5956SOL    HW229328   4.089   4.312   7.976 -1.0865 -0.6812  2.1487
 5957SOL     OW29329   3.930   4.676   1.225  0.1533  0.6400 -0.1185
 5957SOL    HW129330   3.969   0.010   1.295 -1.5453  2.7764 -0.7596
 5957SOL    HW229331   3.843   4.652   1.257 -0.2289  1.3240 -0.6417
 5958SOL     OW29332   1.612   2.573   3.209  0.2862  0.2768  0.0997
 5958SOL    HW129333   1.663   2.595   3.287  1.7749 -0.3405 -0.6972
 5958SOL    HW229334   1.585   2.660   3.179  2.1307  1.5990  2.2595
 5959SOL     OW29335   0.535   4.471   8.094  0.3570 -0.2249  0.6217
 5959SOL    HW129336   0.576   4.538   8.040  2.1950 -0.2554  1.9870
 5959SOL    HW229337   0.547   4.393   8.040 -2.2819 -0.9196  1.0227
 5960SOL     OW29338   1.212   1.146   5.713  0.3703 -0.0770 -0.1287
 5960SOL    HW129339   1.154   1.129   5.787  0.1038 -3.0261 -1.0230
 5960SOL    HW229340   1.148   1.142   5.642  1.2732  1.4970 -1.0443
 5961SOL     OW29341   1.050   0.107   8.312  0.2187 -1.0022 -0.2627
 5961SOL    HW129342   1.108   0.135   8.382 -1.3589 -1.1063  1.0815
 5961SOL    HW229343   1.001   0.034   8.350 -1.4441 -0.2125 -0.8637
 5962SOL     OW29344   2.018   2.929   4.688  0.2721 -0.0754 -0.3919
 5962SOL    HW129345   2.002   2.907   4.597 -2.4786  0.7715 -0.1162
 5962SOL    HW229346   2.035   2.841   4.723  1.7599  0.2637 -0.2684
 5963SOL     OW29347   2.359   4.332   6.552  0.0279  0.4106  0.2001
 5963SOL    HW129348   2.444   4.374   6.552  0.4858 -0.5134  0.1752
 5963SOL    HW229349   2.368   4.253   6.498  1.9370  0.3227  0.6449
 5964SOL     OW29350   0.625   1.340   8.241 -0.2171  0.3123 -0.2805
 5964SOL    HW129351   0.611   1.285   8.163 -1.7180  1.4644 -0.8340
 5964SOL    HW229352   0.537   1.374   8.260  0.5189  1.1590  1.6009
 5965SOL     OW29353   4.389   3.342  17.503  0.5239  0.6870 -0.5891
 5965SOL    HW129354   4.380   3.393  17.583  0.0216 -1.3108  0.6280
 5965SOL    HW229355   4.299   3.319  17.483  0.2034  1.1533  0.3006
 5966SOL     OW29356   0.764   2.238  17.127  0.2602 -0.3135 -0.5759
 5966SOL    HW129357   0.696   2.180  17.163  1.9586 -1.6465  0.4860
 5966SOL    HW229358   0.800   2.267  17.211 -1.7174 -3.1637  1.2451
 5967SOL     OW29359   4.506   0.325   6.555  0.1409 -1.3182  0.0112
 5967SOL    HW129360   4.583   0.290   6.511  2.6827  2.5385  1.3930
 5967SOL    HW229361   4.452   0.367   6.488  1.9885  1.0093 -0.0341
 5968SOL     OW29362   1.704   1.652   6.852  0.0271  0.1739 -0.4867
 5968SOL    HW129363   1.738   1.590   6.788  2.8074 -0.7733  1.9122
 5968SOL    HW229364   1.770   1.662   6.920  1.3504 -0.5158 -1.6842
 5969SOL     OW29365   2.888   3.104   8.780 -0.1564  0.7373 -0.3209
 5969SOL    HW129366   2.932   3.025   8.812 -2.4881  0.2521  1.7541
 5969SOL    HW229367   2.957   3.156   8.739  0.5538 -0.5817 -0.8203
 5970SOL     OW29368   3.164   0.796  15.763  0.2788 -0.1373  0.1516
 5970SOL    HW129369   3.233   0.748  15.808  0.6138  0.6205  0.4428
 5970SOL    HW229370   3.085   0.789  15.817 -0.3519  0.7030 -0.6603
 5971SOL     OW29371   4.466   0.297   0.210 -0.3812 -0.2425 -0.5987
 5971SOL    HW129372   4.441   0.227   0.270 -2.0998  0.9874  0.1308
 5971SOL    HW229373   4.393   0.312   0.150  0.2125  0.0658 -1.2354
 5972SOL     OW29374   0.852   1.493   2.099 -0.4339 -0.9996  0.7218
 5972SOL    HW129375   0.894   1.551   2.163 -1.0455  0.9243 -0.6011
 5972SOL    HW229376   0.840   1.417   2.156 -1.7310 -0.9834  0.4683
 5973SOL     OW29377   0.144   1.329   6.007  0.0712 -0.0957 -0.0107
 5973SOL    HW129378   0.116   1.240   6.029  0.9065 -0.2721  0.3210
 5973SOL    HW229379   0.122   1.371   6.090  3.3388  0.5983  0.4736
 5974SOL     OW29380   1.800   1.496   2.861 -0.2248  0.3148  0.4507
 5974SOL    HW129381   1.843   1.567   2.909 -0.7954 -0.6409  2.3625
 5974SOL    HW229382   1.875   1.437   2.849 -2.1880 -2.3419  1.2004
 5975SOL     OW29383   0.845   0.370   0.535  0.8663 -0.2675 -0.0391
 5975SOL    HW129384   0.812   0.306   0.598 -0.2691  0.1912 -0.1738
 5975SOL    HW229385   0.768   0.425   0.522  0.6972 -0.2512  1.0176
 5976SOL     OW29386   4.362   2.381   8.157 -0.4358  0.0422  0.4198
 5976SOL    HW129387   4.369   2.477   8.155  2.1798 -0.1212  0.6968
 5976SOL    HW229388   4.394   2.368   8.246 -2.9793  0.4205  1.3804
 5977SOL     OW29389   4.348   0.051   7.692 -0.3721 -0.0352  0.4390
 5977SOL    HW129390   4.306   0.098   7.620  0.7746 -0.0569 -0.2340
 5977SOL    HW229391   4.287   0.051   7.766 -0.5463 -2.5768  0.2757
 5978SOL     OW29392   3.426   2.478   1.313  0.2384  0.1401 -0.2364
 5978SOL    HW129393   3.474   2.535   1.253  0.1312  0.9788  0.4719
 5978SOL    HW229394   3.463   2.395   1.284  2.1037  0.5797  0.8718
 5979SOL     OW29395   1.324   0.007   5.959  0.5298  0.1912 -0.0104
 5979SOL    HW129396   1.281   4.668   5.895 -0.0572  1.3441 -0.6574
 5979SOL    HW229397   1.404   4.677   5.976  0.4268 -0.2576 -0.7740
 5980SOL     OW29398   0.540   1.940   1.482 -0.1666 -0.0323 -0.5371
 5980SOL    HW129399   0.568   1.921   1.571 -0.7449 -2.4309 -0.8474
 5980SOL    HW229400   0.445   1.938   1.492 -0.1795 -0.3283 -0.7049
 5981SOL     OW29401   3.987   2.353  14.293  0.3778 -0.2171 -0.2001
 5981SOL    HW129402   3.965   2.356  14.200 -0.3718  0.7631  0.0177
 5981SOL    HW229403   3.898   2.367  14.324  0.8152  1.5045  0.3000
 5982SOL     OW29404   0.028   0.890  11.378  0.0873 -0.7027 -0.1563
 5982SOL    HW129405   0.085   0.964  11.357 -1.1607  0.9497  2.2082
 5982SOL    HW229406   0.096   0.828  11.351 -0.5998 -1.6424  0.2719
 5983SOL     OW29407   1.586   0.723   3.525 -0.7624  0.4035  0.0447
 5983SOL    HW129408   1.504   0.734   3.478 -0.0664  1.6666 -0.8933
 5983SOL    HW229409   1.549   0.691   3.607  0.3612 -0.5687  0.1761
 5984SOL     OW29410   3.942   1.504   7.237  0.1178  0.5803  0.1942
 5984SOL    HW129411   3.874   1.548   7.187  0.1945 -1.1971 -1.5004
 5984SOL    HW229412   3.947   1.530   7.329 -1.6253  0.6506  0.2653
 5985SOL     OW29413   4.210   4.036   3.665 -0.4102  0.5876  0.0077
 5985SOL    HW129414   4.233   4.126   3.640 -1.2856  0.9153  0.3956
 5985SOL    HW229415   4.245   3.984   3.592  0.3851 -2.0902  2.3147
 5986SOL     OW29416   3.836   0.924   0.313  0.2259  0.1345 -0.2150
 5986SOL    HW129417   3.794   0.946   0.395 -2.2451  0.5990 -1.6157
 5986SOL    HW229418   3.788   0.846   0.285 -1.2614  0.9174  0.2090
 5987SOL     OW29419   4.377   4.617  16.372 -0.0349  0.6709 -0.3768
 5987SOL    HW129420   4.404   4.709  16.370 -0.9832  0.9444 -0.5818
 5987SOL    HW229421   4.458   4.573  16.398 -0.8340 -1.8481 -2.1323
 5988SOL     OW29422   0.547   0.649   1.197 -0.3639  0.0286  0.0046
 5988SOL    HW129423   0.616   0.583   1.185 -1.2052 -0.9418  0.4747
 5988SOL    HW229424   0.561   0.663   1.291 -0.7252  1.3550 -0.1449
 5989SOL     OW29425   2.824   3.978   5.022  0.0724  0.3295 -0.4374
 5989SOL    HW129426   2.853   4.008   5.108 -1.7127  1.8124 -0.3490
 5989SOL    HW229427   2.845   3.886   5.032  0.6938  0.6941  1.5212
 5990SOL     OW29428   4.599   3.490   0.988  0.3002  0.2505  0.3142
 5990SOL    HW129429   4.508   3.516   1.001 -0.4117 -2.0542 -0.1642
 5990SOL    HW229430   4.624   3.564   0.932  0.1206 -1.8977 -2.5863
 5991SOL     OW29431   3.363   3.521   2.415  0.0050  0.3930  0.1890
 5991SOL    HW129432   3.331   3.466   2.344 -0.0879 -0.1361  0.6366
 5991SOL    HW229433   3.291   3.584   2.411 -0.8417 -0.4204  2.3431
 5992SOL     OW29434   4.159   0.574   7.608 -1.3626 -0.1783  0.2255
 5992SOL    HW129435   4.236   0.517   7.611 -0.6685  0.7190 -0.6051
 5992SOL    HW229436   4.123   0.578   7.697 -2.7560  0.8360 -0.3706
 5993SOL     OW29437   4.058   2.607   3.608 -0.2092 -0.8703 -0.4049
 5993SOL    HW129438   4.095   2.690   3.638 -1.2690  0.0304 -1.5614
 5993SOL    HW229439   3.988   2.641   3.552 -0.5116  0.1255  0.5740
 5994SOL     OW29440   1.073   1.600   7.218 -0.4222 -0.7362  0.5438
 5994SOL    HW129441   1.163   1.570   7.227 -0.7673 -1.5316  1.3324
 5994SOL    HW229442   1.018   1.526   7.245  1.4219 -1.8960  1.1138
 5995SOL     OW29443   3.987   1.267   6.590 -0.6751 -1.0819 -0.5335
 5995SOL    HW129444   3.961   1.268   6.499 -0.9959 -0.3887 -0.4349
 5995SOL    HW229445   3.919   1.212   6.630 -0.9250  0.9824  1.9119
 5996SOL     OW29446   4.143   1.586   7.049 -0.4005  0.5157  0.2512
 5996SOL    HW129447   4.055   1.585   7.085  0.4967  0.2125  2.4231
 5996SOL    HW229448   4.122   1.536   6.970 -0.9411  0.5271  0.3874
 5997SOL     OW29449   2.420   2.456   0.886  0.0283 -0.1336  0.2184
 5997SOL    HW129450   2.347   2.401   0.916  0.5813 -0.9263  0.0872
 5997SOL    HW229451   2.478   2.392   0.846  0.2309 -0.8280  1.6299
 5998SOL     OW29452   4.534   1.455  16.902  0.5221 -0.0119  0.5185
 5998SOL    HW129453   4.459   1.502  16.938  1.7178  1.9510  0.4110
 5998SOL    HW229454   4.604   1.516  16.923 -0.6590  1.2714  0.7116
 5999SOL     OW29455   0.553   1.143   1.944 -0.1713  0.1908  0.1928
 5999SOL    HW129456   0.530   1.104   2.028  0.8541  0.1170  0.4389
 5999SOL    HW229457   0.581   1.230   1.974 -1.3045  0.4500  0.5098
 6000SOL     OW29458   3.394   0.080  12.659  0.0634 -0.5338  0.1616
 6000SOL    HW129459   3.364   0.095  12.569  0.4129 -0.9643 -0.0230
 6000SOL    HW229460   3.356   0.150  12.713  0.0966  1.1081 -1.9295
 6001SOL     OW29461   1.096   4.412  13.927  0.0885  0.4442 -1.0461
 6001SOL    HW129462   1.132   4.394  14.014  0.6192  1.9170 -0.9627
 6001SOL    HW229463   1.084   4.322  13.897  2.6041  0.2979 -1.6266
 6002SOL     OW29464   4.449   3.897   7.286 -0.4988  0.2007 -0.0250
 6002SOL    HW129465   4.519   3.888   7.351  0.7108  1.6964 -1.1269
 6002SOL    HW229466   4.369   3.909   7.337 -1.5679  0.3496 -1.7561
 6003SOL     OW29467   1.381   2.037  13.450 -0.2485 -0.0971 -0.0729
 6003SOL    HW129468   1.313   2.052  13.515  0.3819  1.9197  0.1072
 6003SOL    HW229469   1.433   1.977  13.504 -0.2340 -1.6169 -1.7818
 6004SOL     OW29470   3.139   4.309   7.636 -0.3773 -0.1327 -0.9671
 6004SOL    HW129471   3.101   4.233   7.591  0.9606 -0.6999 -1.1659
 6004SOL    HW229472   3.226   4.325   7.599  0.2862 -0.2425  0.5747
 6005SOL     OW29473   1.661   3.198  12.594 -0.3849  0.1480  0.6606
 6005SOL    HW129474   1.584   3.251  12.577 -0.0614  0.4487  0.1397
 6005SOL    HW229475   1.718   3.267  12.630  0.6159  0.1263 -0.9088
 6006SOL     OW29476   4.031   3.067  15.974  0.6961 -0.2130 -0.6487
 6006SOL    HW129477   3.985   3.043  15.893 -2.5284  1.0199  0.8051
 6006SOL    HW229478   3.960   3.085  16.035 -0.6159 -0.4902 -2.0907
 6007SOL     OW29479   3.986   1.931   7.142  0.0600  0.1345  0.2911
 6007SOL    HW129480   3.936   1.908   7.220  0.0104  1.8295  0.7462
 6007SOL    HW229481   4.073   1.911   7.175  0.9139  0.6806 -1.6246
 6008SOL     OW29482   0.700   1.397   6.891  0.4777 -0.1306  0.0630
 6008SOL    HW129483   0.765   1.457   6.853  1.9385 -0.5875  1.8378
 6008SOL    HW229484   0.618   1.431   6.856 -0.4104  0.7691  3.0785
 6009SOL     OW29485   3.578   4.700   3.969 -0.3513 -0.2117  0.0513
 6009SOL    HW129486   3.608   0.029   4.046  1.3467  0.8916 -1.2795
 6009SOL    HW229487   3.659   4.662   3.935  1.0978  2.7551  0.1816
 6010SOL     OW29488   1.639   2.584   6.093 -0.1542 -0.4510 -0.2894
 6010SOL    HW129489   1.584   2.613   6.166 -2.9334 -1.7701 -1.8775
 6010SOL    HW229490   1.727   2.619   6.108 -0.9012  0.0319  2.9931
 6011SOL     OW29491   4.620   4.183   5.189 -0.0055  0.4537 -0.4485
 6011SOL    HW129492   4.652   4.108   5.239 -1.7789 -1.5382 -2.2819
 6011SOL    HW229493   4.653   4.257   5.240 -0.0913  0.5910 -0.5916
 6012SOL     OW29494   0.203   0.931   8.234 -0.3007 -0.8678  0.2403
 6012SOL    HW129495   0.247   0.913   8.151 -0.8610  0.3636 -0.3285
 6012SOL    HW229496   0.138   0.861   8.233  1.4034 -2.4322  1.0058
 6013SOL     OW29497   3.047   2.023   9.298  0.0860 -0.4526 -0.3515
 6013SOL    HW129498   3.083   1.982   9.376 -2.6928  0.3588  1.3659
 6013SOL    HW229499   3.088   2.109   9.310  2.3313 -1.5912  0.1111
 6014SOL     OW29500   0.114   4.523  13.955  0.1918  0.1467  0.3839
 6014SOL    HW129501   0.080   4.603  13.997 -1.6171 -1.4780  2.0222
 6014SOL    HW229502   0.041   4.462  13.956 -0.5127  0.9953  1.0431
 6015SOL     OW29503   2.987   1.177  10.922  0.8448 -0.0098  0.7085
 6015SOL    HW129504   3.065   1.230  10.943  1.1065  0.7933 -2.2252
 6015SOL    HW229505   3.017   1.087  10.915 -0.2615 -0.1659 -2.0423
 6016SOL     OW29506   2.768   3.689   9.698 -0.1246 -0.2945  0.6909
 6016SOL    HW129507   2.851   3.642   9.699  0.9320  1.4950 -1.8288
 6016SOL    HW229508   2.726   3.646   9.624 -1.5216  0.2221  1.1803
 6017SOL     OW29509   3.057   4.412   2.670 -0.2021 -0.6257  0.4901
 6017SOL    HW129510   2.970   4.404   2.631  1.3724 -0.0839 -3.1402
 6017SOL    HW229511   3.101   4.451   2.595  1.6224  0.4633  2.1369
 6018SOL     OW29512   3.735   3.111   4.145  0.2680 -0.4213 -0.2726
 6018SOL    HW129513   3.704   3.081   4.060  0.5374 -2.7592  0.4513
 6018SOL    HW229514   3.657   3.112   4.201  1.0760  0.7015  0.8473
 6019SOL     OW29515   2.298   1.863   4.696 -0.0578  0.3837 -0.5643
 6019SOL    HW129516   2.274   1.774   4.670  0.0219  0.1471  0.1676
 6019SOL    HW229517   2.211   1.898   4.676  0.1756  0.6339 -1.1510
 6020SOL     OW29518   0.376   1.675   1.876 -0.0837  0.1612 -0.2529
 6020SOL    HW129519   0.314   1.602   1.865 -0.3168  0.4648 -0.9213
 6020SOL    HW229520   0.319   1.740   1.918  0.5230  1.2231 -1.0895
 6021SOL     OW29521   2.321   1.367  13.276  1.2344  0.4409  0.2548
 6021SOL    HW129522   2.322   1.318  13.193 -0.8185 -0.7592  0.9191
 6021SOL    HW229523   2.247   1.426  13.259  1.4113  1.3086  2.5870
 6022SOL     OW29524   0.186   1.625   1.622  0.4974 -0.0677 -0.6293
 6022SOL    HW129525   0.192   1.575   1.704  0.1671 -0.8116 -1.0562
 6022SOL    HW229526   0.275   1.646   1.595 -0.1542  1.8420 -1.2435
 6023SOL     OW29527   1.094   3.981   9.035 -0.7492 -0.2372 -0.0884
 6023SOL    HW129528   1.056   4.028   9.109 -3.5365 -0.0190 -1.6748
 6023SOL    HW229529   1.089   3.893   9.070  1.3574 -1.1712 -2.1476
 6024SOL     OW29530   2.750   1.439  11.847  0.5519  0.5381  0.1327
 6024SOL    HW129531   2.797   1.455  11.929 -0.7802 -0.9002  1.1639
 6024SOL    HW229532   2.660   1.423  11.876  0.2076  2.0127 -0.1000
 6025SOL     OW29533   0.370   3.510   7.062  0.0721  0.0394 -0.7593
 6025SOL    HW129534   0.445   3.487   7.117  0.1075  0.1081 -0.7784
 6025SOL    HW229535   0.371   3.437   7.001  0.2271 -0.8748  0.3326
 6026SOL     OW29536   0.678   0.211   8.187  0.4727 -0.6383 -0.7535
 6026SOL    HW129537   0.626   0.195   8.266  0.1478 -1.4594 -1.1413
 6026SOL    HW229538   0.742   0.145   8.213  0.6985 -0.1858 -0.1338
 6027SOL     OW29539   0.170   0.650  15.616 -0.1134  0.3672 -0.4722
 6027SOL    HW129540   0.181   0.573  15.560  1.1097 -0.5211  0.9768
 6027SOL    HW229541   0.085   0.639  15.658  1.4577 -0.5423  2.4423
 6028SOL     OW29542   4.671   3.435  13.773 -0.3577 -0.4448 -0.0035
 6028SOL    HW129543   4.669   3.455  13.679  0.8810 -0.0085  0.0508
 6028SOL    HW229544   0.002   3.354  13.781  0.1388  0.0882  2.1185
 6029SOL     OW29545   0.935   2.694  16.490 -0.1289  0.0538 -0.0064
 6029SOL    HW129546   0.912   2.708  16.582 -2.1202  0.1953 -0.5324
 6029SOL    HW229547   0.964   2.603  16.499  0.2797  0.3499  1.7225
 6030SOL     OW29548   2.520   2.267   6.694 -0.5234 -0.0251  0.4678
 6030SOL    HW129549   2.473   2.321   6.631  1.9807 -1.4077 -2.6166
 6030SOL    HW229550   2.474   2.186   6.672 -0.3644  0.2851 -0.9579
 6031SOL     OW29551   1.987   4.684  13.068  0.1859  0.0492  0.0545
 6031SOL    HW129552   1.902   0.005  13.090 -0.9547 -1.8039 -0.9353
 6031SOL    HW229553   2.044   0.042  13.077  1.1711 -0.7013  0.1704
 6032SOL     OW29554   3.782   4.186  12.285 -0.1830 -0.3017  0.9879
 6032SOL    HW129555   3.813   4.154  12.201 -2.6396  0.8501 -0.3460
 6032SOL    HW229556   3.862   4.209  12.334  0.8299  1.9657 -1.7407
 6033SOL     OW29557   0.564   3.194   7.379 -0.0017  0.1365 -0.0211
 6033SOL    HW129558   0.582   3.248   7.302  0.6921 -2.0752 -1.4342
 6033SOL    HW229559   0.471   3.212   7.385 -0.2032 -0.3669 -1.5315
 6034SOL     OW29560   4.220   3.967   0.384  0.3123 -0.7830 -0.1063
 6034SOL    HW129561   4.315   3.977   0.387  0.1821  0.6179 -0.6673
 6034SOL    HW229562   4.184   4.018   0.456  1.2431 -1.0730  0.5650
 6035SOL     OW29563   3.150   4.053  10.549 -0.6995 -0.2970 -0.0045
 6035SOL    HW129564   3.156   4.074  10.642  1.4082  0.5971 -0.3450
 6035SOL    HW229565   3.153   3.958  10.543 -0.5229 -0.1795 -1.9408
 6036SOL     OW29566   1.002   0.593   9.580  0.5672 -0.1878 -0.3156
 6036SOL    HW129567   0.990   0.514   9.528 -3.9453 -1.4817  2.7386
 6036SOL    HW229568   0.958   0.570   9.662 -1.1141  3.8138 -0.1329
 6037SOL     OW29569   0.534   0.302   4.811  0.0386  0.1654 -0.1764
 6037SOL    HW129570   0.624   0.300   4.779  1.3276  1.2376  3.3629
 6037SOL    HW229571   0.495   0.226   4.768  0.2890 -0.1883  0.2179
 6038SOL     OW29572   0.266   2.834  13.617  0.2060  0.4660  0.0794
 6038SOL    HW129573   0.314   2.884  13.683  0.5116  2.2278 -1.4706
 6038SOL    HW229574   0.307   2.860  13.534 -2.2704  0.2643 -1.2053
 6039SOL     OW29575   4.337   2.410   0.690  0.5146 -0.0810  0.0147
 6039SOL    HW129576   4.286   2.385   0.614  2.7336 -0.5814 -1.3175
 6039SOL    HW229577   4.326   2.342   0.757  2.3875  0.5442  0.9741
 6040SOL     OW29578   1.955   2.232  16.887  0.1325  0.1284  0.4155
 6040SOL    HW129579   1.950   2.222  16.792 -2.0618 -1.5584  0.7066
 6040SOL    HW229580   1.884   2.172  16.910 -1.1228  0.5843 -2.2307
 6041SOL     OW29581   4.367   2.448   8.883  0.4170  0.0338 -0.0515
 6041SOL    HW129582   4.372   2.355   8.903  0.1842 -0.0418 -0.3323
 6041SOL    HW229583   4.350   2.473   8.973 -0.3837  1.7668 -0.6848
 6042SOL     OW29584   1.700   2.476   7.791 -0.1922  0.5120  0.6756
 6042SOL    HW129585   1.766   2.421   7.833  0.7954  0.4550 -0.9885
 6042SOL    HW229586   1.750   2.543   7.745  1.5349 -0.6032  0.9617
 6043SOL     OW29587   0.700   3.462   9.130 -0.8109  0.0072  0.5034
 6043SOL    HW129588   0.671   3.553   9.126 -0.2151  0.1742  0.0408
 6043SOL    HW229589   0.636   3.431   9.194  1.1991 -0.5827  2.2473
 6044SOL     OW29590   2.700   2.008   5.404  0.3096  0.2639 -0.3537
 6044SOL    HW129591   2.628   2.018   5.341 -0.2301  0.4331  0.2894
 6044SOL    HW229592   2.661   2.033   5.488  1.9583 -0.8661  0.7471
 6045SOL     OW29593   0.817   3.443  15.401 -0.1253  0.5267  0.8561
 6045SOL    HW129594   0.867   3.448  15.320 -0.4041 -0.2449  0.6367
 6045SOL    HW229595   0.756   3.516  15.403  0.3802  0.9098  2.5310
 6046SOL     OW29596   2.616   3.149  14.384 -0.3624 -0.7254  0.5745
 6046SOL    HW129597   2.598   3.243  14.381  0.7251 -0.4347  3.0463
 6046SOL    HW229598   2.559   3.123  14.456  0.4565 -1.9916  0.7617
 6047SOL     OW29599   1.453   1.394   2.874 -0.6184  0.0443  0.4250
 6047SOL    HW129600   1.386   1.348   2.823 -0.4827 -0.8671  1.0596
 6047SOL    HW229601   1.439   1.362   2.963  0.1844 -2.7464 -0.4531
 6048SOL     OW29602   1.377   4.206  11.347 -0.3235 -0.1109 -0.0784
 6048SOL    HW129603   1.356   4.294  11.379  1.0262  0.9021 -1.9895
 6048SOL    HW229604   1.446   4.187  11.410  0.4388  0.5899 -0.7072
 6049SOL     OW29605   1.333   2.780   8.045  0.4293 -0.3767 -0.4494
 6049SOL    HW129606   1.291   2.857   8.083 -0.7394 -0.9265 -0.6536
 6049SOL    HW229607   1.417   2.782   8.092  0.9223  0.0295 -1.3308
 6050SOL     OW29608   4.458   0.556   5.430  0.4513 -0.5415 -0.3203
 6050SOL    HW129609   4.368   0.583   5.446  0.1741 -1.3306 -0.5459
 6050SOL    HW229610   4.447   0.461   5.441  0.5715 -0.2362  2.3934
 6051SOL     OW29611   3.570   3.626   8.495 -0.2810  0.0612 -0.2377
 6051SOL    HW129612   3.604   3.699   8.444  2.4224 -1.7750 -1.1228
 6051SOL    HW229613   3.484   3.663   8.510 -0.6662  0.0454 -2.3981
 6052SOL     OW29614   1.403   2.025   3.337 -0.6022  0.1535  0.1082
 6052SOL    HW129615   1.312   1.999   3.351 -1.9771  2.1740 -5.0732
 6052SOL    HW229616   1.417   2.084   3.411  0.1072  0.4011 -0.2326
 6053SOL     OW29617   0.069   2.416   2.456 -0.1508  0.0736 -0.2798
 6053SOL    HW129618   0.154   2.457   2.438  1.1906 -2.7005 -0.2224
 6053SOL    HW229619   0.019   2.486   2.497  2.6612  1.6594  0.4227
 6054SOL     OW29620   3.542   3.417   9.674 -0.2283 -0.5374 -0.2544
 6054SOL    HW129621   3.547   3.477   9.749 -0.8480  0.1075 -0.7309
 6054SOL    HW229622   3.523   3.331   9.710 -1.2580 -0.3764 -0.4075
 6055SOL     OW29623   2.044   1.675   8.740  0.7862  0.4050 -0.2206
 6055SOL    HW129624   1.972   1.694   8.679 -1.3390  1.1758  2.5398
 6055SOL    HW229625   2.047   1.579   8.741 -1.8184  0.3161 -0.5870
 6056SOL     OW29626   3.596   2.579   4.784 -0.1364 -0.3139  0.2636
 6056SOL    HW129627   3.511   2.620   4.798  0.5583 -0.1268  3.8521
 6056SOL    HW229628   3.631   2.592   4.872  1.9872  2.4936 -1.0206
 6057SOL     OW29629   0.596   1.235  14.402 -0.1662  0.5636 -0.0766
 6057SOL    HW129630   0.665   1.264  14.342  0.6613  0.4838  0.8292
 6057SOL    HW229631   0.573   1.159  14.349 -1.0711  2.1414 -1.9301
 6058SOL     OW29632   1.389   1.744   3.909 -0.5022  0.6327 -0.0172
 6058SOL    HW129633   1.378   1.802   3.984  1.8313  0.5906  0.3526
 6058SOL    HW229634   1.382   1.808   3.838 -0.7265 -0.5025 -1.0306
 6059SOL     OW29635   0.323   0.633   6.280  0.6344 -0.0670  0.3425
 6059SOL    HW129636   0.338   0.596   6.193  0.1122  1.0132 -0.2171
 6059SOL    HW229637   0.302   0.551   6.324  0.9033 -1.2887 -1.8175
 6060SOL     OW29638   3.450   1.360   0.770 -0.2151 -0.2168 -0.2168
 6060SOL    HW129639   3.471   1.449   0.742 -0.0885 -0.5724 -1.2381
 6060SOL    HW229640   3.364   1.381   0.808 -0.4599 -2.4887  0.4432
 6061SOL     OW29641   3.360   1.616   6.398 -0.5395  0.0091  0.0922
 6061SOL    HW129642   3.305   1.693   6.388 -0.4119 -0.0209 -0.8142
 6061SOL    HW229643   3.354   1.609   6.493 -0.8385  2.2090  0.2362
 6062SOL     OW29644   1.636   1.884   1.113  0.1168  0.3021 -0.2112
 6062SOL    HW129645   1.577   1.847   1.048  1.8678 -0.1901 -1.5233
 6062SOL    HW229646   1.647   1.807   1.169 -1.5247  1.6368  1.9660
 6063SOL     OW29647   0.478   1.080   3.633  0.0660  0.0319 -0.1755
 6063SOL    HW129648   0.452   0.993   3.602  0.8845 -0.3916  0.3297
 6063SOL    HW229649   0.437   1.076   3.719 -0.9070 -0.8227 -0.6808
 6064SOL     OW29650   2.090   4.538   3.856 -0.0278 -0.0793 -0.6599
 6064SOL    HW129651   2.164   4.478   3.847  0.7941  0.5708  1.8522
 6064SOL    HW229652   2.134   4.621   3.875 -1.2993  0.0140  1.9374
 6065SOL     OW29653   1.325   3.730   8.468 -0.0440 -0.2577  0.1763
 6065SOL    HW129654   1.387   3.768   8.530  0.0105  2.2605 -1.4173
 6065SOL    HW229655   1.242   3.743   8.514 -0.4084 -3.2449  0.3830
 6066SOL     OW29656   2.068   2.083   6.531  0.4412 -0.5880 -0.1034
 6066SOL    HW129657   2.059   2.114   6.441 -2.1685 -0.7604  0.1020
 6066SOL    HW229658   2.094   2.161   6.580  0.1239  0.5647 -1.7756
 6067SOL     OW29659   0.443   2.707   6.843  0.3078 -0.9262  0.0628
 6067SOL    HW129660   0.513   2.767   6.871  0.3925 -1.1471  0.3245
 6067SOL    HW229661   0.411   2.749   6.763  1.3193  1.2474  0.7954
 6068SOL     OW29662   0.947   2.512   5.103 -0.0186 -0.3663 -0.2602
 6068SOL    HW129663   0.975   2.596   5.140  0.0519  0.3560 -1.9535
 6068SOL    HW229664   0.931   2.464   5.184 -2.6995 -0.6237 -0.9470
 6069SOL     OW29665   2.479   4.201  15.082 -0.4672  0.4954 -0.1046
 6069SOL    HW129666   2.559   4.240  15.047  0.6636 -0.7043  1.1392
 6069SOL    HW229667   2.526   4.139  15.138  1.1860  0.1195 -1.9359
 6070SOL     OW29668   1.113   4.246   1.567  0.0042  0.5072 -0.2614
 6070SOL    HW129669   1.084   4.238   1.476  1.0380 -2.1151 -0.3460
 6070SOL    HW229670   1.062   4.323   1.591 -0.9965 -1.4828  3.9895
 6071SOL     OW29671   1.555   1.007   2.716 -0.6167 -0.3922  0.0788
 6071SOL    HW129672   1.582   1.036   2.629 -0.8356  1.1440  0.5264
 6071SOL    HW229673   1.540   0.915   2.694  0.8373 -0.0977 -2.2122
 6072SOL     OW29674   1.360   1.086   4.380  0.5928 -0.2938 -0.0587
 6072SOL    HW129675   1.448   1.114   4.356  0.2824  0.0170 -0.8324
 6072SOL    HW229676   1.371   1.063   4.473 -1.9849 -1.7283 -0.1045
 6073SOL     OW29677   4.175   0.968  11.693  0.5317  0.0502 -0.6006
 6073SOL    HW129678   4.133   0.907  11.753  1.8893  0.3988  0.6770
 6073SOL    HW229679   4.222   0.913  11.630 -0.3342  2.2280 -3.1906
 6074SOL     OW29680   2.415   1.355  12.648 -0.4386  0.0455 -0.8205
 6074SOL    HW129681   2.429   1.441  12.690 -4.1749  0.8728 -1.2962
 6074SOL    HW229682   2.418   1.372  12.554 -1.0322 -0.8314 -0.9984
 6075SOL     OW29683   2.478   0.288   2.609  0.0556  0.1906 -0.1209
 6075SOL    HW129684   2.403   0.234   2.634 -0.6173  2.1861  2.2306
 6075SOL    HW229685   2.470   0.283   2.514  1.9595 -1.5630 -0.1910
 6076SOL     OW29686   0.800   0.302   4.719  0.4512  0.5988  0.2314
 6076SOL    HW129687   0.793   0.207   4.713 -1.0846  0.6389  1.3427
 6076SOL    HW229688   0.820   0.316   4.811 -1.9971 -1.6508  1.0958
 6077SOL     OW29689   2.218   0.087  13.786  0.0985 -0.2914  0.3767
 6077SOL    HW129690   2.265   0.168  13.770  0.6595 -1.1034 -2.1421
 6077SOL    HW229691   2.234   0.055  13.697  0.6898  1.0684 -0.0089
 6078SOL     OW29692   2.617   1.071   8.397 -0.1578  0.8767  0.3830
 6078SOL    HW129693   2.591   1.152   8.441 -2.0242  0.0656  0.7888
 6078SOL    HW229694   2.689   1.049   8.455  1.4788 -1.9093 -2.7421
 6079SOL     OW29695   4.021   1.269  16.589 -0.5863 -0.4624  0.1574
 6079SOL    HW129696   4.096   1.214  16.612 -0.9729 -0.9716  0.1893
 6079SOL    HW229697   4.059   1.339  16.536  0.7709 -1.8924 -0.7863
 6080SOL     OW29698   1.713   1.838   3.874 -0.3781 -0.1324 -0.0269
 6080SOL    HW129699   1.621   1.846   3.847 -0.2178  1.3996 -0.1239
 6080SOL    HW229700   1.754   1.892   3.807  0.5042  1.7402  2.0130
 6081SOL     OW29701   3.354   3.740  15.497 -0.3364  0.0483 -0.4010
 6081SOL    HW129702   3.332   3.741  15.404  1.6811 -1.6477 -0.9140
 6081SOL    HW229703   3.381   3.649  15.515  1.0346  0.6241  0.4600
 6082SOL     OW29704   1.149   3.800   3.021 -0.0828 -0.3172  0.3956
 6082SOL    HW129705   1.096   3.841   2.953 -0.9129  0.2183  1.3679
 6082SOL    HW229706   1.238   3.796   2.987 -0.2556  0.6711 -0.1706
 6083SOL     OW29707   4.500   0.129   7.161 -0.0706  0.2710  0.1175
 6083SOL    HW129708   4.492   0.033   7.160  0.6715  0.1884  1.6762
 6083SOL    HW229709   4.426   0.138   7.221 -0.2271  0.3047 -0.0794
 6084SOL     OW29710   3.725   1.727   5.052 -0.3121 -0.3179 -0.5524
 6084SOL    HW129711   3.686   1.812   5.032  0.4717  0.6041  1.8054
 6084SOL    HW229712   3.818   1.739   5.031  0.0392 -1.4286  0.3940
 6085SOL     OW29713   4.689   3.971   5.771  0.4526 -0.6100  0.2269
 6085SOL    HW129714   4.651   3.912   5.707  0.6203 -0.4971  0.0231
 6085SOL    HW229715   4.618   4.036   5.770  1.2053  0.1904 -1.3738
 6086SOL     OW29716   3.272   0.783   5.434  0.0800 -0.2996  0.0176
 6086SOL    HW129717   3.180   0.776   5.408  0.0776 -2.4885  0.5528
 6086SOL    HW229718   3.278   0.844   5.507 -0.0276 -0.5168  0.2094
 6087SOL     OW29719   0.862   0.662  16.779  0.0324 -0.4286 -0.6240
 6087SOL    HW129720   0.862   0.634  16.688  1.4596 -1.8668 -0.1764
 6087SOL    HW229721   0.843   0.579  16.823  1.7849  0.2725  1.4357
 6088SOL     OW29722   4.047   3.058   8.732 -0.3852 -0.1312 -0.3633
 6088SOL    HW129723   4.086   3.106   8.805 -0.5196  1.4070 -1.3166
 6088SOL    HW229724   3.978   3.122   8.713  0.1017  0.6367  0.4413
 6089SOL     OW29725   0.434   0.154  12.359  0.4121  0.2977  0.4077
 6089SOL    HW129726   0.355   0.100  12.363  1.1094 -0.6514  1.3428
 6089SOL    HW229727   0.483   0.114  12.287  0.6744  4.3999 -1.7027
 6090SOL     OW29728   4.286   2.551   4.142 -0.3745 -0.7393  0.1691
 6090SOL    HW129729   4.342   2.487   4.097 -0.2590 -0.5778  0.0810
 6090SOL    HW229730   4.231   2.575   4.067  1.2570 -0.2622 -0.8845
 6091SOL     OW29731   1.994   2.210  10.477 -0.7061  0.8997 -0.7269
 6091SOL    HW129732   2.067   2.186  10.534  0.1565  2.6900 -1.1035
 6091SOL    HW229733   1.930   2.230  10.545 -0.7455  1.0064 -0.7966
 6092SOL     OW29734   0.823   3.880  16.277  0.3073 -0.5150  0.4514
 6092SOL    HW129735   0.857   3.875  16.366  0.9555 -0.7339  0.1923
 6092SOL    HW229736   0.729   3.890  16.290  0.2282 -0.9953  0.2230
 6093SOL     OW29737   0.929   0.741   3.533  0.1393 -0.1311  0.4874
 6093SOL    HW129738   0.961   0.698   3.611  0.9385  3.1168  1.9490
 6093SOL    HW229739   0.952   0.832   3.551  3.2191 -0.5443 -1.3115
 6094SOL     OW29740   4.108   3.010   7.036 -0.0405  0.2046 -0.0909
 6094SOL    HW129741   4.072   3.062   7.109  0.1155 -0.3868  0.4063
 6094SOL    HW229742   4.054   3.046   6.966  0.4266 -0.4877 -0.7953
 6095SOL     OW29743   4.388   2.095   5.684 -0.2390  0.3565 -0.6558
 6095SOL    HW129744   4.340   2.110   5.766  0.6106 -0.9991  0.0814
 6095SOL    HW229745   4.327   2.041   5.633  1.8874 -1.2752 -1.4451
 6096SOL     OW29746   3.671   1.511   1.830  0.0952 -0.4158  0.3768
 6096SOL    HW129747   3.707   1.563   1.757 -0.0913  0.1699  0.7036
 6096SOL    HW229748   3.629   1.436   1.788 -0.6147 -0.1609  0.6532
 6097SOL     OW29749   3.208   3.671   5.737  0.1320 -0.0308 -0.0102
 6097SOL    HW129750   3.241   3.623   5.814  0.6311 -0.1310 -0.2884
 6097SOL    HW229751   3.216   3.602   5.671  0.9348 -1.5217  1.6307
 6098SOL     OW29752   1.741   3.518  14.468  0.0231 -0.2224  0.6488
 6098SOL    HW129753   1.814   3.457  14.479 -0.2007 -0.8719 -1.6388
 6098SOL    HW229754   1.761   3.571  14.390  0.1731  0.3906  1.0993
 6099SOL     OW29755   4.471   2.758  12.812 -0.6384 -0.2001 -0.1250
 6099SOL    HW129756   4.413   2.724  12.880 -1.2197 -1.5832 -1.3123
 6099SOL    HW229757   4.495   2.843  12.848  0.1328  0.2670 -1.7710
 6100SOL     OW29758   0.167   3.857  10.962 -0.1190 -0.2419 -0.2548
 6100SOL    HW129759   0.100   3.873  11.028 -1.4004  0.3309 -1.6977
 6100SOL    HW229760   0.159   3.762  10.956  0.2291 -0.3725  1.4485
 6101SOL     OW29761   1.030   1.028  14.990  0.0713 -1.2152  0.0371
 6101SOL    HW129762   1.016   0.995  14.902  1.6263 -0.4705 -0.4989
 6101SOL    HW229763   1.034   0.946  15.040 -0.2027 -1.1488  0.1670
 6102SOL     OW29764   3.837   4.181   6.237  0.6404 -0.2311 -0.3130
 6102SOL    HW129765   3.770   4.240   6.202  0.8229 -0.9042 -1.7960
 6102SOL    HW229766   3.822   4.106   6.179 -1.2589 -0.3188  0.2642
 6103SOL     OW29767   2.447   1.395   6.490 -0.3465  0.0409 -0.6167
 6103SOL    HW129768   2.356   1.392   6.520 -0.4689 -0.7459 -1.0617
 6103SOL    HW229769   2.440   1.437   6.404 -0.4411 -1.1395 -1.1871
 6104SOL     OW29770   0.867   3.425   4.034 -0.0630  0.0082 -0.1170
 6104SOL    HW129771   0.825   3.348   4.073 -0.3312 -1.4178 -3.2232
 6104SOL    HW229772   0.788   3.457   3.990 -0.1039  0.0496 -0.0128
 6105SOL     OW29773   2.412   3.128   9.384 -0.0298  0.2336 -0.4787
 6105SOL    HW129774   2.508   3.127   9.383 -0.0133  2.0483 -1.0674
 6105SOL    HW229775   2.395   3.037   9.406 -0.8852  0.8249  1.3166
 6106SOL     OW29776   1.219   3.768   4.618 -0.4910 -0.8227 -0.2162
 6106SOL    HW129777   1.186   3.778   4.528  0.0215 -0.1405 -0.3298
 6106SOL    HW229778   1.140   3.735   4.661 -1.2747  1.8070  0.3993
 6107SOL     OW29779   2.528   1.217   3.778 -0.1994  0.1157  0.3298
 6107SOL    HW129780   2.590   1.145   3.791 -0.3534  0.0775  0.8865
 6107SOL    HW229781   2.535   1.231   3.684  1.2760 -0.5227  0.3467
 6108SOL     OW29782   0.595   2.392   4.970  0.0150 -0.0349 -0.1005
 6108SOL    HW129783   0.650   2.314   4.969  0.4835  0.2879  0.2824
 6108SOL    HW229784   0.660   2.457   4.943  0.3311  0.4710  1.8737
 6109SOL     OW29785   4.372   0.896   0.106  0.0233  0.0441 -0.3535
 6109SOL    HW129786   4.414   0.810   0.103 -0.4428 -0.1343 -1.8005
 6109SOL    HW229787   4.447   0.956   0.106 -1.0475  1.3827  2.5683
 6110SOL     OW29788   2.097   2.867   6.380  0.3209  0.1278 -1.0791
 6110SOL    HW129789   2.001   2.867   6.380  0.3219  0.8857 -1.0590
 6110SOL    HW229790   2.105   2.786   6.329 -1.5787  0.4940 -1.9926
 6111SOL     OW29791   3.504   4.646   6.314  0.0750  0.1078 -0.2221
 6111SOL    HW129792   3.517   4.580   6.382 -1.4176  0.9007  0.8706
 6111SOL    HW229793   3.516   4.594   6.235  1.1781  0.7809 -0.4892
 6112SOL     OW29794   2.088   0.395   5.045  0.1044  0.6416  0.1691
 6112SOL    HW129795   2.062   0.448   4.969  3.2823  2.1835  0.1553
 6112SOL    HW229796   2.005   0.388   5.092  0.2787  1.4525  0.5943
 6113SOL     OW29797   1.899   3.768   8.094  0.1090 -0.1158  0.1067
 6113SOL    HW129798   1.858   3.828   8.156  1.6163  1.0913 -0.0611
 6113SOL    HW229799   1.853   3.783   8.011  2.3891 -1.2280 -1.3713
 6114SOL     OW29800   1.463   4.276   5.006 -0.1141  0.7965  0.0948
 6114SOL    HW129801   1.395   4.340   5.027 -1.9372 -1.3918  0.8780
 6114SOL    HW229802   1.446   4.257   4.914  1.3042 -1.8571  0.3741
 6115SOL     OW29803   4.356   1.349   5.076 -0.0661  0.4291  0.0332
 6115SOL    HW129804   4.391   1.431   5.041 -0.1355  0.8457  0.9566
 6115SOL    HW229805   4.263   1.369   5.068 -0.2904 -0.1216  1.2990
 6116SOL     OW29806   4.623   0.639   6.411  0.5321  0.3812 -0.3441
 6116SOL    HW129807   4.627   0.544   6.414 -2.6505  0.1392 -3.0490
 6116SOL    HW229808   4.537   0.654   6.371 -0.5463 -2.5715  0.8356
 6117SOL     OW29809   2.355   4.523  11.292  0.1538  0.0478 -0.3999
 6117SOL    HW129810   2.264   4.550  11.305 -0.0472  0.1154 -1.8913
 6117SOL    HW229811   2.364   4.438  11.335 -2.2534 -0.8812 -1.6906
 6118SOL     OW29812   3.674   4.063   5.256  0.4935  0.1946  0.1797
 6118SOL    HW129813   3.623   4.033   5.330 -2.0989  2.1877 -0.8043
 6118SOL    HW229814   3.764   4.035   5.275  1.1737  0.6962 -2.1868
 6119SOL     OW29815   3.923   1.973   2.640 -0.0225 -0.6460  0.3040
 6119SOL    HW129816   3.977   1.897   2.619 -1.9409 -1.2860 -2.3660
 6119SOL    HW229817   3.890   1.995   2.553  0.2809  0.8738  0.5720
 6120SOL     OW29818   3.925   1.339   8.237  0.4924  0.8543 -0.0455
 6120SOL    HW129819   3.982   1.336   8.160 -0.4013 -2.2414 -0.6029
 6120SOL    HW229820   3.985   1.365   8.307  0.1092  0.4246  0.4432
 6121SOL     OW29821   2.575   0.442   2.970  0.2477 -0.2561  0.5004
 6121SOL    HW129822   2.559   0.485   3.055  0.9650  1.1536 -0.0811
 6121SOL    HW229823   2.650   0.386   2.992  0.1571 -0.0439  1.3658
 6122SOL     OW29824   3.525   2.014   6.386 -0.0638 -0.2935  0.0593
 6122SOL    HW129825   3.579   1.947   6.428  0.5183 -0.2625 -0.6340
 6122SOL    HW229826   3.498   2.063   6.463 -0.7030 -1.6624  0.7159
 6123SOL     OW29827   2.989   4.165   8.281  0.3980 -0.3203  0.1105
 6123SOL    HW129828   3.013   4.108   8.208  2.1763  1.2122 -0.5103
 6123SOL    HW229829   3.061   4.138   8.339 -1.7551 -0.7250  2.6058
 6124SOL     OW29830   1.298   4.465   8.473  0.0014 -0.2965  0.2838
 6124SOL    HW129831   1.264   4.441   8.559 -1.4794  1.2983  0.1610
 6124SOL    HW229832   1.293   4.385   8.422 -0.0981 -1.0906  1.5536
 6125SOL     OW29833   3.786   1.104   2.970  0.3482 -0.6552 -0.3645
 6125SOL    HW129834   3.871   1.134   2.938  1.5202 -1.0939  2.3618
 6125SOL    HW229835   3.760   1.168   3.037 -0.3343 -0.3496 -0.9094
 6126SOL     OW29836   1.267   1.412   8.128  0.3008 -0.1180 -0.5554
 6126SOL    HW129837   1.266   1.475   8.056 -0.4149 -0.5782 -0.9506
 6126SOL    HW229838   1.197   1.348   8.110 -0.3773  0.2624  0.6821
 6127SOL     OW29839   1.003   1.544  13.419  0.2296  0.0235 -0.6712
 6127SOL    HW129840   0.935   1.508  13.363  1.5689 -3.9689  0.2627
 6127SOL    HW229841   0.972   1.634  13.415 -1.1050 -0.4091  0.1183
 6128SOL     OW29842   1.943   0.830   2.715  0.4093  0.2206 -0.0501
 6128SOL    HW129843   1.980   0.876   2.791 -1.8415  1.4517  0.2878
 6128SOL    HW229844   1.874   0.778   2.756  0.4684  0.6506  0.6040
 6129SOL     OW29845   1.766   1.432  14.670  0.2039 -0.0225 -0.3694
 6129SOL    HW129846   1.797   1.394  14.588  1.8226 -1.2057  0.7899
 6129SOL    HW229847   1.706   1.360  14.690 -3.1715  3.1603  0.9265
 6130SOL     OW29848   4.643   0.058   6.316 -0.0492 -0.1388  0.4813
 6130SOL    HW129849   4.576   0.032   6.379  0.3680  0.2573  1.0879
 6130SOL    HW229850   4.594   0.093   6.241 -1.9777 -1.2878  1.1938
 6131SOL     OW29851   2.200   2.304   5.677 -0.1584 -0.2768  0.8599
 6131SOL    HW129852   2.274   2.253   5.644 -0.3407  0.3571 -0.5498
 6131SOL    HW229853   2.121   2.260   5.646 -0.2828  0.2560  0.4154
 6132SOL     OW29854   3.893   3.653   7.119  0.2057 -0.0151  0.2921
 6132SOL    HW129855   3.815   3.641   7.174  1.8167 -1.4417  2.2686
 6132SOL    HW229856   3.910   3.747   7.128 -2.1528  0.6738 -2.3487
 6133SOL     OW29857   3.746   3.036  16.541 -0.1515 -0.1901 -0.4191
 6133SOL    HW129858   3.656   3.045  16.510 -0.6685 -0.3743  1.0148
 6133SOL    HW229859   3.731   2.987  16.622  0.6484 -0.3053 -0.3471
 6134SOL     OW29860   4.425   4.165   9.565  0.4964  0.8467 -0.1838
 6134SOL    HW129861   4.445   4.224   9.637  1.1223  1.5288 -0.9163
 6134SOL    HW229862   4.472   4.214   9.497  1.3870  1.1685  0.6670
 6135SOL     OW29863   1.875   1.072   8.326 -0.2870 -0.1213  0.2357
 6135SOL    HW129864   1.781   1.056   8.320 -0.3281 -0.7355  2.5459
 6135SOL    HW229865   1.875   1.124   8.406  0.3430 -3.6140  2.4977
 6136SOL     OW29866   2.868   3.856  13.817 -0.0222 -0.5538 -0.2040
 6136SOL    HW129867   2.823   3.933  13.852  1.5673 -0.2619  1.1531
 6136SOL    HW229868   2.832   3.792  13.878  1.2706 -0.7748  0.3204
 6137SOL     OW29869   3.023   2.442   5.398  0.0103 -0.2683  0.4012
 6137SOL    HW129870   3.086   2.388   5.446  1.1353  0.9145  0.2776
 6137SOL    HW229871   3.042   2.402   5.313 -0.6984  0.3814 -0.0591
 6138SOL     OW29872   0.757   0.861   3.328  0.4067 -0.4562  0.3686
 6138SOL    HW129873   0.754   0.955   3.341 -0.2654 -0.1260 -2.1768
 6138SOL    HW229874   0.808   0.830   3.403  0.5139 -0.5782  0.2445
 6139SOL     OW29875   0.170   0.682   3.857  0.3840  0.2830 -0.1618
 6139SOL    HW129876   0.176   0.754   3.920 -1.2885 -0.2768  0.6461
 6139SOL    HW229877   0.123   0.721   3.784 -0.5834  2.9754  1.9165
 6140SOL     OW29878   1.592   0.573  14.639  0.1195  0.4439 -0.1642
 6140SOL    HW129879   1.615   0.494  14.687 -1.8953 -1.2623 -2.0252
 6140SOL    HW229880   1.506   0.593  14.677  0.5996 -2.0120  2.1924
 6141SOL     OW29881   3.687   0.476   9.061 -0.1717 -0.2736 -0.0006
 6141SOL    HW129882   3.755   0.409   9.064  0.1523 -0.0165 -1.6388
 6141SOL    HW229883   3.632   0.446   8.988 -1.3188 -0.2063  0.8399
 6142SOL     OW29884   4.272   3.724  15.962  0.1624  0.0148 -0.3575
 6142SOL    HW129885   4.238   3.651  15.910 -1.4138  1.1854 -0.9806
 6142SOL    HW229886   4.297   3.684  16.046  0.8522  1.4109  0.0984
 6143SOL     OW29887   3.525   1.295   3.848  0.0095 -0.1828  0.2536
 6143SOL    HW129888   3.520   1.390   3.852  0.2318 -0.1546 -0.1303
 6143SOL    HW229889   3.611   1.292   3.806  0.3920  0.9109  0.9723
 6144SOL     OW29890   0.134   2.256   8.043 -0.3504  0.7347 -0.7480
 6144SOL    HW129891   0.142   2.184   8.106 -0.6337  1.4124  0.0578
 6144SOL    HW229892   0.224   2.263   8.012  0.8939 -2.9501  1.9341
 6145SOL     OW29893   4.034   3.292   8.035  0.2012 -0.6116 -0.3146
 6145SOL    HW129894   4.021   3.249   8.119 -0.1924  0.4783  0.1804
 6145SOL    HW229895   3.960   3.258   7.985 -1.4975  0.9796  1.0985
 6146SOL     OW29896   2.659   3.977   4.481  0.7906 -0.1951  0.0669
 6146SOL    HW129897   2.737   3.998   4.533  0.6947  0.1637  0.0653
 6146SOL    HW229898   2.588   4.015   4.533 -2.3197 -1.7408 -3.0549
 6147SOL     OW29899   2.847   4.651  12.748  0.2225  0.2157 -0.4822
 6147SOL    HW129900   2.787   4.576  12.745  2.4713 -1.5830 -0.4938
 6147SOL    HW229901   2.793   0.009  12.732 -2.3693 -1.8141 -1.6915
 6148SOL     OW29902   2.579   3.866   7.695 -0.1236 -0.8455  0.5017
 6148SOL    HW129903   2.530   3.943   7.668  0.3015 -0.7935 -0.1011
 6148SOL    HW229904   2.668   3.899   7.693 -0.5122  0.2130  0.9621
 6149SOL     OW29905   2.807   3.961   6.105 -0.0931  0.1240 -0.2388
 6149SOL    HW129906   2.780   3.870   6.113  0.3763 -0.0296 -0.4110
 6149SOL    HW229907   2.744   4.002   6.045 -0.8356 -0.5420  0.0863
 6150SOL     OW29908   4.601   0.744  12.071  0.0411  0.1427  0.2666
 6150SOL    HW129909   4.541   0.719  12.001 -0.6758 -2.1464  1.7132
 6150SOL    HW229910   4.649   0.818  12.032  1.7667 -0.0305  2.0347
 6151SOL     OW29911   1.664   0.211   0.297  0.2299 -0.4556 -0.2056
 6151SOL    HW129912   1.570   0.209   0.313  0.2913  3.0125  0.4113
 6151SOL    HW229913   1.668   0.294   0.251 -1.2267 -1.2384 -1.7558
 6152SOL     OW29914   3.951   0.313   6.974 -0.0840  0.1980 -0.0720
 6152SOL    HW129915   3.976   0.221   6.974 -0.7850  0.0072 -0.0495
 6152SOL    HW229916   3.863   0.312   7.011 -0.5817 -0.1161 -1.2483
 6153SOL     OW29917   1.269   4.453   5.761  0.1222 -0.0770 -0.3095
 6153SOL    HW129918   1.360   4.481   5.766 -0.4283  1.9446 -1.2900
 6153SOL    HW229919   1.268   4.374   5.815  0.1984 -1.5572 -2.4735
 6154SOL     OW29920   0.890   4.470   3.092  0.3468 -0.0245  0.3954
 6154SOL    HW129921   0.984   4.461   3.074  0.7979  1.2103  2.1056
 6154SOL    HW229922   0.867   4.563   3.098  0.1851 -0.1066  1.0626
 6155SOL     OW29923   4.650   3.216   5.103  0.0291  0.1734 -0.4325
 6155SOL    HW129924   0.023   3.243   5.097 -0.1827  0.9119 -0.2918
 6155SOL    HW229925   4.654   3.126   5.071 -0.0787  0.0172 -0.0020
 6156SOL     OW29926   1.607   3.368   9.096  0.2946  1.0406 -0.1145
 6156SOL    HW129927   1.583   3.451   9.055 -0.6982  0.3196 -0.9814
 6156SOL    HW229928   1.626   3.397   9.186 -0.5646 -0.6455  0.6103
 6157SOL     OW29929   4.166   0.993   5.051 -0.1509  0.3779  0.5037
 6157SOL    HW129930   4.098   1.024   4.992  0.6086 -1.5056 -1.3898
 6157SOL    HW229931   4.144   1.036   5.133 -1.3517  0.9589 -0.1246
 6158SOL     OW29932   1.032   4.592   2.428  0.0029 -0.4046 -0.1318
 6158SOL    HW129933   1.092   4.666   2.432  2.5523 -2.5504  1.0521
 6158SOL    HW229934   0.955   4.620   2.477  0.1748 -0.1906  0.0145
 6159SOL     OW29935   0.478   0.863   6.351  0.3446 -1.0500  0.3158
 6159SOL    HW129936   0.425   0.875   6.430 -0.7618  0.6403 -0.6715
 6159SOL    HW229937   0.425   0.797   6.306  0.1166  1.3597 -2.9504
 6160SOL     OW29938   2.336   1.603   5.212 -0.1914  0.1054  0.1359
 6160SOL    HW129939   2.428   1.613   5.190  0.0657 -1.1948  0.5820
 6160SOL    HW229940   2.338   1.522   5.263 -0.3183  0.8244  1.2821
 6161SOL     OW29941   1.589   0.500  15.035  0.3712 -0.3219 -0.6260
 6161SOL    HW129942   1.650   0.566  15.000  1.3621 -0.6254  0.5334
 6161SOL    HW229943   1.504   0.539  15.011 -0.3487 -0.4819  1.7284
 6162SOL     OW29944   3.109   4.240  15.230 -0.0776 -0.2645 -0.2961
 6162SOL    HW129945   3.096   4.145  15.233 -1.9603 -0.0470 -1.0853
 6162SOL    HW229946   3.202   4.239  15.209  0.4002  1.1636  1.7870
 6163SOL     OW29947   2.401   4.118   1.780 -0.3544 -0.4454 -0.8343
 6163SOL    HW129948   2.371   4.188   1.722  1.7324  0.7021 -0.5363
 6163SOL    HW229949   2.332   4.052   1.775 -2.3055  1.4330  1.1373
 6164SOL     OW29950   0.180   1.642   7.789  0.6963  0.3764  0.1317
 6164SOL    HW129951   0.227   1.695   7.725  2.1032 -0.4243  0.5003
 6164SOL    HW229952   0.232   1.655   7.869 -1.1401  2.2192  1.0389
 6165SOL     OW29953   2.074   4.625   1.455 -0.0445 -0.5323  0.1781
 6165SOL    HW129954   1.987   4.663   1.439 -0.7782 -1.0337  2.9347
 6165SOL    HW229955   2.098   4.648   1.544  1.4439 -2.3524  0.2363
 6166SOL     OW29956   4.472   2.133   2.793  0.2248 -0.3410  0.5205
 6166SOL    HW129957   4.508   2.206   2.743  0.7120 -0.7446  0.2892
 6166SOL    HW229958   4.507   2.063   2.738 -0.0861 -1.4553  1.7392
 6167SOL     OW29959   1.207   2.437   3.086  0.8861 -0.1566  0.3371
 6167SOL    HW129960   1.141   2.410   3.021  0.7602  1.8875 -0.3562
 6167SOL    HW229961   1.226   2.527   3.060  1.6639  0.8141  4.3630
 6168SOL     OW29962   4.484   1.614   1.516  0.1451  0.6564  0.0653
 6168SOL    HW129963   4.469   1.586   1.606 -1.4120 -0.6987 -0.6336
 6168SOL    HW229964   4.469   1.705   1.543 -3.4306 -0.2865  1.2431
 6169SOL     OW29965   3.317   0.983   1.666  0.2928  0.2174  0.3135
 6169SOL    HW129966   3.347   1.071   1.642 -3.9372  1.2475 -1.2405
 6169SOL    HW229967   3.387   0.923   1.641  0.7582  2.1180 -2.9913
 6170SOL     OW29968   2.846   4.046   4.687  0.3328 -0.3610  0.4970
 6170SOL    HW129969   2.833   4.120   4.626  0.4741 -1.1439 -0.4875
 6170SOL    HW229970   2.933   4.017   4.661  0.7796  2.2193 -0.9701
 6171SOL     OW29971   2.858   3.099   6.124 -0.1626  0.5321 -0.5861
 6171SOL    HW129972   2.794   3.148   6.174  1.2541  2.1356 -0.3518
 6171SOL    HW229973   2.909   3.167   6.080 -1.2096  1.6171 -0.1160
 6172SOL     OW29974   2.079   1.299   2.629  0.6272  0.0292  0.5969
 6172SOL    HW129975   2.153   1.240   2.616  1.1783  0.5506  1.3115
 6172SOL    HW229976   2.006   1.238   2.624 -0.4332  1.5236 -2.1862
 6173SOL     OW29977   1.373   2.555   4.626 -0.3808  0.1678  0.4525
 6173SOL    HW129978   1.452   2.549   4.573  1.6463  1.1923  3.3737
 6173SOL    HW229979   1.382   2.642   4.665  0.5455  1.0594 -1.7494
 6174SOL     OW29980   1.440   1.728   6.993 -0.1018 -0.1093 -0.0286
 6174SOL    HW129981   1.535   1.717   6.996 -0.1647 -0.5237  0.3713
 6174SOL    HW229982   1.424   1.784   7.068  1.7556 -0.7502  0.8383
 6175SOL     OW29983   4.587   0.380   8.123  0.2771  0.4255 -0.3711
 6175SOL    HW129984   4.676   0.345   8.123  0.5276  1.0736 -0.4932
 6175SOL    HW229985   4.572   0.385   8.029 -0.3562  1.1590 -0.2354
 6176SOL     OW29986   0.169   0.595   8.377 -0.8440 -0.2192 -0.1897
 6176SOL    HW129987   0.239   0.560   8.322 -1.0536  0.7263 -1.0666
 6176SOL    HW229988   0.201   0.587   8.467  0.2786  2.6962 -0.3472
 6177SOL     OW29989   0.975   1.834  14.585 -0.1987 -0.1061  1.1296
 6177SOL    HW129990   1.058   1.836  14.538 -1.2905  0.8040 -0.7772
 6177SOL    HW229991   1.009   1.887  14.658  1.3955 -2.4265  2.0880
 6178SOL     OW29992   1.651   0.705   8.404  0.5654  0.2639  0.3328
 6178SOL    HW129993   1.600   0.683   8.482  2.0033  1.9736  1.7690
 6178SOL    HW229994   1.736   0.664   8.422  2.2951  2.5264 -2.7841
 6179SOL     OW29995   1.776   3.119   5.804  0.0446 -0.3223 -0.2304
 6179SOL    HW129996   1.706   3.150   5.746  0.8607 -0.1279 -1.1192
 6179SOL    HW229997   1.771   3.187   5.871  0.2444  0.2145 -0.7561
 6180SOL     OW29998   3.791   3.858   8.391 -0.3830  0.0977 -0.0922
 6180SOL    HW129999   3.791   3.943   8.347 -2.6400  0.4815  0.6552
 6180SOL    HW230000   3.810   3.811   8.310 -0.4023  1.1726 -0.7154
 6181SOL     OW30001   0.192   0.170   0.125 -0.2851  0.1546 -0.0848
 6181SOL    HW130002   0.141   0.236   0.079 -1.8422 -0.4580  0.7554
 6181SOL    HW230003   0.172   0.094   0.070 -0.0460  1.5245 -2.0436
 6182SOL     OW30004   0.254   3.304  14.742 -1.0229 -0.6237  0.5857
 6182SOL    HW130005   0.343   3.274  14.761  0.3217  1.7766 -1.8998
 6182SOL    HW230006   0.272   3.397  14.729 -0.1816 -0.9810 -0.8433
 6183SOL     OW30007   2.041   2.153   3.996 -0.2706 -0.4199  0.2118
 6183SOL    HW130008   2.065   2.149   3.904 -0.1243  0.2682  0.2246
 6183SOL    HW230009   1.947   2.167   3.982 -0.5614 -0.2645  2.3484
 6184SOL     OW30010   1.330   1.057  13.013 -0.5462  0.5316  0.1668
 6184SOL    HW130011   1.236   1.076  13.014 -0.8889 -1.1888  0.1373
 6184SOL    HW230012   1.351   1.097  12.928  1.3802  0.1452  0.4704
 6185SOL     OW30013   1.054   2.359  17.083 -0.1403  0.1074  0.0686
 6185SOL    HW130014   1.141   2.320  17.076  1.2007  3.0838 -0.2047
 6185SOL    HW230015   1.021   2.310  17.158 -1.8703 -0.0204 -0.7757
 6186SOL     OW30016   2.684   2.337   6.982 -0.1926  1.0750  0.3854
 6186SOL    HW130017   2.668   2.263   7.042  0.9953  0.2035 -0.3667
 6186SOL    HW230018   2.693   2.291   6.899 -1.0054 -1.1878  1.5447
 6187SOL     OW30019   1.852   0.735   1.065 -0.0789 -0.1760  0.2904
 6187SOL    HW130020   1.785   0.764   1.127 -1.4012  0.9218 -1.6434
 6187SOL    HW230021   1.897   0.667   1.115 -0.6625 -0.2621  0.6978
 6188SOL     OW30022   1.606   3.722   4.565 -0.1563  0.7520 -0.3099
 6188SOL    HW130023   1.591   3.724   4.660  0.7880  1.6311 -0.1841
 6188SOL    HW230024   1.613   3.816   4.549 -0.1866  0.7728 -0.2034
 6189SOL     OW30025   4.703   1.712  15.565 -0.2774  0.0103  0.6684
 6189SOL    HW130026   0.019   1.662  15.491  1.0077  2.1770 -0.2088
 6189SOL    HW230027   4.651   1.644  15.607 -1.6525 -0.8420 -2.3668
 6190SOL     OW30028   4.202   4.156   5.967  0.1912  0.5931 -0.2487
 6190SOL    HW130029   4.180   4.083   5.909 -1.0121  1.0530 -0.3575
 6190SOL    HW230030   4.281   4.178   5.917  0.5013 -3.3420 -1.5017
 6191SOL     OW30031   2.025   4.312  12.286 -0.3554 -0.2525  0.1855
 6191SOL    HW130032   2.003   4.395  12.329 -1.9175 -0.6402  0.1252
 6191SOL    HW230033   2.032   4.333  12.193  0.0035 -1.6462 -0.0939
 6192SOL     OW30034   0.444   2.630   3.066 -0.5121 -0.1707  0.0190
 6192SOL    HW130035   0.492   2.551   3.091 -0.0829 -0.1680 -0.7782
 6192SOL    HW230036   0.354   2.596   3.065  0.1918 -2.0287  0.5474
 6193SOL     OW30037   3.296   3.836   3.233  0.2232  0.0017 -0.2033
 6193SOL    HW130038   3.257   3.818   3.319 -0.2006 -0.4982 -0.4979
 6193SOL    HW230039   3.276   3.929   3.219  0.7719 -0.0732 -1.4050
 6194SOL     OW30040   2.274   4.327  11.698 -0.1514 -0.3506  0.0002
 6194SOL    HW130041   2.308   4.416  11.706 -0.3538 -0.2150 -0.6490
 6194SOL    HW230042   2.202   4.323  11.761 -1.0394  0.6509 -0.9548
 6195SOL     OW30043   3.402   0.439   7.226 -0.2744  0.3181  0.3856
 6195SOL    HW130044   3.461   0.398   7.289  0.8007 -2.2231 -2.3034
 6195SOL    HW230045   3.367   0.518   7.269 -2.5824 -0.0242 -0.8773
 6196SOL     OW30046   4.214   0.827   6.112 -0.4986 -0.0949  0.3657
 6196SOL    HW130047   4.278   0.818   6.042 -0.4449  1.0593  0.2591
 6196SOL    HW230048   4.154   0.894   6.081 -1.6988 -0.7118  1.3570
 6197SOL     OW30049   0.366   3.118   6.677 -0.4380 -0.5362  0.9334
 6197SOL    HW130050   0.316   3.163   6.608 -0.3139 -1.2370  0.3868
 6197SOL    HW230051   0.418   3.195   6.701  0.0768 -0.5524 -0.1259
 6198SOL     OW30052   4.677   1.303  17.261  0.2504 -0.3689 -1.0978
 6198SOL    HW130053   4.687   1.378  17.202  2.8247  0.2402  0.1104
 6198SOL    HW230054   0.008   1.237  17.214  1.1479  2.4800 -4.1316
 6199SOL     OW30055   1.988   2.571   5.476 -0.3999 -0.3174  0.1159
 6199SOL    HW130056   2.081   2.567   5.495 -0.2566 -1.7457 -0.9440
 6199SOL    HW230057   1.947   2.617   5.550 -2.3569 -1.0070 -0.5311
 6200SOL     OW30058   1.899   0.234   6.098  0.4109  0.2132  0.4168
 6200SOL    HW130059   1.886   0.304   6.161 -0.2897  1.8522 -1.5615
 6200SOL    HW230060   1.973   0.267   6.047  1.2111 -0.4553  1.1648
 6201SOL     OW30061   2.806   1.159   5.983  0.1037 -0.6435  0.2525
 6201SOL    HW130062   2.798   1.064   5.990 -2.1296 -0.5717 -1.4781
 6201SOL    HW230063   2.730   1.172   5.925 -1.6266 -4.6884  1.6130
 6202SOL     OW30064   0.963   2.854   6.416  0.3833  0.0335 -0.8807
 6202SOL    HW130065   0.898   2.784   6.409 -0.9056  1.0548  0.6994
 6202SOL    HW230066   1.042   2.802   6.397  0.3707 -0.4607  0.4063
 6203SOL     OW30067   4.460   0.110  13.301 -0.4126  0.4092 -0.1110
 6203SOL    HW130068   4.471   0.096  13.207 -2.4482  0.2413 -0.3265
 6203SOL    HW230069   4.533   0.172  13.303 -0.6867  0.6790  1.5030
 6204SOL     OW30070   3.124   3.232  14.793 -0.1657 -0.2529 -0.3093
 6204SOL    HW130071   3.056   3.169  14.815 -0.7887 -0.9134 -4.1771
 6204SOL    HW230072   3.101   3.315  14.835  1.7180 -0.0206  0.2673
 6205SOL     OW30073   4.114   0.667   1.574 -0.0955  0.1629 -0.1532
 6205SOL    HW130074   4.139   0.581   1.542  1.4145  0.7740 -0.6624
 6205SOL    HW230075   4.152   0.734   1.516  0.9603 -2.3979 -2.4099
 6206SOL     OW30076   4.116   2.124   5.767  0.3423  0.0171 -0.1548
 6206SOL    HW130077   4.117   2.187   5.695 -0.9303  0.5540  0.3019
 6206SOL    HW230078   4.052   2.061   5.735  0.6330 -0.3304 -0.0538
 6207SOL     OW30079   4.276   4.339  16.196 -0.3299 -0.3512 -0.5403
 6207SOL    HW130080   4.220   4.408  16.234  1.0386  0.7185 -0.4765
 6207SOL    HW230081   4.266   4.260  16.248  1.6675 -1.4459 -1.8686
 6208SOL     OW30082   2.027   0.327   6.565  0.4732  0.3803 -0.3204
 6208SOL    HW130083   2.040   0.235   6.542 -1.7883 -0.5488  2.0897
 6208SOL    HW230084   1.932   0.339   6.575  0.5669 -0.0833  1.0329
 6209SOL     OW30085   3.589   3.982   4.375  0.3181 -0.1357  0.0432
 6209SOL    HW130086   3.507   4.016   4.338 -1.0540 -1.0122  2.2982
 6209SOL    HW230087   3.645   4.032   4.315 -0.0049 -0.1042 -0.2379
 6210SOL     OW30088   2.616   3.634   6.698  0.3982  0.2352 -0.3380
 6210SOL    HW130089   2.607   3.649   6.604  1.5062 -0.0915 -0.4908
 6210SOL    HW230090   2.619   3.539   6.706  1.0889  0.1329 -1.8746
 6211SOL     OW30091   3.881   0.431  16.990 -0.3932 -0.2080 -0.2120
 6211SOL    HW130092   3.821   0.374  17.038 -1.5645  1.2330  0.0589
 6211SOL    HW230093   3.954   0.378  16.958 -0.2107 -0.9644  1.4792
 6212SOL     OW30094   2.307   0.768   4.541  0.2942  0.5255 -0.6280
 6212SOL    HW130095   2.374   0.725   4.595 -1.8992 -2.4220 -0.2527
 6212SOL    HW230096   2.287   0.851   4.585  2.4932  0.8927 -0.3409
 6213SOL     OW30097   1.641   2.055   7.241 -0.0656 -0.0466 -0.3013
 6213SOL    HW130098   1.570   2.115   7.262  0.4736 -0.0947  1.6966
 6213SOL    HW230099   1.712   2.086   7.297  0.6181 -0.6006 -0.8573
 6214SOL     OW30100   0.576   3.849   3.982 -0.0677 -0.0387  0.5835
 6214SOL    HW130101   0.526   3.908   3.925 -0.0898  1.1572  1.8579
 6214SOL    HW230102   0.539   3.764   3.960  0.4329 -0.3246  0.8546
 6215SOL     OW30103   4.674   4.281   8.771 -0.5161 -0.0245  0.3797
 6215SOL    HW130104   4.645   4.190   8.764 -0.2274 -0.1367  0.6017
 6215SOL    HW230105   4.586   4.313   8.790  0.0261  1.4662  0.3444
 6216SOL     OW30106   1.013   3.350   6.020  0.1867 -0.0372 -0.9275
 6216SOL    HW130107   0.997   3.291   5.946  0.6059  0.0425 -1.0817
 6216SOL    HW230108   1.108   3.354   6.011  0.3243 -0.2526  0.5109
 6217SOL     OW30109   4.520   2.428   3.804 -0.3965  0.3899 -0.2824
 6217SOL    HW130110   4.502   2.399   3.893  0.2613 -0.9691 -0.5994
 6217SOL    HW230111   4.436   2.452   3.764 -1.8334 -2.2288  1.2252
 6218SOL     OW30112   1.971   3.185   2.601  0.2188 -0.2545  0.7449
 6218SOL    HW130113   1.915   3.246   2.648 -1.0476 -0.3850 -0.5924
 6218SOL    HW230114   1.970   3.108   2.659 -2.4551  0.4700  1.6423
 6219SOL     OW30115   0.770   4.474   7.846 -0.3553  0.3004 -0.7287
 6219SOL    HW130116   0.806   4.534   7.780  0.3346 -1.3644 -1.8470
 6219SOL    HW230117   0.850   4.466   7.899  0.6117 -0.8339 -2.3688
 6220SOL     OW30118   0.005   3.550   5.900 -0.1155  0.2494 -0.3853
 6220SOL    HW130119   0.100   3.560   5.887  0.0911 -1.8839 -0.3940
 6220SOL    HW230120   4.713   3.461   5.868 -2.2445 -0.0504  1.2266
 6221SOL     OW30121   3.978   4.002   8.150  0.1995 -0.4957 -0.6274
 6221SOL    HW130122   3.930   3.929   8.113  0.8046 -0.0202 -2.3604
 6221SOL    HW230123   3.986   4.058   8.073 -2.4151  0.1464 -0.4308
 6222SOL     OW30124   4.584   1.744  10.199  0.4664  0.2229  0.5575
 6222SOL    HW130125   4.642   1.696  10.258 -0.0155 -0.7738  0.2223
 6222SOL    HW230126   4.512   1.681  10.192  0.8579 -0.0471 -1.1100
 6223SOL     OW30127   3.382   2.893   2.120 -0.3292 -0.3331  0.2221
 6223SOL    HW130128   3.445   2.860   2.056  1.0892  3.1391 -0.2032
 6223SOL    HW230129   3.316   2.826   2.131 -0.8892  0.0641 -0.6932
 6224SOL     OW30130   2.074   2.268   1.304  0.2076 -0.6612  0.3412
 6224SOL    HW130131   2.148   2.309   1.260  0.4802 -1.5529 -0.0314
 6224SOL    HW230132   2.067   2.185   1.257 -1.4704 -0.3802  0.0987
 6225SOL     OW30133   4.221   3.339   1.290  0.4277 -0.1064 -0.3396
 6225SOL    HW130134   4.269   3.321   1.209  1.1992  3.1912 -0.6050
 6225SOL    HW230135   4.274   3.400   1.341  0.0409 -0.3155  0.3114
 6226SOL     OW30136   4.187   1.262   1.374  0.5854 -0.0088 -0.3601
 6226SOL    HW130137   4.196   1.313   1.454 -4.1379 -3.2808  2.2219
 6226SOL    HW230138   4.220   1.331   1.316  1.1466 -0.6473 -0.8024
 6227SOL     OW30139   4.566   0.471  10.359  0.5962  0.3993 -0.0902
 6227SOL    HW130140   4.487   0.426  10.329  1.5304  0.1836 -2.2545
 6227SOL    HW230141   4.578   0.534  10.288  0.6319 -0.6448 -1.0178
 6228SOL     OW30142   3.078   4.642   6.982  0.4705 -0.3881  0.0393
 6228SOL    HW130143   3.162   4.597   6.969 -0.1740 -1.3922 -0.6622
 6228SOL    HW230144   3.021   4.606   6.914  0.6800 -1.0721  0.2280
 6229SOL     OW30145   2.588   3.800   7.976 -0.1624 -0.0678  0.0021
 6229SOL    HW130146   2.559   3.708   7.974 -0.0182 -0.1135  0.0502
 6229SOL    HW230147   2.620   3.817   7.887 -1.0222 -0.1947 -0.3398
 6230SOL     OW30148   4.502   3.614  13.914 -0.2689  0.0358  0.0875
 6230SOL    HW130149   4.452   3.675  13.859 -1.1532 -1.2192 -0.4963
 6230SOL    HW230150   4.571   3.575  13.860 -1.0442 -2.3950  0.8357
 6231SOL     OW30151   0.577   0.687   1.467  0.4656 -0.1021 -0.7972
 6231SOL    HW130152   0.618   0.712   1.550 -0.8835 -0.5816  0.0262
 6231SOL    HW230153   0.536   0.605   1.495 -0.2704  0.2262 -0.9162
 6232SOL     OW30154   1.522   4.532   0.118 -0.7771 -0.4445  0.1860
 6232SOL    HW130155   1.482   4.574   0.194 -0.8025  0.0982 -0.1322
 6232SOL    HW230156   1.603   4.580   0.107 -1.5379  0.4457 -1.5316
 6233SOL     OW30157   3.945   2.237   2.926  0.1224  0.1245 -0.2226
 6233SOL    HW130158   3.873   2.243   2.864 -0.7278 -0.9912  0.6618
 6233SOL    HW230159   4.024   2.233   2.873 -0.8479 -1.2552 -1.5759
 6234SOL     OW30160   1.047   3.138  15.021  0.4569  0.7647 -0.1011
 6234SOL    HW130161   1.112   3.135  15.091 -0.8046  1.3353  1.0976
 6234SOL    HW230162   1.100   3.142  14.941 -0.9400  2.0837 -0.9625
 6235SOL     OW30163   3.241   0.968   5.633 -0.0493 -0.1444 -0.0729
 6235SOL    HW130164   3.165   0.942   5.685 -0.5933 -0.7350 -1.1733
 6235SOL    HW230165   3.307   0.985   5.700 -0.3163 -0.7230  0.3376
 6236SOL     OW30166   3.767   0.231   3.408  0.0722 -0.7091  0.1740
 6236SOL    HW130167   3.780   0.293   3.337 -0.2973 -1.3528 -0.4512
 6236SOL    HW230168   3.857   0.201   3.424  1.1188  1.8632 -1.0183
 6237SOL     OW30169   2.607   3.038   8.210  0.0666 -0.4169  0.1282
 6237SOL    HW130170   2.564   2.971   8.156  1.5727 -2.9874  2.1707
 6237SOL    HW230171   2.697   3.010   8.195  0.2536  0.5018 -0.5330
 6238SOL     OW30172   0.076   1.182   2.503 -0.4417  0.5551 -0.4054
 6238SOL    HW130173   0.143   1.126   2.541 -0.6015  0.9023  0.3779
 6238SOL    HW230174   0.003   1.128   2.535 -0.1517 -0.7729 -1.9672
 6239SOL     OW30175   4.026   2.894  14.763  0.2235 -0.3188  0.0548
 6239SOL    HW130176   4.084   2.833  14.716  3.1048  0.0510  3.1687
 6239SOL    HW230177   4.022   2.879  14.857  0.3855  2.6578  0.5315
 6240SOL     OW30178   1.171   3.398   5.335  0.6865  0.2314  0.5683
 6240SOL    HW130179   1.212   3.422   5.419  0.3383 -2.5397  1.5295
 6240SOL    HW230180   1.153   3.305   5.352  2.3937 -0.2666 -0.2873
 6241SOL     OW30181   4.459   2.814   3.305 -0.2919  1.0272  0.0633
 6241SOL    HW130182   4.398   2.864   3.360  0.4458  1.3062  0.6202
 6241SOL    HW230183   4.539   2.867   3.302  0.4387 -0.0364  1.0101
 6242SOL     OW30184   1.357   0.368   8.311  0.2184  0.1345  0.3401
 6242SOL    HW130185   1.371   0.445   8.367  1.2259 -0.1649  0.4845
 6242SOL    HW230186   1.344   0.300   8.378  1.1898  0.2859  0.6766
 6243SOL     OW30187   1.251   3.091  15.255 -0.2634  0.2442  0.1097
 6243SOL    HW130188   1.252   3.000  15.225 -1.5181  0.2665  0.0042
 6243SOL    HW230189   1.342   3.107  15.231 -1.0970  0.9749 -2.6328
 6244SOL     OW30190   3.182   1.522   6.935 -0.0327  0.1258 -0.0411
 6244SOL    HW130191   3.144   1.445   6.894 -0.0544 -1.3746  2.8136
 6244SOL    HW230192   3.212   1.485   7.017 -0.2401  0.8361  0.3576
 6245SOL     OW30193   1.617   4.546   4.936 -0.4853  0.6484 -0.5941
 6245SOL    HW130194   1.534   4.580   4.905 -1.2761  0.0232  0.8009
 6245SOL    HW230195   1.633   4.473   4.876  0.8601  0.6184 -0.2161
 6246SOL     OW30196   4.645   3.957   8.569 -0.4133  0.2052 -0.5169
 6246SOL    HW130197   4.701   3.905   8.512 -1.5970 -0.5488 -0.9853
 6246SOL    HW230198   4.633   4.034   8.514 -3.0153  0.0831 -0.1497
 6247SOL     OW30199   4.218   1.048  16.531  0.0196  0.1887  0.0344
 6247SOL    HW130200   4.142   0.991  16.536  0.1235  0.0705  0.2362
 6247SOL    HW230201   4.280   0.992  16.577 -1.4262  0.3501  2.1976
 6248SOL     OW30202   0.424   2.221   3.118 -0.0801 -0.3286  0.0036
 6248SOL    HW130203   0.474   2.191   3.042  1.0639  0.3716  0.4853
 6248SOL    HW230204   0.340   2.176   3.106 -1.2653  2.1964 -1.1916
 6249SOL     OW30205   3.462   3.167   6.637 -0.2375  0.2804  0.1833
 6249SOL    HW130206   3.387   3.123   6.596  1.8461 -1.2869 -1.9509
 6249SOL    HW230207   3.429   3.252   6.666 -1.2501  0.3362 -1.1207
 6250SOL     OW30208   1.112   2.352   6.695  0.1164 -0.1711 -0.4070
 6250SOL    HW130209   1.074   2.345   6.783 -0.6990 -0.1875 -0.7551
 6250SOL    HW230210   1.154   2.268   6.679 -0.2441 -0.6070  0.9673
 6251SOL     OW30211   2.175   2.385  16.937  0.4910  0.0474  0.5753
 6251SOL    HW130212   2.159   2.434  16.856 -1.6299 -0.8545  0.4380
 6251SOL    HW230213   2.122   2.308  16.915  2.0608 -0.8215 -0.1485
 6252SOL     OW30214   3.959   2.721   8.874 -0.1433 -0.0372 -0.4477
 6252SOL    HW130215   3.964   2.649   8.810  1.9922  0.3094 -0.6658
 6252SOL    HW230216   3.986   2.676   8.954  1.2981 -2.1846 -2.1002
 6253SOL     OW30217   2.381   3.632   4.657  0.9181  0.5175 -0.2176
 6253SOL    HW130218   2.441   3.569   4.697  0.6951  0.4422  0.0007
 6253SOL    HW230219   2.367   3.684   4.737  0.0185  0.9459 -0.6546
 6254SOL     OW30220   4.067   4.120   7.613 -0.1910 -0.4598  0.8513
 6254SOL    HW130221   4.071   4.068   7.694  1.8912 -1.9725 -0.2089
 6254SOL    HW230222   4.065   4.209   7.646  0.2447  0.0087 -0.3741
 6255SOL     OW30223   2.940   4.239  10.703 -0.7817  0.1658  0.0900
 6255SOL    HW130224   2.949   4.333  10.686  2.2235 -0.2905 -0.9400
 6255SOL    HW230225   3.027   4.218  10.738 -0.7884  0.6000  0.3630
 6256SOL     OW30226   3.492   1.537  16.873 -0.6331  0.1290 -0.6616
 6256SOL    HW130227   3.549   1.614  16.880 -1.2115  0.7552 -2.7652
 6256SOL    HW230228   3.500   1.515  16.965 -1.3285 -3.5919 -1.4644
 6257SOL     OW30229   3.413   3.483   4.400 -0.7110  0.0529  0.2935
 6257SOL    HW130230   3.471   3.559   4.408  1.9638 -1.9400 -0.2707
 6257SOL    HW230231   3.376   3.504   4.314 -1.2866 -3.3680 -0.3104
 6258SOL     OW30232   1.810   3.501  15.701  0.3905  0.7993  0.9106
 6258SOL    HW130233   1.806   3.480  15.794  0.7660 -3.5970 -0.0664
 6258SOL    HW230234   1.897   3.540  15.692  0.8389 -0.7566 -1.4627
 6259SOL     OW30235   1.895   0.815  17.134  0.0058  0.9783 -0.9128
 6259SOL    HW130236   1.932   0.903  17.134  0.4387  0.7936 -0.6943
 6259SOL    HW230237   1.942   0.783  17.211  1.2472  2.3933 -1.0791
 6260SOL     OW30238   4.005   1.116   4.869  0.3316  0.4735  0.0336
 6260SOL    HW130239   3.977   1.204   4.843 -2.3897  0.0889  1.6772
 6260SOL    HW230240   4.003   1.064   4.789  0.4048 -1.5716  1.3753
 6261SOL     OW30241   2.086   1.660  11.591 -0.0990  0.1830 -0.0032
 6261SOL    HW130242   2.097   1.755  11.586 -2.0632  0.4556  0.9319
 6261SOL    HW230243   2.120   1.637  11.505 -1.3339  0.6554 -0.6182
 6262SOL     OW30244   3.925   3.594   1.091 -0.1165  0.3309 -0.0377
 6262SOL    HW130245   3.884   3.551   1.016  1.0705  1.5776 -1.3946
 6262SOL    HW230246   4.015   3.599   1.061  0.0037  3.1492  0.7854
 6263SOL     OW30247   1.733   1.101   7.166  0.9345 -0.0259 -0.0512
 6263SOL    HW130248   1.656   1.044   7.157  0.0261  1.2241 -0.3145
 6263SOL    HW230249   1.775   1.059   7.240 -0.8829 -1.5339  0.1390
 6264SOL     OW30250   3.998   0.903   5.793 -0.0489 -0.5102 -0.0162
 6264SOL    HW130251   4.025   0.826   5.742  0.1779 -1.5213  1.6203
 6264SOL    HW230252   3.987   0.863   5.879  1.9095 -1.8582 -0.3974
 6265SOL     OW30253   2.900   0.977   8.954  0.1939  0.6213 -0.1270
 6265SOL    HW130254   2.984   0.974   8.910  0.3323 -0.1974  0.1906
 6265SOL    HW230255   2.891   0.888   8.989  1.4928  0.5625  0.0592
 6266SOL     OW30256   0.285   4.268   7.847 -0.2776  1.3161  0.0827
 6266SOL    HW130257   0.192   4.290   7.843 -0.5901 -0.0398 -0.2575
 6266SOL    HW230258   0.309   4.342   7.903  0.2412 -0.3643  2.1145
 6267SOL     OW30259   2.601   3.831  13.678 -0.4285  0.2947 -0.6205
 6267SOL    HW130260   2.578   3.924  13.679 -1.3386  0.1079 -2.7132
 6267SOL    HW230261   2.693   3.818  13.701 -0.4660 -0.6846 -1.0320
 6268SOL     OW30262   2.086   1.053   6.732 -0.0672 -0.4035  0.3071
 6268SOL    HW130263   2.171   1.017   6.756  0.3819  0.2887 -0.2131
 6268SOL    HW230264   2.075   1.042   6.637  0.0582  2.1285 -0.0012
 6269SOL     OW30265   3.515   3.320  13.528  0.5906 -0.7729  0.2583
 6269SOL    HW130266   3.603   3.357  13.515  0.7735 -1.5308 -0.6261
 6269SOL    HW230267   3.493   3.355  13.615 -1.4899 -0.0651 -0.5501
 6270SOL     OW30268   0.025   0.653   4.698 -0.0070 -0.3662  0.1210
 6270SOL    HW130269   4.673   0.710   4.727  0.2260  0.0943 -0.2127
 6270SOL    HW230270   4.694   0.621   4.623 -0.1277  2.5489 -1.0378
 6271SOL     OW30271   3.017   4.216   8.622 -0.2555  0.3973  0.5139
 6271SOL    HW130272   3.074   4.291   8.604  0.0756 -0.6449 -2.6420
 6271SOL    HW230273   2.968   4.262   8.690 -1.0011 -0.4336  0.5373
 6272SOL     OW30274   1.668   1.109  11.506 -0.0647  1.0012 -0.2754
 6272SOL    HW130275   1.676   1.204  11.516  1.3973  0.8022  0.3874
 6272SOL    HW230276   1.674   1.072  11.594  0.1477  1.7540  0.0246
 6273SOL     OW30277   3.809   4.339   8.517  0.3035  0.1428 -0.0700
 6273SOL    HW130278   3.758   4.257   8.518 -0.5488  0.7270  4.0517
 6273SOL    HW230279   3.864   4.307   8.445 -0.6663  1.0206 -1.1883
 6274SOL     OW30280   3.411   0.331   8.518 -0.5727  0.3834 -0.0408
 6274SOL    HW130281   3.328   0.287   8.536  0.6109 -1.1960  1.6740
 6274SOL    HW230282   3.462   0.265   8.471  0.1742  0.5370  0.5377
 6275SOL     OW30283   4.434   1.662  17.326 -0.2082 -0.1710  0.3214
 6275SOL    HW130284   4.480   1.598  17.271  1.4964  0.0307  1.5077
 6275SOL    HW230285   4.442   1.629  17.415 -0.2777  2.9240  1.4632
 6276SOL     OW30286   4.247   3.243  10.394  0.2632  0.2623  0.8673
 6276SOL    HW130287   4.209   3.330  10.385  0.5828  0.2557 -0.5703
 6276SOL    HW230288   4.262   3.230  10.300 -1.4382  1.4159  0.4483
 6277SOL     OW30289   0.593   4.325   2.236 -0.0627 -0.2619 -0.0918
 6277SOL    HW130290   0.634   4.266   2.299  1.7648 -0.7057 -1.7086
 6277SOL    HW230291   0.568   4.263   2.167  0.4322  1.1804 -1.5536
 6278SOL     OW30292   1.762   2.285  15.717  0.0311  0.5884  0.0659
 6278SOL    HW130293   1.674   2.258  15.692  0.5026 -0.6111 -0.3224
 6278SOL    HW230294   1.817   2.260  15.642 -0.4341  1.8938 -0.7149
 6279SOL     OW30295   0.936   0.145  12.531  0.2357  0.3022 -0.6096
 6279SOL    HW130296   0.854   0.099  12.549  1.3302 -0.6917  1.8694
 6279SOL    HW230297   0.980   0.083  12.474 -0.0068  1.7490 -2.3563
 6280SOL     OW30298   4.554   3.641  17.615 -0.5091 -0.0298 -0.0022
 6280SOL    HW130299   4.629   3.583  17.601  0.1599  0.8439 -0.0207
 6280SOL    HW230300   4.593   3.726  17.634 -0.0383 -0.5102  1.2004
 6281SOL     OW30301   1.267   2.952   9.441 -0.2619 -0.0700  0.4720
 6281SOL    HW130302   1.324   3.008   9.494  2.8481 -1.1295 -1.7887
 6281SOL    HW230303   1.235   3.022   9.385  0.4562 -0.2486 -0.1646
 6282SOL     OW30304   1.307   4.497   1.394  0.0852 -0.1438  0.1592
 6282SOL    HW130305   1.213   4.513   1.387 -0.2212 -1.7954  0.5816
 6282SOL    HW230306   1.333   4.524   1.481 -0.4283  2.0038 -0.3451
 6283SOL     OW30307   2.839   0.787   4.616  0.1711 -0.2243 -0.1469
 6283SOL    HW130308   2.859   0.708   4.566 -0.5144 -0.1788 -0.4920
 6283SOL    HW230309   2.793   0.832   4.545 -0.5332  0.5807  0.8322
 6284SOL     OW30310   4.667   0.498   7.021  0.6276 -0.0405 -0.0753
 6284SOL    HW130311   4.630   0.414   6.995 -1.5909  1.2013 -0.8329
 6284SOL    HW230312   4.600   0.537   7.077  0.2298  0.8376 -1.1805
 6285SOL     OW30313   1.424   4.098  11.096 -0.3508  0.1953 -0.2296
 6285SOL    HW130314   1.511   4.058  11.095  0.2104  1.4317 -0.7339
 6285SOL    HW230315   1.417   4.132  11.185  1.3294 -2.4414  0.8983
 6286SOL     OW30316   1.201   1.622  14.365  0.2079 -0.4684  0.0375
 6286SOL    HW130317   1.279   1.602  14.416  0.7092 -1.1312 -0.9757
 6286SOL    HW230318   1.146   1.543  14.370 -0.8332  0.2404 -0.1965
 6287SOL     OW30319   3.495   2.898   2.935 -0.3314 -0.0502  0.1278
 6287SOL    HW130320   3.565   2.837   2.912  0.9879  0.6818  2.1499
 6287SOL    HW230321   3.477   2.923   2.845 -0.1001 -2.0965 -0.4661
 6288SOL     OW30322   1.451   1.588   8.679  0.3835  0.2089 -0.3342
 6288SOL    HW130323   1.477   1.670   8.721  0.7617 -0.0936  0.0343
 6288SOL    HW230324   1.380   1.562   8.738  1.8970 -0.1226  1.3590
 6289SOL     OW30325   2.291   4.543   8.557 -0.1619  0.0763  0.0143
 6289SOL    HW130326   2.203   4.537   8.595  0.0993 -1.2552  0.4065
 6289SOL    HW230327   2.344   4.494   8.620  1.4766 -0.3884 -1.7325
 6290SOL     OW30328   2.589   0.024   0.688 -0.0037  0.3153  0.1936
 6290SOL    HW130329   2.621   0.088   0.625  0.5673  0.1774  0.3449
 6290SOL    HW230330   2.613   4.658   0.651 -0.3801  0.7433 -1.0487
 6291SOL     OW30331   2.662   2.922   8.499  0.2319  0.5130 -0.4269
 6291SOL    HW130332   2.701   2.855   8.444  1.7261  3.3171 -2.8239
 6291SOL    HW230333   2.626   2.975   8.428  2.1419  2.0549 -0.2618
 6292SOL     OW30334   0.156   4.046  15.145  0.3427  0.4194  0.3118
 6292SOL    HW130335   0.236   4.076  15.189 -0.4790  0.8938  1.4741
 6292SOL    HW230336   0.179   3.954  15.128 -0.0718  0.0982  1.5017
 6293SOL     OW30337   2.588   0.166  11.035  0.0716 -0.6337  0.2319
 6293SOL    HW130338   2.595   0.095  10.972 -0.0971 -0.2753 -0.1886
 6293SOL    HW230339   2.666   0.217  11.014 -0.7769  0.5440 -0.0775
 6294SOL     OW30340   4.108   2.038  15.024 -0.1464 -0.5016  1.0304
 6294SOL    HW130341   4.184   1.996  15.065  0.9816  0.9027  0.3919
 6294SOL    HW230342   4.151   2.097  14.962 -1.6229  2.3233  2.6756
 6295SOL     OW30343   1.721   1.714  13.278  0.2886  0.3175 -0.2729
 6295SOL    HW130344   1.707   1.621  13.292 -0.0758  0.3465 -0.4373
 6295SOL    HW230345   1.776   1.721  13.356 -1.5680  1.5535  0.9277
 6296SOL     OW30346   3.273   3.845   2.622 -0.1002 -0.2210  0.1044
 6296SOL    HW130347   3.337   3.860   2.552 -0.0421  1.7916  0.5728
 6296SOL    HW230348   3.236   3.763   2.589  0.9769 -0.3227 -0.8352
 6297SOL     OW30349   3.199   3.377   4.548  0.5547 -0.6065 -0.3738
 6297SOL    HW130350   3.165   3.462   4.575 -0.4991 -0.7232 -1.3508
 6297SOL    HW230351   3.281   3.403   4.505 -0.1416  2.2058  0.0039
 6298SOL     OW30352   3.471   0.909   5.246 -0.1909  0.0203  0.1719
 6298SOL    HW130353   3.389   0.862   5.261 -0.8423  0.6841 -1.2368
 6298SOL    HW230354   3.454   0.944   5.158  2.3937 -1.0669 -0.7643
 6299SOL     OW30355   4.509   1.741  16.733  0.3375 -0.0309  0.1689
 6299SOL    HW130356   4.589   1.753  16.683  0.8389 -0.6971  0.8224
 6299SOL    HW230357   4.520   1.770  16.824  1.2298  2.5277 -0.7449
 6300SOL     OW30358   3.658   2.452  10.682  0.5735 -0.4071  0.0854
 6300SOL    HW130359   3.683   2.541  10.706  1.7390 -0.6759 -0.1603
 6300SOL    HW230360   3.730   2.391  10.697 -0.3356 -1.7963 -1.1937
 6301SOL     OW30361   2.137   0.973   5.070 -0.0837 -0.0212 -0.1139
 6301SOL    HW130362   2.188   1.029   5.128  1.8056  0.1010 -1.9372
 6301SOL    HW230363   2.102   1.037   5.008  0.9658 -0.9199 -1.6198
 6302SOL     OW30364   1.847   4.501   7.450 -0.2209 -0.7738 -0.0355
 6302SOL    HW130365   1.812   4.418   7.483  0.9276 -1.1937  0.1180
 6302SOL    HW230366   1.786   4.525   7.381  1.1163 -0.4765 -1.1077
 6303SOL     OW30367   0.316   1.576   4.599 -0.0674  0.5373  0.2361
 6303SOL    HW130368   0.344   1.667   4.602  1.2608  0.2866 -3.7948
 6303SOL    HW230369   0.400   1.537   4.572 -2.1660 -2.2216 -2.2712
 6304SOL     OW30370   0.703   0.099  11.908  0.2740  0.2111  0.3238
 6304SOL    HW130371   0.639   0.147  11.855  0.1463 -0.1129  0.1839
 6304SOL    HW230372   0.702   0.157  11.984  1.0925  1.1375 -0.3825
 6305SOL     OW30373   0.313   1.722   8.000  0.0679 -0.1023 -0.7530
 6305SOL    HW130374   0.382   1.758   8.056 -1.1645  1.9067 -0.5116
 6305SOL    HW230375   0.238   1.740   8.057  2.0075 -1.1999  2.1216
 6306SOL     OW30376   3.181   3.435  15.239  0.3683  0.0366 -0.1273
 6306SOL    HW130377   3.146   3.360  15.192  1.7629 -1.3131  0.9838
 6306SOL    HW230378   3.223   3.401  15.318 -0.1150  0.9763  0.5356
 6307SOL     OW30379   0.032   1.594   5.830 -0.1005 -0.0202 -0.2272
 6307SOL    HW130380   0.012   1.504   5.858 -0.3401  0.5287  1.3443
 6307SOL    HW230381   0.125   1.586   5.808  0.1767  0.4838  0.7489
 6308SOL     OW30382   2.484   2.784   2.698  0.2273  0.2809 -0.1232
 6308SOL    HW130383   2.472   2.833   2.616  0.1263  2.3390  1.1242
 6308SOL    HW230384   2.551   2.835   2.744  1.5184 -1.6257  0.0769
 6309SOL     OW30385   2.457   4.591   8.943 -0.4726  0.5456 -0.1578
 6309SOL    HW130386   2.479   4.617   8.854 -1.6405  1.0418 -0.3028
 6309SOL    HW230387   2.390   4.526   8.927 -0.0497 -0.0760  0.5569
 6310SOL     OW30388   3.392   0.391   7.625  0.2712 -0.7137 -0.1037
 6310SOL    HW130389   3.321   0.357   7.570  0.2081  0.0611 -0.5037
 6310SOL    HW230390   3.467   0.388   7.566  0.5407  0.4627  0.1780
 6311SOL     OW30391   0.833   0.599   7.742 -0.2755 -0.4723 -0.5120
 6311SOL    HW130392   0.782   0.558   7.671 -0.5886 -0.6274 -0.1995
 6311SOL    HW230393   0.873   0.526   7.789 -1.3001 -1.9901 -1.9927
 6312SOL     OW30394   3.304   3.783  12.723  0.0605 -0.3167 -0.7603
 6312SOL    HW130395   3.219   3.750  12.694  0.6397 -1.8545 -0.7554
 6312SOL    HW230396   3.264   3.856  12.769  1.4540 -0.2558  0.3572
 6313SOL     OW30397   4.157   0.945   5.489 -0.2322  0.0253  0.1635
 6313SOL    HW130398   4.114   0.993   5.418  2.6042  1.3386 -0.6772
 6313SOL    HW230399   4.218   1.009   5.526 -3.8374  2.5106  1.8874
 6314SOL     OW30400   4.626   2.029   5.756  0.7055 -0.4996  0.4584
 6314SOL    HW130401   4.534   2.051   5.740  1.1018 -0.1839 -1.4674
 6314SOL    HW230402   4.664   2.104   5.710  0.7099 -0.3352  0.7287
 6315SOL     OW30403   1.251   2.056  12.130 -0.5064  0.4892  0.1757
 6315SOL    HW130404   1.216   1.991  12.190  1.6714  0.5471  1.5174
 6315SOL    HW230405   1.344   2.032  12.132 -0.4821  0.5669  0.0170
 6316SOL     OW30406   0.710   3.152   7.714 -0.6077  0.1078 -0.6305
 6316SOL    HW130407   0.804   3.147   7.731 -0.7757 -2.8918 -0.6921
 6316SOL    HW230408   0.688   3.059   7.717 -1.3089  0.3222  1.2701
 6317SOL     OW30409   1.127   4.140   4.881 -0.2782 -0.2445  0.4815
 6317SOL    HW130410   1.052   4.200   4.888 -0.8066 -1.0161  1.4800
 6317SOL    HW230411   1.135   4.153   4.786 -0.0066  2.5484  0.8934
 6318SOL     OW30412   0.465   4.212   5.669  0.0446 -0.5162  0.1366
 6318SOL    HW130413   0.458   4.228   5.763  2.6526  1.4318  0.0065
 6318SOL    HW230414   0.395   4.147   5.666 -1.2037  0.7530  1.5355
 6319SOL     OW30415   1.258   1.873   4.132 -0.6112 -0.3822  0.4174
 6319SOL    HW130416   1.179   1.858   4.080  0.0882 -0.2578 -0.6935
 6319SOL    HW230417   1.225   1.875   4.222  1.4019  1.6100  1.1121
 6320SOL     OW30418   1.096   2.140   0.350  0.3100  0.1137 -0.1050
 6320SOL    HW130419   1.102   2.056   0.305 -0.8889 -1.0594  1.9819
 6320SOL    HW230420   1.176   2.128   0.399  0.6758  0.8899 -0.5110
 6321SOL     OW30421   1.220   4.322   5.521  0.4901  0.2295 -0.0441
 6321SOL    HW130422   1.155   4.272   5.570  0.1590  0.9791  0.2837
 6321SOL    HW230423   1.259   4.387   5.580  1.6389  0.7509 -1.3690
 6322SOL     OW30424   1.034   0.201  17.644 -0.1577  0.1930 -0.0655
 6322SOL    HW130425   1.010   0.194   0.057 -1.0799 -1.5624 -0.4252
 6322SOL    HW230426   1.078   0.286  17.650  0.8033 -0.2789 -0.4811
 6323SOL     OW30427   1.490   3.849   8.643 -0.2199 -0.1304 -0.2218
 6323SOL    HW130428   1.459   3.883   8.726  1.6939 -0.5636  0.6686
 6323SOL    HW230429   1.575   3.893   8.632  1.1349 -2.6463  0.1561
 6324SOL     OW30430   0.702   4.304  11.295 -0.0262 -0.4109  0.0290
 6324SOL    HW130431   0.640   4.372  11.323 -1.6781 -1.6887 -0.5937
 6324SOL    HW230432   0.757   4.287  11.372 -0.3889 -1.6991 -0.0083
 6325SOL     OW30433   3.599   1.321   7.872 -0.2187  0.4595 -0.4010
 6325SOL    HW130434   3.552   1.320   7.789 -0.0643  2.0336 -0.5083
 6325SOL    HW230435   3.532   1.359   7.929 -1.0781  1.6743 -2.2173
 6326SOL     OW30436   4.215   1.188  16.893  0.7812 -0.7162  0.0395
 6326SOL    HW130437   4.136   1.231  16.924  0.4777 -0.0817 -1.6335
 6326SOL    HW230438   4.185   1.103  16.861  3.4394 -1.6942  0.0857
 6327SOL     OW30439   4.669   4.289   3.051 -0.4610  0.3752  0.1596
 6327SOL    HW130440   4.639   4.285   2.961  2.8429  1.6783 -0.9638
 6327SOL    HW230441   4.613   4.360   3.084  0.9279  1.0867  0.9908
 6328SOL     OW30442   2.242   0.453   5.384 -0.0385 -0.0571  0.7059
 6328SOL    HW130443   2.198   0.538   5.383 -1.1294 -0.6219 -0.6116
 6328SOL    HW230444   2.264   0.459   5.477 -0.0041 -1.4759  0.7817
 6329SOL     OW30445   2.443   0.576  15.649  0.1981  0.3217 -0.3996
 6329SOL    HW130446   2.381   0.618  15.708  0.3979 -1.7312  1.2345
 6329SOL    HW230447   2.476   0.657  15.608 -0.1206  0.9217  0.5406
 6330SOL     OW30448   1.973   2.777   2.316  0.2631  0.4594  0.0142
 6330SOL    HW130449   2.065   2.765   2.296  0.5551  0.3548  1.4797
 6330SOL    HW230450   1.956   2.869   2.292 -0.7826  0.1610 -0.3994
 6331SOL     OW30451   3.853   2.616   4.339  0.7758  0.4002  1.2189
 6331SOL    HW130452   3.865   2.596   4.246  0.7532  0.3737  1.2217
 6331SOL    HW230453   3.891   2.704   4.332 -0.4728  0.7785 -0.8834
 6332SOL     OW30454   0.462   4.268   6.234  0.4030  0.4022 -0.2023
 6332SOL    HW130455   0.443   4.341   6.293  1.4107 -0.1698  0.8273
 6332SOL    HW230456   0.404   4.200   6.270  1.0324  0.2576  0.5410
 6333SOL     OW30457   2.515   2.959   8.733 -0.2574  0.2509 -0.3235
 6333SOL    HW130458   2.525   3.045   8.775 -0.6905 -0.8927  2.1188
 6333SOL    HW230459   2.547   2.979   8.645 -1.3753  0.0300 -0.7730
 6334SOL     OW30460   1.836   1.623   3.309  0.0848 -0.2834  0.4153
 6334SOL    HW130461   1.847   1.678   3.232  3.8954  1.6347  2.2966
 6334SOL    HW230462   1.924   1.590   3.330  0.3071 -0.0724 -0.1738
 6335SOL     OW30463   3.449   3.671  10.782  0.5605 -0.2825 -0.2199
 6335SOL    HW130464   3.405   3.590  10.809 -0.1503  0.6561  1.4239
 6335SOL    HW230465   3.527   3.634  10.740  1.5583  0.0503  1.3651
 6336SOL     OW30466   4.277   2.487  14.261  0.1335  0.1890 -0.3088
 6336SOL    HW130467   4.349   2.483  14.324 -0.5876 -1.4450  0.4350
 6336SOL    HW230468   4.286   2.399  14.222 -1.6351  0.7046 -1.8971
 6337SOL     OW30469   0.080   3.009   5.635 -0.4838 -0.1384  0.1269
 6337SOL    HW130470   0.007   2.948   5.648 -1.3811  1.0786  0.7481
 6337SOL    HW230471   0.049   3.065   5.563 -0.4694  0.3760  0.5250
 6338SOL     OW30472   0.890   4.107   3.816  0.3006 -0.0916 -0.0462
 6338SOL    HW130473   0.981   4.088   3.792  0.8986  1.5737  0.8213
 6338SOL    HW230474   0.887   4.198   3.787 -2.4401 -0.1408  0.1171
 6339SOL     OW30475   0.682   2.185   7.126 -0.2384 -0.3886  0.0940
 6339SOL    HW130476   0.686   2.224   7.039 -2.1337  2.5731  1.3145
 6339SOL    HW230477   0.634   2.255   7.172 -0.1481 -0.3474  0.1244
 6340SOL     OW30478   1.138   2.310   5.453 -0.0645  0.1454  0.5663
 6340SOL    HW130479   1.206   2.358   5.406  0.0509 -0.1366  0.4430
 6340SOL    HW230480   1.121   2.367   5.528 -0.9652  0.9133 -0.2226
 6341SOL     OW30481   0.101   0.708  12.265  0.0085  0.4797  0.1876
 6341SOL    HW130482   0.137   0.665  12.343 -2.4978 -2.6133 -0.3664
 6341SOL    HW230483   0.159   0.784  12.264 -0.6049  0.9374 -0.1768
 6342SOL     OW30484   0.846   0.995   6.348 -0.6134 -0.4814 -0.1047
 6342SOL    HW130485   0.835   0.997   6.443 -0.9745  1.0280 -0.1739
 6342SOL    HW230486   0.853   1.087   6.322 -1.7672 -0.5003 -0.4947
 6343SOL     OW30487   0.775   1.693   3.177  0.2621 -0.0418  0.6059
 6343SOL    HW130488   0.823   1.723   3.100  0.1308 -0.1593  0.4805
 6343SOL    HW230489   0.691   1.676   3.136 -0.3097 -0.3722  1.9099
 6344SOL     OW30490   0.476   2.877   2.851 -0.5430 -0.4318  0.0510
 6344SOL    HW130491   0.473   2.784   2.828  1.5693  0.1259 -2.5095
 6344SOL    HW230492   0.406   2.909   2.794 -0.8791  0.0843  0.7722
 6345SOL     OW30493   1.148   4.686  15.394 -0.3309 -0.3681  0.1473
 6345SOL    HW130494   1.156   4.650  15.482 -1.4882  0.3403  0.5366
 6345SOL    HW230495   1.055   4.706  15.380 -0.0162 -0.2792 -1.8198
 6346SOL     OW30496   3.585   2.907   8.697 -0.3557 -0.7724 -0.2752
 6346SOL    HW130497   3.571   3.002   8.690 -0.8229 -0.9688 -1.8247
 6346SOL    HW230498   3.667   2.903   8.747  0.7914  2.0410 -1.8960
 6347SOL     OW30499   2.372   3.539   8.330 -0.2362 -0.2983 -0.4448
 6347SOL    HW130500   2.367   3.465   8.269  1.9241 -0.1248 -0.8292
 6347SOL    HW230501   2.303   3.602   8.307 -0.4069  0.1814  1.3741
 6348SOL     OW30502   2.426   2.614   0.562 -0.5883  0.2719  0.4901
 6348SOL    HW130503   2.519   2.589   0.568 -0.3275  0.6095 -2.1384
 6348SOL    HW230504   2.417   2.629   0.468 -0.2411 -1.3218  0.2087
 6349SOL     OW30505   2.548   0.225   4.800  0.5198 -0.7810 -0.4672
 6349SOL    HW130506   2.492   0.222   4.878  1.4064 -0.2239  0.1882
 6349SOL    HW230507   2.624   0.196   4.850  0.8513  0.2886 -0.3510
 6350SOL     OW30508   4.219   3.631   9.721 -0.2488 -0.9000 -0.5836
 6350SOL    HW130509   4.136   3.603   9.758  0.9291 -1.2827  1.7555
 6350SOL    HW230510   4.271   3.558   9.756  0.9507  0.9139  1.4252
 6351SOL     OW30511   0.216   2.860   7.211  0.1265  0.0493 -0.4271
 6351SOL    HW130512   0.310   2.842   7.206 -0.1620 -1.0029 -2.1447
 6351SOL    HW230513   0.214   2.953   7.186 -0.9152 -0.2885 -1.6101
 6352SOL     OW30514   0.599   0.213   8.861 -0.0476  0.1327  0.3532
 6352SOL    HW130515   0.532   0.211   8.930 -1.2636 -4.3688 -0.9403
 6352SOL    HW230516   0.619   0.121   8.845  2.2635  0.5580  0.8227
 6353SOL     OW30517   0.479   1.603   1.545  0.0200  0.0448  0.1514
 6353SOL    HW130518   0.466   1.519   1.500  0.3329  0.3859 -0.5670
 6353SOL    HW230519   0.554   1.584   1.601  0.0889 -1.0795 -0.3111
 6354SOL     OW30520   1.797   0.362   8.365  0.1637 -0.3203  0.1826
 6354SOL    HW130521   1.713   0.360   8.318 -0.1135  1.0634  0.5864
 6354SOL    HW230522   1.777   0.408   8.447 -1.9470  0.6902 -0.8814
 6355SOL     OW30523   1.943   3.232   4.439  0.3528 -0.6073 -0.5194
 6355SOL    HW130524   1.913   3.266   4.524 -0.6831 -0.6563 -0.8752
 6355SOL    HW230525   1.957   3.313   4.389  0.9133  1.1877  2.4638
 6356SOL     OW30526   2.113   3.157   6.072 -0.0892  0.1132  0.3166
 6356SOL    HW130527   2.089   3.182   5.983  0.1652  2.0155  0.7888
 6356SOL    HW230528   2.049   3.086   6.084  2.4040 -2.2990 -0.7537
 6357SOL     OW30529   3.626   1.146   2.209  0.7163  0.0220  0.8474
 6357SOL    HW130530   3.680   1.223   2.227 -1.5957  1.8721 -0.1629
 6357SOL    HW230531   3.627   1.134   2.114 -1.5265  0.9749  0.7134
 6358SOL     OW30532   1.739   2.563  12.695 -0.5118 -0.3464  0.2578
 6358SOL    HW130533   1.672   2.495  12.691 -1.3177  0.3267  2.2656
 6358SOL    HW230534   1.809   2.523  12.746  0.5083 -0.5011 -1.2854
 6359SOL     OW30535   2.496   2.070  11.729 -0.1314 -0.0955  0.0503
 6359SOL    HW130536   2.548   2.104  11.656  0.3960 -0.0368  0.4548
 6359SOL    HW230537   2.450   1.991  11.698 -0.3089  0.0439 -0.0433
 6360SOL     OW30538   2.816   3.594   4.282 -0.1534  0.2042  0.1059
 6360SOL    HW130539   2.750   3.630   4.342 -0.9135  0.8770 -1.1393
 6360SOL    HW230540   2.803   3.500   4.294  1.1573  0.0517  0.2890
 6361SOL     OW30541   0.901   2.663   3.471  0.7569  0.2081 -0.2073
 6361SOL    HW130542   0.811   2.676   3.503  0.8937  1.0472 -0.1610
 6361SOL    HW230543   0.908   2.756   3.450  0.2982  0.0911 -0.8583
 6362SOL     OW30544   4.113   2.303   8.778  0.2922 -0.0484  0.2155
 6362SOL    HW130545   4.075   2.361   8.713 -1.5238  0.1734  1.4738
 6362SOL    HW230546   4.099   2.352   8.859  0.3202 -0.2686  0.3549
 6363SOL     OW30547   0.282   4.033   0.509 -0.2887  0.5245 -0.1165
 6363SOL    HW130548   0.193   4.063   0.491 -0.4716  0.6449  1.0012
 6363SOL    HW230549   0.261   3.972   0.579 -3.1573  0.9619 -0.6015
 6364SOL     OW30550   0.015   4.274   4.749 -0.3190 -0.5540  0.2706
 6364SOL    HW130551   4.670   4.314   4.691 -0.4940 -2.6476 -0.9752
 6364SOL    HW230552   4.677   4.216   4.800  2.1589 -2.0254  1.3416
 6365SOL     OW30553   0.019   2.290   4.863  0.2998 -0.1265 -0.0133
 6365SOL    HW130554   0.087   2.250   4.917  1.6403  0.7330 -1.0635
 6365SOL    HW230555   4.657   2.249   4.892 -0.6726  0.8102 -1.3857
 6366SOL     OW30556   0.170   3.628  14.089  0.6160 -0.3700 -0.1144
 6366SOL    HW130557   0.168   3.684  14.167 -0.2717 -0.4320 -0.0925
 6366SOL    HW230558   0.259   3.595  14.104  1.5038  1.7953 -0.5401
 6367SOL     OW30559   3.925   2.089   8.624 -0.0302  0.3518 -0.3835
 6367SOL    HW130560   3.961   2.174   8.650  1.6420 -0.5799  0.3588
 6367SOL    HW230561   3.993   2.076   8.559  1.1784 -0.0694  0.9492
 6368SOL     OW30562   2.888   2.034   5.724 -0.2190 -0.5758 -0.0888
 6368SOL    HW130563   2.845   2.062   5.805 -1.8277 -0.2037 -1.0905
 6368SOL    HW230564   2.841   2.075   5.651 -0.2311  0.9710  0.7843
 6369SOL     OW30565   0.806   0.058  10.813 -0.0676  0.3807 -0.9129
 6369SOL    HW130566   0.771   4.702  10.862 -2.1829  1.8607 -0.1616
 6369SOL    HW230567   0.742   0.058  10.741 -2.6040  0.8337  1.3386
 6370SOL     OW30568   1.827   0.440   2.585  0.1262 -0.0405 -0.2661
 6370SOL    HW130569   1.880   0.519   2.581 -1.1076  0.8085  0.0931
 6370SOL    HW230570   1.777   0.465   2.663 -0.9710 -0.8157 -0.7161
 6371SOL     OW30571   1.730   1.872   8.364 -0.2677 -0.0126 -0.3265
 6371SOL    HW130572   1.695   1.864   8.452 -0.8173 -4.3454 -0.9711
 6371SOL    HW230573   1.763   1.962   8.367  1.2929 -0.7025  2.6863
 6372SOL     OW30574   1.874   4.177  14.597  0.4227 -0.2079  0.4852
 6372SOL    HW130575   1.855   4.233  14.521  2.0363  1.1015  1.0485
 6372SOL    HW230576   1.941   4.238  14.629  1.3138 -0.4332 -0.9422
 6373SOL     OW30577   0.298   1.883  13.827 -0.2960 -0.0372 -0.9271
 6373SOL    HW130578   0.389   1.913  13.824 -0.4555  0.2355 -2.8999
 6373SOL    HW230579   0.252   1.958  13.865 -1.6718 -1.6440  0.6184
 6374SOL     OW30580   2.351   0.980   3.144 -0.0523 -0.1128  0.5419
 6374SOL    HW130581   2.409   1.007   3.215  2.8678 -1.1338 -1.4491
 6374SOL    HW230582   2.270   0.958   3.191 -0.0223  1.4937  1.3789
 6375SOL     OW30583   1.417   3.432   8.060 -0.6380  0.3958 -0.3367
 6375SOL    HW130584   1.480   3.489   8.104  2.3592 -4.1928  1.2693
 6375SOL    HW230585   1.462   3.444   7.977  0.0641  0.0929  0.0021
 6376SOL     OW30586   2.604   0.643   2.414  0.0019  0.3960 -0.2194
 6376SOL    HW130587   2.673   0.707   2.394  0.0342  0.2462 -0.5936
 6376SOL    HW230588   2.668   0.572   2.419 -0.3920  0.0184 -0.5147
 6377SOL     OW30589   4.308   4.689   6.042  0.1628  0.4505  0.3682
 6377SOL    HW130590   4.311   4.618   6.105  1.6847 -0.8172 -1.1070
 6377SOL    HW230591   4.267   4.649   5.965 -2.1047  0.4116  1.6094
 6378SOL     OW30592   0.202   1.354   5.576 -0.2558 -0.7325 -0.5980
 6378SOL    HW130593   0.249   1.433   5.550 -0.7069  0.2753  1.6192
 6378SOL    HW230594   0.207   1.311   5.491  1.3803 -0.0377 -0.8615
 6379SOL     OW30595   3.757   1.032   4.201  0.1318  0.0852  0.1160
 6379SOL    HW130596   3.781   1.068   4.286  0.9120  1.5782 -0.7537
 6379SOL    HW230597   3.665   1.055   4.191  0.7305  2.0048 -0.8402
 6380SOL     OW30598   0.706   0.184  13.913  0.1136 -0.0066  0.3417
 6380SOL    HW130599   0.682   0.115  13.851 -1.6695  0.6101  0.3454
 6380SOL    HW230600   0.618   0.216  13.932  0.5064 -0.0029  2.1664
 6381SOL     OW30601   3.217   2.047   6.615  0.7210 -0.3186  0.2243
 6381SOL    HW130602   3.173   2.128   6.641 -0.4281 -1.2561  1.2042
 6381SOL    HW230603   3.203   1.991   6.692  0.2921  2.2261  2.0168
 6382SOL     OW30604   1.861   2.188   6.974  0.5124  0.0466 -0.1821
 6382SOL    HW130605   1.940   2.236   6.948  0.9291 -0.8978 -0.6857
 6382SOL    HW230606   1.860   2.199   7.069 -1.6103  2.5409 -0.5137
 6383SOL     OW30607   2.807   0.947   4.885 -0.1215 -0.0774 -0.1146
 6383SOL    HW130608   2.858   0.873   4.917  0.4033 -0.0107 -0.7780
 6383SOL    HW230609   2.868   1.007   4.842 -0.6901  1.5663  1.3661
 6384SOL     OW30610   3.924   0.808   9.838  0.1988  0.1638  0.4017
 6384SOL    HW130611   3.855   0.814   9.904  0.3302  1.1693  0.4434
 6384SOL    HW230612   3.887   0.753   9.768  1.2500  0.6790 -0.5536
 6385SOL     OW30613   4.194   3.954   2.497 -0.2258 -0.6697 -0.0915
 6385SOL    HW130614   4.222   4.008   2.571  0.3751 -0.9738 -0.1013
 6385SOL    HW230615   4.182   3.873   2.545  3.7824 -2.2382 -1.7638
 6386SOL     OW30616   3.122   3.775  13.040  0.5287  0.3426 -0.1044
 6386SOL    HW130617   3.130   3.870  13.034 -0.5658  0.4674  0.4782
 6386SOL    HW230618   3.133   3.756  13.133 -0.2653  3.0872  0.5495
 6387SOL     OW30619   0.580   2.918   7.761 -0.4879 -0.1285  0.0245
 6387SOL    HW130620   0.489   2.945   7.767 -0.2875  0.3129  0.9741
 6387SOL    HW230621   0.589   2.855   7.833 -1.7488  1.4755  1.5660
 6388SOL     OW30622   4.112   1.382   2.366 -0.4179  0.0390  0.0910
 6388SOL    HW130623   4.104   1.467   2.410  2.1361  1.2246 -1.7700
 6388SOL    HW230624   4.025   1.356   2.334 -0.4413 -1.1905  1.1455
 6389SOL     OW30625   3.842   3.583  12.341  0.8463 -0.5801 -0.1804
 6389SOL    HW130626   3.917   3.621  12.296 -1.2529  0.1123 -3.0835
 6389SOL    HW230627   3.833   3.620  12.429 -1.7392  2.8134 -1.8748
 6390SOL     OW30628   3.811   1.168   0.237  0.5373  0.2290  0.1095
 6390SOL    HW130629   3.823   1.082   0.277  2.0811 -0.2523 -1.4099
 6390SOL    HW230630   3.726   1.198   0.269 -0.8588 -0.9845 -2.4792
 6391SOL     OW30631   3.472   0.003  12.343  0.0276  0.6686 -0.0091
 6391SOL    HW130632   3.379   4.709  12.362  0.0283  0.6512 -0.0175
 6391SOL    HW230633   3.500   4.632  12.326 -0.4025  0.3974  0.7469
 6392SOL     OW30634   2.835   2.792   8.304 -0.0084 -0.2905  0.2259
 6392SOL    HW130635   2.834   2.859   8.235 -0.1179 -0.5098  0.0131
 6392SOL    HW230636   2.868   2.716   8.256  2.1378  1.8338 -1.6519
 6393SOL     OW30637   0.551   3.344  11.110  0.1721  0.2496  0.1599
 6393SOL    HW130638   0.503   3.339  11.192  0.6845 -2.0876  0.2989
 6393SOL    HW230639   0.632   3.378  11.147  0.5707  0.7602 -1.1582
 6394SOL     OW30640   3.338   2.368  14.828  0.0797 -0.3503  0.0091
 6394SOL    HW130641   3.420   2.363  14.877  0.3842 -0.5110 -0.5082
 6394SOL    HW230642   3.291   2.437  14.874 -3.0196 -2.1396 -0.4331
 6395SOL     OW30643   2.018   4.565   7.650  0.9027  0.3585  0.0283
 6395SOL    HW130644   1.981   4.643   7.692 -2.6315 -1.6811  0.6002
 6395SOL    HW230645   1.961   4.555   7.574  1.7184 -2.7199 -0.1560
 6396SOL     OW30646   2.667   1.947   0.209  0.0683 -0.1648  0.0699
 6396SOL    HW130647   2.712   2.030   0.194  1.2519 -0.8093  0.0582
 6396SOL    HW230648   2.593   1.951   0.148 -0.9984  0.2798  1.3889
 6397SOL     OW30649   3.913   2.382   7.507  0.6734 -0.0546 -0.0257
 6397SOL    HW130650   3.982   2.327   7.470  1.5099  0.5886  0.6144
 6397SOL    HW230651   3.876   2.330   7.578  1.8067 -0.0597  0.5510
 6398SOL     OW30652   1.003   4.508  12.083 -0.2936  0.6244  0.2597
 6398SOL    HW130653   0.962   4.540  12.003  2.7041  0.1468 -1.4897
 6398SOL    HW230654   1.069   4.577  12.082  0.5568 -0.1863  0.1775
 6399SOL     OW30655   0.792   1.931   4.290  0.0372 -0.0098 -0.6921
 6399SOL    HW130656   0.738   1.852   4.291  0.4740 -0.2741  1.8611
 6399SOL    HW230657   0.863   1.901   4.348  0.8559  2.1027 -0.6202
 6400SOL     OW30658   1.168   0.303   9.638 -0.7099 -0.1211  0.4802
 6400SOL    HW130659   1.113   0.340   9.569 -0.6944 -2.2713 -0.6904
 6400SOL    HW230660   1.094   0.270   9.689 -1.6433 -0.6083 -1.1906
 6401SOL     OW30661   0.013   2.114  15.622 -0.0727 -0.2343 -0.0942
 6401SOL    HW130662   4.638   2.119  15.603  0.6347  3.1837 -2.7040
 6401SOL    HW230663   0.025   2.206  15.645  0.2223 -0.5907  1.1637
 6402SOL     OW30664   1.981   1.311   5.662 -0.1006 -0.0594  0.7006
 6402SOL    HW130665   1.893   1.338   5.637 -1.0874 -3.8591 -0.0125
 6402SOL    HW230666   2.037   1.363   5.605 -0.3672 -0.7108 -0.1555
 6403SOL     OW30667   2.327   4.317   4.766 -0.0922 -0.0007 -0.8554
 6403SOL    HW130668   2.364   4.394   4.809  0.1774  0.1083 -1.2766
 6403SOL    HW230669   2.265   4.348   4.700  0.1869 -0.0555 -1.1451
 6404SOL     OW30670   0.531   3.428  15.888 -0.0857 -0.0582  0.0416
 6404SOL    HW130671   0.528   3.516  15.850 -0.4081 -0.6030 -1.1857
 6404SOL    HW230672   0.626   3.411  15.892  0.3807  1.9107 -2.4852
 6405SOL     OW30673   2.955   0.395   7.203 -0.0413 -0.6060 -0.3761
 6405SOL    HW130674   3.003   0.465   7.246 -0.9504  1.0981 -2.1326
 6405SOL    HW230675   3.024   0.329   7.191  2.0815  1.6536 -0.3929
 6406SOL     OW30676   4.659   0.704  13.777  0.3593  0.5649 -0.5311
 6406SOL    HW130677   4.627   0.738  13.693 -0.3760 -0.5764 -0.7256
 6406SOL    HW230678   4.713   0.633  13.742  2.6793  1.0896  2.0649
 6407SOL     OW30679   1.494   0.659   0.331 -0.2795 -0.1283  0.3522
 6407SOL    HW130680   1.538   0.586   0.287 -0.8366 -0.5390  0.4830
 6407SOL    HW230681   1.550   0.671   0.408 -0.7814  0.4910  0.6154
 6408SOL     OW30682   4.096   1.040   4.022 -0.1413  0.2647 -0.0601
 6408SOL    HW130683   4.041   1.118   4.017  0.6291  0.7142 -1.4987
 6408SOL    HW230684   4.047   1.003   3.949  2.5338 -2.1984 -0.6202
 6409SOL     OW30685   2.683   4.480   6.713 -0.5101 -0.6512 -0.5569
 6409SOL    HW130686   2.640   4.456   6.795  1.4350 -0.4813  0.5100
 6409SOL    HW230687   2.705   4.571   6.736 -1.5743 -0.4509 -0.3305
 6410SOL     OW30688   2.065   1.361  14.329  0.4651  0.2978  0.0991
 6410SOL    HW130689   2.092   1.398  14.413 -0.2179 -0.2582  0.5644
 6410SOL    HW230690   2.079   1.273  14.365  0.2738 -0.2995 -1.3039
 6411SOL     OW30691   4.397   0.393   1.859  0.2293  0.0155  0.1590
 6411SOL    HW130692   4.408   0.399   1.764 -1.5967 -1.5982 -0.1528
 6411SOL    HW230693   4.308   0.427   1.872 -0.4075 -1.0144 -1.4252
 6412SOL     OW30694   2.242   0.110   5.515  0.1893 -0.3573  0.5108
 6412SOL    HW130695   2.261   0.204   5.519  2.2327 -0.7776  0.6639
 6412SOL    HW230696   2.194   0.088   5.595  3.9672  0.2208  2.9637
 6413SOL     OW30697   3.569   0.229   5.125 -0.1594  0.0560  0.3288
 6413SOL    HW130698   3.594   0.311   5.082  0.3313  0.3262  1.1072
 6413SOL    HW230699   3.523   0.198   5.047 -0.1064  1.2916 -0.1856
 6414SOL     OW30700   1.886   2.174   2.471  0.0593 -0.7598 -1.1061
 6414SOL    HW130701   1.800   2.208   2.447  0.4006  1.0002  0.1579
 6414SOL    HW230702   1.930   2.256   2.492 -0.4483 -0.8610  0.3311
 6415SOL     OW30703   2.184   4.005  11.747 -0.0651  0.1500 -0.2110
 6415SOL    HW130704   2.241   4.074  11.714  0.0711 -0.3852 -1.0795
 6415SOL    HW230705   2.230   3.922  11.733 -0.1897 -0.2213  1.5090
 6416SOL     OW30706   2.753   1.231   7.038 -0.4102  0.7717 -0.1632
 6416SOL    HW130707   2.778   1.312   7.082  1.0136  1.3813 -2.0840
 6416SOL    HW230708   2.733   1.164   7.103 -0.1044 -0.0328 -0.9003
 6417SOL     OW30709   2.704   2.745  17.624  0.0872  0.2586  0.6498
 6417SOL    HW130710   2.724   2.816   0.006  2.9083  2.6041 -2.9583
 6417SOL    HW230711   2.790   2.747  17.580 -0.6059 -0.0118 -0.7136
 6418SOL     OW30712   0.953   1.687   3.457 -0.0690 -0.5672 -0.2152
 6418SOL    HW130713   0.952   1.769   3.507 -2.3461 -0.6869 -0.0746
 6418SOL    HW230714   0.871   1.696   3.409 -1.8775 -2.6430  2.5505
 6419SOL     OW30715   4.100   1.348   5.836 -0.1092  0.3206 -0.2752
 6419SOL    HW130716   4.084   1.349   5.741 -1.4848 -1.8994 -0.0519
 6419SOL    HW230717   4.180   1.401   5.838 -0.0536  0.1482  1.2989
 6420SOL     OW30718   4.393   3.308   8.256 -0.3837  0.0318  0.1440
 6420SOL    HW130719   4.361   3.280   8.341 -0.7369 -0.6159 -0.2057
 6420SOL    HW230720   4.348   3.241   8.204  1.6762  0.5916 -2.3569
 6421SOL     OW30721   2.847   0.196   1.962 -0.7524 -0.6431  0.2273
 6421SOL    HW130722   2.936   0.190   1.996 -1.1598 -1.7382  1.0978
 6421SOL    HW230723   2.801   0.229   2.039 -1.2753 -0.1849 -0.2817
 6422SOL     OW30724   2.677   3.200   8.969  0.6186 -0.9403  0.6104
 6422SOL    HW130725   2.721   3.139   9.028  1.5188  1.4758  2.4052
 6422SOL    HW230726   2.739   3.206   8.897 -0.9536  1.5594 -0.5235
 6423SOL     OW30727   1.787   1.351   5.899  0.0292 -0.1608 -0.3541
 6423SOL    HW130728   1.854   1.282   5.896 -2.6282 -2.5895 -2.8591
 6423SOL    HW230729   1.785   1.380   5.808  2.1115 -0.0024 -0.3642
 6424SOL     OW30730   3.133   3.855   3.434  0.0467  0.3321  1.1582
 6424SOL    HW130731   3.079   3.882   3.508  0.6009  0.0504  1.6696
 6424SOL    HW230732   3.074   3.873   3.361  1.3653 -0.4246 -0.1014
 6425SOL     OW30733   2.952   4.629   4.239  0.2748  0.6459  0.3573
 6425SOL    HW130734   2.986   4.631   4.329  1.2266 -2.1719  0.0734
 6425SOL    HW230735   2.857   4.628   4.249 -0.1674 -1.7325 -4.0950
 6426SOL     OW30736   1.621   3.930  14.437 -0.3055 -0.0579 -0.1591
 6426SOL    HW130737   1.585   4.013  14.407 -1.0665 -0.1769  0.4190
 6426SOL    HW230738   1.650   3.907  14.349 -1.3062 -0.0914 -0.4800
 6427SOL     OW30739   3.080   3.577   1.899 -0.3671  0.5076  0.5375
 6427SOL    HW130740   3.163   3.564   1.945  0.1880  2.2226  0.0194
 6427SOL    HW230741   3.111   3.595   1.810 -0.8757 -1.6387 -0.0661
 6428SOL     OW30742   0.507   4.237   1.523 -0.7722 -0.1263 -0.5242
 6428SOL    HW130743   0.582   4.286   1.488 -0.6849 -0.5915 -0.9934
 6428SOL    HW230744   0.450   4.307   1.553  0.9622  0.8281  0.5769
 6429SOL     OW30745   1.688   3.352   0.266 -0.1158 -0.1736 -0.1077
 6429SOL    HW130746   1.690   3.257   0.255 -0.5404 -0.1767 -0.1578
 6429SOL    HW230747   1.654   3.384   0.183 -2.5101 -0.0961  0.8942
 6430SOL     OW30748   2.163   1.651   7.830 -0.3175 -0.5383  0.0861
 6430SOL    HW130749   2.104   1.602   7.887 -0.7350 -0.8002 -0.5682
 6430SOL    HW230750   2.247   1.638   7.874 -0.6720 -1.8344  0.4071
 6431SOL     OW30751   1.258   0.309   8.851  0.0023  0.6883 -0.0522
 6431SOL    HW130752   1.309   0.270   8.921 -0.9580  0.6230  0.6144
 6431SOL    HW230753   1.257   0.241   8.784 -0.0326  0.2519  0.3911
 6432SOL     OW30754   0.093   3.579  10.907 -0.6308 -0.2696  0.0682
 6432SOL    HW130755   0.004   3.548  10.890 -1.1180  0.0778  1.9226
 6432SOL    HW230756   0.148   3.511  10.868 -0.5974 -0.4280  0.3837
 6433SOL     OW30757   0.689   1.005   2.322  0.0878  0.3087  0.4327
 6433SOL    HW130758   0.699   1.019   2.416 -0.2448  0.2171  0.4813
 6433SOL    HW230759   0.776   0.983   2.287 -0.2429 -3.0507  1.7669
 6434SOL     OW30760   0.517   3.307   7.829  0.2084 -0.0787 -0.3338
 6434SOL    HW130761   0.586   3.245   7.804  1.4713  1.1316  0.1738
 6434SOL    HW230762   0.444   3.289   7.770 -1.8503  1.7023  1.7005
 6435SOL     OW30763   3.714   0.653  16.896  0.0367  0.2665 -0.5908
 6435SOL    HW130764   3.639   0.640  16.955 -0.6414 -0.8585 -1.6718
 6435SOL    HW230765   3.775   0.584  16.921  0.1883  0.5512 -0.1937
 6436SOL     OW30766   2.686   4.168   8.149 -0.2111 -0.1143  0.0371
 6436SOL    HW130767   2.778   4.192   8.158 -0.4378  0.9524 -0.4611
 6436SOL    HW230768   2.641   4.232   8.205 -0.8825 -1.3505  0.9159
 6437SOL     OW30769   3.617   2.204   3.918 -0.0657 -0.6340  0.8606
 6437SOL    HW130770   3.614   2.260   3.840  1.2140  0.4044  1.5538
 6437SOL    HW230771   3.666   2.130   3.882 -1.9169 -1.9556  1.1224
 6438SOL     OW30772   0.866   1.981  11.092  0.0958  0.4351  0.3742
 6438SOL    HW130773   0.796   1.917  11.074 -0.2989  1.2540 -0.9760
 6438SOL    HW230774   0.812   2.060  11.101 -1.3068 -0.5762  0.9493
 6439SOL     OW30775   0.725   1.186   5.216  0.0375  0.6309 -0.1704
 6439SOL    HW130776   0.818   1.198   5.200  0.4784 -2.3637  0.1800
 6439SOL    HW230777   0.718   1.110   5.157 -2.6286 -0.7245  1.8651
 6440SOL     OW30778   1.516   3.801   3.613  0.2151 -0.1488  0.1642
 6440SOL    HW130779   1.578   3.820   3.542 -0.2872  1.3846  0.1336
 6440SOL    HW230780   1.486   3.887   3.644  2.9135  0.7267  0.3516
 6441SOL     OW30781   1.660   1.895  17.233  0.0127  0.5776  0.1159
 6441SOL    HW130782   1.748   1.910  17.197  0.5982 -0.3459  1.1841
 6441SOL    HW230783   1.615   1.959  17.177  0.8859  0.2879 -0.9237
 6442SOL     OW30784   2.236   2.643   3.728  0.4970 -0.7874 -0.3391
 6442SOL    HW130785   2.201   2.576   3.670 -0.9734  1.0450 -1.5617
 6442SOL    HW230786   2.242   2.590   3.808  1.7100  3.8071  2.6511
 6443SOL     OW30787   2.406   0.649  10.833  0.2969  0.2391 -0.2109
 6443SOL    HW130788   2.484   0.699  10.858  0.2147  0.1236  0.2915
 6443SOL    HW230789   2.446   0.602  10.760 -0.0718  0.5809 -0.6362
 6444SOL     OW30790   1.408   4.699  14.582  0.1846 -0.1767 -0.4541
 6444SOL    HW130791   1.357   4.688  14.662  1.8940  1.2065  0.8391
 6444SOL    HW230792   1.376   0.060  14.541 -1.0519  0.0411  0.9392
 6445SOL     OW30793   2.891   2.893  10.120 -0.2724  0.1924  0.0358
 6445SOL    HW130794   2.902   2.894  10.215  0.6849 -3.1019 -0.0504
 6445SOL    HW230795   2.799   2.864  10.122 -0.5046  0.9504  0.3104
 6446SOL     OW30796   4.362   3.100   0.321  0.2178  0.6067 -0.5937
 6446SOL    HW130797   4.426   3.030   0.336  0.5257  0.4452 -2.6259
 6446SOL    HW230798   4.329   3.082   0.233  0.5365 -0.9578 -0.3987
 6447SOL     OW30799   0.011   1.465   6.904 -0.8771 -0.4321  0.1895
 6447SOL    HW130800   0.089   1.512   6.872 -0.9059  0.2846  1.1740
 6447SOL    HW230801   4.662   1.522   6.870 -0.8461 -0.2620  0.4154
 6448SOL     OW30802   1.790   1.618   8.242 -0.2190 -0.8640 -0.3620
 6448SOL    HW130803   1.884   1.639   8.247 -0.4837  0.9948 -2.6894
 6448SOL    HW230804   1.767   1.708   8.266 -3.8155 -2.0478  0.5355
 6449SOL     OW30805   2.353   4.207  15.320 -0.6866 -0.0723  0.5806
 6449SOL    HW130806   2.371   4.210  15.226  0.2285 -2.6511  0.6812
 6449SOL    HW230807   2.437   4.176  15.356  0.3941 -0.0119 -1.9444
 6450SOL     OW30808   1.108   3.049   4.722  0.2082 -0.6810  0.3869
 6450SOL    HW130809   1.074   2.991   4.654 -0.0036  0.9120 -0.8555
 6450SOL    HW230810   1.027   3.089   4.753  0.7204  0.0626  0.7827
 6451SOL     OW30811   3.402   0.010   5.231  0.2606  0.3730  0.4009
 6451SOL    HW130812   3.327   0.042   5.181  1.2648 -3.1865 -3.3982
 6451SOL    HW230813   3.451   0.091   5.222  1.6649 -0.8630 -3.0644
 6452SOL     OW30814   2.400   3.836   6.250 -0.0757 -0.2331 -0.0868
 6452SOL    HW130815   2.426   3.917   6.207  1.7306 -1.0309 -0.4952
 6452SOL    HW230816   2.314   3.822   6.211  0.3701 -1.6977 -0.5422
 6453SOL     OW30817   2.035   0.305   5.718 -0.0515 -0.1420  0.1796
 6453SOL    HW130818   2.076   0.318   5.804  0.3885  0.4906 -0.1258
 6453SOL    HW230819   2.061   0.385   5.673 -0.0194 -0.7003 -0.8017
 6454SOL     OW30820   3.710   4.044   4.818  0.3825 -0.5537 -0.0484
 6454SOL    HW130821   3.792   4.091   4.838  0.4166 -1.5517  2.1472
 6454SOL    HW230822   3.655   4.043   4.896 -0.9614  1.7526 -0.9807
 6455SOL     OW30823   1.542   4.413   2.523 -0.2612 -0.5126 -0.1603
 6455SOL    HW130824   1.503   4.328   2.499  1.2471 -0.9721 -1.0082
 6455SOL    HW230825   1.634   4.389   2.528 -0.0759  0.2464  0.0275
 6456SOL     OW30826   0.600   3.970  16.460  0.6513  0.1453 -0.1872
 6456SOL    HW130827   0.519   3.922  16.480  0.7372  0.3050  0.5194
 6456SOL    HW230828   0.581   4.030  16.388  0.0179  1.0153  0.7132
 6457SOL     OW30829   3.019   2.471   6.848  0.0367  0.4002  0.2506
 6457SOL    HW130830   2.939   2.492   6.801  0.8382 -0.9888 -1.7083
 6457SOL    HW230831   3.012   2.529   6.924  0.0777  0.9347 -0.1603
 6458SOL     OW30832   4.418   2.624   7.981 -0.0910  1.1283  0.2604
 6458SOL    HW130833   4.498   2.616   7.929 -0.9018  0.6652 -0.9146
 6458SOL    HW230834   4.450   2.657   8.065 -1.5691  1.3238  0.7496
 6459SOL     OW30835   2.487   0.722   7.361  0.4829  0.3577 -0.2614
 6459SOL    HW130836   2.495   0.628   7.349  1.0755  0.3804 -0.0090
 6459SOL    HW230837   2.394   0.732   7.383 -0.4484 -3.2053 -2.6541
 6460SOL     OW30838   0.458   0.198  17.607  0.0978  0.5392  0.3099
 6460SOL    HW130839   0.447   0.198   0.024  1.5265  0.3224  0.4669
 6460SOL    HW230840   0.536   0.252  17.601 -0.9626  1.8388 -1.7028
 6461SOL     OW30841   1.027   1.199  13.518  0.3062 -0.2030  0.6529
 6461SOL    HW130842   1.050   1.107  13.501 -1.8808 -0.6502  0.0386
 6461SOL    HW230843   0.947   1.218  13.469 -1.8222 -1.8369  3.4883
 6462SOL     OW30844   2.173   2.889   6.749  0.5249  0.4173  0.4280
 6462SOL    HW130845   2.143   2.838   6.825 -0.4554  2.7795  1.6267
 6462SOL    HW230846   2.213   2.963   6.795 -2.0915  0.2997  2.9120
 6463SOL     OW30847   3.893   3.949   6.089  0.2569  0.1118  0.2514
 6463SOL    HW130848   3.871   3.863   6.125 -0.8267 -0.8188 -2.6915
 6463SOL    HW230849   3.989   3.946   6.087  0.1668 -1.2382 -1.4103
 6464SOL     OW30850   3.708   1.879   1.965  0.9512  0.3730  0.4524
 6464SOL    HW130851   3.797   1.904   1.993  1.2340 -2.3919  2.0017
 6464SOL    HW230852   3.686   1.833   2.045  1.0215 -0.3945  0.0282
 6465SOL     OW30853   4.383   3.602   8.247 -0.1975  0.6517  0.1992
 6465SOL    HW130854   4.346   3.515   8.229  0.7730 -0.0074  1.3939
 6465SOL    HW230855   4.469   3.603   8.204  0.0269  2.4706  0.7066
 6466SOL     OW30856   0.964   1.335   7.327 -0.1261 -0.2130 -0.4076
 6466SOL    HW130857   0.918   1.382   7.397  0.3851 -1.6119  0.8669
 6466SOL    HW230858   0.934   1.246   7.344  2.1561 -1.0385 -0.7792
 6467SOL     OW30859   0.894   3.743   9.104  0.1847  0.0643  0.0899
 6467SOL    HW130860   0.825   3.734   9.038 -1.0855  3.2913  0.9156
 6467SOL    HW230861   0.836   3.748   9.181 -0.0365 -1.4798  0.0098
 6468SOL     OW30862   2.234   2.996   0.741 -0.7175  0.1000  0.5736
 6468SOL    HW130863   2.236   3.044   0.824 -1.0319 -1.5461  1.5518
 6468SOL    HW230864   2.290   2.920   0.761 -0.2294  0.3591  0.1805
 6469SOL     OW30865   4.311   2.446  16.342 -0.5577  0.0771  0.1355
 6469SOL    HW130866   4.302   2.440  16.247  1.0007  1.9290 -0.1413
 6469SOL    HW230867   4.338   2.355  16.359 -2.2347 -0.0742  1.9462
 6470SOL     OW30868   4.187   2.962  10.219 -0.3601  0.2784  0.1324
 6470SOL    HW130869   4.223   2.874  10.226  1.0466  0.8707  0.3373
 6470SOL    HW230870   4.139   2.946  10.138 -0.5398  2.2578 -0.1730
 6471SOL     OW30871   3.986   3.460  17.617  0.7288  0.2318 -0.6719
 6471SOL    HW130872   3.935   3.520  17.671 -0.5286  0.7043 -2.3857
 6471SOL    HW230873   3.992   3.381  17.670  1.6977  0.7358 -0.0308
 6472SOL     OW30874   3.840   2.259  14.937 -0.1659 -0.9437  0.0153
 6472SOL    HW130875   3.884   2.191  14.885  1.3592  0.9098 -1.0941
 6472SOL    HW230876   3.866   2.332  14.882  0.4361 -0.1957  1.3031
 6473SOL     OW30877   3.346   2.973   8.101 -0.1847 -0.0400  0.1048
 6473SOL    HW130878   3.373   2.948   8.013 -1.4033 -4.2832  0.9237
 6473SOL    HW230879   3.308   3.059   8.083  2.2951  1.0715  0.2467
 6474SOL     OW30880   0.259   4.020   6.508  0.0421  0.5236  0.1084
 6474SOL    HW130881   0.193   4.042   6.444 -2.1086  0.5147  2.3295
 6474SOL    HW230882   0.212   4.048   6.587 -0.4957  0.6428 -0.2599
 6475SOL     OW30883   4.021   3.404   3.435  0.1350 -0.0553  0.4573
 6475SOL    HW130884   3.945   3.438   3.481 -0.1070 -1.3883  1.0374
 6475SOL    HW230885   4.039   3.481   3.381  0.2867 -0.7236 -0.4485
 6476SOL     OW30886   2.959   4.183   5.580  0.0604 -0.1138  0.0823
 6476SOL    HW130887   2.906   4.199   5.502 -0.4208  0.7718  0.5845
 6476SOL    HW230888   2.911   4.211   5.658 -0.7785  0.5267 -0.6727
 6477SOL     OW30889   2.995   3.231   8.024  0.2786  0.0945 -0.4705
 6477SOL    HW130890   3.088   3.219   8.003  0.5316  0.1628  0.6075
 6477SOL    HW230891   2.992   3.326   8.038  0.5221 -0.0736  0.6980
 6478SOL     OW30892   4.018   1.178   6.235 -0.5530  0.2758  0.1788
 6478SOL    HW130893   3.927   1.202   6.214 -1.1783 -1.2899  1.0875
 6478SOL    HW230894   4.048   1.141   6.152  0.3011  1.4311 -0.0245
 6479SOL     OW30895   2.434   3.337   1.222 -0.7595  0.2632 -0.6546
 6479SOL    HW130896   2.456   3.308   1.311 -1.7719 -1.0371 -0.8250
 6479SOL    HW230897   2.340   3.349   1.234 -0.6387  0.4222  0.1275
 6480SOL     OW30898   3.821   3.503   8.522  0.4773  0.2075  0.1974
 6480SOL    HW130899   3.744   3.497   8.466 -0.2684 -0.6835  1.2994
 6480SOL    HW230900   3.826   3.595   8.546 -2.5571  0.4651 -0.1987
 6481SOL     OW30901   4.483   0.588   2.634 -0.0605  0.3051 -0.2644
 6481SOL    HW130902   4.507   0.641   2.558 -1.9791  0.7514 -0.5726
 6481SOL    HW230903   4.488   0.503   2.590 -2.5747 -0.5483  1.1074
 6482SOL     OW30904   0.881   2.234   3.474  0.3405 -0.7323 -0.2115
 6482SOL    HW130905   0.828   2.307   3.508  0.0649 -1.5247  1.0831
 6482SOL    HW230906   0.945   2.243   3.545 -1.4335  0.1616  1.3006
 6483SOL     OW30907   1.872   2.136   3.201 -0.0667  0.1683  0.3879
 6483SOL    HW130908   1.813   2.063   3.218  1.1094 -1.0071 -0.5790
 6483SOL    HW230909   1.949   2.081   3.186 -0.3975 -0.4706  1.0361
 6484SOL     OW30910   2.172   3.520   4.539 -0.2165  0.3593 -0.2565
 6484SOL    HW130911   2.215   3.451   4.489  0.2274  0.6195 -0.2325
 6484SOL    HW230912   2.247   3.552   4.589 -0.0418 -0.6433  0.1335
 6485SOL     OW30913   3.828   0.678  14.532 -0.2699 -0.7243  0.2366
 6485SOL    HW130914   3.750   0.667  14.478 -0.8020 -2.3511  1.3397
 6485SOL    HW230915   3.792   0.694  14.618 -0.6402 -1.0691  0.1443
 6486SOL     OW30916   0.326   0.996  11.543 -0.8259 -0.3214 -0.3543
 6486SOL    HW130917   0.408   0.956  11.569 -0.7997 -1.1148 -1.6974
 6486SOL    HW230918   0.337   1.005  11.448 -2.1480 -1.3044 -0.6081
 6487SOL     OW30919   3.179   2.543   4.822 -0.5511 -0.1839 -0.1575
 6487SOL    HW130920   3.164   2.472   4.760 -2.1339 -0.6384  0.7539
 6487SOL    HW230921   3.091   2.562   4.853 -0.1190  0.1063  0.8960
 6488SOL     OW30922   0.450   1.165   8.108  0.5037  0.5910 -0.2910
 6488SOL    HW130923   0.363   1.199   8.130  0.7209  0.7657  0.2933
 6488SOL    HW230924   0.447   1.154   8.013  2.0219  0.7949 -0.3600
 6489SOL     OW30925   1.940   3.722   4.802  0.6114  0.0601 -0.1511
 6489SOL    HW130926   1.951   3.752   4.712  1.0303  0.8884  0.1724
 6489SOL    HW230927   1.987   3.639   4.804  0.1040 -0.2205  0.0473
 6490SOL     OW30928   3.368   3.149   5.461 -0.4264  0.8155 -0.4158
 6490SOL    HW130929   3.344   3.112   5.376 -1.5502 -0.8347  0.6225
 6490SOL    HW230930   3.317   3.099   5.525  1.0419  0.8006  0.7366
 6491SOL     OW30931   3.017   3.644   0.243 -0.1478  0.3785  0.1986
 6491SOL    HW130932   3.087   3.579   0.248 -0.0177  0.4205 -1.2614
 6491SOL    HW230933   3.040   3.702   0.316  0.1175 -1.7768  1.8039
 6492SOL     OW30934   1.442   1.926   3.721  0.4138 -0.3126  0.2897
 6492SOL    HW130935   1.429   2.006   3.669 -1.2925 -0.5216  0.3982
 6492SOL    HW230936   1.523   1.897   3.680  1.3059  1.4184  0.8313
 6493SOL     OW30937   1.318   0.670   5.895 -0.1794  0.0002 -0.2069
 6493SOL    HW130938   1.256   0.743   5.904 -2.1370 -1.7047  0.1919
 6493SOL    HW230939   1.342   0.643   5.984 -0.7898 -2.3613 -0.7767
 6494SOL     OW30940   0.116   2.423   2.072 -0.0931  0.0079 -0.1736
 6494SOL    HW130941   0.096   2.456   2.159 -0.6484 -0.8757  0.0320
 6494SOL    HW230942   0.210   2.440   2.076  0.4435 -3.0893  0.2700
 6495SOL     OW30943   0.760   2.649  17.599  0.3521 -0.0631  0.2270
 6495SOL    HW130944   0.694   2.636  17.667  1.1545 -0.3722  0.9455
 6495SOL    HW230945   0.705   2.666  17.522  0.1276 -1.9716 -0.0157
 6496SOL     OW30946   3.086   2.565  15.717 -0.0552  0.3832 -0.2889
 6496SOL    HW130947   3.068   2.497  15.782 -0.2785  0.8410  0.1237
 6496SOL    HW230948   3.013   2.625  15.734 -0.5868  0.0520 -1.3830
 6497SOL     OW30949   1.860   3.615   1.830  0.4155 -0.2632 -0.3839
 6497SOL    HW130950   1.850   3.633   1.737 -0.0118  4.4803  0.5934
 6497SOL    HW230951   1.922   3.685   1.852 -0.2747  0.0427  0.5984
 6498SOL     OW30952   3.609   1.668  12.361 -0.0619  0.5473  0.0287
 6498SOL    HW130953   3.626   1.710  12.277 -1.0482 -0.7557 -0.8248
 6498SOL    HW230954   3.697   1.655  12.397  0.5403  0.8591 -1.3093
 6499SOL     OW30955   3.413   4.092  16.121  0.0693 -0.2313 -0.1672
 6499SOL    HW130956   3.329   4.047  16.112 -0.9833  1.2580  2.4412
 6499SOL    HW230957   3.457   4.037  16.186  0.6090  0.3347 -0.0574
 6500SOL     OW30958   3.670   2.170   6.227  0.3508 -0.0768  0.4905
 6500SOL    HW130959   3.602   2.129   6.281  0.2532  0.1453  0.5359
 6500SOL    HW230960   3.623   2.194   6.147  1.0721 -0.5253 -0.0706
 6501SOL     OW30961   2.289   3.772  13.491  0.5010  0.0575 -0.9460
 6501SOL    HW130962   2.282   3.859  13.530 -0.1332  0.1392 -1.2435
 6501SOL    HW230963   2.305   3.721  13.570 -0.1214  0.8973 -0.2793
 6502SOL     OW30964   3.822   1.049   9.327  0.0056 -0.3481  0.3157
 6502SOL    HW130965   3.738   1.049   9.374  1.3443 -1.7830  2.7069
 6502SOL    HW230966   3.790   1.081   9.243 -0.3907 -2.3648 -0.2880
 6503SOL     OW30967   2.156   1.975   9.839 -0.6128  0.5180  0.1678
 6503SOL    HW130968   2.205   1.973   9.757 -0.5048  4.4179  0.1348
 6503SOL    HW230969   2.223   1.986   9.907  2.1780 -1.4907 -2.2220
 6504SOL     OW30970   1.517   2.631   8.939 -0.0890  0.2127 -0.0447
 6504SOL    HW130971   1.601   2.661   8.974  0.1565  1.0954 -1.4029
 6504SOL    HW230972   1.514   2.542   8.976  1.3874  0.4282  0.6037
 6505SOL     OW30973   0.400   1.076   7.079 -0.1510  0.5169  0.4008
 6505SOL    HW130974   0.334   1.145   7.066  1.0812  1.4132 -1.0988
 6505SOL    HW230975   0.370   1.019   7.008  0.3459  1.6799 -0.7510
 6506SOL     OW30976   1.670   2.868  11.314 -0.5206 -0.3771 -0.0875
 6506SOL    HW130977   1.577   2.869  11.291 -0.9008  1.3298  1.5371
 6506SOL    HW230978   1.704   2.897  11.229  0.9738  1.0642  1.0119
 6507SOL     OW30979   4.181   3.897   9.687  0.0539  0.0436  0.5957
 6507SOL    HW130980   4.086   3.910   9.683  0.0657 -0.1974 -0.2740
 6507SOL    HW230981   4.188   3.802   9.692  1.7785  0.2579  2.4467
 6508SOL     OW30982   0.148   0.144   4.411 -0.3559 -0.4542 -0.3557
 6508SOL    HW130983   0.074   0.096   4.448  0.9565 -1.4447  0.9809
 6508SOL    HW230984   0.109   0.174   4.329 -1.6235 -0.4483  0.2495
 6509SOL     OW30985   0.946   4.122   7.495  0.0142  0.6346  0.2690
 6509SOL    HW130986   0.957   4.053   7.429 -0.5798  1.2188 -0.4459
 6509SOL    HW230987   0.851   4.125   7.503 -0.0202  0.4365 -0.0728
 6510SOL     OW30988   4.280   3.486   0.434  0.3215 -0.1130 -0.5749
 6510SOL    HW130989   4.249   3.566   0.392  1.9268 -1.0311 -3.4797
 6510SOL    HW230990   4.336   3.526   0.500  1.2771 -0.2253 -1.3264
 6511SOL     OW30991   1.807   0.276  12.164 -0.0405  0.1032 -0.8691
 6511SOL    HW130992   1.833   0.235  12.081 -3.3570 -1.6740 -1.0002
 6511SOL    HW230993   1.856   0.359  12.164  1.9008 -1.0460 -1.1106
 6512SOL     OW30994   2.726   2.067   8.769 -0.2423 -0.0049  0.4297
 6512SOL    HW130995   2.646   2.112   8.742 -0.2683 -0.5771 -0.4405
 6512SOL    HW230996   2.792   2.097   8.707  0.4249 -1.3604  0.4832
 6513SOL     OW30997   2.388   1.180  16.081  0.4932  0.2370 -0.4623
 6513SOL    HW130998   2.463   1.166  16.138  0.2419  0.9127  0.0310
 6513SOL    HW230999   2.425   1.226  16.006  2.8975 -0.6859  0.1701
 6514SOL     OW31000   1.882   1.849   1.030  0.2422  0.0527 -0.5068
 6514SOL    HW131001   1.945   1.889   1.089 -0.5201  1.2277 -0.4926
 6514SOL    HW231002   1.801   1.878   1.071  0.5861 -1.3953  1.1691
 6515SOL     OW31003   0.366   0.846  15.640 -0.4172 -0.2708  0.1957
 6515SOL    HW131004   0.295   0.785  15.620 -0.7448  0.3502 -0.5501
 6515SOL    HW231005   0.428   0.787  15.682  0.5456 -0.2458 -1.1722
 6516SOL     OW31006   0.663   2.175   4.311 -0.5895 -0.2228 -0.6461
 6516SOL    HW131007   0.691   2.206   4.225  0.3582  1.7744  0.3794
 6516SOL    HW231008   0.722   2.100   4.315 -0.1541  0.1070 -0.9070
 6517SOL     OW31009   3.589   2.770   5.255 -0.4310  0.4096 -0.4693
 6517SOL    HW131010   3.563   2.682   5.284 -2.1018  1.0318 -0.1446
 6517SOL    HW231011   3.668   2.767   5.309 -0.7275 -1.1547 -0.1324
 6518SOL     OW31012   3.573   4.466   9.543  0.2577  0.3589  0.3545
 6518SOL    HW131013   3.591   4.556   9.569 -1.2166  1.0046 -0.9029
 6518SOL    HW231014   3.650   4.418   9.573 -0.4843 -0.5411  0.8306
 6519SOL     OW31015   3.166   2.231  16.996 -0.2325 -0.1000 -0.0164
 6519SOL    HW131016   3.167   2.188  17.081  0.2122 -1.3722 -0.6540
 6519SOL    HW231017   3.157   2.158  16.934  0.8510  1.5619 -2.1447
 6520SOL     OW31018   4.041   1.662   6.679 -0.1025 -0.5143 -0.0416
 6520SOL    HW131019   4.094   1.741   6.666 -0.3703  0.0556  2.4666
 6520SOL    HW231020   3.991   1.672   6.759 -0.2527  0.6461 -0.2797
 6521SOL     OW31021   4.482   3.926   5.467  0.1176  0.5164 -0.0495
 6521SOL    HW131022   4.552   3.961   5.412  0.6040 -0.0184  0.2290
 6521SOL    HW231023   4.491   3.834   5.441 -0.3048  0.8596 -1.3942
 6522SOL     OW31024   4.060   1.394   0.975 -0.0298  0.4961  0.0956
 6522SOL    HW131025   4.054   1.307   1.015 -0.3914 -0.7799 -2.7286
 6522SOL    HW231026   4.149   1.414   1.007  0.1107 -0.2745  0.1887
 6523SOL     OW31027   1.689   1.879   4.396 -0.5954 -0.6124  0.8566
 6523SOL    HW131028   1.711   1.970   4.373 -0.2838 -0.8511  0.1898
 6523SOL    HW231029   1.599   1.892   4.423 -0.4171  1.1247  0.6349
 6524SOL     OW31030   3.771   4.452   0.327 -0.2172  0.0673 -0.3716
 6524SOL    HW131031   3.834   4.434   0.397  1.1604  1.6172 -1.2259
 6524SOL    HW231032   3.739   4.371   0.286 -1.0706  0.2224 -0.0021
 6525SOL     OW31033   3.315   0.912   9.280  0.6305  0.1932 -0.2021
 6525SOL    HW131034   3.398   0.895   9.325 -0.2709  1.2380  1.8427
 6525SOL    HW231035   3.251   0.870   9.337  0.3306 -0.4412 -1.0152
 6526SOL     OW31036   0.339   2.087  12.132 -0.3391 -0.8537 -0.3279
 6526SOL    HW131037   0.336   2.169  12.181 -0.6334 -0.1982 -1.4295
 6526SOL    HW231038   0.380   2.119  12.052 -2.3165 -0.2706 -1.0937
 6527SOL     OW31039   3.651   0.439  11.315 -0.1298  0.4896  0.0151
 6527SOL    HW131040   3.653   0.360  11.261  0.6341 -0.1894  1.0561
 6527SOL    HW231041   3.649   0.509  11.249  0.1464 -2.1914 -2.7993
 6528SOL     OW31042   4.400   3.203   7.506  0.7752 -0.3594 -0.5288
 6528SOL    HW131043   4.493   3.221   7.518  0.4826  1.6802 -1.2506
 6528SOL    HW231044   4.395   3.132   7.570 -0.9715  1.7643  1.6918
 6529SOL     OW31045   4.200   1.162   8.059 -0.7402 -0.2687 -0.3138
 6529SOL    HW131046   4.131   1.220   8.025 -1.3843 -0.9536 -0.1746
 6529SOL    HW231047   4.198   1.176   8.153 -2.4378 -0.3493 -0.3412
 6530SOL     OW31048   0.406   0.484  13.010 -0.3063 -0.1701 -0.1880
 6530SOL    HW131049   0.446   0.397  13.021  1.0657  0.1840 -2.3282
 6530SOL    HW231050   0.318   0.463  12.980  0.9376 -0.4916 -3.5914
 6531SOL     OW31051   1.278   0.240  14.545  0.0644  0.3423  0.8931
 6531SOL    HW131052   1.239   0.319  14.582 -2.2663  0.0031 -0.8808
 6531SOL    HW231053   1.345   0.281  14.491 -1.2776 -0.1321 -1.1028
 6532SOL     OW31054   2.168   1.390   2.873  1.0588  0.3050 -0.1819
 6532SOL    HW131055   2.185   1.297   2.891  2.1663  0.4239 -0.6192
 6532SOL    HW231056   2.150   1.380   2.779 -2.9335  0.3858  0.5650
 6533SOL     OW31057   2.093   0.729   7.099 -0.0791  0.1979 -0.3417
 6533SOL    HW131058   2.154   0.793   7.065  2.0556 -0.6504  1.8870
 6533SOL    HW231059   2.162   0.665   7.114 -0.2354  0.8889  3.3633
 6534SOL     OW31060   0.489   1.339  13.742 -0.8133  0.7416 -0.1589
 6534SOL    HW131061   0.544   1.342  13.664  0.2821 -2.5824  0.4805
 6534SOL    HW231062   0.467   1.432  13.750  0.3905  0.6791  3.7567
 6535SOL     OW31063   0.643   3.793   8.490  0.4866 -0.0534  0.3345
 6535SOL    HW131064   0.550   3.814   8.497 -0.1423 -2.4418 -0.7256
 6535SOL    HW231065   0.643   3.710   8.537  0.0352  0.1291  0.6628
 6536SOL     OW31066   2.462   3.699   7.508 -0.1468 -0.2321  0.8735
 6536SOL    HW131067   2.433   3.778   7.462  2.5303 -0.3430 -0.9582
 6536SOL    HW231068   2.515   3.738   7.577 -1.3766 -0.0336  1.6984
 6537SOL     OW31069   3.613   2.022   2.984 -0.2904  0.1574 -0.0753
 6537SOL    HW131070   3.625   2.061   2.898  1.8461 -1.6918 -0.6142
 6537SOL    HW231071   3.689   1.964   2.982  0.3885  1.0013  0.9493
 6538SOL     OW31072   1.503   1.355   4.249 -0.2296 -0.0203 -0.1923
 6538SOL    HW131073   1.422   1.378   4.204 -0.9818 -0.3304  0.9959
 6538SOL    HW231074   1.556   1.324   4.176 -1.6107  1.7858 -1.9563
 6539SOL     OW31075   1.471   3.960   7.838  0.3401  0.0584  0.4776
 6539SOL    HW131076   1.405   3.953   7.769  0.9189  1.0543 -0.1732
 6539SOL    HW231077   1.411   3.962   7.912  0.0087  0.1161  0.2077
 6540SOL     OW31078   1.286   1.720  11.734 -0.1168 -0.3694 -0.5058
 6540SOL    HW131079   1.318   1.716  11.644  2.7051  1.4856  0.4241
 6540SOL    HW231080   1.372   1.711  11.775  0.8251  3.2334 -1.6553
 6541SOL     OW31081   2.012   0.227   1.381  0.2902 -0.0480  0.0241
 6541SOL    HW131082   1.982   0.139   1.405 -0.3272  0.5940  1.6108
 6541SOL    HW231083   1.945   0.245   1.314 -0.5558 -2.3389  0.2522
 6542SOL     OW31084   4.195   3.485  11.074 -0.0999  0.2151 -0.2164
 6542SOL    HW131085   4.247   3.417  11.117 -0.7087 -0.7066 -0.9363
 6542SOL    HW231086   4.112   3.446  11.047  0.8053 -2.2805  0.6081
 6543SOL     OW31087   0.622   2.701   3.565  0.7768 -0.0955  0.3781
 6543SOL    HW131088   0.572   2.782   3.568  0.5526 -0.2191  0.0312
 6543SOL    HW231089   0.565   2.649   3.508  1.0574 -1.0415  0.9534
 6544SOL     OW31090   2.164   0.021   0.507  0.0041  0.1400  0.3798
 6544SOL    HW131091   2.186   0.074   0.430  1.2284 -1.4998 -0.4151
 6544SOL    HW231092   2.234   4.678   0.528  0.9950  1.8632  2.1616
 6545SOL     OW31093   0.785   0.998   8.194 -0.7852  0.1625  0.0652
 6545SOL    HW131094   0.869   0.961   8.167 -0.7316  0.0226  0.4240
 6545SOL    HW231095   0.748   1.003   8.106 -0.3934  2.0447 -0.0058
 6546SOL     OW31096   0.017   1.740   1.861  0.0113 -0.1088 -0.0759
 6546SOL    HW131097   0.050   1.741   1.771  0.2169 -1.0573 -0.0167
 6546SOL    HW231098   4.673   1.668   1.860 -0.5536  0.3968 -1.0100
 6547SOL     OW31099   1.986   2.927  11.888  0.0737 -0.0838  0.2880
 6547SOL    HW131100   1.926   2.865  11.845 -1.5113  0.3923  1.7830
 6547SOL    HW231101   1.981   2.891  11.977  0.0176  0.4422  0.4980
 6548SOL     OW31102   2.035   1.783   7.430 -0.0995 -0.3551  0.3012
 6548SOL    HW131103   1.946   1.750   7.414 -0.0401 -0.3524 -0.0193
 6548SOL    HW231104   2.091   1.746   7.363  2.2206 -1.5537  2.9444
 6549SOL     OW31105   3.520   0.190   6.324 -0.1873 -0.1342  0.4079
 6549SOL    HW131106   3.581   0.207   6.395 -0.8429  0.3934  0.8413
 6549SOL    HW231107   3.532   0.098   6.301 -1.3177 -0.3221  0.5684
 6550SOL     OW31108   3.466   3.409   5.065  0.2738  0.4553 -0.3496
 6550SOL    HW131109   3.445   3.436   4.975  1.2941  2.5907  0.0509
 6550SOL    HW231110   3.513   3.489   5.088  1.8299 -0.6032  0.2093
 6551SOL     OW31111   4.607   3.225   0.821 -0.9814 -0.5391  0.2039
 6551SOL    HW131112   4.582   3.222   0.729 -0.8680 -0.5889  0.1742
 6551SOL    HW231113   4.619   3.319   0.837  3.9712 -0.8199 -1.6747
 6552SOL     OW31114   2.866   3.999  12.731 -0.8218 -0.2413 -0.6175
 6552SOL    HW131115   2.773   4.019  12.731 -1.2411 -2.1570 -2.5702
 6552SOL    HW231116   2.904   4.079  12.767 -0.4213  0.3770 -2.4355
 6553SOL     OW31117   3.192   1.957   7.395 -0.1467 -0.3172  0.0382
 6553SOL    HW131118   3.283   1.982   7.379 -0.2388  0.1098  0.1944
 6553SOL    HW231119   3.173   1.903   7.319  3.0975  0.6634 -1.4899
 6554SOL     OW31120   4.453   0.120   3.572  0.2850  0.9165  0.1601
 6554SOL    HW131121   4.514   0.192   3.555  0.8929  0.0313 -1.4754
 6554SOL    HW231122   4.513   0.058   3.612  1.2655  0.3771 -2.1312
 6555SOL     OW31123   4.575   0.446   7.587 -0.0524  0.4080 -0.1150
 6555SOL    HW131124   4.553   0.537   7.607  1.7606  0.8876 -0.3027
 6555SOL    HW231125   4.633   0.462   7.512 -1.8344 -1.1549 -1.8420
 6556SOL     OW31126   4.090   3.344   1.601 -0.5088  0.4398 -0.7402
 6556SOL    HW131127   4.078   3.363   1.508  1.2660 -0.7527 -1.2196
 6556SOL    HW231128   4.049   3.425   1.633 -0.8565  0.0046 -0.0869
 6557SOL     OW31129   4.481   3.009  11.302 -0.3057  0.1021 -0.2931
 6557SOL    HW131130   4.556   2.950  11.301  0.5145  1.1357  0.8690
 6557SOL    HW231131   4.415   2.942  11.283 -0.8909  0.8350 -0.8304
 6558SOL     OW31132   1.763   0.032   2.430  0.4236 -0.1229 -0.2668
 6558SOL    HW131133   1.818   0.109   2.444  1.2074 -1.0153  1.5903
 6558SOL    HW231134   1.683   0.067   2.467 -0.4125 -2.0626 -0.2372
 6559SOL     OW31135   3.337   1.188   6.701  0.1965  0.2632 -0.2591
 6559SOL    HW131136   3.298   1.185   6.788  0.9835 -0.7531  0.0577
 6559SOL    HW231137   3.280   1.257   6.667  1.5568  1.4260 -0.1569
 6560SOL     OW31138   1.131   2.588  13.236 -0.6138  0.2301  0.0868
 6560SOL    HW131139   1.190   2.515  13.217 -0.7259 -0.5276  2.6063
 6560SOL    HW231140   1.186   2.632  13.302 -1.3806 -1.8920  2.1304
 6561SOL     OW31141   0.668   0.851  12.344 -0.1625 -0.2476  0.0592
 6561SOL    HW131142   0.737   0.787  12.326  0.6124 -0.2347  2.9731
 6561SOL    HW231143   0.587   0.826  12.299  0.5294  0.4072 -1.5620
 6562SOL     OW31144   0.075   3.565   5.178 -0.1464 -0.8400 -0.0302
 6562SOL    HW131145   0.169   3.578   5.166 -0.5122  0.4062 -1.5339
 6562SOL    HW231146   0.076   3.535   5.269 -0.6397 -2.4208 -0.5581
 6563SOL     OW31147   3.964   1.487  12.828  0.4985 -0.0944  0.0316
 6563SOL    HW131148   4.030   1.484  12.759  0.2007  1.6439 -0.3275
 6563SOL    HW231149   3.934   1.577  12.814 -0.2840  0.1517  3.2106
 6564SOL     OW31150   3.486   1.457   4.169 -0.8143  0.2350 -0.6224
 6564SOL    HW131151   3.560   1.516   4.159 -0.1296 -0.4568  0.3398
 6564SOL    HW231152   3.412   1.514   4.148  0.0714  1.4661 -0.3863
 6565SOL     OW31153   2.996   4.463   2.251  0.4498  0.8319 -0.3938
 6565SOL    HW131154   3.075   4.491   2.205  0.7633  2.7016  1.2749
 6565SOL    HW231155   2.946   4.434   2.174 -0.2393  0.5097  0.1748
 6566SOL     OW31156   3.249   3.011  16.623 -0.1703  0.4702  0.5201
 6566SOL    HW131157   3.190   3.028  16.549 -0.8063  1.9415  1.3697
 6566SOL    HW231158   3.278   2.921  16.609 -1.3247 -0.1084  1.7954
 6567SOL     OW31159   2.547   4.642   8.661  0.2278  0.0659 -0.0291
 6567SOL    HW131160   2.547   4.631   8.565  2.6297 -0.4347  0.0328
 6567SOL    HW231161   2.642   4.634   8.669 -0.0658 -1.2555  2.0895
 6568SOL     OW31162   3.577   3.967   9.080 -0.4425  0.5921  0.0481
 6568SOL    HW131163   3.650   4.023   9.106  0.0158 -0.4236  0.9668
 6568SOL    HW231164   3.506   4.006   9.131 -1.5699 -1.5227  0.1110
 6569SOL     OW31165   2.675   3.830  11.391 -0.1262  0.2005  0.7265
 6569SOL    HW131166   2.625   3.854  11.469 -2.1542  2.1255 -1.1556
 6569SOL    HW231167   2.674   3.909  11.337 -0.0071 -0.6158 -0.4709
 6570SOL     OW31168   3.653   3.434   4.169  0.3755  0.3806 -0.2594
 6570SOL    HW131169   3.679   3.353   4.214  0.9961  1.2082  0.8777
 6570SOL    HW231170   3.680   3.503   4.230 -1.0823 -0.5440  1.4510
 6571SOL     OW31171   4.095   1.425   0.093 -0.7379  0.4146 -0.3638
 6571SOL    HW131172   4.081   1.518   0.073  2.3296  1.2994  1.5918
 6571SOL    HW231173   4.061   1.378   0.017  1.7125  0.0970 -1.2478
 6572SOL     OW31174   1.440   0.784   7.997  0.5119  0.3119  0.0326
 6572SOL    HW131175   1.358   0.796   7.949  0.9085 -2.6104 -1.3879
 6572SOL    HW231176   1.502   0.841   7.951  1.1462 -0.3964  0.0103
 6573SOL     OW31177   3.804   3.739   3.851  0.1485  0.1984 -0.3895
 6573SOL    HW131178   3.824   3.812   3.791  0.0741  0.7280  0.2229
 6573SOL    HW231179   3.891   3.735   3.891  0.2544  1.0781 -0.5176
 6574SOL     OW31180   3.742   1.824   2.826  0.1208  0.4714 -0.8310
 6574SOL    HW131181   3.800   1.865   2.761  1.9025  1.0697  1.1652
 6574SOL    HW231182   3.661   1.813   2.777 -0.2998  1.3652 -0.3360
 6575SOL     OW31183   2.314   2.325  13.258 -0.6383 -0.9248  0.2644
 6575SOL    HW131184   2.353   2.392  13.316 -0.3670 -0.0441 -0.9359
 6575SOL    HW231185   2.399   2.300  13.222  1.3485  1.8260  2.9483
 6576SOL     OW31186   2.473   0.019   1.067  0.2316  0.2728  0.4941
 6576SOL    HW131187   2.420   4.692   1.131 -1.0227  1.4739  0.3218
 6576SOL    HW231188   2.423   0.011   0.986  0.9940  1.1098 -0.0604
 6577SOL     OW31189   2.980   0.039   4.911 -0.1921 -0.6037 -0.7171
 6577SOL    HW131190   2.895   0.009   4.942  0.3817 -1.3314  0.1209
 6577SOL    HW231191   2.959   0.106   4.845  0.7279  0.9472  0.5556
 6578SOL     OW31192   1.306   1.533   1.563  0.6104  0.1775 -0.2163
 6578SOL    HW131193   1.234   1.558   1.621  0.4969  1.1131 -0.7699
 6578SOL    HW231194   1.283   1.562   1.475 -3.3047 -1.6152  0.2306
 6579SOL     OW31195   0.332   2.845   6.641 -0.4011 -0.3628  0.1937
 6579SOL    HW131196   0.347   2.940   6.642 -1.7999 -0.1440  2.4193
 6579SOL    HW231197   0.304   2.832   6.550  1.1028 -0.4545 -0.2578
 6580SOL     OW31198   4.240   3.318   4.708 -0.1182  0.4930  0.1954
 6580SOL    HW131199   4.267   3.275   4.627  0.7979  1.5242 -0.0421
 6580SOL    HW231200   4.314   3.378   4.720 -0.4365  0.8494  0.3752
 6581SOL     OW31201   4.622   3.532   6.511 -0.5014 -0.6618  0.2936
 6581SOL    HW131202   4.627   3.457   6.451 -1.4062 -1.2655  0.9836
 6581SOL    HW231203   4.559   3.507   6.578 -0.7771 -2.3545 -0.5934
 6582SOL     OW31204   4.390   3.866  15.747 -0.5633 -0.5199  0.2451
 6582SOL    HW131205   4.313   3.881  15.693 -0.9451 -0.5457  0.7821
 6582SOL    HW231206   4.347   3.829  15.823  0.5503 -1.5951  0.3522
 6583SOL     OW31207   4.390   4.111  15.916 -0.4808  0.3398  0.3392
 6583SOL    HW131208   4.340   4.136  15.838  1.3044 -1.2492 -1.3230
 6583SOL    HW231209   4.477   4.150  15.912  0.1517 -1.0000  0.9050
 6584SOL     OW31210   1.254   3.904   7.979  0.4569  0.1211 -0.0594
 6584SOL    HW131211   1.268   3.847   8.054  0.9655 -0.4482 -0.5780
 6584SOL    HW231212   1.172   3.944   8.004  0.8681 -0.0452  1.5340
 6585SOL     OW31213   3.546   0.268   7.424 -0.0345  0.3858 -0.1601
 6585SOL    HW131214   3.539   0.176   7.449 -0.5415  0.6229  0.5934
 6585SOL    HW231215   3.635   0.268   7.390 -0.5064  1.0214 -1.3870
 6586SOL     OW31216   0.564   2.216   3.626 -0.1056  0.1246 -0.5578
 6586SOL    HW131217   0.585   2.174   3.543  2.7371 -1.6957  1.0871
 6586SOL    HW231218   0.625   2.289   3.623 -0.3293  0.3770  1.2376
 6587SOL     OW31219   3.166   2.816   8.702  0.6232 -0.4805 -0.0320
 6587SOL    HW131220   3.234   2.882   8.687  1.0999 -0.4581  2.1131
 6587SOL    HW231221   3.126   2.809   8.616  0.8241 -0.2026 -0.1494
 6588SOL     OW31222   3.715   4.515   0.995 -0.1737 -0.5989  0.0461
 6588SOL    HW131223   3.696   4.555   0.910  0.3190 -0.3967  0.0295
 6588SOL    HW231224   3.777   4.451   0.958 -0.8003 -1.3000  0.2079
 6589SOL     OW31225   0.517   0.339   6.776  0.1886 -0.5483 -0.3580
 6589SOL    HW131226   0.519   0.410   6.711 -2.6165  0.7524  0.9665
 6589SOL    HW231227   0.425   0.357   6.797 -0.0410  0.3630 -2.0948
 6590SOL     OW31228   2.351   1.903  11.547  0.2428 -0.1053 -0.3079
 6590SOL    HW131229   2.395   1.967  11.492  0.2788 -2.3642 -2.9562
 6590SOL    HW231230   2.403   1.828  11.519 -0.1757 -0.4035 -0.2922
 6591SOL     OW31231   1.876   2.916   8.223  0.2238 -0.3687 -0.5232
 6591SOL    HW131232   1.961   2.921   8.266  0.2669  0.3870 -0.6929
 6591SOL    HW231233   1.889   2.982   8.156 -0.2943  0.8519  0.5704
 6592SOL     OW31234   1.056   1.218   7.739 -0.4605  0.1293 -0.6475
 6592SOL    HW131235   1.063   1.127   7.768  0.6022  0.0919 -1.0133
 6592SOL    HW231236   1.112   1.212   7.662 -1.9126 -1.7269 -1.5420
 6593SOL     OW31237   3.831   0.751   6.926  0.6605  0.5186  0.3370
 6593SOL    HW131238   3.737   0.747   6.909  1.0572 -1.4386 -1.3699
 6593SOL    HW231239   3.829   0.817   6.995 -1.2018  1.5618 -0.7215
 6594SOL     OW31240   3.660   0.575   7.117  0.1029 -0.3002 -0.3625
 6594SOL    HW131241   3.605   0.580   7.196 -1.5585  0.9364 -1.5844
 6594SOL    HW231242   3.749   0.576   7.151 -0.1601  1.7680  0.2465
 6595SOL     OW31243   2.867   2.528   5.061  0.0678  0.0110  0.0925
 6595SOL    HW131244   2.785   2.478   5.059 -0.0211  0.1244  0.6888
 6595SOL    HW231245   2.871   2.555   5.153  1.2700  0.3091 -0.0555
 6596SOL     OW31246   2.558   4.582   5.136 -0.1699 -0.1785  0.0465
 6596SOL    HW131247   2.494   4.512   5.124  0.5320 -1.0881  1.6237
 6596SOL    HW231248   2.508   4.638   5.197 -2.0186 -3.0735  1.1903
 6597SOL     OW31249   2.117   1.816   6.633 -0.8478  0.4583  0.6119
 6597SOL    HW131250   2.083   1.896   6.593  0.0752  0.3000 -0.4974
 6597SOL    HW231251   2.060   1.746   6.600 -1.2304  0.3798  1.4635
 6598SOL     OW31252   1.126   1.986   7.831  0.4131 -0.1109 -0.3393
 6598SOL    HW131253   1.181   2.062   7.850 -0.5478  0.6141 -0.4266
 6598SOL    HW231254   1.189   1.915   7.838 -2.2235 -2.5498 -1.1889
 6599SOL     OW31255   3.034   3.193   3.413  0.0252  0.2660  0.1074
 6599SOL    HW131256   3.097   3.249   3.458 -0.3765  0.1592  0.8002
 6599SOL    HW231257   2.951   3.225   3.448  0.3724  1.7099 -0.3939
 6600SOL     OW31258   4.444   3.066   5.878  0.0662  0.0580  0.1613
 6600SOL    HW131259   4.509   3.074   5.948 -0.4112  1.3863  0.4497
 6600SOL    HW231260   4.366   3.084   5.929  2.0647  0.6826  2.9761
 6601SOL     OW31261   0.343   2.302   0.183  0.2968  0.0470 -0.0715
 6601SOL    HW131262   0.255   2.334   0.166 -0.2140 -1.3415 -0.0631
 6601SOL    HW231263   0.322   2.257   0.265  0.6491 -0.2140 -0.1233
 6602SOL     OW31264   2.870   0.079  11.787 -0.2796 -0.6507 -0.6689
 6602SOL    HW131265   2.783   0.044  11.806 -0.3922 -0.7601 -1.3951
 6602SOL    HW231266   2.840   0.161  11.747  0.6116  0.7739  1.5666
 6603SOL     OW31267   4.087   1.124   5.283 -0.6334 -0.1370 -0.0651
 6603SOL    HW131268   4.008   1.176   5.269 -1.1033 -1.2613 -1.6185
 6603SOL    HW231269   4.149   1.195   5.268 -2.2689  1.1892 -0.5570
 6604SOL     OW31270   4.319   1.639   7.390  0.6907 -0.9991 -0.1891
 6604SOL    HW131271   4.409   1.643   7.359  0.7773  0.5375  0.2664
 6604SOL    HW231272   4.270   1.685   7.323 -1.9101 -3.5055 -0.0131
 6605SOL     OW31273   2.228   0.849   8.596 -0.2795 -0.0603 -0.3401
 6605SOL    HW131274   2.238   0.890   8.682  0.8036  0.1033 -0.5460
 6605SOL    HW231275   2.292   0.779   8.603  0.0497  0.3403  0.7185
 6606SOL     OW31276   0.332   3.045   9.865  0.3522  0.6213 -0.9878
 6606SOL    HW131277   0.357   3.137   9.867 -1.8986  1.1767  1.2326
 6606SOL    HW231278   0.371   3.014   9.783  2.0961  2.7515 -0.9886
 6607SOL     OW31279   2.924   0.523  13.545 -0.5503 -0.1401  0.0852
 6607SOL    HW131280   2.879   0.600  13.509  2.0169  0.5581 -1.6641
 6607SOL    HW231281   2.981   0.505  13.470 -0.7885  1.9595 -0.6105
 6608SOL     OW31282   3.559   0.007   5.773  0.0201 -0.4476  0.2258
 6608SOL    HW131283   3.571   0.100   5.754 -1.5705 -0.2865  0.0404
 6608SOL    HW231284   3.471   0.012   5.810 -0.0486  1.7067 -0.2751
 6609SOL     OW31285   0.539   4.411   8.355  0.1773 -0.1835  0.2379
 6609SOL    HW131286   0.547   4.327   8.309 -0.9631  0.7581 -1.6985
 6609SOL    HW231287   0.541   4.464   8.275 -0.3546 -0.5688 -0.0355
 6610SOL     OW31288   4.522   4.156  10.230 -0.1515  0.1387  0.0886
 6610SOL    HW131289   4.429   4.147  10.212 -0.4388  0.7704  1.2165
 6610SOL    HW231290   4.567   4.160  10.146  0.7830 -3.1945  0.4296
 6611SOL     OW31291   1.542   4.451   8.625  0.3030  0.1677 -0.0746
 6611SOL    HW131292   1.471   4.487   8.572  0.4101  0.3728 -0.0788
 6611SOL    HW231293   1.612   4.427   8.564  1.7795  0.1842  1.6268
 6612SOL     OW31294   4.056   2.619   9.999  0.3932  0.2695 -0.0343
 6612SOL    HW131295   4.138   2.592  10.040  0.8992  2.7199  0.5476
 6612SOL    HW231296   4.001   2.628  10.077 -0.0828 -0.1118 -0.3254
 6613SOL     OW31297   2.823   1.430   8.748 -0.5928 -0.2102  0.2305
 6613SOL    HW131298   2.766   1.353   8.741  0.0062 -0.4648 -1.9613
 6613SOL    HW231299   2.765   1.496   8.709  0.1210  0.9637  1.1701
 6614SOL     OW31300   2.612   4.076   7.108  0.0643 -0.2470 -0.3435
 6614SOL    HW131301   2.638   4.109   7.022  0.1771 -1.5011 -0.7823
 6614SOL    HW231302   2.616   4.158   7.158  0.6411 -0.7124  0.3626
 6615SOL     OW31303   1.499   1.434  11.763 -0.0246  0.1266 -0.7084
 6615SOL    HW131304   1.514   1.524  11.791  0.5461  0.6016 -2.5177
 6615SOL    HW231305   1.417   1.441  11.716  1.6630  1.0893 -3.5145
 6616SOL     OW31306   2.914   0.498   2.844 -0.3616 -0.5830 -0.3623
 6616SOL    HW131307   2.859   0.450   2.906 -1.0920  1.9165  0.8872
 6616SOL    HW231308   2.979   0.547   2.893 -1.8848 -0.2152  1.2847
 6617SOL     OW31309   0.790   0.829  10.720 -0.4601  0.7611 -0.1732
 6617SOL    HW131310   0.815   0.895  10.655  1.2231 -1.5661 -1.9232
 6617SOL    HW231311   0.820   0.854  10.807  0.5311 -1.3981  0.0939
 6618SOL     OW31312   2.772   3.623   1.725 -0.0916 -0.2549 -0.0347
 6618SOL    HW131313   2.830   3.681   1.775 -1.1640 -0.0289  0.9633
 6618SOL    HW231314   2.829   3.547   1.716  0.1088 -0.3690  2.2399
 6619SOL     OW31315   4.529   0.690   9.999 -0.1020 -0.4476  0.2698
 6619SOL    HW131316   4.473   0.615  10.020 -1.4183  0.2863 -0.6166
 6619SOL    HW231317   4.580   0.645   9.932 -0.3168 -0.2888 -0.0023
 6620SOL     OW31318   1.670   1.036   1.586 -0.2556 -0.3202  0.5165
 6620SOL    HW131319   1.599   1.061   1.645  0.1951 -0.3315  1.0660
 6620SOL    HW231320   1.722   0.970   1.631  0.6205 -1.0347 -1.5197
 6621SOL     OW31321   0.397   1.435   8.708  0.0258  0.3394 -0.0709
 6621SOL    HW131322   0.427   1.346   8.693 -0.0597  0.6991 -2.4167
 6621SOL    HW231323   0.353   1.418   8.791  0.6577 -0.4926  0.0952
 6622SOL     OW31324   1.986   1.110   0.880  0.1474 -0.0596  0.1014
 6622SOL    HW131325   2.077   1.107   0.909 -0.0451  0.5304  0.7552
 6622SOL    HW231326   1.969   1.016   0.875 -0.9487  0.0223  2.3988
 6623SOL     OW31327   2.037   2.180   1.662 -0.7025  0.2486 -0.1430
 6623SOL    HW131328   2.092   2.245   1.619  2.3249 -1.4884  1.1648
 6623SOL    HW231329   2.089   2.146   1.735 -0.6101  1.1174  0.2003
 6624SOL     OW31330   3.127   3.176   8.654 -0.2420 -0.9189  0.6261
 6624SOL    HW131331   3.175   3.238   8.709 -3.4322  0.8261  1.4389
 6624SOL    HW231332   3.191   3.106   8.645  0.6062  0.5203 -4.3968
 6625SOL     OW31333   1.627   4.161   7.673  0.1913  0.4062  0.3328
 6625SOL    HW131334   1.577   4.119   7.743 -0.5262  0.2928 -0.2494
 6625SOL    HW231335   1.553   4.193   7.622 -0.0830 -1.5492 -0.4856
 6626SOL     OW31336   3.247   2.591  14.925  0.0929  0.1454  0.0358
 6626SOL    HW131337   3.260   2.654  14.854 -0.3851 -1.6181 -1.6161
 6626SOL    HW231338   3.283   2.630  15.005 -0.6539 -0.8534  0.8523
 6627SOL     OW31339   2.017   2.423  11.861  0.0122  0.2218  0.3039
 6627SOL    HW131340   2.005   2.451  11.952  0.8275  1.9174 -0.1136
 6627SOL    HW231341   2.113   2.421  11.858  0.0269 -0.8861  1.5552
 6628SOL     OW31342   2.384   4.271   4.168 -0.9941  0.4153  0.5564
 6628SOL    HW131343   2.469   4.273   4.214 -0.4999  1.2126 -0.3906
 6628SOL    HW231344   2.336   4.338   4.216  0.0607  0.6753  1.2631
 6629SOL     OW31345   4.426   2.694   5.596  0.1871  0.3306 -0.0664
 6629SOL    HW131346   4.406   2.601   5.609  0.8065  0.2719  0.4891
 6629SOL    HW231347   4.365   2.718   5.526  0.2024 -1.4762 -0.7080
 6630SOL     OW31348   3.166   4.438   8.594  0.6418  0.3978 -0.0545
 6630SOL    HW131349   3.187   4.469   8.682  1.9428  0.1910 -0.2924
 6630SOL    HW231350   3.182   4.515   8.539 -0.0545  0.0883 -0.6856
 6631SOL     OW31351   2.831   0.666   5.777 -0.6383 -0.1363  0.4392
 6631SOL    HW131352   2.811   0.650   5.870 -0.0302 -0.3398  0.5302
 6631SOL    HW231353   2.891   0.593   5.766 -0.8085 -0.1171 -0.6448
 6632SOL     OW31354   1.563   0.840   5.992  0.3519 -0.1223  0.1009
 6632SOL    HW131355   1.595   0.917   6.038 -0.7146  0.6499 -0.4348
 6632SOL    HW231356   1.513   0.890   5.927  1.8205  0.7838 -0.3271
 6633SOL     OW31357   0.908   1.329   3.487  0.1018  0.7561 -0.3865
 6633SOL    HW131358   0.913   1.392   3.559  2.7918 -1.6456  1.5287
 6633SOL    HW231359   0.947   1.377   3.415  2.2244  1.2623  1.1098
 6634SOL     OW31360   3.091   0.567   8.652 -0.1316  0.6060 -0.3063
 6634SOL    HW131361   3.043   0.510   8.592 -0.7437  0.2524  0.5118
 6634SOL    HW231362   3.077   0.529   8.739 -0.1432 -0.3104 -0.7101
 6635SOL     OW31363   1.695   0.019   3.183  0.1832  0.1620 -0.1339
 6635SOL    HW131364   1.671   4.664   3.239  0.8057  0.1562  0.1266
 6635SOL    HW231365   1.767   0.052   3.236  1.3052 -1.0929 -0.8624
 6636SOL     OW31366   3.971   1.602   2.857  0.6384 -0.5090 -0.4959
 6636SOL    HW131367   3.892   1.656   2.858  1.3397  0.4852  0.5672
 6636SOL    HW231368   4.045   1.655   2.885  0.3099 -0.8608  1.0031
 6637SOL     OW31369   3.311   3.675  14.704 -0.7187  0.2361 -0.5330
 6637SOL    HW131370   3.293   3.641  14.791 -0.5448 -0.9625 -0.9656
 6637SOL    HW231371   3.228   3.723  14.699  1.0703  3.2695 -1.5427
 6638SOL     OW31372   3.877   2.586   4.068 -0.0976 -0.0077  0.3197
 6638SOL    HW131373   3.825   2.663   4.041  0.0333  0.6120  1.8362
 6638SOL    HW231374   3.953   2.605   4.014 -0.6147 -0.3888 -0.5384
 6639SOL     OW31375   2.361   4.015   8.400 -0.2984 -0.0162  0.1882
 6639SOL    HW131376   2.360   3.946   8.334  2.9762 -1.2849  1.4874
 6639SOL    HW231377   2.441   3.988   8.444 -0.5508  1.6757  1.6818
 6640SOL     OW31378   4.478   0.938  11.673  0.3119  0.6093 -0.2174
 6640SOL    HW131379   4.556   0.966  11.626  0.9433  0.0219  0.4885
 6640SOL    HW231380   4.421   1.015  11.668 -0.4680 -0.1270 -2.3932
 6641SOL     OW31381   1.271   4.704  10.180  0.1350 -0.1237 -0.3757
 6641SOL    HW131382   1.356   4.698  10.136  0.7917 -1.2412  1.0696
 6641SOL    HW231383   1.231   0.058  10.132 -0.8149 -0.2467  0.2245
 6642SOL     OW31384   1.373   2.229   4.329 -0.1847 -0.1990 -0.4638
 6642SOL    HW131385   1.454   2.178   4.336 -0.0447  0.1130  0.2183
 6642SOL    HW231386   1.405   2.308   4.373 -1.1506 -0.9215  1.5523
 6643SOL     OW31387   2.872   3.927   7.484  0.2661  0.2496  0.5751
 6643SOL    HW131388   2.817   3.936   7.406  2.4121  3.3384 -0.6179
 6643SOL    HW231389   2.882   3.833   7.493 -2.3810  0.0771  1.6873
 6644SOL     OW31390   1.751   1.229   1.227  0.0898 -0.5108  0.1860
 6644SOL    HW131391   1.766   1.268   1.141 -0.8185  0.8436  0.6579
 6644SOL    HW231392   1.803   1.149   1.214 -1.7311 -1.5455 -0.7696
 6645SOL     OW31393   0.215   1.316  16.684 -0.0895  0.2402 -0.1184
 6645SOL    HW131394   0.283   1.289  16.746 -0.9923  0.1535  0.8272
 6645SOL    HW231395   0.184   1.227  16.665  0.6674 -0.7608  3.2163
 6646SOL     OW31396   2.951   3.880   2.748  0.1453 -0.0572  0.1345
 6646SOL    HW131397   2.871   3.839   2.782 -0.3694  0.5152 -0.3741
 6646SOL    HW231398   2.953   3.864   2.654  0.7566 -2.4073  0.5415
 6647SOL     OW31399   3.320   2.436   7.240  0.7182 -0.6451 -0.0151
 6647SOL    HW131400   3.330   2.384   7.160 -1.4762 -1.0859  0.0006
 6647SOL    HW231401   3.369   2.517   7.225 -0.2278 -0.2122 -0.7343
 6648SOL     OW31402   2.236   2.763   1.157 -0.0905 -0.0510  0.1932
 6648SOL    HW131403   2.273   2.823   1.222 -0.7218  0.5721 -0.0231
 6648SOL    HW231404   2.302   2.693   1.160  0.6923  0.7918  2.3323
 6649SOL     OW31405   3.483   2.633  15.615 -0.0433 -0.1923  0.4171
 6649SOL    HW131406   3.538   2.698  15.659  0.6870 -0.3965 -0.2063
 6649SOL    HW231407   3.532   2.551  15.611  1.0054  0.5566 -2.2771
 6650SOL     OW31408   3.967   1.895   4.962 -0.6870  0.2814 -0.5143
 6650SOL    HW131409   4.003   1.939   4.885 -1.0862  0.2248 -0.7348
 6650SOL    HW231410   3.933   1.970   5.010  0.7007  1.1038 -0.8243
 6651SOL     OW31411   2.701   2.491   0.517 -0.4598  0.4316  0.1825
 6651SOL    HW131412   2.759   2.435   0.465 -1.4936  0.0783 -0.5862
 6651SOL    HW231413   2.663   2.417   0.565  0.2971 -0.4197 -0.5119
 6652SOL     OW31414   2.598   2.856   7.282  0.2034 -0.2487  0.2727
 6652SOL    HW131415   2.641   2.941   7.276  1.0740 -0.7334 -0.4392
 6652SOL    HW231416   2.672   2.802   7.309  1.6068  1.7297  0.3263
 6653SOL     OW31417   0.835   0.768   7.060  0.2765 -0.1162 -0.3924
 6653SOL    HW131418   0.814   0.852   7.020  0.4450 -0.0000 -0.2334
 6653SOL    HW231419   0.893   0.786   7.134  2.7808 -3.1533 -1.6324
 6654SOL     OW31420   0.302   2.940  17.053 -0.6442  0.0456 -0.3473
 6654SOL    HW131421   0.271   2.865  17.003 -0.0393  0.3898 -1.2391
 6654SOL    HW231422   0.233   3.004  17.037 -0.8856 -0.1446 -0.0786
 6655SOL     OW31423   3.560   2.345  15.507 -0.2139 -0.0921 -0.0386
 6655SOL    HW131424   3.528   2.259  15.532 -0.5085  0.2187  0.6415
 6655SOL    HW231425   3.506   2.362  15.429  2.7257  2.6846 -1.5072
 6656SOL     OW31426   4.235   0.388   3.335 -0.0917  0.1084 -0.3710
 6656SOL    HW131427   4.150   0.430   3.334  0.6180  1.5287 -2.1366
 6656SOL    HW231428   4.279   0.415   3.254  2.9347  0.4495  1.3781
 6657SOL     OW31429   3.880   1.034   8.239  0.2511 -0.4497 -0.1921
 6657SOL    HW131430   3.822   1.074   8.174 -2.2096  2.4219  3.8036
 6657SOL    HW231431   3.913   1.107   8.291 -0.7655 -0.1257  0.0077
 6658SOL     OW31432   3.838   4.121   9.803  0.0782  0.0091 -0.0189
 6658SOL    HW131433   3.831   4.058   9.875  0.4158 -0.5600 -0.4859
 6658SOL    HW231434   3.866   4.200   9.850 -1.1087 -0.0360  0.7640
 6659SOL     OW31435   3.614   3.451  14.294  0.7643  0.5873  0.7720
 6659SOL    HW131436   3.631   3.499  14.376  0.1656 -0.2412  1.3865
 6659SOL    HW231437   3.607   3.363  14.332  0.0704  0.5539  0.5673
 6660SOL     OW31438   2.368   0.731  14.960 -0.0739 -0.0690  0.7213
 6660SOL    HW131439   2.405   0.814  14.929  0.0564  0.0397  1.1733
 6660SOL    HW231440   2.437   0.699  15.017 -0.5955  0.7539  1.8043
 6661SOL     OW31441   0.440   1.830  14.993 -0.3425 -0.4828 -0.1182
 6661SOL    HW131442   0.494   1.795  14.922  1.0343 -0.0265  0.7231
 6661SOL    HW231443   0.432   1.760  15.058  0.2757 -0.3486  0.1004
 6662SOL     OW31444   1.053   1.066   3.398 -0.4925  0.1441 -0.5863
 6662SOL    HW131445   0.985   1.089   3.335 -0.2485 -1.0317 -1.2618
 6662SOL    HW231446   1.025   1.123   3.470  0.0021 -0.0023 -0.2725
 6663SOL     OW31447   3.272   4.286   8.864 -0.0599  0.4521  0.1661
 6663SOL    HW131448   3.336   4.298   8.934  0.2725 -0.2612 -0.0126
 6663SOL    HW231449   3.227   4.213   8.906  0.7676  0.2587  0.7184
 6664SOL     OW31450   3.842   4.337   5.837  0.0699  0.2043  0.8592
 6664SOL    HW131451   3.909   4.351   5.903  1.4550  0.6855 -0.6510
 6664SOL    HW231452   3.763   4.301   5.878 -1.2885  1.4251 -0.6508
 6665SOL     OW31453   1.905   2.321   7.882  0.2776 -0.2108 -0.5629
 6665SOL    HW131454   1.982   2.271   7.854 -1.7147 -2.2891 -2.4010
 6665SOL    HW231455   1.876   2.281   7.964  1.8527  2.8868  1.4667
 6666SOL     OW31456   3.549   4.405  13.924 -0.4004 -0.4845 -0.0755
 6666SOL    HW131457   3.515   4.492  13.901  0.1621 -0.4018 -0.5952
 6666SOL    HW231458   3.641   4.425  13.908  0.1805  0.6946  4.6263
 6667SOL     OW31459   2.815   3.383   4.630 -0.0264  0.4295  0.2914
 6667SOL    HW131460   2.837   3.474   4.650  4.6043 -0.2665 -1.7996
 6667SOL    HW231461   2.837   3.360   4.540  1.2402 -1.6082  1.1147
 6668SOL     OW31462   4.091   2.846   8.177 -0.0046 -0.0724 -0.0633
 6668SOL    HW131463   4.004   2.873   8.146 -0.7128 -1.4099  0.7885
 6668SOL    HW231464   4.077   2.853   8.272  1.6830  0.5960  0.1301
 6669SOL     OW31465   2.584   3.406  14.363 -0.3523 -0.0487  0.2877
 6669SOL    HW131466   2.662   3.456  14.387 -0.9939  1.4197 -0.7008
 6669SOL    HW231467   2.520   3.467  14.399  1.3292  1.5659  0.5257
 6670SOL     OW31468   2.434   3.684   9.864 -0.1706  0.3175  0.3904
 6670SOL    HW131469   2.391   3.739   9.930 -0.9497  0.1012  0.0654
 6670SOL    HW231470   2.444   3.750   9.796  1.8395  0.0231  0.4096
 6671SOL     OW31471   3.254   1.094   9.589 -0.2305 -0.0282  0.9241
 6671SOL    HW131472   3.288   1.143   9.664  1.4650 -1.0918  0.8684
 6671SOL    HW231473   3.293   1.008   9.608  1.4516 -0.0374 -2.5522
 6672SOL     OW31474   2.102   2.354   6.213 -0.0160  0.1887  0.1376
 6672SOL    HW131475   2.187   2.355   6.256 -0.9179 -0.1350  1.9200
 6672SOL    HW231476   2.126   2.360   6.121  1.8529 -0.6728  0.5644
 6673SOL     OW31477   1.682   4.227   9.281  0.4023 -0.1833 -0.3286
 6673SOL    HW131478   1.603   4.261   9.323 -0.2342 -1.3082 -0.6209
 6673SOL    HW231479   1.664   4.134   9.297  1.0524 -0.1827  0.4292
 6674SOL     OW31480   4.076   1.518   5.417 -0.5098  0.0371 -0.3251
 6674SOL    HW131481   4.005   1.536   5.356 -1.4967 -1.4345  0.3868
 6674SOL    HW231482   4.055   1.442   5.470 -0.4525 -1.1111 -1.9569
 6675SOL     OW31483   1.270   2.008   2.913 -0.5760  0.0673 -0.0161
 6675SOL    HW131484   1.360   1.996   2.944 -0.0020  0.2925 -1.5680
 6675SOL    HW231485   1.275   1.975   2.823  1.9040 -3.3610  1.3446
 6676SOL     OW31486   4.002   4.685   7.328  0.6001  0.1473 -0.0213
 6676SOL    HW131487   3.980   4.682   7.421  0.2565 -0.6054 -0.1230
 6676SOL    HW231488   3.913   4.680   7.294  0.4789  3.5526 -0.1161
 6677SOL     OW31489   4.178   3.179   2.676  0.1139  0.5315 -0.4266
 6677SOL    HW131490   4.116   3.229   2.730 -2.1629 -1.7111 -0.9653
 6677SOL    HW231491   4.200   3.108   2.736 -1.6755  0.1334 -0.2320
 6678SOL     OW31492   4.078   4.682   8.473  0.0996  0.4629 -0.2338
 6678SOL    HW131493   4.054   0.027   8.540 -1.2280 -1.3618  1.0644
 6678SOL    HW231494   4.123   4.619   8.531 -0.4411  0.8843  0.6461
 6679SOL     OW31495   0.698   3.790   4.365  0.4436 -0.2629  0.2512
 6679SOL    HW131496   0.752   3.713   4.385  2.6166  0.5799 -2.3215
 6679SOL    HW231497   0.610   3.761   4.388  0.9190 -1.3386  0.7480
 6680SOL     OW31498   0.956   1.058   0.987 -0.0878  0.3312  0.4302
 6680SOL    HW131499   0.892   0.995   0.954 -0.4184  0.0843  1.5170
 6680SOL    HW231500   0.940   1.065   1.081  1.4185  0.9932  0.6455
 6681SOL     OW31501   2.714   3.604   7.295 -0.1280  0.4877  0.1375
 6681SOL    HW131502   2.621   3.613   7.316  0.1461  3.6167 -0.0251
 6681SOL    HW231503   2.721   3.690   7.254  2.3739 -0.0402 -0.5460
 6682SOL     OW31504   2.082   1.931  11.568  0.0633  0.7673  0.0821
 6682SOL    HW131505   2.063   1.971  11.653  0.2724 -2.0882  1.5025
 6682SOL    HW231506   2.176   1.924  11.580 -0.0854 -0.0223  0.8329
 6683SOL     OW31507   3.525   3.496   6.980  0.5313 -0.5451  0.4792
 6683SOL    HW131508   3.508   3.590   6.992 -0.5648 -0.8784  1.5028
 6683SOL    HW231509   3.493   3.463   7.064 -0.5584  1.6031  0.9164
 6684SOL     OW31510   0.549   4.594   2.905 -0.0410 -0.0001  0.5653
 6684SOL    HW131511   0.502   4.542   2.839  0.9679 -1.2498  0.8322
 6684SOL    HW231512   0.629   4.613   2.856 -1.0416  0.9989 -0.6849
 6685SOL     OW31513   2.790   1.980   5.976  0.2498  0.6810 -0.3237
 6685SOL    HW131514   2.701   1.983   5.940  0.0722 -0.4575  0.0220
 6685SOL    HW231515   2.785   2.034   6.055  1.0279  0.4059 -0.0912
 6686SOL     OW31516   2.190   0.309   1.816 -0.3406 -0.1401  0.1205
 6686SOL    HW131517   2.203   0.402   1.796  2.5965 -0.6265 -0.3184
 6686SOL    HW231518   2.202   0.261   1.734  2.1385  1.2718 -0.3720
 6687SOL     OW31519   1.556   4.116  13.797 -0.1951  0.4548  0.0661
 6687SOL    HW131520   1.608   4.178  13.848  0.7005  1.0957 -1.6249
 6687SOL    HW231521   1.614   4.050  13.761 -0.2688  0.7125 -0.5296
 6688SOL     OW31522   1.368   1.620   2.254 -0.1450  0.0445 -0.4087
 6688SOL    HW131523   1.353   1.527   2.271  0.7052 -0.3246 -1.6725
 6688SOL    HW231524   1.323   1.656   2.330  1.9786  2.6477 -0.3851
 6689SOL     OW31525   1.518   2.088   8.255  0.7222  0.2507 -0.7554
 6689SOL    HW131526   1.518   2.064   8.348  1.3942  0.6345 -0.6634
 6689SOL    HW231527   1.481   2.013   8.208 -0.8987 -0.6280  1.8872
 6690SOL     OW31528   1.735   2.366   5.630 -0.2563  0.0157  0.3460
 6690SOL    HW131529   1.757   2.295   5.571 -0.6541 -1.1720  1.6220
 6690SOL    HW231530   1.750   2.334   5.719  0.5018 -1.6232 -0.3606
 6691SOL     OW31531   2.541   3.543   7.846 -0.5986  0.5699 -0.2719
 6691SOL    HW131532   2.495   3.459   7.856 -1.6916  1.0869 -0.9565
 6691SOL    HW231533   2.459   3.591   7.836 -1.2123 -0.3442  0.3041
 6692SOL     OW31534   3.602   1.453  10.351 -0.3388  0.2845 -0.6003
 6692SOL    HW131535   3.559   1.468  10.267 -0.2542 -0.5276 -0.7845
 6692SOL    HW231536   3.693   1.449  10.323 -0.4479  0.9945 -1.0548
 6693SOL     OW31537   2.726   1.727  11.201  0.8133 -0.0729 -0.0582
 6693SOL    HW131538   2.805   1.709  11.252  2.4495  1.8909 -1.8679
 6693SOL    HW231539   2.727   1.656  11.137  1.8040  0.8921 -1.1076
 6694SOL     OW31540   2.110   0.724   5.962  0.4616  0.1985 -0.0948
 6694SOL    HW131541   2.084   0.757   5.876  2.0811  1.8805  0.0596
 6694SOL    HW231542   2.140   0.638   5.932 -0.9342  0.1950 -1.4522
 6695SOL     OW31543   0.166   0.625   6.930 -0.5632 -0.4907  0.2298
 6695SOL    HW131544   0.226   0.576   6.986 -0.6561 -1.1944 -0.2845
 6695SOL    HW231545   0.083   0.586   6.958 -1.5909  2.0025  0.7546
 6696SOL     OW31546   3.371   3.701  11.999  0.4471  0.1322 -0.1797
 6696SOL    HW131547   3.417   3.710  11.916  0.3327  3.6182  0.1654
 6696SOL    HW231548   3.439   3.664  12.055  2.1676  3.4603 -0.0834
 6697SOL     OW31549   4.099   3.940  13.404  0.0952 -0.2469  0.1091
 6697SOL    HW131550   4.065   4.029  13.397 -1.9799 -0.9004  2.1303
 6697SOL    HW231551   4.144   3.936  13.319 -1.2997  1.0974 -0.6817
 6698SOL     OW31552   2.137   1.621   3.298  0.4520  0.7625  0.6814
 6698SOL    HW131553   2.223   1.626   3.339  1.1997  1.6757 -1.0075
 6698SOL    HW231554   2.143   1.693   3.235  2.7535  0.0719  0.1151
 6699SOL     OW31555   2.388   1.209  15.592 -0.3950 -0.1138 -0.2910
 6699SOL    HW131556   2.305   1.252  15.614  0.8446  1.8330  0.6185
 6699SOL    HW231557   2.446   1.281  15.618  0.1621 -0.6315 -0.0976
 6700SOL     OW31558   0.581   1.840   8.448 -0.2357  0.2152  0.4090
 6700SOL    HW131559   0.527   1.778   8.498  0.8627  0.4629  1.8977
 6700SOL    HW231560   0.545   1.920   8.485 -1.0532 -1.0328  2.3258
 6701SOL     OW31561   2.576   2.394  16.677 -0.1598  0.0015  0.3594
 6701SOL    HW131562   2.523   2.315  16.669 -1.6453  1.0187  0.0785
 6701SOL    HW231563   2.563   2.418  16.768 -1.8224 -0.2457  0.1823
 6702SOL     OW31564   3.132   3.268   3.017  0.2965 -0.2546 -0.7364
 6702SOL    HW131565   3.201   3.299   3.075  1.6049 -3.8515 -0.3962
 6702SOL    HW231566   3.140   3.335   2.949 -3.0759  0.7034 -0.1894
 6703SOL     OW31567   1.943   2.351  16.347  0.5807 -0.4662  0.1777
 6703SOL    HW131568   1.989   2.300  16.414 -1.7021 -2.8368 -0.0430
 6703SOL    HW231569   1.997   2.341  16.269 -1.0780  1.1051 -1.1640
 6704SOL     OW31570   4.201   0.972   6.613 -0.2338  0.3286  0.0752
 6704SOL    HW131571   4.195   0.902   6.677  1.6940 -0.1083 -0.2270
 6704SOL    HW231572   4.121   0.947   6.567  0.4274  0.1169 -0.9654
 6705SOL     OW31573   4.023   2.364   9.509  0.7508 -0.1649  0.4668
 6705SOL    HW131574   4.081   2.312   9.564 -1.1884 -1.2292  1.5374
 6705SOL    HW231575   4.023   2.435   9.573 -1.3968 -0.2451  0.5810
 6706SOL     OW31576   4.153   0.933   9.097 -0.1312  0.2958  0.2456
 6706SOL    HW131577   4.116   0.855   9.140  1.4253 -0.1678  0.7555
 6706SOL    HW231578   4.232   0.942   9.149  0.2280 -1.5901  0.0495
 6707SOL     OW31579   3.589   1.107   2.778 -0.0263  0.2604 -0.6525
 6707SOL    HW131580   3.672   1.101   2.826  0.6390 -0.6499 -1.9378
 6707SOL    HW231581   3.535   1.172   2.823  0.4862  0.1281  0.1532
 6708SOL     OW31582   2.444   3.891  15.806 -0.8914 -0.0005  0.2667
 6708SOL    HW131583   2.357   3.930  15.808 -1.9969 -2.4220 -0.4110
 6708SOL    HW231584   2.456   3.881  15.712  1.0049 -0.5227  0.5653
 6709SOL     OW31585   4.263   1.278   6.827  0.0893  0.5134  0.2414
 6709SOL    HW131586   4.305   1.351   6.780 -0.8888 -0.3853 -2.0211
 6709SOL    HW231587   4.332   1.212   6.821 -1.3691 -0.9180 -0.6007
 6710SOL     OW31588   3.646   2.549   6.912 -0.1569  0.1317 -0.1645
 6710SOL    HW131589   3.733   2.525   6.946  0.1659 -0.1455 -1.1902
 6710SOL    HW231590   3.666   2.598   6.833 -2.2074  1.2999  0.0527
 6711SOL     OW31591   2.812   3.045  15.985  0.7576  0.0977 -0.0909
 6711SOL    HW131592   2.769   3.128  16.003 -0.2882 -0.5587  0.4613
 6711SOL    HW231593   2.785   2.978  16.048 -2.5795  1.0822 -0.4932
 6712SOL     OW31594   0.703   2.761   6.649 -1.1975  0.0758  0.6029
 6712SOL    HW131595   0.654   2.710   6.585  1.5843 -1.2947 -0.4274
 6712SOL    HW231596   0.695   2.852   6.620  0.4484  0.0174 -0.0059
 6713SOL     OW31597   1.378   0.268   5.972 -0.1508 -0.0905  0.2270
 6713SOL    HW131598   1.386   0.261   5.877  0.1989  0.8438  0.1842
 6713SOL    HW231599   1.377   0.175   5.992  0.2815 -0.1927 -0.2395
 6714SOL     OW31600   0.963   3.304   1.968 -0.7212  0.0121 -0.3920
 6714SOL    HW131601   0.976   3.285   1.875 -1.1824  2.2555 -0.9122
 6714SOL    HW231602   1.050   3.280   2.000 -0.9162 -1.6482 -1.0837
 6715SOL     OW31603   4.507   4.235   7.995 -0.1358  0.2479  0.2144
 6715SOL    HW131604   4.508   4.328   7.976 -1.1620 -0.2561 -2.3534
 6715SOL    HW231605   4.488   4.237   8.089 -0.3698 -0.2528  0.1821
 6716SOL     OW31606   2.366   0.294   4.053 -0.1434  0.0814  0.1402
 6716SOL    HW131607   2.287   0.323   4.007  1.1181  0.4485 -1.8000
 6716SOL    HW231608   2.333   0.221   4.105 -0.1915 -1.4256 -1.9765
 6717SOL     OW31609   2.035   1.803   2.780 -0.6447  0.1804 -0.2594
 6717SOL    HW131610   1.978   1.835   2.710 -1.0056  0.6354  0.2420
 6717SOL    HW231611   2.064   1.727   2.729  1.0171 -2.4951  4.6528
 6718SOL     OW31612   2.261   0.770  12.859 -0.2651 -0.4697 -0.4856
 6718SOL    HW131613   2.212   0.689  12.870 -0.1604 -0.5025 -0.2518
 6718SOL    HW231614   2.298   0.757  12.772 -2.6793 -3.8971 -0.9709
 6719SOL     OW31615   0.630   2.228   7.681  0.1482 -0.4366  0.2567
 6719SOL    HW131616   0.680   2.297   7.725  0.8713 -0.2669 -0.8216
 6719SOL    HW231617   0.696   2.197   7.619 -1.4820 -1.1920 -1.1053
 6720SOL     OW31618   3.290   1.635   4.168  0.7720 -0.0691  0.1130
 6720SOL    HW131619   3.302   1.730   4.169  1.9154 -0.2333  0.7018
 6720SOL    HW231620   3.194   1.639   4.169  0.8005  0.8090 -0.1274
 6721SOL     OW31621   3.363   3.636   0.401 -0.1188  0.0146  0.4207
 6721SOL    HW131622   3.454   3.617   0.420  1.6008  2.6538 -5.2193
 6721SOL    HW231623   3.354   3.724   0.438 -1.9534  0.7271 -1.7379
 6722SOL     OW31624   1.506   4.060   8.927  0.0569  0.2907  0.2624
 6722SOL    HW131625   1.578   4.117   8.902  0.8203 -1.2451 -1.0661
 6722SOL    HW231626   1.468   4.099   9.006  0.6137  0.2688  0.5456
 6723SOL     OW31627   0.501   2.019   2.830 -0.2240  0.2061  0.2973
 6723SOL    HW131628   0.591   2.027   2.799 -0.2750 -0.5276 -0.0487
 6723SOL    HW231629   0.451   2.048   2.754  0.7403 -0.0070 -0.4322
 6724SOL     OW31630   2.160   2.932  16.704 -0.1233 -0.3154 -0.5774
 6724SOL    HW131631   2.229   2.878  16.741 -0.6408  0.0406  0.9346
 6724SOL    HW231632   2.108   2.866  16.657  1.9797  0.3584 -3.8299
 6725SOL     OW31633   3.367   2.529   3.985  0.6059  0.0414  0.4333
 6725SOL    HW131634   3.412   2.605   4.021  1.3766 -0.5056  0.6308
 6725SOL    HW231635   3.407   2.501   3.903  1.9941  0.3178  1.0231
 6726SOL     OW31636   0.419   2.978  13.790  0.4593 -0.2216 -0.3658
 6726SOL    HW131637   0.488   3.023  13.741  0.8862 -0.9521 -0.4445
 6726SOL    HW231638   0.413   3.034  13.867  1.7631  0.6022 -0.8654
 6727SOL     OW31639   2.280   2.427   1.227  0.2379  0.2662 -0.3616
 6727SOL    HW131640   2.250   2.396   1.141 -0.4899 -1.2054  0.4276
 6727SOL    HW231641   2.368   2.390   1.235 -0.8693 -2.8175 -2.5663
 6728SOL     OW31642   1.191   4.159  13.524  0.0676 -0.4039  0.2023
 6728SOL    HW131643   1.102   4.193  13.511 -0.4344 -1.7647  0.0580
 6728SOL    HW231644   1.226   4.156  13.435  0.1474 -0.6050  0.2427
 6729SOL     OW31645   4.166   2.094   3.573 -0.7417 -0.0227 -0.6170
 6729SOL    HW131646   4.151   2.126   3.662 -0.2045  2.9665 -1.5894
 6729SOL    HW231647   4.236   2.152   3.544 -1.4839  0.7020 -0.9653
 6730SOL     OW31648   0.760   2.831   8.743 -0.4555  0.9067 -0.3755
 6730SOL    HW131649   0.747   2.743   8.707  2.1798 -0.1605  1.2805
 6730SOL    HW231650   0.855   2.834   8.755 -0.2604 -0.5100 -1.5573
 6731SOL     OW31651   0.296   1.349  13.184  0.4010 -0.1569 -0.0115
 6731SOL    HW131652   0.216   1.374  13.139  1.3322  0.3939 -1.3516
 6731SOL    HW231653   0.361   1.342  13.114  1.2693 -0.5427  0.8382
 6732SOL     OW31654   4.639   0.438  17.444 -0.0660 -0.4080 -0.3290
 6732SOL    HW131655   4.667   0.399  17.361 -0.8500  1.1765 -1.3425
 6732SOL    HW231656   4.559   0.478  17.410  1.0947  1.0567 -1.3645
 6733SOL     OW31657   0.057   3.989   6.330  0.0935  0.1297 -0.5484
 6733SOL    HW131658   0.077   3.981   6.236 -0.2089 -1.5832 -0.4712
 6733SOL    HW231659   0.056   3.894   6.344 -1.1864  0.3669  0.8967
 6734SOL     OW31660   1.285   0.650   8.406 -0.0692 -0.4557  0.2514
 6734SOL    HW131661   1.346   0.660   8.479 -0.1158  0.5634  0.1575
 6734SOL    HW231662   1.322   0.718   8.350 -1.2855 -1.2248 -1.4656
 6735SOL     OW31663   1.904   3.957   3.256  0.2065 -0.3361  0.3841
 6735SOL    HW131664   1.924   4.050   3.266 -0.5309 -0.4167  2.5255
 6735SOL    HW231665   1.991   3.919   3.243 -0.3875 -0.5496 -3.0400
 6736SOL     OW31666   3.025   1.057   4.384 -0.6064 -0.1630  0.2960
 6736SOL    HW131667   3.028   1.143   4.426  1.9166  0.4471 -1.1133
 6736SOL    HW231668   3.022   1.087   4.293 -1.7831  0.3420  0.5045
 6737SOL     OW31669   4.433   2.492  12.132  0.7352  0.1382 -0.6239
 6737SOL    HW131670   4.429   2.522  12.041 -0.5020 -2.4451 -1.4048
 6737SOL    HW231671   4.518   2.447  12.137 -0.9106 -2.6342  2.0042
 6738SOL     OW31672   1.710   1.118   1.898 -0.2085 -0.3348 -0.1668
 6738SOL    HW131673   1.699   1.103   1.992  0.6480  0.2939  0.0294
 6738SOL    HW231674   1.618   1.132   1.875 -0.3697  0.8843  1.2415
 6739SOL     OW31675   2.290   2.965  14.894 -0.1887  0.1535 -0.6018
 6739SOL    HW131676   2.290   2.881  14.849 -1.7869 -1.8388  3.0318
 6739SOL    HW231677   2.372   2.969  14.943  0.5376  0.6124 -1.8648
 6740SOL     OW31678   1.363   2.493   3.715  0.1899  0.1748  0.2193
 6740SOL    HW131679   1.410   2.421   3.758 -0.0710  0.8303  1.5828
 6740SOL    HW231680   1.441   2.535   3.678  0.7914 -0.3649  0.8762
 6741SOL     OW31681   3.448   3.145   1.494  0.3423 -0.2460 -0.2744
 6741SOL    HW131682   3.377   3.130   1.431 -1.3065  2.0025  1.0847
 6741SOL    HW231683   3.509   3.197   1.441  0.1008  0.8871  0.5778
 6742SOL     OW31684   3.875   1.558   6.478 -0.3468 -0.2537 -0.1412
 6742SOL    HW131685   3.932   1.543   6.402 -1.1451  2.7795 -1.3413
 6742SOL    HW231686   3.936   1.607   6.533  0.3457 -1.0853 -0.1571
 6743SOL     OW31687   2.963   4.464   6.794  0.1654  0.2777 -0.4239
 6743SOL    HW131688   2.888   4.463   6.734 -1.3630 -2.6959  1.5317
 6743SOL    HW231689   3.029   4.448   6.726  1.1457  0.9398  0.3821
 6744SOL     OW31690   4.573   2.017   6.761  0.4474 -0.3816  0.1388
 6744SOL    HW131691   4.559   2.038   6.669  1.5011 -1.7609 -0.3360
 6744SOL    HW231692   4.667   1.999   6.768  0.1591 -1.2731  1.6209
 6745SOL     OW31693   0.402   0.559   3.982  0.1628  0.2636 -0.1339
 6745SOL    HW131694   0.447   0.636   3.946  0.3235  0.2868  0.1144
 6745SOL    HW231695   0.315   0.576   3.947  0.6271  0.5578 -1.1572
 6746SOL     OW31696   0.256   1.688  16.601 -0.1700 -0.3248 -0.4197
 6746SOL    HW131697   0.345   1.670  16.631 -0.1236  0.0334 -0.3491
 6746SOL    HW231698   0.228   1.608  16.555 -1.3907  0.6484 -1.3656
 6747SOL     OW31699   0.502   2.977   6.330 -0.1558  0.0357 -0.0590
 6747SOL    HW131700   0.519   2.971   6.236 -1.1476  1.5499 -0.3328
 6747SOL    HW231701   0.408   2.969   6.349  0.0176  0.1732  0.8353
 6748SOL     OW31702   3.979   0.954  11.394  0.1039 -0.0547 -0.0254
 6748SOL    HW131703   3.962   0.924  11.483 -1.9570  1.5016  0.1185
 6748SOL    HW231704   3.903   1.011  11.376  0.9136  0.1721 -2.6324
 6749SOL     OW31705   2.743   2.921   5.674 -0.9403  0.7124  0.3767
 6749SOL    HW131706   2.725   2.940   5.766  1.9498 -0.5249  1.1947
 6749SOL    HW231707   2.656   2.907   5.638 -0.0638  0.0824 -1.5340
 6750SOL     OW31708   1.707   1.033  17.363  0.1193 -0.4523 -0.1345
 6750SOL    HW131709   1.746   1.009  17.448 -1.2263  0.7374  0.8165
 6750SOL    HW231710   1.619   1.054  17.393  0.6314 -0.2689  1.2755
 6751SOL     OW31711   0.941   3.712  12.184  0.7158 -0.6259 -0.4300
 6751SOL    HW131712   0.883   3.788  12.174  1.3638  0.1771  1.7795
 6751SOL    HW231713   0.988   3.703  12.101 -1.1562 -0.7904 -1.4790
 6752SOL     OW31714   0.831   2.657   0.642  0.1853  0.6687  0.2797
 6752SOL    HW131715   0.810   2.644   0.549 -0.2003 -1.5377  0.6673
 6752SOL    HW231716   0.751   2.697   0.677 -0.5818 -1.1427  0.5834
 6753SOL     OW31717   1.560   3.670   1.321  0.5532  0.0318 -0.2038
 6753SOL    HW131718   1.482   3.700   1.366 -0.5955  0.5562 -2.5641
 6753SOL    HW231719   1.569   3.580   1.354 -1.0862  0.9550  2.7101
 6754SOL     OW31720   1.534   3.739   3.900 -0.5915  0.0613 -0.1199
 6754SOL    HW131721   1.576   3.761   3.817 -0.1128 -0.6449 -0.0694
 6754SOL    HW231722   1.491   3.654   3.888 -0.0143 -0.3985  1.0895
 6755SOL     OW31723   4.497   1.935  11.072  0.1740 -0.4038 -0.1490
 6755SOL    HW131724   4.451   2.014  11.100 -0.6811 -1.5874  1.7055
 6755SOL    HW231725   4.513   1.886  11.153 -2.2797  0.9279  1.1251
 6756SOL     OW31726   3.288   1.761   0.641  0.1045  0.4022 -0.0040
 6756SOL    HW131727   3.254   1.847   0.664  0.0657  0.3752  0.0414
 6756SOL    HW231728   3.287   1.767   0.546 -1.2878 -1.3155 -0.1026
 6757SOL     OW31729   1.791   3.881   5.207 -0.1684 -0.0134 -0.5097
 6757SOL    HW131730   1.701   3.865   5.235 -0.3819 -0.5669 -1.5165
 6757SOL    HW231731   1.783   3.877   5.112  2.9707  2.9945 -0.8923
 6758SOL     OW31732   1.416   1.908   4.442 -0.5279  0.6488 -0.1038
 6758SOL    HW131733   1.390   1.816   4.447 -0.2815  0.6774  1.6912
 6758SOL    HW231734   1.387   1.943   4.527  0.6291  1.0831  0.1042
 6759SOL     OW31735   1.532   1.335  13.322 -0.6227  0.4467  0.2758
 6759SOL    HW131736   1.481   1.368  13.247 -1.5052  0.8520  1.0528
 6759SOL    HW231737   1.466   1.376  13.378 -1.2517  0.5392 -0.5168
 6760SOL     OW31738   2.517   1.716  10.936 -0.0969  0.7664 -0.1973
 6760SOL    HW131739   2.540   1.636  10.984  1.5764  0.8112 -0.9231
 6760SOL    HW231740   2.604   1.732  10.899  0.8400  0.0340  1.6584
 6761SOL     OW31741   3.494   2.560   3.338 -0.0582 -0.1076 -0.5636
 6761SOL    HW131742   3.453   2.587   3.255 -2.1812 -0.0527  0.5082
 6761SOL    HW231743   3.585   2.567   3.309  1.0597 -2.3874  2.4328
 6762SOL     OW31744   4.462   1.338  15.087 -0.1393  0.5215 -0.1639
 6762SOL    HW131745   4.428   1.414  15.039 -3.6988 -2.2711 -2.0811
 6762SOL    HW231746   4.557   1.347  15.086 -0.3089  2.4062  1.1149
 6763SOL     OW31747   2.147   2.113   1.904  0.0167 -0.2355 -0.1498
 6763SOL    HW131748   2.181   2.116   1.994  2.5496  0.9174 -1.1395
 6763SOL    HW231749   2.057   2.110   1.934  0.5822 -0.0002  1.5773
 6764SOL     OW31750   3.683   3.719   5.962 -0.1669 -0.3700 -0.3196
 6764SOL    HW131751   3.689   3.638   5.911  1.0112 -0.4752 -0.0074
 6764SOL    HW231752   3.758   3.700   6.018 -0.8129 -2.9245 -0.3054
 6765SOL     OW31753   1.751   2.036  15.311 -0.8056 -0.7554  0.6074
 6765SOL    HW131754   1.669   2.032  15.362 -1.0517 -0.0689  0.2676
 6765SOL    HW231755   1.764   1.947  15.279  1.0625 -1.4688  3.4138
 6766SOL     OW31756   2.236   0.971   6.325 -0.5310 -0.2717 -0.0346
 6766SOL    HW131757   2.187   1.053   6.329  0.3258  0.3164 -1.6190
 6766SOL    HW231758   2.173   0.901   6.341 -1.3163  0.3369 -0.4966
 6767SOL     OW31759   3.741   2.325   8.283  0.0952  0.3882 -0.1294
 6767SOL    HW131760   3.725   2.249   8.339 -1.0783  1.6950  1.3088
 6767SOL    HW231761   3.790   2.286   8.211 -0.5136 -0.4021 -0.1199
 6768SOL     OW31762   1.365   0.055   8.754 -0.6170 -0.3355 -0.2945
 6768SOL    HW131763   1.433   0.047   8.821  1.1057  0.5279 -1.9467
 6768SOL    HW231764   1.299   4.715   8.791  1.2843 -0.9440  2.1370
 6769SOL     OW31765   1.691   4.714   7.997 -0.5474 -0.3417  0.0073
 6769SOL    HW131766   1.744   4.647   7.954 -0.9704  0.2843 -1.4752
 6769SOL    HW231767   1.732   4.716   8.084  2.9000  0.3892 -1.6113
 6770SOL     OW31768   4.158   0.425   6.782 -0.1496  0.1959 -0.1059
 6770SOL    HW131769   4.150   0.389   6.694 -1.9857 -2.7848  1.2911
 6770SOL    HW231770   4.067   0.430   6.811 -0.1564 -0.3508 -0.0399
 6771SOL     OW31771   0.905   2.938   7.875  0.1241 -0.0127 -0.3462
 6771SOL    HW131772   0.985   2.957   7.923 -1.9822 -0.7165  3.5182
 6771SOL    HW231773   0.873   2.857   7.915  0.0564 -0.0907 -0.5576
 6772SOL     OW31774   4.665   0.077   8.753  0.3788  0.1328 -0.2248
 6772SOL    HW131775   4.666   0.074   8.849  1.7232  0.2992 -0.2380
 6772SOL    HW231776   4.681   4.704   8.728  1.1907 -0.0353  0.9212
 6773SOL     OW31777   2.821   3.144   0.928  0.2398  0.5316 -0.5985
 6773SOL    HW131778   2.892   3.193   0.969 -0.9312  2.2155 -0.5710
 6773SOL    HW231779   2.742   3.198   0.936  1.5481  2.2958  0.4715
 6774SOL     OW31780   2.766   3.458   3.936  0.1315  0.0796 -0.8896
 6774SOL    HW131781   2.844   3.465   3.882  0.6623 -1.2307 -0.2830
 6774SOL    HW231782   2.771   3.546   3.974  2.0148 -1.2150  1.8886
 6775SOL     OW31783   3.234   1.880   8.075  0.2744 -0.2747  0.0554
 6775SOL    HW131784   3.315   1.908   8.118  1.2704 -0.5819 -1.6160
 6775SOL    HW231785   3.182   1.954   8.105 -0.0252 -1.2333  1.9195
 6776SOL     OW31786   1.723   0.339   0.004 -0.6899  0.1662  0.8795
 6776SOL    HW131787   1.632   0.352  17.659 -0.5963 -0.1020  0.3838
 6776SOL    HW231788   1.744   0.255  17.642 -0.2151 -0.2712  2.0165
 6777SOL     OW31789   0.275   3.196  15.775 -0.0056  0.0480  0.5847
 6777SOL    HW131790   0.199   3.253  15.776 -0.2184 -0.2448  1.1980
 6777SOL    HW231791   0.288   3.175  15.683  1.0908  2.3904  0.1890
 6778SOL     OW31792   3.233   4.100   3.214  0.4979  0.6809 -0.0451
 6778SOL    HW131793   3.146   4.138   3.227 -0.1638 -0.8433 -0.1341
 6778SOL    HW231794   3.297   4.167   3.239  0.2119  2.3085 -3.7166
 6779SOL     OW31795   3.724   2.800   5.991 -0.4495  0.3567 -0.1288
 6779SOL    HW131796   3.683   2.735   5.933 -0.3971  0.8642 -0.7262
 6779SOL    HW231797   3.689   2.765   6.073  2.0646  1.1088  1.2538
 6780SOL     OW31798   2.986   3.560   5.939  0.2538  0.4671  0.0277
 6780SOL    HW131799   3.020   3.528   5.856 -1.1333 -0.1242 -0.3179
 6780SOL    HW231800   2.925   3.625   5.903 -0.0382  0.3311  0.2805
 6781SOL     OW31801   0.482   1.895   8.753 -0.2231  0.0321  0.2256
 6781SOL    HW131802   0.419   1.831   8.784 -0.6427  0.6836  0.7139
 6781SOL    HW231803   0.561   1.867   8.800  0.0651 -0.4284 -0.5260
 6782SOL     OW31804   2.573   3.645   8.761  0.7297  0.6166 -0.1609
 6782SOL    HW131805   2.545   3.658   8.851 -2.4760  0.7537 -1.1725
 6782SOL    HW231806   2.588   3.738   8.744  1.8711  0.5999  0.7899
 6783SOL     OW31807   1.975   3.018   7.229  0.2587  0.2538 -0.5059
 6783SOL    HW131808   1.889   3.022   7.271 -0.0965  0.4145 -1.2379
 6783SOL    HW231809   1.958   3.057   7.143  0.7458  0.6885 -0.4040
 6784SOL     OW31810   4.235   0.177   6.648 -0.0927  0.4380  0.0875
 6784SOL    HW131811   4.232   0.151   6.740  1.7957 -1.8911 -0.5017
 6784SOL    HW231812   4.329   0.176   6.628 -0.0369  2.6325  0.1946
 6785SOL     OW31813   4.585   0.450   9.025  0.0680  0.1378 -0.7731
 6785SOL    HW131814   4.680   0.438   9.033 -0.0801 -0.1260  0.4752
 6785SOL    HW231815   4.560   0.483   9.111 -1.3510  0.4941 -1.3202
 6786SOL     OW31816   0.176   2.746   3.434 -0.4489 -0.2727  0.6661
 6786SOL    HW131817   0.151   2.674   3.492  0.2993  1.2890  2.8993
 6786SOL    HW231818   0.177   2.813   3.502 -1.7539  0.7500 -0.3165
 6787SOL     OW31819   2.469   0.079   4.293 -0.0654  0.9022 -0.2246
 6787SOL    HW131820   2.456   0.113   4.381  0.2251 -0.6833  0.4305
 6787SOL    HW231821   2.383   0.089   4.253  0.1596  1.0078 -0.6878
 6788SOL     OW31822   0.659   0.508   5.192  0.4628 -0.3213 -0.5653
 6788SOL    HW131823   0.648   0.602   5.180  1.0277 -0.2613 -0.5953
 6788SOL    HW231824   0.587   0.478   5.248  1.4549 -2.4004 -0.4027
 6789SOL     OW31825   1.512   1.975   4.122 -0.2817 -0.2860  0.2302
 6789SOL    HW131826   1.434   1.934   4.159 -1.2213  1.5633  0.2777
 6789SOL    HW231827   1.578   1.908   4.139 -1.9559 -1.8531  0.4925
 6790SOL     OW31828   0.357   0.972   3.867  0.4903  0.1907  0.0430
 6790SOL    HW131829   0.391   1.046   3.918  0.4371 -0.3082  0.8031
 6790SOL    HW231830   0.274   1.013   3.844  0.0752 -0.8029 -0.2162
 6791SOL     OW31831   4.473   1.546   5.943  0.1171  0.3349  0.5537
 6791SOL    HW131832   4.541   1.600   5.984  0.6418  0.6016 -0.6561
 6791SOL    HW231833   4.498   1.459   5.974  1.4744 -0.0498 -1.6011
 6792SOL     OW31834   1.337   0.017  11.156 -0.0960 -0.3488  0.0946
 6792SOL    HW131835   1.349   0.106  11.188  0.3944 -0.2232 -0.4502
 6792SOL    HW231836   1.337   4.682  11.236 -0.8792  1.0892  1.0607
 6793SOL     OW31837   1.209   3.098   7.319 -0.0530  0.0843 -0.0257
 6793SOL    HW131838   1.252   3.059   7.395 -1.4330  0.9881  1.2045
 6793SOL    HW231839   1.162   3.173   7.353 -0.0408  0.1060 -0.0565
 6794SOL     OW31840   1.047   3.567  13.237 -0.4817  0.2667 -1.1671
 6794SOL    HW131841   1.126   3.613  13.264  0.5904 -2.2062 -0.0934
 6794SOL    HW231842   1.066   3.474  13.245  1.2082  0.5586 -1.8971
 6795SOL     OW31843   3.076   0.303   2.689  0.5831  0.2642  0.1536
 6795SOL    HW131844   3.017   0.374   2.663  1.2832  1.0223  0.6400
 6795SOL    HW231845   3.043   0.296   2.779 -1.7960  0.6002 -0.6850
 6796SOL     OW31846   2.121   2.516   8.425 -0.0154 -0.3923  0.5973
 6796SOL    HW131847   2.182   2.589   8.411  1.9212 -2.0574  0.3218
 6796SOL    HW231848   2.148   2.480   8.509 -0.6730 -3.1863 -0.3903
 6797SOL     OW31849   0.044   2.441  15.520 -0.5390  0.1173  0.4565
 6797SOL    HW131850   0.134   2.409  15.519 -1.0312 -1.2043 -0.3734
 6797SOL    HW231851   0.040   2.508  15.451 -0.0249 -2.2902 -1.8971
 6798SOL     OW31852   4.447   3.721   4.695  0.1659 -0.5974  0.1346
 6798SOL    HW131853   4.514   3.789   4.695 -0.0275 -0.4133  0.7793
 6798SOL    HW231854   4.473   3.668   4.619  3.4288 -0.7501  1.3699
 6799SOL     OW31855   1.906   2.248  15.471 -0.6993  0.1430 -0.2430
 6799SOL    HW131856   1.850   2.186  15.425 -2.4195  3.0824 -2.1345
 6799SOL    HW231857   1.882   2.328  15.425 -0.1737  0.7196  0.4687
 6800SOL     OW31858   4.571   1.541   1.855  0.1385 -0.2798 -0.2861
 6800SOL    HW131859   4.483   1.512   1.834  0.1153 -0.4180 -0.0052
 6800SOL    HW231860   4.605   1.464   1.901 -1.6761  0.5485  2.4675
 6801SOL     OW31861   0.172   1.788   2.072 -0.7410 -0.1414  0.2394
 6801SOL    HW131862   0.101   1.763   2.013 -1.8334  1.3913  0.9060
 6801SOL    HW231863   0.130   1.861   2.116 -0.4963  0.1846 -0.0638
 6802SOL     OW31864   2.487   3.524   6.088 -0.5707 -0.0750  0.0274
 6802SOL    HW131865   2.395   3.504   6.074 -0.7634  2.3542 -2.1039
 6802SOL    HW231866   2.542   3.459   6.044  0.7058  1.4786 -0.6767
 6803SOL     OW31867   2.740   2.593  11.263 -0.5945  1.2896 -1.0015
 6803SOL    HW131868   2.679   2.549  11.203  0.1812 -1.2129  0.0505
 6803SOL    HW231869   2.808   2.609  11.198  0.9522 -0.0257  0.3059
 6804SOL     OW31870   4.416   1.552  15.996  0.3342 -0.3378  0.0277
 6804SOL    HW131871   4.322   1.566  15.981  0.5360  0.5598 -0.3751
 6804SOL    HW231872   4.421   1.456  15.994  1.0305 -0.2838 -1.0380
 6805SOL     OW31873   1.373   0.513   3.922  0.4953 -0.2918 -0.3891
 6805SOL    HW131874   1.374   0.487   4.014  3.0083  1.8051  0.1473
 6805SOL    HW231875   1.368   0.428   3.878  0.7420 -0.8397  0.6307
 6806SOL     OW31876   3.180   2.426   9.173 -0.0967 -0.3597 -0.4601
 6806SOL    HW131877   3.136   2.389   9.096 -2.8661 -0.9408  1.4119
 6806SOL    HW231878   3.265   2.450   9.136  1.0626 -1.1887  1.6486
 6807SOL     OW31879   2.170   4.208   6.717 -0.2867  0.0588  0.2155
 6807SOL    HW131880   2.217   4.263   6.654 -0.6691 -0.9977 -0.9940
 6807SOL    HW231881   2.109   4.270   6.756  0.8555 -0.0232  2.1018
 6808SOL     OW31882   4.314   0.460   4.912  0.2581  0.2958 -0.3903
 6808SOL    HW131883   4.324   0.547   4.951 -2.2613  0.2611  0.2684
 6808SOL    HW231884   4.320   0.495   4.823  0.9519  0.5806 -0.2340
 6809SOL     OW31885   2.656   3.085   4.474 -0.4027  0.4847 -0.0587
 6809SOL    HW131886   2.655   3.031   4.553 -2.6184  1.3226  0.4738
 6809SOL    HW231887   2.747   3.081   4.446  0.6130  0.2056  3.2707
 6810SOL     OW31888   1.299   2.358   0.206 -0.1218  0.2012  0.1115
 6810SOL    HW131889   1.387   2.377   0.174 -0.8861  0.4243 -1.8894
 6810SOL    HW231890   1.305   2.386   0.297  2.0598  0.3234 -0.0618
 6811SOL     OW31891   1.172   3.397  13.630  0.3947 -0.6904  0.3887
 6811SOL    HW131892   1.126   3.459  13.686  0.8099 -1.4845  1.5934
 6811SOL    HW231893   1.129   3.319  13.663 -0.6877 -0.3208 -0.1471
 6812SOL     OW31894   4.680   1.772  16.128 -0.3299  0.4117 -0.3422
 6812SOL    HW131895   4.631   1.789  16.208  0.3190  0.4196  0.0540
 6812SOL    HW231896   0.041   1.729  16.159  0.2563  1.0860 -0.9352
 6813SOL     OW31897   2.016   3.922  17.382  0.5326 -0.4897 -0.3970
 6813SOL    HW131898   2.064   4.000  17.355  0.4511 -0.0121  0.8343
 6813SOL    HW231899   2.002   3.891  17.292  1.6923  0.0136 -0.7443
 6814SOL     OW31900   2.032   2.805  17.117 -0.2131  0.1113 -0.3216
 6814SOL    HW131901   1.992   2.721  17.140  0.5448 -0.4165 -0.9537
 6814SOL    HW231902   2.012   2.805  17.023 -0.9660 -0.0258 -0.1649
 6815SOL     OW31903   2.731   4.692  10.900  0.1401  0.0476 -0.1857
 6815SOL    HW131904   2.756   4.618  10.955 -0.8680 -0.2166 -0.0861
 6815SOL    HW231905   2.735   4.655  10.811 -0.5825 -0.7834  0.1252
 6816SOL     OW31906   1.418   0.033   8.021 -0.4344 -0.3507 -0.9912
 6816SOL    HW131907   1.513   0.020   8.020 -0.4173 -0.2970 -0.4839
 6816SOL    HW231908   1.411   0.044   8.116  3.9606 -0.9412 -0.6097
 6817SOL     OW31909   1.582   2.395   0.141  0.0049  0.1697 -0.1803
 6817SOL    HW131910   1.600   2.378   0.048 -2.7944 -0.3555 -0.6216
 6817SOL    HW231911   1.638   2.471   0.155 -0.8275  0.8038 -0.3338
 6818SOL     OW31912   3.925   3.617   4.862 -0.0539  0.5238  0.2810
 6818SOL    HW131913   3.964   3.533   4.885  0.5413  0.3021 -1.5184
 6818SOL    HW231914   3.990   3.644   4.797  0.5534 -1.5498  0.0307
 6819SOL     OW31915   2.256   4.090   7.114 -0.3255  0.7909 -0.1085
 6819SOL    HW131916   2.309   4.012   7.133 -0.2112  0.4515 -1.8045
 6819SOL    HW231917   2.279   4.140   7.192 -1.7293 -0.2184  0.9495
 6820SOL     OW31918   4.701   3.133  10.768  0.0927  0.3925  0.3518
 6820SOL    HW131919   4.650   3.118  10.689  0.1335 -1.9024  0.7506
 6820SOL    HW231920   0.068   3.141  10.727 -0.3942  2.1512 -0.3218
 6821SOL     OW31921   4.667   2.273   5.635 -0.2483  0.0974 -0.0745
 6821SOL    HW131922   4.711   2.265   5.720  1.3550 -4.6420 -1.3723
 6821SOL    HW231923   4.586   2.318   5.659 -0.1850 -0.7888  1.8340
 6822SOL     OW31924   3.784   3.257   2.943  0.2363 -0.0505 -0.1321
 6822SOL    HW131925   3.751   3.309   2.869  1.6111 -0.6718 -1.1753
 6822SOL    HW231926   3.704   3.258   2.996  1.6602 -2.2554  2.0238
 6823SOL     OW31927   3.351   3.520   3.089  0.3628  0.2596  0.3784
 6823SOL    HW131928   3.319   3.606   3.118  0.9491  0.2900  0.9268
 6823SOL    HW231929   3.333   3.469   3.168 -1.2220  0.2039 -0.0059
 6824SOL     OW31930   3.307   0.239   5.762  0.2010  0.5425 -0.3837
 6824SOL    HW131931   3.300   0.314   5.703 -0.7671  0.8968  0.1792
 6824SOL    HW231932   3.260   0.170   5.715 -0.1478 -0.7769  1.8822
 6825SOL     OW31933   2.080   3.069   7.935 -0.1442  0.1907 -0.1573
 6825SOL    HW131934   2.088   2.975   7.919  0.0162  0.2308 -0.3131
 6825SOL    HW231935   2.158   3.101   7.889  0.3073 -0.8871 -0.1259
 6826SOL     OW31936   1.519   0.804   1.777 -0.4283  0.3634 -0.0395
 6826SOL    HW131937   1.483   0.810   1.865  0.7341  0.1853  0.4454
 6826SOL    HW231938   1.613   0.817   1.790 -0.2267  0.2002 -1.3231
 6827SOL     OW31939   4.113   4.600  13.611 -0.0644  0.1322 -0.4235
 6827SOL    HW131940   4.076   4.651  13.683  0.3441 -1.8484  1.1935
 6827SOL    HW231941   4.193   4.649  13.593  0.4062  0.1699  1.8548
 6828SOL     OW31942   3.014   1.373   3.970 -0.1850 -0.7080  0.1049
 6828SOL    HW131943   3.101   1.334   3.962  1.1917  2.6257 -1.1500
 6828SOL    HW231944   3.028   1.463   3.939  0.1202 -0.4887  0.8817
 6829SOL     OW31945   0.252   1.304  14.220 -0.2243 -0.2776 -0.3349
 6829SOL    HW131946   0.314   1.231  14.224  2.1173  1.7576  0.5586
 6829SOL    HW231947   0.237   1.310  14.125 -2.2756  0.6936  0.0530
 6830SOL     OW31948   1.179   1.401   6.429  0.3975  0.1424 -0.2242
 6830SOL    HW131949   1.201   1.379   6.520  0.0330  0.5009 -0.0522
 6830SOL    HW231950   1.195   1.325   6.372 -0.5969  0.0210 -0.3489
 6831SOL     OW31951   1.747   0.256   8.883 -0.0970 -0.0685 -0.4833
 6831SOL    HW131952   1.720   0.223   8.969  1.0405  1.1723  0.3391
 6831SOL    HW231953   1.760   0.350   8.895  2.7728 -0.5852  0.4930
 6832SOL     OW31954   4.311   4.269   2.561  0.1330  0.9078  0.1318
 6832SOL    HW131955   4.389   4.217   2.581 -1.0544 -0.9615 -0.0569
 6832SOL    HW231956   4.255   4.238   2.632  0.2125 -1.0116 -0.6603
 6833SOL     OW31957   0.740   2.293   6.875  0.0426  0.1054 -0.3326
 6833SOL    HW131958   0.747   2.267   6.783 -1.9102 -0.6251 -0.2761
 6833SOL    HW231959   0.660   2.343   6.884 -0.2537 -0.3901 -0.2165
 6834SOL     OW31960   1.059   1.028   8.815  0.4021  0.0140  0.4406
 6834SOL    HW131961   1.149   1.058   8.829  1.0019 -0.4103 -2.5017
 6834SOL    HW231962   1.033   1.083   8.741  1.6175  4.7067  3.4754
 6835SOL     OW31963   4.605   3.327   1.285  0.2087  0.6440  0.6613
 6835SOL    HW131964   4.544   3.311   1.212  1.0519 -1.3512  0.4014
 6835SOL    HW231965   4.682   3.294   1.239  0.1325  2.3149 -0.6536
 6836SOL     OW31966   3.631   1.391   7.134  0.0037 -0.0556 -0.1087
 6836SOL    HW131967   3.679   1.326   7.185 -1.1439  1.6308  3.1362
 6836SOL    HW231968   3.701   1.434   7.086  0.3156 -0.5596 -0.1039
 6837SOL     OW31969   0.366   1.070  11.800  0.2151  0.0056 -0.4130
 6837SOL    HW131970   0.437   1.129  11.777 -0.1930  0.7964  0.3352
 6837SOL    HW231971   0.326   1.057  11.714  0.2679 -3.2133  0.0625
 6838SOL     OW31972   2.202   2.903   8.225 -0.3066  0.9788 -0.1600
 6838SOL    HW131973   2.201   2.998   8.214 -0.2474  1.3008  2.6431
 6838SOL    HW231974   2.239   2.902   8.314 -0.8982 -0.6042  0.0562
 6839SOL     OW31975   3.008   3.782   5.071  0.1282 -0.3796 -0.0794
 6839SOL    HW131976   2.953   3.706   5.055  1.8044 -1.2826 -1.5017
 6839SOL    HW231977   3.054   3.771   5.155  0.0044  1.3218  0.2262
 6840SOL     OW31978   3.302   2.128   7.785 -0.2144 -0.2035 -0.0011
 6840SOL    HW131979   3.229   2.180   7.819  0.2975  0.1865  0.5002
 6840SOL    HW231980   3.307   2.156   7.694  0.6498 -0.7228 -0.1166
 6841SOL     OW31981   0.058   2.646   5.787  0.6302  0.4846 -0.0942
 6841SOL    HW131982   0.106   2.666   5.706  1.2682  1.1190  0.4409
 6841SOL    HW231983   4.711   2.715   5.782  1.6777  1.5336  0.4987
 6842SOL     OW31984   1.016   1.965   4.516 -0.6374  0.2870 -0.8035
 6842SOL    HW131985   1.034   2.056   4.539 -0.8566  0.1827 -0.2237
 6842SOL    HW231986   1.007   1.927   4.603  0.9609 -0.6156 -1.0316
 6843SOL     OW31987   1.874   4.139   7.270 -0.1325  0.0878 -0.3438
 6843SOL    HW131988   1.872   4.158   7.364  2.0295 -1.2539 -0.0218
 6843SOL    HW231989   1.808   4.070   7.263  0.9452 -0.9813 -0.0574
 6844SOL     OW31990   0.847   3.778   2.803 -0.3081  0.3525 -0.6541
 6844SOL    HW131991   0.935   3.793   2.770  0.2911  2.1680  1.7630
 6844SOL    HW231992   0.843   3.683   2.788  1.7285  0.1524  0.1075
 6845SOL     OW31993   1.491   2.618   6.384  0.1862  0.1781  0.0508
 6845SOL    HW131994   1.437   2.541   6.368 -1.4380  1.3014  0.1296
 6845SOL    HW231995   1.474   2.618   6.478  1.8296  0.9100  0.3566
 6846SOL     OW31996   3.823   4.536   2.461  0.4300 -0.8543  0.3006
 6846SOL    HW131997   3.887   4.608   2.457 -0.2434 -0.1440  2.2009
 6846SOL    HW231998   3.745   4.584   2.487 -0.2444 -1.1041 -1.2691
 6847SOL     OW31999   1.451   3.085   9.581 -0.2651  0.3554 -0.2633
 6847SOL    HW132000   1.480   3.033   9.656 -2.5814  0.1103  0.4662
 6847SOL    HW232001   1.534   3.115   9.545  0.4807 -0.5118  0.7131
 6848SOL     OW32002   0.864   1.081   2.042  0.2504  0.5049 -0.0376
 6848SOL    HW132003   0.879   1.014   2.109  1.5746 -0.7785 -1.6450
 6848SOL    HW232004   0.835   1.027   1.969  0.5761 -0.1275  0.3012
 6849SOL     OW32005   0.705   0.813   5.220  0.0160  0.3047 -0.1850
 6849SOL    HW132006   0.629   0.835   5.274  0.1823  0.0161  0.1658
 6849SOL    HW232007   0.688   0.865   5.142 -1.0033  0.0867 -0.1112
 6850SOL     OW32008   2.041   4.042   4.638 -0.0386 -0.3179  0.3044
 6850SOL    HW132009   2.126   4.062   4.599  0.0128  0.4652  0.7999
 6850SOL    HW232010   2.015   3.968   4.584 -1.1776 -1.6214  2.6630
 6851SOL     OW32011   3.258   1.948   4.452 -0.7888 -0.2884  0.3096
 6851SOL    HW132012   3.348   1.982   4.459 -0.2281 -1.9066  0.8979
 6851SOL    HW232013   3.225   1.985   4.370  0.8886  0.4583 -0.0420
 6852SOL     OW32014   3.935   3.813   0.073  0.3527  0.4324  0.2407
 6852SOL    HW132015   3.997   3.830   0.001  0.3496  1.0894  0.3939
 6852SOL    HW232016   3.979   3.843   0.153  1.1600  0.1180 -0.0815
 6853SOL     OW32017   4.684   3.745  15.744  0.2795  0.1945  0.3445
 6853SOL    HW132018   4.652   3.665  15.784 -1.4955  0.5696 -0.3363
 6853SOL    HW232019   4.610   3.801  15.721 -0.6830 -0.1634  2.5323
 6854SOL     OW32020   4.469   1.591   6.812  0.5038  0.2298 -0.2277
 6854SOL    HW132021   4.452   1.684   6.827  0.1224 -0.1152  1.5738
 6854SOL    HW232022   4.407   1.566   6.744  1.0001 -0.4309 -0.4401
 6855SOL     OW32023   4.462   3.444   4.760  0.2554  0.2799  0.0945
 6855SOL    HW132024   4.487   3.536   4.747 -2.2777  0.5328 -2.9259
 6855SOL    HW232025   4.528   3.385   4.724 -1.6540 -0.6656 -1.8640
 6856SOL     OW32026   2.609   0.826  15.870 -0.3576 -0.3194 -0.0023
 6856SOL    HW132027   2.654   0.876  15.803  0.8586 -0.5132  0.6745
 6856SOL    HW232028   2.521   0.855  15.845  0.9348  1.4263 -2.4127
 6857SOL     OW32029   0.268   2.394   4.605  0.1277 -0.1156 -0.6462
 6857SOL    HW132030   0.330   2.329   4.639  0.9522  1.1166  0.2124
 6857SOL    HW232031   0.242   2.348   4.526  1.0638 -0.7127 -0.6051
 6858SOL     OW32032   3.820   1.612  10.257 -0.0584  0.3187  0.7210
 6858SOL    HW132033   3.907   1.651  10.251 -0.3101  0.9474  1.0661
 6858SOL    HW232034   3.767   1.690  10.241 -1.9546 -1.3336 -1.0362
 6859SOL     OW32035   3.666   0.958   6.341  0.4490  0.3523  0.1488
 6859SOL    HW132036   3.611   1.015   6.395 -0.0728  1.4368 -1.5584
 6859SOL    HW232037   3.676   1.027   6.276  0.0765 -1.5032 -1.8728
 6860SOL     OW32038   3.040   4.008   8.057 -0.4398 -0.2567  0.2034
 6860SOL    HW132039   2.981   3.933   8.057 -1.1051  0.2598  1.2881
 6860SOL    HW232040   3.116   3.983   8.004  0.1168  0.7429  0.5248
 6861SOL     OW32041   2.013   1.199   6.041  0.0875 -0.0862 -0.5463
 6861SOL    HW132042   2.046   1.274   6.091  0.3771 -0.3216 -0.3845
 6861SOL    HW232043   2.013   1.127   6.105 -1.3160 -1.2494 -1.8637
 6862SOL     OW32044   3.289   0.165   2.975 -0.1574 -0.6939 -0.1100
 6862SOL    HW132045   3.352   0.098   2.947 -0.1179 -0.1102 -1.3864
 6862SOL    HW232046   3.204   0.125   2.954 -0.9088  1.6565 -1.5203
 6863SOL     OW32047   2.622   0.725   3.471 -0.1794 -0.2350  0.1776
 6863SOL    HW132048   2.576   0.692   3.549  0.8927 -0.6250  0.6448
 6863SOL    HW232049   2.571   0.805   3.453 -0.8305 -0.5626  0.5355
 6864SOL     OW32050   0.103   1.870   3.616  1.1276  0.6337  0.4722
 6864SOL    HW132051   0.196   1.878   3.637  1.3856 -3.0757  0.6412
 6864SOL    HW232052   0.097   1.831   3.529  0.3119  0.6877  0.5018
 6865SOL     OW32053   1.591   1.802   8.788 -0.1979  0.1131  0.6503
 6865SOL    HW132054   1.669   1.857   8.793  0.2056 -0.5295  1.4715
 6865SOL    HW232055   1.523   1.868   8.777  1.1035  1.1156 -1.4957
 6866SOL     OW32056   3.698   1.068   9.751 -0.0956  0.0990  0.3615
 6866SOL    HW132057   3.784   1.088   9.715 -0.6925  0.6989 -0.7148
 6866SOL    HW232058   3.718   1.045   9.842  0.0337 -0.9827  0.0650
 6867SOL     OW32059   1.740   0.760   1.359  0.1669  0.4641 -0.0470
 6867SOL    HW132060   1.811   0.811   1.399 -0.6015  0.4004  1.3877
 6867SOL    HW232061   1.708   0.702   1.428  2.8034 -0.0499  0.7422
 6868SOL     OW32062   0.374   2.488   3.902  0.0752  0.2796 -0.2424
 6868SOL    HW132063   0.362   2.571   3.857 -1.5711  0.7678  1.0898
 6868SOL    HW232064   0.467   2.493   3.924 -0.5685  0.4077  2.5683
 6869SOL     OW32065   0.264   1.871   6.986 -0.1087  0.6890 -0.1855
 6869SOL    HW132066   0.355   1.888   6.964  0.8293 -0.8820  2.4469
 6869SOL    HW232067   0.268   1.826   7.070  2.0680  0.9351 -0.1696
 6870SOL     OW32068   2.286   2.985   4.735 -0.5627  0.6552 -0.0912
 6870SOL    HW132069   2.197   2.949   4.738  0.4000 -1.9393 -2.8248
 6870SOL    HW232070   2.334   2.908   4.704  2.1685  1.5751  1.7761
 6871SOL     OW32071   4.670   3.245   7.409  0.1367  0.3884  0.6162
 6871SOL    HW132072   4.700   3.336   7.412  2.4723 -0.2873 -2.9012
 6871SOL    HW232073   4.650   3.246   7.316  0.0241  0.1539  0.6385
 6872SOL     OW32074   3.796   3.578   7.702 -0.3189  0.4798  0.9018
 6872SOL    HW132075   3.730   3.625   7.651 -0.8487 -1.1323  0.0979
 6872SOL    HW232076   3.736   3.550   7.771  0.5099 -2.7691  0.2879
 6873SOL     OW32077   1.069   4.195   0.532 -0.6837  0.4141 -0.4511
 6873SOL    HW132078   1.006   4.198   0.604 -0.1451  1.8878 -0.0447
 6873SOL    HW232079   1.147   4.162   0.577  0.2361  0.6870 -1.8601
 6874SOL     OW32080   3.422   1.940  11.732 -0.2476 -0.1080 -0.1201
 6874SOL    HW132081   3.462   1.864  11.689 -0.0460 -0.4950  0.7443
 6874SOL    HW232082   3.398   1.898  11.814  2.7918  1.5875  1.6680
 6875SOL     OW32083   2.794   0.356  10.971 -0.4729  0.1229 -0.7623
 6875SOL    HW132084   2.827   0.432  11.019 -0.9966 -0.4614  0.5102
 6875SOL    HW232085   2.763   0.398  10.891 -0.0736 -1.0596 -1.5410
 6876SOL     OW32086   3.006   3.141   4.247 -0.6602  0.2556 -0.0821
 6876SOL    HW132087   3.095   3.160   4.219 -0.8560 -0.2088 -1.0052
 6876SOL    HW232088   2.963   3.153   4.163 -0.4286  1.9844  0.0408
 6877SOL     OW32089   3.784   4.335   4.422 -0.1133  0.3006 -0.0594
 6877SOL    HW132090   3.700   4.339   4.468 -0.1917  1.0581 -0.2744
 6877SOL    HW232091   3.825   4.417   4.447  0.8933 -0.3746  0.5153
 6878SOL     OW32092   2.097   1.509   1.774  0.3463  0.2825 -0.3319
 6878SOL    HW132093   2.020   1.455   1.791 -0.0942  0.6424 -1.1831
 6878SOL    HW232094   2.114   1.544   1.862 -1.0648 -0.1991  0.1439
 6879SOL     OW32095   3.602   0.643   8.611 -0.1112  0.3337  0.0241
 6879SOL    HW132096   3.602   0.698   8.689 -1.0597 -1.1511  1.0950
 6879SOL    HW232097   3.580   0.716   8.553 -2.3619 -0.5507 -0.2419
 6880SOL     OW32098   2.308   1.519  12.970  0.3869 -0.7202 -0.4721
 6880SOL    HW132099   2.335   1.431  12.997  0.5686 -0.0887  1.4274
 6880SOL    HW232100   2.382   1.552  12.919  0.4315  1.5608  1.0561
 6881SOL     OW32101   0.712   1.368   8.685 -0.4331  0.3324  0.3845
 6881SOL    HW132102   0.622   1.350   8.658  0.5096  0.2593 -2.6995
 6881SOL    HW232103   0.743   1.278   8.692 -0.6791  0.1997 -0.2925
 6882SOL     OW32104   0.256   0.644   8.680  0.3778 -0.1438 -0.1506
 6882SOL    HW132105   0.331   0.614   8.731  1.5945  0.9204 -1.3108
 6882SOL    HW232106   0.278   0.736   8.668  1.9759 -0.4690  0.2710
 6883SOL     OW32107   2.554   2.776   8.048  0.4506  0.4899 -0.3672
 6883SOL    HW132108   2.491   2.799   7.980 -1.9165 -0.7348  1.3781
 6883SOL    HW232109   2.600   2.700   8.011 -0.4781 -0.5464  0.5894
 6884SOL     OW32110   1.974   2.333  13.117 -0.4154  0.1183  0.3455
 6884SOL    HW132111   1.964   2.346  13.211  1.5931  0.8118  0.4594
 6884SOL    HW232112   2.069   2.325  13.115 -0.0930  3.7493  0.6622
 6885SOL     OW32113   4.705   3.952  14.888 -0.1295 -0.5866  0.0936
 6885SOL    HW132114   4.658   4.034  14.874  0.0434 -0.2863  1.2830
 6885SOL    HW232115   0.066   3.991  14.924 -1.6546  2.8947 -0.3185
 6886SOL     OW32116   4.194   3.397  10.050  0.3237 -0.0264  0.3088
 6886SOL    HW132117   4.113   3.376  10.097  0.2593 -0.3681  0.0356
 6886SOL    HW232118   4.218   3.309  10.023 -0.9227 -0.2374 -0.1020
 6887SOL     OW32119   0.177   0.202  17.099  0.1904  0.5468  0.0086
 6887SOL    HW132120   0.162   0.111  17.073 -1.3354  0.7891  0.0392
 6887SOL    HW232121   0.254   0.189  17.154  1.5452 -0.5798 -2.1756
 6888SOL     OW32122   1.797   4.698   1.737 -0.3210  0.2837  0.3955
 6888SOL    HW132123   1.823   4.662   1.822  2.2280  0.1936 -0.4245
 6888SOL    HW232124   1.881   0.017   1.711 -0.5760  1.5181  1.3401
 6889SOL     OW32125   2.309   0.943   1.973  0.4584 -0.0262 -0.1578
 6889SOL    HW132126   2.240   0.884   2.002 -0.2706  1.0411  0.2765
 6889SOL    HW232127   2.372   0.909   2.037  2.0455  1.5171 -0.9022
 6890SOL     OW32128   1.994   1.830  11.329 -0.3299 -0.3477  0.8911
 6890SOL    HW132129   2.035   1.866  11.408 -0.6506 -1.3602  1.5226
 6890SOL    HW232130   2.036   1.744  11.330  0.8554  0.2575  2.8003
 6891SOL     OW32131   2.322   3.713   4.930  0.8487 -0.1975  0.0863
 6891SOL    HW132132   2.275   3.787   4.968 -0.7594 -0.8194 -0.6638
 6891SOL    HW232133   2.277   3.641   4.974  1.9383 -0.2084  1.1619
 6892SOL     OW32134   1.054   2.946   7.139  0.9635  0.0369 -0.1200
 6892SOL    HW132135   1.116   2.981   7.204  0.1022 -2.0300  1.7846
 6892SOL    HW232136   0.971   2.948   7.187 -0.4647  1.3711 -2.6273
 6893SOL     OW32137   3.814   2.333  15.211  0.4032  0.1785  0.5159
 6893SOL    HW132138   3.840   2.351  15.121  1.3384 -2.6697  0.2350
 6893SOL    HW232139   3.775   2.246  15.203  2.2702 -0.5156 -0.9280
 6894SOL     OW32140   2.922   1.664   6.968  0.2325 -0.5216 -0.4567
 6894SOL    HW132141   3.012   1.639   6.945 -0.4103 -1.1494 -2.2442
 6894SOL    HW232142   2.878   1.626   6.892  2.0145  2.0480 -2.8023
 6895SOL     OW32143   0.490   2.059  13.039 -0.4966 -0.0936  0.5111
 6895SOL    HW132144   0.421   2.111  13.000  2.0100  1.6143 -1.6433
 6895SOL    HW232145   0.468   1.974  13.002 -0.8425 -0.1571  0.8561
 6896SOL     OW32146   2.919   2.277  16.824 -0.0581  0.0107  0.2296
 6896SOL    HW132147   2.959   2.273  16.910  0.4028 -0.1191  0.0057
 6896SOL    HW232148   2.992   2.311  16.773 -0.3221  0.0413 -0.1386
 6897SOL     OW32149   1.813   4.527   7.119  0.5911 -0.2975  0.0299
 6897SOL    HW132150   1.848   4.557   7.036 -0.9881 -0.2818 -0.6277
 6897SOL    HW232151   1.753   4.454   7.103  0.2352 -0.1310  0.5904
 6898SOL     OW32152   3.261   3.543  12.929 -0.5896 -0.5875  0.6498
 6898SOL    HW132153   3.224   3.543  12.841  0.8957  0.5873  0.0263
 6898SOL    HW232154   3.301   3.629  12.918  2.2497 -2.1728 -1.4572
 6899SOL     OW32155   2.457   0.050   3.713  0.2614 -0.0988  0.4447
 6899SOL    HW132156   2.534   0.013   3.756  1.1760  0.0267 -1.0707
 6899SOL    HW232157   2.465   0.018   3.623 -0.0150 -1.0947  0.7751
 6900SOL     OW32158   1.723   0.499   8.597  0.0999  0.3453 -0.1299
 6900SOL    HW132159   1.765   0.525   8.679  0.7656  0.3229 -0.4627
 6900SOL    HW232160   1.638   0.542   8.606 -0.1435 -0.3619  0.8995
 6901SOL     OW32161   3.364   0.408   3.069 -0.3546  0.2640  0.6924
 6901SOL    HW132162   3.349   0.321   3.032  0.7062  0.3659  0.0103
 6901SOL    HW232163   3.372   0.463   2.991  0.2192 -1.5606 -0.5215
 6902SOL     OW32164   3.118   0.328  10.614 -0.4088 -0.3265 -0.3056
 6902SOL    HW132165   3.114   0.417  10.648  3.3924 -0.5893  0.8962
 6902SOL    HW232166   3.048   0.323  10.550 -0.9266  0.9535  0.1738
 6903SOL     OW32167   0.658   4.255   0.669  0.1760 -0.4162 -0.2151
 6903SOL    HW132168   0.751   4.260   0.691  0.3204 -0.1159 -0.8972
 6903SOL    HW232169   0.646   4.179   0.612 -0.8334 -0.9464  0.7194
 6904SOL     OW32170   0.573   1.415   3.328  0.3227 -0.1464  0.2952
 6904SOL    HW132171   0.504   1.398   3.263  0.0121  0.9243  0.3428
 6904SOL    HW232172   0.647   1.398   3.270  0.4074  1.3524 -0.0538
 6905SOL     OW32173   3.096   2.644  17.055 -0.4234 -0.1852  0.3430
 6905SOL    HW132174   3.023   2.673  17.001 -0.6108 -1.2623  0.0129
 6905SOL    HW232175   3.145   2.587  16.995  1.1991  1.5364  0.0438
 6906SOL     OW32176   3.882   4.151   8.923 -0.0852  0.0035 -0.4805
 6906SOL    HW132177   3.838   4.124   8.843 -0.0535 -2.0195  0.1913
 6906SOL    HW232178   3.927   4.227   8.886  1.1735 -0.6414 -0.3022
 6907SOL     OW32179   2.341   4.124  10.213 -0.3729 -0.3854 -0.2354
 6907SOL    HW132180   2.315   4.197  10.269  0.0423 -2.3410  2.5394
 6907SOL    HW232181   2.260   4.115  10.164 -1.2810  0.9305  1.0105
 6908SOL     OW32182   2.299   2.816  15.491  0.3482  0.2123  0.0708
 6908SOL    HW132183   2.300   2.721  15.486 -4.1336  0.1662 -0.1151
 6908SOL    HW232184   2.379   2.826  15.542 -0.5303  0.4741  1.3809
 6909SOL     OW32185   1.270   3.086  11.725 -0.1762  0.2344 -0.0486
 6909SOL    HW132186   1.296   3.175  11.751  1.2324  0.1335 -1.1237
 6909SOL    HW232187   1.197   3.112  11.668  0.7745  0.9762 -0.9260
 6910SOL     OW32188   2.347   2.357   7.307 -0.4834  0.4166  0.1180
 6910SOL    HW132189   2.373   2.366   7.216 -0.9610 -1.7086 -0.2167
 6910SOL    HW232190   2.405   2.296   7.352  1.3106  0.7189 -1.7864
 6911SOL     OW32191   3.482   3.153   3.309 -0.1731  0.1253  0.5502
 6911SOL    HW132192   3.477   3.195   3.395  0.6776  0.5741  0.3811
 6911SOL    HW232193   3.396   3.112   3.320  1.2775 -2.5181  1.9777
 6912SOL     OW32194   2.433   4.532   2.795 -0.0847  0.1542  0.0602
 6912SOL    HW132195   2.420   4.438   2.807 -0.8442  0.3120  0.4396
 6912SOL    HW232196   2.376   4.560   2.725 -0.6163 -1.2170 -0.0661
 6913SOL     OW32197   2.395   1.151   6.967  0.3415  0.0020  0.6858
 6913SOL    HW132198   2.467   1.200   6.927  1.3881 -0.8016  1.5424
 6913SOL    HW232199   2.327   1.168   6.902 -1.3457  0.6645  2.6110
 6914SOL     OW32200   4.485   3.076   5.421  0.1519  0.0911 -0.2111
 6914SOL    HW132201   4.422   3.071   5.492 -0.2277 -0.9915 -0.6245
 6914SOL    HW232202   4.441   3.018   5.358 -1.4630  2.1209 -0.9679
 6915SOL     OW32203   4.578   1.421   3.081 -0.0444 -0.5452  0.5100
 6915SOL    HW132204   4.542   1.401   2.994 -3.2390  0.1939  1.6590
 6915SOL    HW232205   4.664   1.382   3.067 -0.3232 -0.7447 -0.7301
 6916SOL     OW32206   4.515   3.898   0.557  0.1335  0.0363 -0.1226
 6916SOL    HW132207   4.512   3.993   0.571 -0.3110  0.0677 -0.4392
 6916SOL    HW232208   4.591   3.868   0.607 -0.7423 -2.1176 -0.0649
 6917SOL     OW32209   0.378   0.828   3.315  0.1979  0.1400  0.3301
 6917SOL    HW132210   0.378   0.840   3.220  0.1416 -2.1985  0.0272
 6917SOL    HW232211   0.288   0.797   3.327 -0.7026  2.0720 -1.3300
 6918SOL     OW32212   2.323   3.842   1.991 -0.1445  0.2483  0.2963
 6918SOL    HW132213   2.262   3.877   1.927 -1.7805  0.5158  2.0119
 6918SOL    HW232214   2.404   3.837   1.939  0.4634  3.5449  0.9153
 6919SOL     OW32215   2.275   3.444   8.580 -0.2181  0.2325  0.0476
 6919SOL    HW132216   2.303   3.432   8.489  0.8644 -0.7779  0.5102
 6919SOL    HW232217   2.348   3.410   8.632 -1.3230 -2.4650 -0.1514
 6920SOL     OW32218   1.419   3.993   5.615  0.3976 -0.2884 -0.4376
 6920SOL    HW132219   1.490   3.966   5.672 -0.4360 -3.4570 -0.8877
 6920SOL    HW232220   1.336   3.962   5.650  0.7570 -0.0688  0.6033
 6921SOL     OW32221   2.734   2.581   8.468 -0.2651  0.0309 -0.0318
 6921SOL    HW132222   2.668   2.536   8.415 -0.5402 -0.0897  0.4091
 6921SOL    HW232223   2.759   2.660   8.421 -1.1021  0.9795  1.1224
 6922SOL     OW32224   3.053   0.954   8.230 -0.3884  0.7001  0.3959
 6922SOL    HW132225   3.101   0.884   8.185  0.4493  0.0452  2.2896
 6922SOL    HW232226   3.092   0.946   8.317 -1.3841  0.3769  0.8200
 6923SOL     OW32227   1.026   4.171  13.838  0.6657 -0.2547  0.2413
 6923SOL    HW132228   1.114   4.138  13.822  0.1826 -1.7499  0.6599
 6923SOL    HW232229   0.977   4.092  13.862 -1.9349  1.5727  0.9838
 6924SOL     OW32230   2.059   2.535   4.117  0.0140  0.3545  0.3664
 6924SOL    HW132231   2.042   2.501   4.205 -1.3717 -3.0513 -1.2362
 6924SOL    HW232232   2.138   2.488   4.091  0.0305 -0.0704  1.1584
 6925SOL     OW32233   3.197   2.554   1.479 -0.2533  0.0646  0.1514
 6925SOL    HW132234   3.101   2.555   1.487 -0.2429  0.8873  0.2316
 6925SOL    HW232235   3.206   2.547   1.384  0.5567 -3.4724  0.5174
 6926SOL     OW32236   4.065   0.712   3.721 -0.5450 -0.3523  0.2059
 6926SOL    HW132237   4.053   0.752   3.635  1.2608  0.8205  0.4935
 6926SOL    HW232238   4.003   0.642   3.701  0.2227 -0.3200 -2.2685
 6927SOL     OW32239   1.747   0.425   7.332 -0.8584  0.4460  0.1248
 6927SOL    HW132240   1.766   0.344   7.380 -2.2081  0.1379  0.1300
 6927SOL    HW232241   1.756   0.394   7.241 -0.5658  0.3306  0.1928
 6928SOL     OW32242   4.301   0.121   8.192 -0.7825 -0.6007 -0.1030
 6928SOL    HW132243   4.387   0.085   8.170 -0.4513 -0.4707  0.9412
 6928SOL    HW232244   4.341   0.184   8.252  0.0901 -0.7156 -0.5656
 6929SOL     OW32245   0.881   3.479   2.159 -0.1318  0.3995  0.2832
 6929SOL    HW132246   0.914   3.411   2.099  0.8132  1.8875 -0.9055
 6929SOL    HW232247   0.795   3.497   2.121 -0.0401 -2.4938 -1.2941
 6930SOL     OW32248   1.332   2.879  14.081  0.3780  0.6971 -0.5327
 6930SOL    HW132249   1.420   2.898  14.114 -0.6503  2.8482  0.8855
 6930SOL    HW232250   1.278   2.952  14.110  0.3151  1.3999 -2.3739
 6931SOL     OW32251   0.271   1.589  15.037  0.4730 -0.0040 -0.2669
 6931SOL    HW132252   0.276   1.522  14.969  0.9774  0.6697 -0.8876
 6931SOL    HW232253   0.326   1.550  15.105 -0.6453 -1.0164  0.0732
 6932SOL     OW32254   3.892   0.603   6.530  0.3147  0.0678 -0.0164
 6932SOL    HW132255   3.921   0.589   6.620 -0.3059  0.1623  0.1969
 6932SOL    HW232256   3.834   0.679   6.534 -0.8288 -0.7717 -0.7257
 6933SOL     OW32257   3.068   3.186   3.778 -0.0201 -0.3534  0.2149
 6933SOL    HW132258   2.982   3.192   3.820  0.3505 -3.7538  1.4807
 6933SOL    HW232259   3.100   3.098   3.801  0.7754 -0.3429 -0.8716
 6934SOL     OW32260   0.119   3.447   7.309 -0.5633  0.1735  0.1019
 6934SOL    HW132261   0.180   3.520   7.319 -0.2724 -0.0846  0.2188
 6934SOL    HW232262   0.085   3.464   7.221 -1.3069 -0.0015  0.3517
 6935SOL     OW32263   3.110   2.927   6.923 -0.0941  0.3376 -0.0318
 6935SOL    HW132264   3.150   2.851   6.879 -0.6748  0.8212 -1.3968
 6935SOL    HW232265   3.042   2.943   6.858 -0.1537 -2.1924 -0.6171
 6936SOL     OW32266   4.274   4.459   4.517 -0.7483 -0.0935  0.4653
 6936SOL    HW132267   4.270   4.405   4.438 -0.6150  1.8026 -0.8550
 6936SOL    HW232268   4.314   4.541   4.488 -0.4385 -1.1131 -2.0215
 6937SOL     OW32269   0.622   2.709  15.733 -0.2333 -0.4472 -0.4355
 6937SOL    HW132270   0.677   2.752  15.668  2.5483 -1.1662  1.4230
 6937SOL    HW232271   0.625   2.771  15.807  0.9856  1.0494 -1.7428
 6938SOL     OW32272   2.403   4.570   4.063  0.3425 -0.3732 -0.2983
 6938SOL    HW132273   2.392   4.477   4.083  3.7176 -0.7408 -0.2434
 6938SOL    HW232274   2.367   4.598   4.147 -3.3830 -0.2949 -1.8926
 6939SOL     OW32275   3.041   2.227   4.387  0.4488 -0.6573  0.0587
 6939SOL    HW132276   3.104   2.289   4.422 -1.7351  2.4824 -1.5662
 6939SOL    HW232277   2.985   2.204   4.461 -1.5765  0.7046 -1.0459
 6940SOL     OW32278   3.942   2.150   6.234 -0.2397  0.0353  0.6291
 6940SOL    HW132279   3.846   2.155   6.238 -0.2999  0.3939 -0.9757
 6940SOL    HW232280   3.965   2.209   6.162 -1.7225  1.9423  1.6892
 6941SOL     OW32281   4.019   4.213   2.276  0.1041  0.1269 -0.0105
 6941SOL    HW132282   4.089   4.157   2.309 -1.1074 -1.4667 -0.1190
 6941SOL    HW232283   3.950   4.208   2.343 -0.2929 -1.9421 -0.5776
 6942SOL     OW32284   2.452   4.040   2.491  0.1304 -0.3899 -1.1839
 6942SOL    HW132285   2.420   4.022   2.579 -2.3108  0.2077 -1.9303
 6942SOL    HW232286   2.407   3.964   2.453 -2.2004  0.4150 -0.0332
 6943SOL     OW32287   2.098   3.389   7.305 -0.0387  0.1414 -0.4126
 6943SOL    HW132288   2.020   3.389   7.249 -0.7082 -0.9412  0.5234
 6943SOL    HW232289   2.113   3.483   7.303 -1.3041  0.3646  0.2166
 6944SOL     OW32290   4.638   4.257   3.498  0.0472  0.2609 -0.2227
 6944SOL    HW132291   4.637   4.234   3.405 -0.8198 -0.9096  0.0777
 6944SOL    HW232292   4.552   4.295   3.515 -0.0374  0.2260 -0.5805
 6945SOL     OW32293   3.435   3.536  16.594  0.1180 -0.3724 -0.1085
 6945SOL    HW132294   3.505   3.472  16.600  0.7218  0.4336  1.5769
 6945SOL    HW232295   3.418   3.547  16.500 -1.4236 -0.2535  0.1791
 6946SOL     OW32296   1.148   4.456  14.625 -0.3457  0.3464 -0.3121
 6946SOL    HW132297   1.161   4.551  14.633  3.5512 -0.4255  2.6607
 6946SOL    HW232298   1.101   4.456  14.708 -0.6842  1.3306 -0.5018
 6947SOL     OW32299   4.539   1.751  14.984  0.0964  0.1770 -0.5117
 6947SOL    HW132300   4.608   1.699  14.943  1.9525  2.2486  0.0267
 6947SOL    HW232301   4.480   1.675  14.992 -0.9216  0.8977 -1.2064
 6948SOL     OW32302   0.990   3.615  10.538 -0.1610 -0.0336  0.7085
 6948SOL    HW132303   1.034   3.559  10.475  0.5568  0.8492  0.4197
 6948SOL    HW232304   0.958   3.682  10.478  0.1389 -0.0790  0.4961
 6949SOL     OW32305   0.470   1.029  14.262 -0.4617  0.1774 -0.8780
 6949SOL    HW132306   0.482   1.003  14.171  0.3423  0.9427 -0.9817
 6949SOL    HW232307   0.401   0.967  14.288  0.0829  0.4215  1.1642
 6950SOL     OW32308   2.807   3.841   0.204  0.1481 -0.2160 -0.2361
 6950SOL    HW132309   2.787   3.839   0.111 -0.2445  0.3871 -0.1671
 6950SOL    HW232310   2.872   3.772   0.198 -0.3077 -0.6072 -0.6647
 6951SOL     OW32311   1.800   0.749  16.356 -0.1080 -0.7561  0.5149
 6951SOL    HW132312   1.739   0.775  16.425 -1.0774  0.2124 -0.7209
 6951SOL    HW232313   1.806   0.655  16.375 -0.8512 -0.9241 -0.0664
 6952SOL     OW32314   4.377   1.523   7.657 -0.1673  0.3071  0.4001
 6952SOL    HW132315   4.354   1.542   7.566  1.9416 -1.0224 -0.4049
 6952SOL    HW232316   4.472   1.511   7.651 -0.4345 -1.6198  0.2263
 6953SOL     OW32317   4.386   1.871  12.302  0.3737  0.2716  0.5311
 6953SOL    HW132318   4.347   1.788  12.333 -2.1521  2.1952  2.5061
 6953SOL    HW232319   4.356   1.932  12.369 -3.4890  1.1949 -2.0519
 6954SOL     OW32320   2.040   2.100  16.444  0.3143  0.3323 -0.3939
 6954SOL    HW132321   2.132   2.115  16.466 -0.0425  1.4729  0.3061
 6954SOL    HW232322   2.049   2.012  16.407  1.0767 -0.3704  1.4259
 6955SOL     OW32323   3.776   0.419   4.476 -0.1913  0.2330 -0.0852
 6955SOL    HW132324   3.816   0.457   4.398 -0.1547  0.3103 -0.0294
 6955SOL    HW232325   3.687   0.450   4.464 -0.5786  0.1476  2.4191
 6956SOL     OW32326   2.495   3.953   6.551 -0.0709 -0.8190 -0.0877
 6956SOL    HW132327   2.416   3.930   6.600 -0.8293 -0.9983 -1.4129
 6956SOL    HW232328   2.474   4.034   6.504  0.5110 -0.0882  0.8955
 6957SOL     OW32329   2.417   0.869   5.709 -0.6641  0.0674 -0.1228
 6957SOL    HW132330   2.459   0.849   5.793  0.5413 -1.4187 -1.0827
 6957SOL    HW232331   2.489   0.851   5.648  1.9459  2.7227  2.1605
 6958SOL     OW32332   0.995   2.270   0.582 -0.1414 -0.5054  0.2193
 6958SOL    HW132333   1.041   2.230   0.508 -0.1488  1.3601 -0.7970
 6958SOL    HW232334   1.003   2.360   0.552  0.1640 -1.2422 -1.9025
 6959SOL     OW32335   3.316   2.416   5.302 -0.1521 -0.3537  0.3185
 6959SOL    HW132336   3.347   2.432   5.213 -0.6643  0.0370  0.2092
 6959SOL    HW232337   3.226   2.395   5.277  0.0407  1.0783 -1.5724
 6960SOL     OW32338   1.171   1.088  12.404  0.0901 -0.4517 -0.4680
 6960SOL    HW132339   1.231   1.135  12.463 -0.7507 -0.3448  0.3073
 6960SOL    HW232340   1.083   1.117  12.426  0.4681  0.1816  0.2104
 6961SOL     OW32341   3.990   4.557   2.763  0.1332 -0.1288  0.4411
 6961SOL    HW132342   4.027   4.604   2.689 -1.4032 -2.0916 -1.5843
 6961SOL    HW232343   3.925   4.624   2.784 -0.3446 -0.7701  1.0440
 6962SOL     OW32344   4.635   2.653   6.571 -0.2229  0.5141 -0.4652
 6962SOL    HW132345   4.554   2.640   6.622  0.2487  0.0382  0.1547
 6962SOL    HW232346   4.670   2.717   6.633 -0.1426 -0.7868  0.8397
 6963SOL     OW32347   0.008   0.328   0.016  0.3314  0.1354  0.0637
 6963SOL    HW132348   4.690   0.364  17.615  1.1971 -0.0413 -0.4162
 6963SOL    HW232349   4.649   0.321   0.071  1.1531 -0.2203  1.2016
 6964SOL     OW32350   3.241   3.295   8.314 -0.1694 -0.0019 -0.8510
 6964SOL    HW132351   3.333   3.310   8.339  0.8029 -2.8333 -2.7508
 6964SOL    HW232352   3.240   3.270   8.222 -0.0554 -0.5999 -0.6856
 6965SOL     OW32353   3.406   3.505   6.446 -0.4489 -0.5696  0.1730
 6965SOL    HW132354   3.461   3.573   6.406  0.5010 -0.7229  1.2303
 6965SOL    HW232355   3.423   3.522   6.539  1.0704 -1.2591  0.0178
 6966SOL     OW32356   4.704   4.253  16.815  0.3312  0.1932 -0.2514
 6966SOL    HW132357   4.702   4.265  16.910 -0.7043 -1.6370 -0.0435
 6966SOL    HW232358   0.046   4.181  16.797  0.5011 -0.1853  1.8530
 6967SOL     OW32359   1.044   2.126   3.015  0.4852  0.4651  0.1037
 6967SOL    HW132360   1.128   2.100   2.977  0.0288 -2.2821  0.9635
 6967SOL    HW232361   1.027   2.211   2.973  3.2349  0.7266 -0.4569
 6968SOL     OW32362   1.157   0.439   5.885  0.4125 -0.4146  0.7428
 6968SOL    HW132363   1.214   0.510   5.855 -0.8312  0.9113  1.5222
 6968SOL    HW232364   1.083   0.439   5.826 -1.3452  1.0232  2.9233
 6969SOL     OW32365   4.144   3.438   4.285 -0.5957  0.4091  0.9324
 6969SOL    HW132366   4.178   3.507   4.342 -0.8723  0.0211  1.5689
 6969SOL    HW232367   4.049   3.450   4.295 -0.5412  0.4162  1.4692
 6970SOL     OW32368   2.087   2.722   7.268 -0.0692  0.5971  0.0722
 6970SOL    HW132369   2.001   2.685   7.250  0.2353 -1.0398  1.8939
 6970SOL    HW232370   2.065   2.813   7.288 -2.1711  0.6244 -2.5334
 6971SOL     OW32371   1.284   4.063   7.246 -0.9285 -0.1931  0.4463
 6971SOL    HW132372   1.316   4.010   7.173 -1.9942 -1.1053  0.6346
 6971SOL    HW232373   1.333   4.028   7.320  0.6422 -1.9201 -1.4319
 6972SOL     OW32374   2.683   0.966  15.203 -0.9528  0.0759 -0.2646
 6972SOL    HW132375   2.652   0.940  15.116 -0.0560  1.3180 -0.9527
 6972SOL    HW232376   2.777   0.976  15.192 -0.7429 -1.5764  0.0934
 6973SOL     OW32377   1.265   2.874   5.506 -0.1321 -0.1996  0.1922
 6973SOL    HW132378   1.206   2.907   5.574  0.2190 -1.1140  0.9425
 6973SOL    HW232379   1.337   2.827   5.547  1.0636  1.9039  0.4958
 6974SOL     OW32380   0.692   4.463  12.083 -0.4089 -0.1388  0.2128
 6974SOL    HW132381   0.670   4.556  12.077 -0.6060 -0.0955  1.5236
 6974SOL    HW232382   0.779   4.458  12.044 -1.0477 -0.8199 -1.1197
 6975SOL     OW32383   1.267   1.419  11.615  0.2372  0.4079 -0.7986
 6975SOL    HW132384   1.272   1.489  11.550  2.4619  1.9050  0.9556
 6975SOL    HW232385   1.180   1.436  11.653  0.3956 -1.1068  0.2385
 6976SOL     OW32386   4.047   2.501  10.612  0.1090  0.2999  0.3154
 6976SOL    HW132387   4.084   2.488  10.525  0.0369  0.8783  0.2002
 6976SOL    HW232388   3.971   2.443  10.610  2.0526 -2.2475 -0.3504
 6977SOL     OW32389   2.547   1.627   7.819  0.1873  0.0238  0.1936
 6977SOL    HW132390   2.600   1.572   7.877  0.1265  0.2475  0.4620
 6977SOL    HW232391   2.465   1.633   7.867  0.4144  0.5043  0.5187
 6978SOL     OW32392   1.653   3.339   8.389 -0.2595  0.0864  0.4186
 6978SOL    HW132393   1.564   3.374   8.389 -0.6735 -0.9844 -1.4009
 6978SOL    HW232394   1.707   3.418   8.388 -1.3426  0.7247 -4.1026
 6979SOL     OW32395   0.880   0.973   1.267  0.2139  0.4617  0.8719
 6979SOL    HW132396   0.968   0.953   1.300  0.5662  1.7651  0.7580
 6979SOL    HW232397   0.841   1.018   1.342 -1.9722  0.4243 -0.2490
 6980SOL     OW32398   0.143   1.999   6.780  0.2371 -0.2134  0.2306
 6980SOL    HW132399   0.147   1.950   6.862  2.4248 -0.5621 -0.0775
 6980SOL    HW232400   0.231   1.991   6.744 -0.9360 -0.0103 -2.7335
 6981SOL     OW32401   0.686   1.474   2.830  0.2042 -0.5886 -0.4569
 6981SOL    HW132402   0.765   1.501   2.877 -0.4040  2.0231 -0.9687
 6981SOL    HW232403   0.702   1.524   2.750 -0.4464  0.9696  0.3945
 6982SOL     OW32404   0.488   1.121   6.204 -0.4043  0.2476 -0.3952
 6982SOL    HW132405   0.416   1.105   6.144 -2.5704 -0.1636  2.3217
 6982SOL    HW232406   0.468   1.052   6.267  2.1270  2.3516  2.7519
 6983SOL     OW32407   1.946   2.948   0.677 -0.3788  0.4075  0.2414
 6983SOL    HW132408   1.909   3.035   0.664 -0.6852  0.0656 -1.2169
 6983SOL    HW232409   2.031   2.980   0.708  0.0073  0.0600 -0.4582
 6984SOL     OW32410   0.971   0.224   1.478  0.3434 -0.2712  0.2167
 6984SOL    HW132411   0.909   0.279   1.526  0.6891  0.0476  0.2943
 6984SOL    HW232412   1.051   0.275   1.477  0.9439 -1.2505 -1.9803
 6985SOL     OW32413   4.238   1.383  16.394  0.2819  0.0866  0.0351
 6985SOL    HW132414   4.264   1.292  16.404 -0.1927 -0.2317 -1.7172
 6985SOL    HW232415   4.307   1.415  16.335  2.2810 -1.8588  1.3474
 6986SOL     OW32416   4.008   0.704   0.799 -0.1586 -0.3602 -0.5577
 6986SOL    HW132417   4.031   0.758   0.724 -0.2648  1.2351  0.5661
 6986SOL    HW232418   4.042   0.625   0.758  1.0374 -0.3656  0.4474
 6987SOL     OW32419   3.025   1.522   7.799 -0.6229 -0.3056 -0.1398
 6987SOL    HW132420   3.095   1.474   7.845  0.3738 -0.2429 -1.6099
 6987SOL    HW232421   3.012   1.597   7.857  0.8544  0.0276 -0.2420
 6988SOL     OW32422   1.804   3.580   1.544  0.6444  0.0718 -0.1382
 6988SOL    HW132423   1.736   3.522   1.509 -1.3446  1.5060  1.3418
 6988SOL    HW232424   1.833   3.613   1.459 -2.4054  2.1915 -0.3814
 6989SOL     OW32425   0.207   3.929  12.861  0.1346 -0.1980 -0.4937
 6989SOL    HW132426   0.176   3.839  12.850  1.7262 -0.4809 -2.4706
 6989SOL    HW232427   0.160   3.965  12.936 -1.6364  0.5448 -1.9612
 6990SOL     OW32428   0.811   1.933  17.298  0.6622  0.2370  0.6732
 6990SOL    HW132429   0.881   1.948  17.361 -0.9445 -1.0758  2.7750
 6990SOL    HW232430   0.865   1.932  17.219 -0.5006  2.1053 -0.1516
 6991SOL     OW32431   3.777   2.588   8.274  0.2853  0.0009  0.1760
 6991SOL    HW132432   3.756   2.605   8.182 -0.1530 -0.9407  0.1094
 6991SOL    HW232433   3.767   2.495   8.290 -2.6576  0.0698 -1.3078
 6992SOL     OW32434   2.356   0.457   7.971  0.0086  0.2277 -0.4811
 6992SOL    HW132435   2.398   0.379   8.009  0.1371  0.7290  0.4029
 6992SOL    HW232436   2.410   0.523   8.013 -0.4924  0.1817  0.2478
 6993SOL     OW32437   0.176   3.784   3.766 -0.2288  0.4274 -0.5685
 6993SOL    HW132438   0.209   3.697   3.788  0.0383  0.5799 -0.3707
 6993SOL    HW232439   0.098   3.785   3.822 -0.9971  0.7107 -1.6434
 6994SOL     OW32440   0.145   1.233   6.956  0.3744 -0.3575  0.0890
 6994SOL    HW132441   0.070   1.288   6.932  0.1858 -0.7806 -0.2980
 6994SOL    HW232442   0.187   1.218   6.871 -1.8273 -0.5345 -0.9876
 6995SOL     OW32443   3.662   3.710   4.281  0.3846  0.4190 -0.0748
 6995SOL    HW132444   3.640   3.762   4.359  0.5300 -0.2436  0.4039
 6995SOL    HW232445   3.619   3.750   4.205  1.3912  1.8812  0.1420
 6996SOL     OW32446   0.437   1.979   5.736 -0.1376  0.0720  0.4375
 6996SOL    HW132447   0.432   1.945   5.825 -2.7781  0.0123  0.2529
 6996SOL    HW232448   0.477   2.066   5.745  0.2138 -0.0015 -0.4152
 6997SOL     OW32449   2.735   3.719  14.563 -0.2344  0.2877  0.4539
 6997SOL    HW132450   2.720   3.760  14.648 -1.6019  1.8962 -0.5751
 6997SOL    HW232451   2.742   3.629  14.595  1.7889  1.1355  2.3462
 6998SOL     OW32452   2.534   1.665   3.332 -0.1820 -0.3782 -0.4704
 6998SOL    HW132453   2.623   1.649   3.364  1.0376  3.3913 -1.9356
 6998SOL    HW232454   2.536   1.615   3.251 -0.1383 -0.5558 -0.3583
 6999SOL     OW32455   1.581   2.187   0.338 -0.4899 -0.2698 -0.2990
 6999SOL    HW132456   1.607   2.248   0.407 -0.8238 -0.7114  0.2250
 6999SOL    HW232457   1.585   2.242   0.260  0.6803  1.3608  0.9106
 7000SOL     OW32458   3.490   0.429   8.767  0.1374  0.2503 -0.1032
 7000SOL    HW132459   3.459   0.383   8.689 -0.8612  1.3768 -0.3648
 7000SOL    HW232460   3.541   0.498   8.725  2.5797 -1.9453 -0.7776
 7001SOL     OW32461   1.529   2.629   1.913  0.2703  0.2693  0.2644
 7001SOL    HW132462   1.512   2.655   2.004 -0.6650 -1.4166  0.5772
 7001SOL    HW232463   1.624   2.621   1.914  0.3306  1.0184  0.0994
 7002SOL     OW32464   4.487   3.298   3.375 -0.4509 -0.0802 -0.0111
 7002SOL    HW132465   4.563   3.260   3.330 -0.7464 -1.0883  0.3470
 7002SOL    HW232466   4.465   3.363   3.308 -1.6248 -0.3087  0.1498
 7003SOL     OW32467   2.267   2.803   9.145 -0.0658 -0.0298  0.2393
 7003SOL    HW132468   2.312   2.755   9.215  0.8972  2.0693  1.0756
 7003SOL    HW232469   2.335   2.870   9.133 -0.3131  0.2009  0.1379
 7004SOL     OW32470   3.479   1.172  16.023 -0.3756 -0.5031  0.6973
 7004SOL    HW132471   3.541   1.199  15.955 -1.0891 -1.1798 -0.2120
 7004SOL    HW232472   3.398   1.170  15.972 -1.3831 -0.3760  2.3003
 7005SOL     OW32473   2.711   2.138   3.657  0.3658 -0.5068  0.2057
 7005SOL    HW132474   2.685   2.230   3.664 -0.3247 -0.9108  3.1084
 7005SOL    HW232475   2.782   2.132   3.721 -0.9901 -0.6135  1.7343
 7006SOL     OW32476   2.109   4.689   7.204 -0.4791 -0.0083 -0.1536
 7006SOL    HW132477   2.101   0.011   7.290 -1.0107  0.7203 -0.5521
 7006SOL    HW232478   2.022   4.715   7.173  0.1537  0.7738 -1.2897
 7007SOL     OW32479   0.789   1.259   6.397 -0.3925  0.3032 -0.3734
 7007SOL    HW132480   0.697   1.278   6.377 -1.1029 -0.9265  1.6732
 7007SOL    HW232481   0.781   1.255   6.493  0.4713 -1.1593 -0.3684
 7008SOL     OW32482   0.963   2.941   3.447 -0.4163  0.9732  0.2071
 7008SOL    HW132483   0.912   2.995   3.508  1.8698  2.1674  1.0562
 7008SOL    HW232484   1.049   2.982   3.449  0.7767 -1.5774  0.6854
 7009SOL     OW32485   2.392   2.105   9.024  0.0848 -0.1459  0.0975
 7009SOL    HW132486   2.325   2.037   9.031  1.9108 -1.9716 -0.1564
 7009SOL    HW232487   2.464   2.046   9.005  1.2529  1.5669 -0.7636
 7010SOL     OW32488   2.292   1.122  16.470 -0.1643 -0.2436  0.1213
 7010SOL    HW132489   2.370   1.109  16.524  1.4405  0.2328 -2.1042
 7010SOL    HW232490   2.226   1.082  16.528  0.9474 -1.8328  0.2822
 7011SOL     OW32491   3.772   2.898   8.870 -0.3592  0.0275 -0.1923
 7011SOL    HW132492   3.817   2.961   8.927  0.8067 -2.7282  1.8752
 7011SOL    HW232493   3.829   2.822   8.875  2.6725  2.1709 -1.7655
 7012SOL     OW32494   1.631   3.414   1.774  0.4575 -0.6406  0.3325
 7012SOL    HW132495   1.707   3.465   1.801 -1.8673  3.8601 -1.3890
 7012SOL    HW232496   1.592   3.404   1.860 -0.4292 -1.9118 -0.2223
 7013SOL     OW32497   1.843   0.596   1.979  0.0432  0.6822  0.4096
 7013SOL    HW132498   1.845   0.510   1.936 -1.0193  0.5969  0.5296
 7013SOL    HW232499   1.876   0.580   2.068 -0.7986 -2.4525  0.1477
 7014SOL     OW32500   3.947   2.572   7.841 -0.3141 -0.0261 -0.3585
 7014SOL    HW132501   3.998   2.490   7.837  2.1174  1.5779 -2.0334
 7014SOL    HW232502   4.010   2.632   7.879 -1.0497  1.0260 -0.8105
 7015SOL     OW32503   4.010   0.654  10.066  0.2700 -0.5511  0.3715
 7015SOL    HW132504   3.962   0.580  10.102 -0.6657 -0.8650 -1.5545
 7015SOL    HW232505   4.064   0.608  10.002  0.4502 -2.2018  1.7121
 7016SOL     OW32506   3.290   3.022   2.367 -0.1695  0.2649  0.1149
 7016SOL    HW132507   3.308   2.993   2.277 -1.9979 -0.7078  0.0551
 7016SOL    HW232508   3.304   2.939   2.413 -0.4018  0.2488  0.1546
 7017SOL     OW32509   3.528   1.059   8.251  0.4899  0.0168  0.3031
 7017SOL    HW132510   3.498   1.140   8.293  1.9132  0.8614 -0.3200
 7017SOL    HW232511   3.471   1.058   8.174  1.4135  3.0657 -0.4132
 7018SOL     OW32512   4.206   1.736   5.315  0.4257 -0.3440 -0.6221
 7018SOL    HW132513   4.296   1.707   5.302  0.0180 -1.1024 -1.7285
 7018SOL    HW232514   4.164   1.680   5.381 -1.6405  0.1146 -1.5629
 7019SOL     OW32515   3.159   3.764  10.630 -0.6352  0.0859  0.0324
 7019SOL    HW132516   3.245   3.723  10.623 -0.3194  0.2911  2.7062
 7019SOL    HW232517   3.110   3.692  10.668  0.4175 -0.2664  0.7145
 7020SOL     OW32518   1.968   3.835   8.495 -0.5067 -0.0828 -0.1029
 7020SOL    HW132519   1.905   3.858   8.427 -1.4021 -0.4814  0.6103
 7020SOL    HW232520   2.022   3.914   8.493 -1.5197  0.6264  1.9046
 7021SOL     OW32521   1.244   0.561   7.897  0.1310  0.8730 -0.2618
 7021SOL    HW132522   1.220   0.574   7.989 -0.4663  0.1435 -0.3144
 7021SOL    HW232523   1.278   0.472   7.896 -0.4793  0.6252  1.4452
 7022SOL     OW32524   3.424   3.803  16.007  0.2568 -0.1774 -0.4092
 7022SOL    HW132525   3.490   3.813  16.075 -0.4935 -2.3040  0.6475
 7022SOL    HW232526   3.479   3.792  15.930 -0.1558  1.6965 -0.9717
 7023SOL     OW32527   4.103   0.251  16.201 -0.1155  0.6880 -0.8417
 7023SOL    HW132528   4.147   0.171  16.172  1.6622  0.7225  1.8027
 7023SOL    HW232529   4.038   0.212  16.259  0.4331  0.0017 -0.6851
 7024SOL     OW32530   3.673   2.869   7.133 -0.6759  0.5659 -0.7687
 7024SOL    HW132531   3.687   2.929   7.060 -0.4520 -0.5179 -1.6255
 7024SOL    HW232532   3.643   2.933   7.198 -1.0928  1.8666 -2.2389
 7025SOL     OW32533   3.279   0.896   6.450 -0.2244  0.3855 -0.1007
 7025SOL    HW132534   3.276   0.802   6.464  0.2438  0.3230 -0.4042
 7025SOL    HW232535   3.334   0.893   6.371  0.6710 -2.7343  0.6402
 7026SOL     OW32536   1.113   4.640  11.729 -0.4828  0.0131  0.6062
 7026SOL    HW132537   1.161   4.563  11.698  0.1549  1.4554 -1.9920
 7026SOL    HW232538   1.026   4.609  11.702 -1.1065 -1.3160  4.2216
 7027SOL     OW32539   2.014   3.739   6.706 -0.1756 -0.8446 -0.0706
 7027SOL    HW132540   2.046   3.654   6.676 -3.3053 -1.3475 -1.9049
 7027SOL    HW232541   2.040   3.738   6.798 -1.2816  2.8650  0.3067
 7028SOL     OW32542   2.747   1.946  10.641  0.0465  0.0492  0.1358
 7028SOL    HW132543   2.777   2.026  10.684  3.2574 -1.3998  0.6445
 7028SOL    HW232544   2.826   1.922  10.592  0.0804  0.8605 -0.2050
 7029SOL     OW32545   2.457   0.095   6.990 -0.2756  0.5025 -0.2202
 7029SOL    HW132546   2.465   0.141   6.906 -1.0420 -1.2196 -1.2384
 7029SOL    HW232547   2.550   0.093   7.009 -0.4946  0.2233  0.8015
 7030SOL     OW32548   0.273   4.088   4.120 -0.3920 -0.1878  0.2729
 7030SOL    HW132549   0.340   4.077   4.188  0.1731 -0.4935 -0.3357
 7030SOL    HW232550   0.326   4.099   4.041 -2.2919 -2.5240 -1.3164
 7031SOL     OW32551   2.135   1.415   0.354 -0.7662  0.1058 -0.1358
 7031SOL    HW132552   2.106   1.377   0.438  0.6104  0.4644  0.5062
 7031SOL    HW232553   2.156   1.338   0.301 -1.2502  1.2543 -1.9534
 7032SOL     OW32554   3.416   4.135   6.650  0.1694  0.1352  0.1988
 7032SOL    HW132555   3.375   4.060   6.605  3.2488 -3.1321  2.8234
 7032SOL    HW232556   3.392   4.199   6.584 -1.0751 -0.1201  0.4046
 7033SOL     OW32557   1.076   4.301   4.598 -0.5885  0.5145 -0.5174
 7033SOL    HW132558   0.991   4.333   4.629 -0.9882 -3.1265  2.1314
 7033SOL    HW232559   1.065   4.302   4.503 -0.4109 -0.8941 -0.5472
 7034SOL     OW32560   4.314   3.284   4.170 -0.6909 -0.5560  0.3846
 7034SOL    HW132561   4.401   3.313   4.199  0.3349 -1.0595 -2.1639
 7034SOL    HW232562   4.254   3.338   4.221  1.4839  1.3099  0.9854
 7035SOL     OW32563   2.859   3.818   8.043 -0.4642 -0.2768  0.1150
 7035SOL    HW132564   2.861   3.743   8.102 -3.6462 -0.8156 -0.4372
 7035SOL    HW232565   2.765   3.831   8.027 -0.1139 -0.8239 -2.3358
 7036SOL     OW32566   3.628   0.050   9.954  0.3557 -0.5488  0.0707
 7036SOL    HW132567   3.552   0.108   9.961  0.5557 -0.2084 -0.5932
 7036SOL    HW232568   3.689   0.087  10.017 -1.1494  1.6483  0.2347
 7037SOL     OW32569   1.046   3.396   4.707  1.0450 -0.2030  0.0294
 7037SOL    HW132570   1.063   3.442   4.789  0.3377 -0.9259  0.5850
 7037SOL    HW232571   0.967   3.347   4.729  1.1254 -0.3613 -0.0369
 7038SOL     OW32572   3.548   0.235  12.194  0.0130 -0.1750  0.1117
 7038SOL    HW132573   3.547   0.167  12.262  0.4732  0.1457  0.4414
 7038SOL    HW232574   3.529   0.311  12.249 -1.7152 -1.5417  1.4312
 7039SOL     OW32575   4.313   2.512   3.665 -0.2111  0.0978 -0.0034
 7039SOL    HW132576   4.314   2.514   3.569 -0.3306  1.0765  0.0097
 7039SOL    HW232577   4.223   2.537   3.682 -0.1366 -0.7594  1.6193
 7040SOL     OW32578   2.283   1.149   2.881 -0.1540 -0.7164  0.3888
 7040SOL    HW132579   2.350   1.116   2.941  0.8586  1.0259  0.1865
 7040SOL    HW232580   2.208   1.090   2.892  0.5062 -1.7691 -0.7275
 7041SOL     OW32581   2.105   4.682   8.122  0.0566 -0.0049  0.4624
 7041SOL    HW132582   2.153   4.683   8.039 -2.0498 -3.8908 -0.8325
 7041SOL    HW232583   2.044   4.609   8.107 -0.1061  0.2310 -0.0306
 7042SOL     OW32584   3.680   3.548   9.484  0.1045 -0.2257 -0.0901
 7042SOL    HW132585   3.726   3.472   9.448 -0.1862 -1.7632  2.7576
 7042SOL    HW232586   3.613   3.506   9.539  0.8775  0.1828  1.1695
 7043SOL     OW32587   3.079   0.701   8.088 -0.2561  0.3125 -0.0398
 7043SOL    HW132588   3.168   0.705   8.054 -0.4959  2.8073 -0.3878
 7043SOL    HW232589   3.075   0.612   8.121  1.5560 -0.4777 -1.9794
 7044SOL     OW32590   2.950   4.496  11.228 -0.1551  0.2736  0.6737
 7044SOL    HW132591   2.947   4.568  11.291  3.5415  0.6545  0.4397
 7044SOL    HW232592   2.883   4.527  11.167 -0.7720 -0.1051  1.1662
 7045SOL     OW32593   2.625   0.813   6.885  0.3158 -0.0827  0.0675
 7045SOL    HW132594   2.659   0.728   6.913  0.8580  0.2880  0.5278
 7045SOL    HW232595   2.687   0.873   6.927 -0.1027  0.4759 -0.1251
 7046SOL     OW32596   2.459   3.836  15.528 -0.2578  0.2705  0.0838
 7046SOL    HW132597   2.414   3.809  15.448  2.7047 -1.3646 -1.0100
 7046SOL    HW232598   2.547   3.856  15.497 -0.1884  2.1285  1.4359
 7047SOL     OW32599   2.355   0.161  14.972  0.4775  0.6844  0.3549
 7047SOL    HW132600   2.358   0.235  15.032 -1.3496  1.7253 -0.8112
 7047SOL    HW232601   2.319   0.103  15.038  1.3176  1.2837  1.3329
 7048SOL     OW32602   4.054   1.496   3.372 -0.1649  0.1979  0.0905
 7048SOL    HW132603   4.021   1.444   3.445  1.1603 -0.8866 -0.0774
 7048SOL    HW232604   4.106   1.433   3.322  0.0852 -0.8677  1.6836
 7049SOL     OW32605   1.118   2.462  16.692  0.0023  0.1718  0.1526
 7049SOL    HW132606   1.137   2.555  16.685  0.0815  0.1528  0.1198
 7049SOL    HW232607   1.023   2.463  16.704 -0.0395 -2.9578  0.0963
 7050SOL     OW32608   1.473   2.266  15.641  0.5572  0.1650 -0.5060
 7050SOL    HW132609   1.424   2.348  15.648  0.6193  0.2398 -0.9172
 7050SOL    HW232610   1.419   2.222  15.575  0.9106  0.3395 -0.9117
 7051SOL     OW32611   3.692   0.835   8.186  0.2776  0.0480  0.0019
 7051SOL    HW132612   3.758   0.905   8.194 -0.2714  0.3348  2.0536
 7051SOL    HW232613   3.608   0.874   8.207  2.6024  4.2270  1.6132
 7052SOL     OW32614   4.717   4.172  10.395  0.0895  0.4285 -0.6618
 7052SOL    HW132615   0.061   4.112  10.357  0.7720  1.4375 -1.1003
 7052SOL    HW232616   4.640   4.160  10.340 -0.8063  2.0121  0.2281
 7053SOL     OW32617   2.586   4.071  12.733  0.0815  0.0864 -0.4477
 7053SOL    HW132618   2.568   4.157  12.769 -1.0017  0.2950 -1.4941
 7053SOL    HW232619   2.558   4.079  12.642 -0.9386  0.4380 -0.0997
 7054SOL     OW32620   3.314   3.669   9.638 -0.4362  0.0968  0.0777
 7054SOL    HW132621   3.297   3.659   9.732  1.5139 -0.7921  0.3291
 7054SOL    HW232622   3.319   3.579   9.605  0.6750  0.2750 -0.2463
 7055SOL     OW32623   2.268   3.573   6.986 -0.0713 -0.2172 -0.0700
 7055SOL    HW132624   2.181   3.611   6.999 -0.4196 -0.6736 -1.0262
 7055SOL    HW232625   2.294   3.638   6.920  0.1432  0.8791  1.0777
 7056SOL     OW32626   4.027   0.101   4.013 -0.3440  0.3217  0.1284
 7056SOL    HW132627   3.980   0.034   3.964 -0.9067  1.8173 -1.3522
 7056SOL    HW232628   4.063   0.043   4.081 -0.0192  1.2228  0.7186
 7057SOL     OW32629   1.728   0.744   8.980 -0.3551  0.1802  0.1388
 7057SOL    HW132630   1.736   0.802   9.056  0.9842 -1.7089  1.4620
 7057SOL    HW232631   1.660   0.783   8.926 -1.8808 -1.1080  1.1285
 7058SOL     OW32632   0.165   0.810   0.012  0.0474 -0.2339 -0.5705
 7058SOL    HW132633   0.093   0.788  17.631  0.2950  0.1010 -0.9909
 7058SOL    HW232634   0.188   0.720   0.035 -1.3290 -1.7621 -5.0527
 7059SOL     OW32635   3.545   0.369   5.464 -0.1854  0.5891 -0.8671
 7059SOL    HW132636   3.534   0.405   5.376 -1.3016  1.5503 -0.3376
 7059SOL    HW232637   3.468   0.397   5.514 -0.0900  0.4797 -0.6595
 7060SOL     OW32638   4.401   0.178   4.803  0.1544  0.8595 -0.3227
 7060SOL    HW132639   4.360   0.166   4.718  1.1005  0.5664 -0.7374
 7060SOL    HW232640   4.435   0.266   4.788 -1.4399  1.3509 -0.9879
 7061SOL     OW32641   2.423   1.819   9.130 -0.1563 -0.9204  0.0767
 7061SOL    HW132642   2.508   1.835   9.089 -0.7451 -0.3627 -0.9353
 7061SOL    HW232643   2.390   1.775   9.052 -0.1844 -0.5246 -0.1365
 7062SOL     OW32644   1.679   3.280   6.006  0.3069 -0.7102 -0.5182
 7062SOL    HW132645   1.606   3.295   6.065 -0.3149  0.1671 -1.5121
 7062SOL    HW232646   1.747   3.276   6.073 -1.3522  1.5705  1.2717
 7063SOL     OW32647   1.249   1.473   2.560  0.0415  0.1229 -0.2186
 7063SOL    HW132648   1.245   1.420   2.639  1.8942 -0.9571 -0.8653
 7063SOL    HW232649   1.244   1.410   2.489  0.0635  1.6654 -1.5866
 7064SOL     OW32650   2.360   0.856   4.946  0.0438  0.3546  0.2724
 7064SOL    HW132651   2.429   0.897   4.894  1.9195 -1.7743  1.0716
 7064SOL    HW232652   2.305   0.928   4.978 -3.4923 -0.1138 -4.7833
 7065SOL     OW32653   1.894   3.510   2.138 -0.9230  0.2666  0.4460
 7065SOL    HW132654   1.923   3.601   2.143 -2.0393  0.6030  0.7050
 7065SOL    HW232655   1.962   3.469   2.191 -1.9970 -1.7189  0.3092
 7066SOL     OW32656   0.132   4.241   3.710  0.0467 -0.2224  0.5258
 7066SOL    HW132657   0.050   4.225   3.663  0.5055  0.7126 -0.5804
 7066SOL    HW232658   0.169   4.153   3.713  0.4720 -0.1178 -2.0177
 7067SOL     OW32659   2.430   4.108   5.678 -0.1966 -0.0169  0.2206
 7067SOL    HW132660   2.345   4.139   5.710 -0.8766  0.2644 -1.8330
 7067SOL    HW232661   2.414   4.013   5.684 -2.6266  0.2128 -2.5707
 7068SOL     OW32662   0.965   1.644   2.625  0.2582 -0.7526  0.2379
 7068SOL    HW132663   0.885   1.626   2.575  0.4628  1.0738 -0.7375
 7068SOL    HW232664   1.019   1.564   2.622  1.1112 -0.1512 -0.3076
 7069SOL     OW32665   4.519   1.091   9.390  0.1607 -0.1267  0.2813
 7069SOL    HW132666   4.434   1.133   9.406  0.6392 -0.3263  3.2455
 7069SOL    HW232667   4.538   1.136   9.307  0.6545 -0.0392  0.4411
 7070SOL     OW32668   1.214   2.273   4.115 -0.3513 -0.3437  0.0278
 7070SOL    HW132669   1.280   2.256   4.182  1.2629 -1.1309 -1.7391
 7070SOL    HW232670   1.241   2.218   4.041  1.5425  0.0000  0.4800
 7071SOL     OW32671   4.536   0.553   8.333 -0.8002  0.3095 -0.1484
 7071SOL    HW132672   4.550   0.501   8.254  0.2482  0.2236  0.1031
 7071SOL    HW232673   4.455   0.510   8.361  0.3731 -1.8640 -0.1324
 7072SOL     OW32674   0.308   2.739   3.774 -0.3020 -0.2731 -0.2406
 7072SOL    HW132675   0.366   2.788   3.716  1.1775 -0.7026  0.8726
 7072SOL    HW232676   0.256   2.813   3.807 -1.3751 -1.0014 -0.3153
 7073SOL     OW32677   0.204   3.302  13.758 -0.7288 -0.1088 -0.5697
 7073SOL    HW132678   0.227   3.394  13.756  2.0890 -0.8491 -1.4244
 7073SOL    HW232679   0.291   3.264  13.762 -0.0709  1.3917 -0.8552
 7074SOL     OW32680   3.206   1.350  11.053 -0.2217 -0.1846  0.5112
 7074SOL    HW132681   3.119   1.390  11.065 -0.0047  0.5327 -0.2308
 7074SOL    HW232682   3.246   1.357  11.139  0.4495  2.1329  0.0140
 7075SOL     OW32683   2.005   0.498  13.479  0.4873 -0.0240  0.2340
 7075SOL    HW132684   1.938   0.542  13.428  0.9902 -0.2682 -0.6336
 7075SOL    HW232685   1.957   0.415  13.481  0.8663 -0.2321  0.9185
 7076SOL     OW32686   2.036   0.070   8.525  0.1559 -0.3369 -0.2479
 7076SOL    HW132687   2.022   0.108   8.612  1.4436 -2.4343  0.8671
 7076SOL    HW232688   1.947   0.068   8.489  0.0047 -0.5720  0.1342
 7077SOL     OW32689   0.112   1.286   0.176  0.1215  0.0516  0.0918
 7077SOL    HW132690   0.162   1.218   0.221  1.3358  1.2184  0.5019
 7077SOL    HW232691   0.057   1.305   0.251  1.3597  2.6615  0.3393
 7078SOL     OW32692   3.397   3.921   5.829 -0.7074 -0.1225  0.0566
 7078SOL    HW132693   3.450   3.915   5.909 -1.2423 -0.9622  0.3499
 7078SOL    HW232694   3.306   3.921   5.858 -0.5413  2.3584  0.5010
 7079SOL     OW32695   1.810   0.376   2.882  0.2746 -0.0998  0.4157
 7079SOL    HW132696   1.768   0.455   2.914 -0.4721 -0.0054 -0.7880
 7079SOL    HW232697   1.899   0.397   2.912  1.0963 -0.1360 -2.0077
 7080SOL     OW32698   0.333   1.718   3.488  0.5780 -0.2287  0.1350
 7080SOL    HW132699   0.422   1.683   3.490 -0.3246 -2.4878  0.4341
 7080SOL    HW232700   0.287   1.637   3.467 -0.2209  0.3892 -0.4778
 7081SOL     OW32701   0.799   3.435   8.164 -0.2092 -0.3214  0.0835
 7081SOL    HW132702   0.830   3.466   8.250  0.6946 -1.1268  0.0486
 7081SOL    HW232703   0.834   3.346   8.162 -0.2486 -0.2590 -2.7616
 7082SOL     OW32704   0.033   4.178   6.818  0.4180 -0.2466 -0.2593
 7082SOL    HW132705   0.037   4.179   6.913 -1.1538  0.7813 -0.2021
 7082SOL    HW232706   0.127   4.177   6.798  0.7932  1.9535  1.3894
 7083SOL     OW32707   3.775   0.413  15.030 -0.1744  0.3730 -0.1724
 7083SOL    HW132708   3.700   0.378  15.078 -0.2403 -0.2384 -0.7339
 7083SOL    HW232709   3.752   0.502  15.002 -1.1757 -0.1362 -0.9479
 7084SOL     OW32710   4.085   4.562   7.756 -0.3597 -0.4347  0.1686
 7084SOL    HW132711   4.065   4.653   7.734 -0.1270 -0.0729  1.4738
 7084SOL    HW232712   4.116   4.568   7.846  1.3802 -1.5124 -0.3568
 7085SOL     OW32713   2.179   0.454   2.207 -0.0959  0.4337  0.0824
 7085SOL    HW132714   2.232   0.402   2.146 -0.2854  2.1590 -1.5615
 7085SOL    HW232715   2.256   0.500   2.240 -0.3808  1.7749 -1.0833
 7086SOL     OW32716   3.132   3.399   9.551 -0.3405 -0.0215 -0.3676
 7086SOL    HW132717   3.181   3.347   9.487 -1.5792 -0.1802 -1.1767
 7086SOL    HW232718   3.128   3.335   9.621 -1.7762  0.2696 -0.1897
 7087SOL     OW32719   4.164   2.243   8.039  0.4609  0.3304 -0.2684
 7087SOL    HW132720   4.228   2.301   8.080 -1.6651  0.4683  2.8120
 7087SOL    HW232721   4.192   2.161   8.079  0.0383  0.1274 -0.3884
 7088SOL     OW32722   4.236   0.090   0.269 -0.7942  0.4333  0.2482
 7088SOL    HW132723   4.217   0.075   0.361 -1.0233  3.1027  0.6269
 7088SOL    HW232724   4.152   0.106   0.225 -0.8320 -1.0220 -0.2037
 7089SOL     OW32725   0.970   0.107  12.081 -0.4613  0.1298  0.1721
 7089SOL    HW132726   0.989   0.043  12.150 -0.2238  1.2860  1.1850
 7089SOL    HW232727   0.940   0.181  12.134 -1.1262  0.1391 -0.2198
 7090SOL     OW32728   4.603   4.357   7.431 -0.3446  0.0127 -0.0346
 7090SOL    HW132729   4.635   4.367   7.342  3.1416  1.0902  1.3716
 7090SOL    HW232730   4.546   4.433   7.440  2.0216  1.6198  1.0297
 7091SOL     OW32731   4.377   1.788   8.903 -0.7629  0.8879  0.2080
 7091SOL    HW132732   4.293   1.778   8.950 -0.6629  1.1330  0.4434
 7091SOL    HW232733   4.357   1.856   8.838  0.2525  1.4908  0.5248
 7092SOL     OW32734   4.486   0.244   2.673 -0.0018 -0.0608  0.3946
 7092SOL    HW132735   4.564   0.211   2.719  0.8048  0.3716 -0.6638
 7092SOL    HW232736   4.518   0.282   2.591 -0.0694  0.0239  0.4080
 7093SOL     OW32737   4.059   3.926   8.408  0.4267  0.3351  0.1711
 7093SOL    HW132738   4.047   3.836   8.376 -0.0492  0.1255  0.9601
 7093SOL    HW232739   4.034   3.971   8.328  3.2076 -1.5370 -1.7746
 7094SOL     OW32740   3.920   2.482   8.684 -0.5447  0.1720 -0.1191
 7094SOL    HW132741   3.881   2.423   8.748  1.4595 -1.6675 -0.6134
 7094SOL    HW232742   3.839   2.506   8.639  0.0166 -0.8456 -1.6522
 7095SOL     OW32743   1.700   3.863   3.403  0.2444 -0.4401 -0.5497
 7095SOL    HW132744   1.784   3.891   3.366  0.2503  0.5218  0.1798
 7095SOL    HW232745   1.682   3.789   3.345 -1.5603  0.3964 -1.0731
 7096SOL     OW32746   0.258   1.182   5.353  0.4388  0.4245  0.0717
 7096SOL    HW132747   0.312   1.165   5.276 -0.9985 -1.4150 -0.5309
 7096SOL    HW232748   0.319   1.149   5.418  0.1585  2.3837  1.3287
 7097SOL     OW32749   0.431   3.000   0.112 -0.3295  0.2623  0.1724
 7097SOL    HW132750   0.367   2.992   0.041  0.2691 -0.3173 -0.3048
 7097SOL    HW232751   0.438   3.095   0.125  0.4850  0.1629  0.4045
 7098SOL     OW32752   4.547   0.047   4.964 -0.0022 -0.6802  0.1919
 7098SOL    HW132753   4.500   0.092   4.893 -0.8917 -0.5135  0.8879
 7098SOL    HW232754   4.552   0.121   5.025 -0.8581 -2.1091  1.9731
 7099SOL     OW32755   3.000   0.039  17.212  0.0434  0.3359  0.8655
 7099SOL    HW132756   2.925   0.005  17.261 -1.1359 -0.8285 -1.7381
 7099SOL    HW232757   3.048   4.675  17.210  1.0422  0.8780  2.3436
 7100SOL     OW32758   4.472   1.832  11.354 -0.5138  0.2311  0.2536
 7100SOL    HW132759   4.403   1.826  11.420 -0.4695  2.3920  0.4805
 7100SOL    HW232760   4.521   1.753  11.375 -0.6624 -0.3090 -1.4182
 7101SOL     OW32761   2.386   4.194   6.874  0.0170 -0.4225 -0.1428
 7101SOL    HW132762   2.307   4.185   6.821 -2.3246 -0.7533  3.4088
 7101SOL    HW232763   2.360   4.149   6.953  2.1911  0.4305  1.0708
 7102SOL     OW32764   2.472   1.077   1.206 -0.5851  0.2246 -0.0263
 7102SOL    HW132765   2.440   1.053   1.292 -0.2683  1.6154  0.4874
 7102SOL    HW232766   2.402   1.141   1.193 -0.8036 -0.1021 -0.4253
 7103SOL     OW32767   3.188   2.323   1.787  0.1029 -0.1754 -0.3772
 7103SOL    HW132768   3.254   2.357   1.726  0.3755 -0.8494 -0.4600
 7103SOL    HW232769   3.105   2.346   1.746 -0.9112 -0.0302  1.7185
 7104SOL     OW32770   3.585   2.028   7.996  0.1242 -0.1543 -0.1171
 7104SOL    HW132771   3.619   1.940   8.014  1.3426  0.5361  0.9975
 7104SOL    HW232772   3.606   2.020   7.903  0.5044  1.3757 -0.1587
 7105SOL     OW32773   1.423   3.539  12.379  0.4860  0.3934  0.5406
 7105SOL    HW132774   1.349   3.545  12.319  0.1506 -0.3299  0.8787
 7105SOL    HW232775   1.423   3.621  12.429  0.8347  0.6869  0.0617
 7106SOL     OW32776   3.722   1.159   4.461  0.3251  0.4571 -0.3446
 7106SOL    HW132777   3.663   1.233   4.444  1.7200  1.4406 -0.8843
 7106SOL    HW232778   3.668   1.114   4.526 -1.6644  1.6289 -1.1771
 7107SOL     OW32779   4.091   2.883  13.571  0.2424  0.1304  0.2763
 7107SOL    HW132780   4.106   2.789  13.562  0.4564  0.0870  1.0316
 7107SOL    HW232781   4.003   2.887  13.535  0.0611  2.2463  0.9455
 7108SOL     OW32782   3.107   0.579   7.348  0.2855  0.4203 -0.3670
 7108SOL    HW132783   3.092   0.542   7.435 -0.0527  0.4923 -0.3965
 7108SOL    HW232784   3.070   0.667   7.357  1.4636  0.7502  1.4087
 7109SOL     OW32785   4.285   0.663   7.377 -0.1974  0.3630 -0.2455
 7109SOL    HW132786   4.262   0.755   7.361  1.5241  0.9323  0.6208
 7109SOL    HW232787   4.204   0.633   7.420  0.4978 -1.4088 -0.1490
 7110SOL     OW32788   3.141   3.146  14.505  0.2287 -0.1590  0.6482
 7110SOL    HW132789   3.080   3.218  14.488 -0.8430 -1.2986 -0.3779
 7110SOL    HW232790   3.128   3.146  14.600  0.4291 -2.5434  0.6808
 7111SOL     OW32791   4.623   3.190  16.632  0.6426 -0.0369 -0.5879
 7111SOL    HW132792   4.680   3.113  16.629 -0.6759 -1.1464  2.8340
 7111SOL    HW232793   4.633   3.231  16.718 -1.8424  0.3051 -0.4618
 7112SOL     OW32794   3.769   2.698  10.724  0.0321  0.1473 -0.3158
 7112SOL    HW132795   3.848   2.717  10.776  0.5555  1.1347 -1.4743
 7112SOL    HW232796   3.796   2.748  10.647  2.9044 -1.4910 -0.3957
 7113SOL     OW32797   3.121   4.147   2.687  0.3315  0.3567  0.0925
 7113SOL    HW132798   3.134   4.135   2.593  2.2760 -1.3706  0.5710
 7113SOL    HW232799   3.072   4.228   2.676  1.6367  1.0149 -0.7639
 7114SOL     OW32800   3.433   3.339   9.193 -0.1494  0.0737  0.2650
 7114SOL    HW132801   3.478   3.423   9.186 -0.9906  0.1016 -4.6620
 7114SOL    HW232802   3.406   3.306   9.108  0.7212 -1.7585  0.7011
 7115SOL     OW32803   3.702   0.074   9.238 -0.5016 -0.2099  0.1203
 7115SOL    HW132804   3.683   0.142   9.304 -0.0583 -0.9687  1.0336
 7115SOL    HW232805   3.634   0.092   9.174  1.1092 -1.5882 -1.9426
 7116SOL     OW32806   2.381   1.838   2.128  0.0362 -0.0014  0.3934
 7116SOL    HW132807   2.392   1.840   2.033  2.9186 -2.3730  0.6887
 7116SOL    HW232808   2.441   1.911   2.146  1.0165 -0.6363 -0.3395
 7117SOL     OW32809   1.034   2.261  15.666  0.0925 -0.1224  0.2804
 7117SOL    HW132810   0.941   2.248  15.644 -0.3560  0.5693  1.8203
 7117SOL    HW232811   1.055   2.332  15.605 -0.0561  0.3118  0.7398
 7118SOL     OW32812   0.425   1.343   3.548 -0.7339  0.4612 -0.2331
 7118SOL    HW132813   0.467   1.268   3.591 -1.7571  0.0122 -0.0393
 7118SOL    HW232814   0.480   1.365   3.473 -2.7071  1.8758 -1.2619
 7119SOL     OW32815   2.711   1.499   7.994  0.1176 -0.0985 -0.3316
 7119SOL    HW132816   2.689   1.509   8.087 -3.6878 -1.1666 -1.1045
 7119SOL    HW232817   2.804   1.480   8.007 -0.2272 -1.8693 -0.4088
 7120SOL     OW32818   2.566   0.369   6.564 -0.0325  0.2664  0.3835
 7120SOL    HW132819   2.569   0.390   6.471 -2.7623  1.6446  0.5926
 7120SOL    HW232820   2.659   0.360   6.583 -0.5539 -1.8767  1.8416
 7121SOL     OW32821   2.655   3.545   1.222  0.0015 -0.2229 -0.4014
 7121SOL    HW132822   2.592   3.615   1.243 -1.2563 -1.2583 -0.7188
 7121SOL    HW232823   2.636   3.468   1.275 -0.0182  0.8552  1.1531
 7122SOL     OW32824   2.978   0.447   0.216 -0.3199 -0.1882 -0.0449
 7122SOL    HW132825   3.005   0.532   0.183 -0.1445  0.8117  2.6846
 7122SOL    HW232826   3.012   0.383   0.152 -0.0348 -0.3983  0.3175
 7123SOL     OW32827   0.956   3.415   3.553 -0.3340 -0.0798 -0.6577
 7123SOL    HW132828   0.913   3.487   3.599 -0.2690 -0.2876 -0.2691
 7123SOL    HW232829   1.046   3.448   3.555 -0.2398 -0.2326 -3.0370
 7124SOL     OW32830   3.674   1.311   7.530  0.2523  0.0785  0.2867
 7124SOL    HW132831   3.764   1.323   7.561  0.4044 -2.6835  0.8375
 7124SOL    HW232832   3.636   1.399   7.531  0.9818  0.4005 -1.6302
 7125SOL     OW32833   0.438   0.089   3.050 -0.3770 -0.0097 -0.0694
 7125SOL    HW132834   0.443   4.713   3.040  0.1356 -0.1800  1.9328
 7125SOL    HW232835   0.376   0.093   3.122  0.6169  2.4113  0.6466
 7126SOL     OW32836   3.891   0.570   9.680 -0.1091  0.1893 -0.2676
 7126SOL    HW132837   3.947   0.496   9.700 -0.8706 -0.3495 -0.1215
 7126SOL    HW232838   3.882   0.550   9.586  1.8231  1.4267 -0.7156
 7127SOL     OW32839   3.104   1.307   3.061 -0.0768 -0.1362 -0.0527
 7127SOL    HW132840   3.132   1.392   3.027 -0.3948 -0.1411 -0.3162
 7127SOL    HW232841   3.064   1.333   3.144 -1.7472 -0.9422 -0.6072
 7128SOL     OW32842   2.370   1.675   3.803 -0.1688 -0.3122 -0.3313
 7128SOL    HW132843   2.282   1.706   3.782 -0.3982 -0.7821 -0.0417
 7128SOL    HW232844   2.340   1.614   3.870  0.7714  0.2721  0.6165
 7129SOL     OW32845   3.706   2.903   8.348  0.0179  0.6058 -0.7142
 7129SOL    HW132846   3.749   2.893   8.263 -2.0660 -0.5353 -1.5996
 7129SOL    HW232847   3.749   2.829   8.391  1.6764  2.2867  0.5280
 7130SOL     OW32848   2.893   1.951   9.093  0.1750  0.3948  0.5023
 7130SOL    HW132849   2.957   1.985   9.032  0.1166 -3.8426 -1.8740
 7130SOL    HW232850   2.928   1.997   9.170 -0.8980  0.6444  0.8551
 7131SOL     OW32851   2.361   0.016  15.773 -0.1616 -0.1196 -0.3576
 7131SOL    HW132852   2.409   4.693  15.844  1.5832 -0.2817 -1.6293
 7131SOL    HW232853   2.307   4.663  15.739  0.8718 -0.1132 -1.9711
 7132SOL     OW32854   4.379   3.885   4.993 -0.0747 -0.7863 -0.3571
 7132SOL    HW132855   4.427   3.825   4.936 -0.9508 -2.7210  0.9193
 7132SOL    HW232856   4.439   3.959   4.990 -1.9493  0.6880 -0.9553
 7133SOL     OW32857   0.602   2.996   2.564  0.2886 -0.3416 -0.7316
 7133SOL    HW132858   0.678   3.051   2.541 -0.1514  0.2543 -0.7679
 7133SOL    HW232859   0.536   3.045   2.514  0.7960  1.6955  0.6027
 7134SOL     OW32860   0.865   2.331   7.898  0.8342 -0.1074 -0.2194
 7134SOL    HW132861   0.895   2.383   7.973  0.6771  0.7121 -0.7306
 7134SOL    HW232862   0.875   2.384   7.820  0.2776 -0.0139 -0.2232
 7135SOL     OW32863   1.881   1.874   4.068  0.2194 -0.0028  0.5150
 7135SOL    HW132864   1.829   1.844   3.994  0.2979 -2.2342  1.3450
 7135SOL    HW232865   1.841   1.960   4.081  0.6719  0.0180  1.7679
 7136SOL     OW32866   1.702   4.669   5.697  0.1517  0.3848 -0.3001
 7136SOL    HW132867   1.764   0.006   5.743  1.8239 -1.4185 -0.3929
 7136SOL    HW232868   1.749   4.587   5.711 -0.7649  0.1924  1.7392
 7137SOL     OW32869   3.971   1.062   1.396 -0.2412  0.3346 -0.6226
 7137SOL    HW132870   4.041   1.124   1.379  1.2729 -0.8929  1.1165
 7137SOL    HW232871   3.992   1.037   1.486  0.9775  1.7406 -0.5183
 7138SOL     OW32872   0.883   2.298   1.728 -0.1085 -0.2973 -0.3087
 7138SOL    HW132873   0.795   2.284   1.765 -0.5508 -2.2350 -2.0991
 7138SOL    HW232874   0.876   2.390   1.704  0.3118  0.4102  2.2860
 7139SOL     OW32875   4.668   3.553   0.703 -0.4404 -0.3233 -0.2885
 7139SOL    HW132876   0.043   3.539   0.698 -0.2275  0.7062  0.9766
 7139SOL    HW232877   4.683   3.647   0.697  0.7452 -0.6589 -2.3071
 7140SOL     OW32878   2.656   2.180   4.663 -0.4093 -0.0860 -0.4790
 7140SOL    HW132879   2.690   2.222   4.584  1.6554 -1.6519 -0.4302
 7140SOL    HW232880   2.736   2.150   4.707 -0.3008  1.0209  0.0802
 7141SOL     OW32881   0.151   2.350   6.328 -0.0350 -0.3520 -0.1047
 7141SOL    HW132882   0.126   2.303   6.408 -0.9709  0.3827  0.0288
 7141SOL    HW232883   0.138   2.289   6.256  1.0950 -0.0104 -0.5918
 7142SOL     OW32884   1.633   1.977  11.879 -0.0778 -0.0907  0.3419
 7142SOL    HW132885   1.708   1.971  11.819 -0.7666  0.7133 -0.6092
 7142SOL    HW232886   1.632   2.071  11.900  0.9465 -0.0419  0.1614
 7143SOL     OW32887   0.546   3.328   6.738 -0.2509  0.1630 -0.0632
 7143SOL    HW132888   0.606   3.313   6.812  0.0229  2.5516  0.2157
 7143SOL    HW232889   0.585   3.406   6.698 -1.7192  0.9431  0.0447
 7144SOL     OW32890   1.950   2.579   3.161 -0.5005 -0.7091  0.1297
 7144SOL    HW132891   1.931   2.494   3.122  1.3886 -2.3230  2.7164
 7144SOL    HW232892   2.040   2.600   3.137 -1.4036  1.5013 -1.3000
 7145SOL     OW32893   3.216   2.695   6.799  0.1510 -0.4369 -0.2694
 7145SOL    HW132894   3.187   2.614   6.758 -3.2680 -0.0345  1.4032
 7145SOL    HW232895   3.287   2.722   6.740  1.1045  0.6538  1.3607
 7146SOL     OW32896   3.217   2.859  11.257  0.5325  0.8790  0.5001
 7146SOL    HW132897   3.280   2.817  11.199 -1.2151  1.1871 -1.6127
 7146SOL    HW232898   3.275   2.841  11.331  0.2097 -1.1044  0.2639
 7147SOL     OW32899   3.290   1.048   7.562  0.4255  0.5102  0.1891
 7147SOL    HW132900   3.212   1.078   7.514 -1.2941 -0.1096  2.5611
 7147SOL    HW232901   3.260   1.061   7.652 -0.2863 -0.0497  0.0453
 7148SOL     OW32902   3.187   4.218   1.611  0.1365  0.0398 -0.2495
 7148SOL    HW132903   3.116   4.227   1.548  1.5289  1.1213 -1.6390
 7148SOL    HW232904   3.242   4.159   1.560  1.5696  0.2237  1.0727
 7149SOL     OW32905   4.440   1.370   2.853  0.1359  0.2313 -0.6084
 7149SOL    HW132906   4.481   1.448   2.818  0.6799  0.0872 -0.2907
 7149SOL    HW232907   4.367   1.355   2.793 -0.9969  2.2266  0.2520
 7150SOL     OW32908   4.166   1.979   1.826 -0.3427 -0.3802  0.3067
 7150SOL    HW132909   4.093   1.921   1.807 -1.2190 -0.5330  4.1009
 7150SOL    HW232910   4.234   1.929   1.781 -1.4265  0.0438 -1.7910
 7151SOL     OW32911   0.990   4.492   7.989  0.4755  0.0240  0.4904
 7151SOL    HW132912   1.013   4.422   8.051 -1.3487 -0.1843  0.9472
 7151SOL    HW232913   1.044   4.562   8.026  0.6840 -0.1657  0.5470
 7152SOL     OW32914   1.522   0.892   2.215  0.0735 -0.7335 -0.0170
 7152SOL    HW132915   1.563   0.978   2.222 -0.0837 -0.6318 -0.3735
 7152SOL    HW232916   1.593   0.839   2.251  0.4717 -0.8565 -1.0011
 7153SOL     OW32917   0.263   4.475   7.531 -0.0606 -0.5793  0.3249
 7153SOL    HW132918   0.237   4.508   7.445  0.9339  0.3120  0.3780
 7153SOL    HW232919   0.187   4.421   7.553 -1.9922  1.2909 -1.8345
 7154SOL     OW32920   0.622   2.767   5.253  0.2053 -0.3340  0.5169
 7154SOL    HW132921   0.578   2.702   5.199  0.0297  1.5246 -1.5596
 7154SOL    HW232922   0.685   2.819   5.203  0.9055 -0.5784  1.1468
 7155SOL     OW32923   0.506   1.304   6.386  0.2502 -0.1316 -0.0599
 7155SOL    HW132924   0.480   1.248   6.459 -0.0610  2.0531  1.5034
 7155SOL    HW232925   0.488   1.244   6.314  2.3523  0.3224 -0.9570
 7156SOL     OW32926   1.277   4.069  13.789 -0.1046 -0.2702  0.0218
 7156SOL    HW132927   1.369   4.094  13.785  0.6395 -2.6697  2.4646
 7156SOL    HW232928   1.238   4.074  13.702 -1.6715 -2.6815  0.5842
 7157SOL     OW32929   0.393   3.025   3.360  0.4660  0.0260  0.0734
 7157SOL    HW132930   0.462   2.964   3.334 -1.4204 -1.9891 -0.2797
 7157SOL    HW232931   0.378   3.056   3.271 -0.3502 -0.6216 -0.0111
 7158SOL     OW32932   1.703   2.770   2.453  0.2670 -0.0781  0.0144
 7158SOL    HW132933   1.639   2.841   2.455 -1.5179 -1.7091  1.4622
 7158SOL    HW232934   1.787   2.814   2.461  0.7664 -1.0229 -0.0108
 7159SOL     OW32935   0.723   1.980   7.322  0.2052  0.5020  0.7747
 7159SOL    HW132936   0.743   1.910   7.260  0.3065 -0.3395  1.7468
 7159SOL    HW232937   0.718   2.054   7.261  0.4222  0.1102  0.2874
 7160SOL     OW32938   4.126   1.498   2.029  0.9277 -0.2103  0.0560
 7160SOL    HW132939   4.054   1.435   2.022 -0.2764  1.3846 -1.8994
 7160SOL    HW232940   4.198   1.436   2.037 -0.2609 -1.5561  0.2821
 7161SOL     OW32941   4.457   4.301   0.029  0.1320 -0.1027 -0.2146
 7161SOL    HW132942   4.538   4.318  17.659 -0.3282  1.4482 -0.4372
 7161SOL    HW232943   4.398   4.290  17.633 -1.4269 -2.3184  1.3457
 7162SOL     OW32944   1.946   0.061  13.879 -0.1175 -0.0998 -0.2143
 7162SOL    HW132945   1.956   4.693  13.918  1.1040 -0.0976 -0.5120
 7162SOL    HW232946   2.041   0.076  13.873 -0.1021  0.3355  1.2598
 7163SOL     OW32947   4.671   0.976   4.544 -0.2139 -0.1948 -0.2633
 7163SOL    HW132948   4.676   0.911   4.474 -0.1941 -0.9896  0.4731
 7163SOL    HW232949   0.041   1.009   4.553 -1.1665  1.8871  1.5700
 7164SOL     OW32950   2.767   4.009   6.605 -0.4808  0.0303  0.0499
 7164SOL    HW132951   2.691   3.950   6.606  1.4152 -2.4520 -1.7389
 7164SOL    HW232952   2.760   4.043   6.516  0.4093  0.9435  0.3364
 7165SOL     OW32953   4.094   3.689   6.801  0.6855 -0.2180 -0.5317
 7165SOL    HW132954   4.078   3.780   6.775  0.1233  0.4872  2.2757
 7165SOL    HW232955   4.004   3.658   6.790 -0.1020  1.6114  0.6196
 7166SOL     OW32956   0.691   0.988   2.591  0.5283 -0.1716  0.0515
 7166SOL    HW132957   0.655   1.054   2.650  1.4454 -0.4847  0.9618
 7166SOL    HW232958   0.690   0.911   2.648  2.7634 -0.0235  0.3005
 7167SOL     OW32959   4.397   2.159  16.368 -0.3686 -0.3023 -0.5959
 7167SOL    HW132960   4.396   2.068  16.396 -0.9897  0.0010  0.3660
 7167SOL    HW232961   4.375   2.133  16.279  2.2109  0.1103 -1.3653
 7168SOL     OW32962   3.433   0.705   8.907  0.1632  0.2879 -0.2857
 7168SOL    HW132963   3.432   0.614   8.878  0.2523  0.3057 -0.3424
 7168SOL    HW232964   3.343   0.712   8.941  0.6381 -0.1749  1.0875
 7169SOL     OW32965   0.889   0.132   3.265  0.4602  0.5500 -0.3800
 7169SOL    HW132966   0.816   0.123   3.204 -0.0062  1.8756 -0.0153
 7169SOL    HW232967   0.923   0.220   3.246  0.2783  0.5212 -0.8436
 7170SOL     OW32968   1.140   0.561   5.479 -0.0725 -0.2514 -0.1651
 7170SOL    HW132969   1.226   0.519   5.482 -0.3556 -0.7319  1.0454
 7170SOL    HW232970   1.133   0.581   5.385 -0.7844 -0.1781 -0.1014
 7171SOL     OW32971   1.132   3.367  11.940  0.0638  0.2098  0.2520
 7171SOL    HW132972   1.225   3.379  11.918  0.6548 -1.2531  1.9387
 7171SOL    HW232973   1.118   3.272  11.946  0.9890  0.0727  0.2602
 7172SOL     OW32974   4.121   2.518  17.517 -0.4121 -0.9039 -0.0988
 7172SOL    HW132975   4.049   2.477  17.471 -1.8502  1.4746  0.0482
 7172SOL    HW232976   4.189   2.451  17.507  0.1053 -0.4080  0.0322
 7173SOL     OW32977   0.092   0.534   9.641  0.2416  0.3059  0.0682
 7173SOL    HW132978   0.084   0.629   9.637  0.9206  0.3241 -0.7890
 7173SOL    HW232979   0.171   0.510   9.593  0.1172 -0.5510  0.2907
 7174SOL     OW32980   3.907   0.702   1.798  0.2478 -0.1431 -0.1347
 7174SOL    HW132981   3.923   0.736   1.710 -1.2243  0.3822 -0.2013
 7174SOL    HW232982   3.841   0.768   1.820 -1.2100 -1.5276 -0.3901
 7175SOL     OW32983   1.287   0.983  17.394  0.3451 -0.3256  0.2364
 7175SOL    HW132984   1.341   1.054  17.428 -0.1144  1.1411 -2.1387
 7175SOL    HW232985   1.348   0.912  17.375  0.0487 -0.3259 -0.7215
 7176SOL     OW32986   1.334   0.645  17.161 -0.2366  0.1564  0.4236
 7176SOL    HW132987   1.298   0.733  17.146 -0.0064  0.0826 -0.6187
 7176SOL    HW232988   1.419   0.661  17.201  0.6253  1.2760 -1.8335
 7177SOL     OW32989   0.679   0.619   8.204 -0.4254 -0.5022  0.0303
 7177SOL    HW132990   0.726   0.644   8.282 -0.0282  0.9064 -0.6651
 7177SOL    HW232991   0.754   0.582   8.157 -0.8251 -1.9909  0.5507
 7178SOL     OW32992   4.629   3.652   8.143 -0.4824 -0.5707 -0.5328
 7178SOL    HW132993   4.685   3.727   8.163 -1.9782  0.7247 -1.1846
 7178SOL    HW232994   4.655   3.594   8.214  1.2792  0.9515  0.0898
 7179SOL     OW32995   0.547   1.453  16.913  0.0542  0.4382 -0.5338
 7179SOL    HW132996   0.585   1.368  16.892  1.9184  1.0845  0.2239
 7179SOL    HW232997   0.526   1.487  16.826 -1.1860 -2.9968 -1.6036
 7180SOL     OW32998   3.611   3.041   7.709  0.2913 -0.8201  0.4183
 7180SOL    HW132999   3.678   2.984   7.671  0.9544 -1.4879  2.6143
 7180SOL    HW233000   3.632   3.129   7.676 -1.3301 -0.6409 -0.1333
 7181SOL     OW33001   1.662   1.622  11.398 -0.6216  0.8845 -0.0373
 7181SOL    HW133002   1.672   1.707  11.355 -1.2888  0.5621 -0.8237
 7181SOL    HW233003   1.739   1.573  11.368 -0.6742  0.6888  0.1481
 7182SOL     OW33004   0.688   1.740   5.927  0.2751 -0.0874  0.6451
 7182SOL    HW133005   0.774   1.744   5.884 -1.1847 -0.4315 -2.2688
 7182SOL    HW233006   0.703   1.672   5.993  0.3400 -0.8854 -0.1896
 7183SOL     OW33007   2.260   2.845   3.255  0.4452 -0.3244 -0.2300
 7183SOL    HW133008   2.344   2.875   3.221  0.2371 -0.3598 -0.7641
 7183SOL    HW233009   2.275   2.861   3.349  0.8048 -1.6260 -0.0727
 7184SOL     OW33010   1.414   1.489   9.475 -0.3197 -0.1539 -0.1219
 7184SOL    HW133011   1.337   1.532   9.437 -1.0700 -0.0291  1.5558
 7184SOL    HW233012   1.396   1.398   9.452  1.5366 -0.3154 -0.9289
 7185SOL     OW33013   1.453   2.208   4.963  0.2905  0.5062 -0.1623
 7185SOL    HW133014   1.501   2.282   4.927 -1.5521  1.4329 -0.7329
 7185SOL    HW233015   1.387   2.269   4.998  0.2431  0.1660  0.3440
 7186SOL     OW33016   4.039   1.051   9.891  0.2576 -0.1071 -0.0666
 7186SOL    HW133017   4.018   1.078   9.802 -2.6613 -0.9875  0.3599
 7186SOL    HW233018   4.009   0.960   9.896 -0.5676  0.2770  2.0254
 7187SOL     OW33019   4.249   2.185   4.866  0.5837  0.5535 -0.2073
 7187SOL    HW133020   4.259   2.253   4.800  0.6055 -1.2082 -1.9967
 7187SOL    HW233021   4.195   2.116   4.827 -0.2267  1.8109 -1.3013
 7188SOL     OW33022   2.552   0.823   0.265 -0.0817 -0.1344 -0.8715
 7188SOL    HW133023   2.647   0.817   0.252  0.1748 -0.7063  1.3093
 7188SOL    HW233024   2.532   0.906   0.221 -0.0679  0.5216  0.3657
 7189SOL     OW33025   0.341   3.865   6.725 -0.0206  0.5127 -0.5947
 7189SOL    HW133026   0.268   3.832   6.778 -0.1229 -0.3378 -1.2569
 7189SOL    HW233027   0.302   3.857   6.638  1.5047 -0.0523 -1.2338
 7190SOL     OW33028   1.657   1.083   0.911  0.1610 -0.4544  0.0085
 7190SOL    HW133029   1.644   1.042   0.996  0.2872 -1.5871 -0.5206
 7190SOL    HW233030   1.739   1.131   0.924  0.9203 -1.9250  0.6322
 7191SOL     OW33031   3.738   0.531   9.961  0.2260 -0.4681 -0.3659
 7191SOL    HW133032   3.813   0.533   9.902 -0.9924  2.3347 -1.7729
 7191SOL    HW233033   3.778   0.489  10.037  1.8846  1.9106  0.0407
 7192SOL     OW33034   0.863   0.699  15.322 -0.1176 -0.0030  0.6211
 7192SOL    HW133035   0.844   0.689  15.415 -0.5712 -0.6821  0.4583
 7192SOL    HW233036   0.835   0.789  15.303  3.4098  0.7262 -1.1634
 7193SOL     OW33037   0.716   0.230   2.725 -0.0422  0.4653  0.2001
 7193SOL    HW133038   0.725   0.136   2.740 -0.9760  0.4308  0.5307
 7193SOL    HW233039   0.622   0.245   2.715 -0.0174  0.9020  0.5880
 7194SOL     OW33040   2.758   4.055   9.019 -0.2512  0.4072 -0.3184
 7194SOL    HW133041   2.737   4.146   9.001 -1.2781  0.0606 -0.8643
 7194SOL    HW233042   2.749   4.053   9.115  2.0716  1.0116 -0.0793
 7195SOL     OW33043   4.064   2.482   3.196  0.3017 -0.6907  0.5514
 7195SOL    HW133044   4.118   2.540   3.249  0.4568 -0.6751  0.3776
 7195SOL    HW233045   4.025   2.549   3.141  0.8537 -0.3300  0.5974
 7196SOL     OW33046   1.779   0.411   7.050  0.3112 -0.8379  0.5241
 7196SOL    HW133047   1.726   0.490   7.061  0.8380 -0.7525  2.3649
 7196SOL    HW233048   1.837   0.419   6.975 -3.1352  1.9550 -1.8351
 7197SOL     OW33049   0.577   0.346   7.728  0.0873  0.8193  0.4925
 7197SOL    HW133050   0.571   0.342   7.633  2.5209 -1.9168  0.4384
 7197SOL    HW233051   0.670   0.322   7.736 -0.3766 -1.4195 -0.9062
 7198SOL     OW33052   2.390   4.130   4.994 -0.3355 -0.3029 -0.3376
 7198SOL    HW133053   2.486   4.120   4.993 -0.2436  0.5164  0.5646
 7198SOL    HW233054   2.378   4.210   4.942 -1.6475  0.9243  1.8386
 7199SOL     OW33055   3.024   2.030  14.856  0.7209 -0.0710  1.0018
 7199SOL    HW133056   2.952   2.057  14.912  0.4236  0.4443  0.3703
 7199SOL    HW233057   2.990   1.943  14.834  1.5809 -0.3530  0.7821
 7200SOL     OW33058   3.886   3.954  15.729  0.1489  0.3451 -0.2044
 7200SOL    HW133059   3.823   3.999  15.674 -0.5713  0.5997  0.8280
 7200SOL    HW233060   3.864   3.982  15.818  2.6162 -1.8773  1.1060
 7201SOL     OW33061   0.231   2.314   2.829  0.7066  0.4664 -0.5308
 7201SOL    HW133062   0.154   2.370   2.845 -0.0230 -0.1122 -1.9829
 7201SOL    HW233063   0.225   2.240   2.889  1.3583  0.3106 -0.6631
 7202SOL     OW33064   0.003   2.855   8.000  0.4151  0.8803  0.1839
 7202SOL    HW133065   4.691   2.917   7.934  1.2867  1.1865  0.0640
 7202SOL    HW233066   0.077   2.900   8.039  0.6380 -0.4834  1.3700
 7203SOL     OW33067   3.618   3.528   7.910 -0.0533  0.0125 -0.0567
 7203SOL    HW133068   3.631   3.448   7.961 -2.3978 -0.4239 -0.1569
 7203SOL    HW233069   3.523   3.532   7.917 -0.2238 -0.6939 -1.8237
 7204SOL     OW33070   0.382   0.715   0.175 -0.0838 -0.0517  0.5459
 7204SOL    HW133071   0.332   0.645   0.132  0.5779 -1.5475  2.1861
 7204SOL    HW233072   0.428   0.657   0.236  0.5112  0.7113  0.8099
 7205SOL     OW33073   1.642   1.507   7.693 -0.2547  0.4803  0.1741
 7205SOL    HW133074   1.639   1.592   7.649 -1.0228 -0.3761 -1.4147
 7205SOL    HW233075   1.664   1.519   7.785 -1.0087  0.2041  0.3908
 7206SOL     OW33076   3.207   0.208   0.360  0.1633  0.2490 -0.3296
 7206SOL    HW133077   3.126   0.259   0.364 -0.2135 -0.1349 -2.9259
 7206SOL    HW233078   3.255   0.268   0.417 -2.0152  0.9113  0.8100
 7207SOL     OW33079   3.621   1.982   2.609 -0.2114  0.3020  0.0244
 7207SOL    HW133080   3.652   1.948   2.525  0.1279  0.9431 -0.1111
 7207SOL    HW233081   3.532   1.949   2.601 -0.5438  1.1398  0.2234
 7208SOL     OW33082   2.890   1.913  17.610  0.2083 -0.3057 -0.1286
 7208SOL    HW133083   2.854   1.995  17.644  1.8077  0.7955 -1.0986
 7208SOL    HW233084   2.811   1.859  17.602 -0.0055  0.0270 -0.2892
 7209SOL     OW33085   0.334   1.769   4.280 -0.1134 -0.3054  0.1731
 7209SOL    HW133086   0.375   1.824   4.213  2.1984  0.5902  2.3310
 7209SOL    HW233087   0.397   1.785   4.350 -1.4068 -1.1408  1.5042
 7210SOL     OW33088   2.182   1.640   7.242  0.4934  0.4351 -0.3774
 7210SOL    HW133089   2.246   1.709   7.225 -1.5394  3.1537  3.0908
 7210SOL    HW233090   2.227   1.591   7.311 -0.4212  0.5291  0.2900
 7211SOL     OW33091   1.238   1.452   2.006  0.4271  0.0255 -0.6545
 7211SOL    HW133092   1.334   1.460   1.999  0.5774 -0.6218  0.6186
 7211SOL    HW233093   1.211   1.544   1.998 -0.8888 -0.4121 -1.1796
 7212SOL     OW33094   4.173   3.863   6.098 -0.2402  0.3124 -0.2508
 7212SOL    HW133095   4.199   3.776   6.130 -0.6180  0.4289  0.3759
 7212SOL    HW233096   4.246   3.890   6.042 -0.5484  0.0604 -0.7759
 7213SOL     OW33097   1.258   2.245   2.121  0.1658  0.3625 -0.1371
 7213SOL    HW133098   1.296   2.158   2.110  1.1572  0.5338  1.9973
 7213SOL    HW233099   1.167   2.245   2.090  0.3623  0.9838 -0.7215
 7214SOL     OW33100   0.744   1.541  13.620  0.3786 -0.3642  0.1478
 7214SOL    HW133101   0.693   1.477  13.570  0.8242 -1.8890  1.6646
 7214SOL    HW233102   0.741   1.617  13.562 -2.4057 -1.3420 -0.9923
 7215SOL     OW33103   3.823   0.884   5.365 -0.9242 -0.2162 -0.1817
 7215SOL    HW133104   3.851   0.961   5.415 -2.0812 -1.4693  2.4379
 7215SOL    HW233105   3.730   0.874   5.389 -0.4248 -0.6585  1.6194
 7216SOL     OW33106   0.075   1.330   0.611 -0.2882 -0.2104  0.0430
 7216SOL    HW133107   0.070   1.333   0.707  0.7163 -1.2280  0.1289
 7216SOL    HW233108   0.155   1.379   0.592 -0.1439  0.1254  1.4948
 7217SOL     OW33109   0.842   1.431   4.612  0.3750  0.2570 -0.3018
 7217SOL    HW133110   0.916   1.383   4.650  0.0494  0.8506  1.0921
 7217SOL    HW233111   0.846   1.390   4.526 -0.2826 -0.1949 -0.1111
 7218SOL     OW33112   1.556   4.340   3.624 -1.2683 -1.1265 -0.2994
 7218SOL    HW133113   1.582   4.267   3.568 -1.1001  0.9540 -2.9488
 7218SOL    HW233114   1.501   4.394   3.567  0.9181  0.0721 -1.2783
 7219SOL     OW33115   2.358   3.886   5.385  0.1178 -0.1100  0.3437
 7219SOL    HW133116   2.330   3.846   5.468 -0.0018  0.3057  0.5025
 7219SOL    HW233117   2.301   3.829   5.333 -0.6665  1.0216 -0.0240
 7220SOL     OW33118   0.110   2.497   4.117 -0.1370  0.1612  0.5174
 7220SOL    HW133119   0.115   2.519   4.210 -0.8452  1.7892  0.1678
 7220SOL    HW233120   0.023   2.525   4.089 -0.2471 -0.6484  0.0399
 7221SOL     OW33121   3.288   1.476  16.691 -0.0467  0.3088 -0.3357
 7221SOL    HW133122   3.355   1.513  16.750  0.3856  0.0699 -0.6791
 7221SOL    HW233123   3.242   1.402  16.732 -2.8767  1.9343 -0.5873
 7222SOL     OW33124   1.716   1.092  14.706  0.4989 -0.4093  0.3714
 7222SOL    HW133125   1.762   1.119  14.786 -0.6915  1.6954  0.3607
 7222SOL    HW233126   1.631   1.123  14.735 -0.7411 -2.6905 -0.8271
 7223SOL     OW33127   4.030   1.467  15.381  0.7418  0.5669  0.3423
 7223SOL    HW133128   3.958   1.408  15.356 -0.4191  1.0365  2.5585
 7223SOL    HW233129   3.989   1.510  15.456  0.4540 -1.7027  1.4663
 7224SOL     OW33130   2.085   0.117   6.931 -0.4151  0.1830  0.1004
 7224SOL    HW133131   2.144   0.046   6.957  0.7963  1.3005  0.4175
 7224SOL    HW233132   2.083   0.175   7.007  2.7656  0.3274  0.0970
 7225SOL     OW33133   0.911   0.226   5.201  0.0142  0.3976 -0.3286
 7225SOL    HW133134   0.951   0.261   5.281 -1.3285  3.4489 -0.9888
 7225SOL    HW233135   0.969   0.153   5.180 -0.8699  0.3268 -2.4982
 7226SOL     OW33136   4.089   4.662   3.596 -0.2394  0.0611  0.3744
 7226SOL    HW133137   4.142   4.624   3.666 -0.1637 -0.9099 -0.2092
 7226SOL    HW233138   4.148   4.711   3.538  2.4812 -1.7752  1.5542
 7227SOL     OW33139   4.696   3.887  12.550 -0.3169 -0.1881  0.2282
 7227SOL    HW133140   4.629   3.955  12.558 -2.1357 -1.8929 -0.5419
 7227SOL    HW233141   4.653   3.820  12.603  2.2204 -0.6535  1.7416
 7228SOL     OW33142   4.200   2.642   6.320  0.3986  0.0451  0.0707
 7228SOL    HW133143   4.125   2.625   6.377  1.3089 -1.4152  0.8285
 7228SOL    HW233144   4.249   2.709   6.369 -0.8386  0.3741  0.8731
 7229SOL     OW33145   4.692   1.253  14.307  0.4032 -0.6211  0.7685
 7229SOL    HW133146   0.060   1.273  14.271  0.3990  0.9012  1.6515
 7229SOL    HW233147   4.711   1.172  14.355  0.3893 -0.2536  1.3913
 7230SOL     OW33148   1.197   3.789   3.318  0.0242 -0.0044 -0.0352
 7230SOL    HW133149   1.181   3.708   3.270  0.3811 -0.6674  0.9652
 7230SOL    HW233150   1.282   3.811   3.281  0.5874 -1.1075  0.6016
 7231SOL     OW33151   4.077   4.300   6.162  0.3663 -0.4537  0.0026
 7231SOL    HW133152   4.004   4.240   6.178 -2.3666  2.8734 -0.0586
 7231SOL    HW233153   4.131   4.260   6.094 -1.1353 -0.0638 -1.4023
 7232SOL     OW33154   2.030   4.495   0.966  0.3668  0.4189  0.3434
 7232SOL    HW133155   2.044   4.582   1.002  0.7599 -0.1379  1.5397
 7232SOL    HW233156   1.968   4.455   1.028  2.0067 -0.2395  1.5451
 7233SOL     OW33157   0.291   2.125   2.648 -0.2562 -0.1500  0.2639
 7233SOL    HW133158   0.249   2.058   2.702 -1.6595  0.9547  0.5482
 7233SOL    HW233159   0.278   2.200   2.705  0.6133  0.0609  0.1778
 7234SOL     OW33160   2.487   3.435   4.366  0.4050  0.1689 -0.2466
 7234SOL    HW133161   2.517   3.517   4.407  1.3226 -0.0337 -0.5248
 7234SOL    HW233162   2.419   3.464   4.305 -0.6562  1.8905  1.7163
 7235SOL     OW33163   1.418   3.322   4.754  0.2305  0.3247  0.6371
 7235SOL    HW133164   1.405   3.405   4.708 -0.8023  0.0534  0.4261
 7235SOL    HW233165   1.448   3.350   4.841 -0.4380 -0.0866  1.0047
 7236SOL     OW33166   4.154   3.945   4.796 -0.1154  0.5341  0.5015
 7236SOL    HW133167   4.157   3.860   4.840  3.8360  0.7298  0.5859
 7236SOL    HW233168   4.160   3.904   4.710  0.1070  0.3628  0.5977
 7237SOL     OW33169   0.155   4.560   2.191  0.3358 -0.4624  0.6610
 7237SOL    HW133170   0.084   4.500   2.170  0.7069 -0.3266 -0.9181
 7237SOL    HW233171   0.228   4.538   2.133  0.6296  1.8233  0.1911
 7238SOL     OW33172   0.698   0.102   3.073  0.1223  0.6192  0.1877
 7238SOL    HW133173   0.608   0.133   3.064 -0.2317 -0.8958 -1.4189
 7238SOL    HW233174   0.710   0.057   2.990 -1.4043  0.9399 -0.2078
 7239SOL     OW33175   1.020   0.601   3.746 -0.7605 -0.3560  0.7629
 7239SOL    HW133176   1.044   0.650   3.825 -1.6783 -0.1131  0.8846
 7239SOL    HW233177   1.066   0.517   3.753 -1.3436 -0.7270  0.1019
 7240SOL     OW33178   2.697   3.471   6.983  0.1699 -0.5577 -0.4265
 7240SOL    HW133179   2.654   3.516   7.055 -0.9874  1.9291 -2.6788
 7240SOL    HW233180   2.622   3.442   6.931  0.1597 -1.0132 -0.1564
 7241SOL     OW33181   2.559   2.938   2.458 -0.3770  0.1493  0.1932
 7241SOL    HW133182   2.626   2.906   2.398  0.1558 -0.4970  1.1324
 7241SOL    HW233183   2.507   2.992   2.398 -0.7273 -0.7670 -0.3341
 7242SOL     OW33184   4.540   3.426   7.669  0.2893  0.0085 -0.1726
 7242SOL    HW133185   4.454   3.385   7.672  1.5857 -2.6365  0.9634
 7242SOL    HW233186   4.540   3.488   7.741 -1.9667 -1.9180  1.4786
 7243SOL     OW33187   0.952   0.044   7.850  0.2066 -0.4730 -0.1145
 7243SOL    HW133188   1.023   0.017   7.908  1.6991  2.2523 -0.6749
 7243SOL    HW233189   0.975   4.696   7.786 -0.2014  0.0822 -0.8496
 7244SOL     OW33190   0.930   3.154   5.817  0.6299  0.3371  0.1236
 7244SOL    HW133191   0.989   3.087   5.781 -0.9914 -0.8477 -0.3198
 7244SOL    HW233192   0.867   3.090   5.851  0.0298 -1.0182 -3.5094
 7245SOL     OW33193   4.554   0.730  13.539  0.3554 -0.4184 -0.8147
 7245SOL    HW133194   4.568   0.722  13.444 -1.0954 -5.0874 -0.6570
 7245SOL    HW233195   4.459   0.736  13.531  0.2522 -2.2264 -1.1304
 7246SOL     OW33196   2.593   2.098  12.884 -0.5742  0.2018 -0.5839
 7246SOL    HW133197   2.541   2.068  12.958  3.0256  1.8517  2.6205
 7246SOL    HW233198   2.576   2.192  12.893  0.1523  0.3736 -0.9498
 7247SOL     OW33199   2.445   3.595  16.417  0.0447 -0.7242 -0.1269
 7247SOL    HW133200   2.381   3.580  16.487 -1.4319  0.5986 -1.1668
 7247SOL    HW233201   2.477   3.681  16.445  0.8568 -1.2528  0.5420
 7248SOL     OW33202   1.739   0.766   2.329  0.0496 -0.4959  0.2012
 7248SOL    HW133203   1.765   0.700   2.393 -1.2029  0.4601  1.6977
 7248SOL    HW233204   1.767   0.711   2.255  0.5199 -0.6387  0.4913
 7249SOL     OW33205   0.130   2.651   6.368  0.0277 -0.2099  0.4139
 7249SOL    HW133206   0.120   2.557   6.357 -0.7672 -0.1300  0.4259
 7249SOL    HW233207   0.048   2.664   6.416  0.8530 -0.6504  1.9349
 7250SOL     OW33208   4.081   3.216   4.049 -0.2568  0.1343  0.1225
 7250SOL    HW133209   4.032   3.293   4.019 -2.1358 -1.2201 -0.3226
 7250SOL    HW233210   4.160   3.251   4.090 -0.2650  0.3453 -0.0390
 7251SOL     OW33211   4.542   1.801   3.309 -0.5321 -0.2239  0.4307
 7251SOL    HW133212   4.520   1.709   3.291 -1.6735 -0.0092  0.7512
 7251SOL    HW233213   4.585   1.836   3.230 -0.2910 -0.2698  0.5414
 7252SOL     OW33214   3.315   3.283  15.416  0.2316 -0.4499  0.6142
 7252SOL    HW133215   3.389   3.223  15.410 -0.0546 -0.7004 -0.2947
 7252SOL    HW233216   3.344   3.362  15.462  0.6309 -1.6952  2.5121
 7253SOL     OW33217   1.228   2.142   6.128  0.7298 -0.0455  0.2457
 7253SOL    HW133218   1.165   2.213   6.136  1.2845  0.3671  1.0041
 7253SOL    HW233219   1.200   2.095   6.050 -0.2737  0.4994  0.2735
 7254SOL     OW33220   2.052   0.497   1.423  0.2097 -0.2741  0.0818
 7254SOL    HW133221   2.008   0.534   1.346  0.1988 -2.2417 -0.8419
 7254SOL    HW233222   2.053   0.402   1.416 -0.2682 -0.1302 -2.0483
 7255SOL     OW33223   2.321   4.442   5.093  0.0207 -0.6747 -0.1008
 7255SOL    HW133224   2.245   4.456   5.036 -1.5241  0.0598  2.1341
 7255SOL    HW233225   2.278   4.410   5.173  2.1278 -2.8433  0.1497
 7256SOL     OW33226   0.834   3.816   8.196  0.0440 -0.2263 -0.3353
 7256SOL    HW133227   0.764   3.773   8.245  1.1179 -2.1212 -0.4679
 7256SOL    HW233228   0.902   3.826   8.263  0.4299 -1.0108 -0.6023
 7257SOL     OW33229   2.074   4.165   7.845  0.1885 -0.3599  0.2057
 7257SOL    HW133230   2.135   4.214   7.789 -0.0338  0.0687  0.3412
 7257SOL    HW233231   2.013   4.237   7.856  1.2740  0.3486  1.5784
 7258SOL     OW33232   2.755   3.829   3.421 -0.3709  0.0226 -0.0751
 7258SOL    HW133233   2.735   3.913   3.464  0.7684  1.4749 -2.3816
 7258SOL    HW233234   2.668   3.810   3.386 -0.6074 -0.5238  0.8195
 7259SOL     OW33235   1.548   1.990  15.481  0.1220 -1.2355  0.6248
 7259SOL    HW133236   1.511   1.916  15.432 -2.3266  0.8626 -0.6970
 7259SOL    HW233237   1.470   2.042  15.501  0.0873 -0.9849 -0.1753
 7260SOL     OW33238   3.346   2.875   9.854  0.2719  1.1116 -0.5255
 7260SOL    HW133239   3.265   2.925   9.861  0.7252  1.4905  2.0687
 7260SOL    HW233240   3.404   2.940   9.894  0.9324 -0.3127  0.8711
 7261SOL     OW33241   2.885   3.374   1.992 -0.3618 -0.2905  0.1847
 7261SOL    HW133242   2.886   3.452   1.936  0.6237 -0.3224  0.1603
 7261SOL    HW233243   2.976   3.346   1.986  0.5363  2.7995 -0.7052
 7262SOL     OW33244   4.232   3.143   0.877  0.6004 -0.0495  0.2982
 7262SOL    HW133245   4.278   3.202   0.937 -0.6284  2.3780 -1.1465
 7262SOL    HW233246   4.249   3.060   0.921 -0.3798  0.8153  2.3296
 7263SOL     OW33247   1.557   4.158   6.801  0.2077  0.1767 -0.1283
 7263SOL    HW133248   1.644   4.145   6.840  0.3495  1.9132  0.1714
 7263SOL    HW233249   1.556   4.082   6.743 -2.9731  0.7577 -0.7987
 7264SOL     OW33250   1.456   4.218   5.448 -0.0571 -0.5507  0.0690
 7264SOL    HW133251   1.435   4.134   5.490 -0.2471 -1.0484 -1.0145
 7264SOL    HW233252   1.375   4.266   5.465  0.3542  0.0582  0.3039
 7265SOL     OW33253   2.497   3.244   8.374  0.2013 -0.5736  0.2275
 7265SOL    HW133254   2.558   3.223   8.445 -0.7799 -0.0435  1.2232
 7265SOL    HW233255   2.531   3.191   8.301  1.0480 -1.3482  1.1780
 7266SOL     OW33256   0.389   0.673   0.645  0.0251  0.2274  0.3918
 7266SOL    HW133257   0.440   0.702   0.569 -1.5077  0.9295 -0.3628
 7266SOL    HW233258   0.359   0.761   0.667  2.4302  0.2719  3.4172
 7267SOL     OW33259   0.239   4.170   5.308  0.2699  0.0700 -0.1657
 7267SOL    HW133260   0.319   4.197   5.354  0.9891 -0.0087 -1.3803
 7267SOL    HW233261   0.177   4.240   5.331  0.2593 -0.3819  1.1709
 7268SOL     OW33262   0.321   0.643  14.121 -0.6554  0.2743  0.6792
 7268SOL    HW133263   0.303   0.665  14.213 -1.1563  1.3333  0.3167
 7268SOL    HW233264   0.255   0.577  14.100 -0.0520  0.3160 -1.3712
 7269SOL     OW33265   3.363   3.769   4.550  0.4715 -0.4184 -0.7182
 7269SOL    HW133266   3.419   3.839   4.583  0.8748 -1.5088  0.9028
 7269SOL    HW233267   3.295   3.823   4.510  1.0763  0.6897 -0.2428
 7270SOL     OW33268   3.080   4.468   3.328 -0.6238 -0.0688  0.9698
 7270SOL    HW133269   3.172   4.464   3.356 -0.3106 -1.7301 -0.2587
 7270SOL    HW233270   3.065   4.374   3.335 -1.6883  0.1227  1.2430
 7271SOL     OW33271   4.238   3.491  15.788 -0.8976  0.6460 -0.7213
 7271SOL    HW133272   4.171   3.447  15.841 -0.9663  0.3285 -1.0709
 7271SOL    HW233273   4.278   3.423  15.734  0.0064 -0.5615  1.4367
 7272SOL     OW33274   3.135   2.073  15.270  0.1417 -0.4537  0.1780
 7272SOL    HW133275   3.170   2.146  15.321  0.4642  0.1375 -0.8804
 7272SOL    HW233276   3.159   1.996  15.321 -0.1211 -1.2556 -0.9177
 7273SOL     OW33277   1.963   3.595  12.344  0.3743 -0.5925  0.5018
 7273SOL    HW133278   1.890   3.622  12.288  1.4230  1.5735  0.1625
 7273SOL    HW233279   2.031   3.595  12.276 -0.4599  3.1493 -0.3476
 7274SOL     OW33280   3.374   2.405   2.651  0.4071 -0.3494  0.0281
 7274SOL    HW133281   3.286   2.374   2.632  0.6615 -1.0677  0.0183
 7274SOL    HW233282   3.376   2.492   2.610 -0.3989 -0.9315 -1.2322
 7275SOL     OW33283   2.221   0.623  16.091  0.3753 -0.7808  0.2568
 7275SOL    HW133284   2.140   0.574  16.102 -0.0208  0.1950  1.6649
 7275SOL    HW233285   2.192   0.693  16.149  1.3055 -1.8863  2.0720
 7276SOL     OW33286   2.495   1.238   3.216 -0.2889  1.0303  0.0258
 7276SOL    HW133287   2.404   1.230   3.187  0.2635 -2.7545 -0.5726
 7276SOL    HW233288   2.546   1.201   3.145  0.1274  0.4145  0.6535
 7277SOL     OW33289   1.848   2.651  13.758  0.3294  0.3909  0.0056
 7277SOL    HW133290   1.774   2.590  13.765 -0.3346  1.0901 -0.9392
 7277SOL    HW233291   1.813   2.692  13.679 -1.7012 -2.0499 -0.3477
 7278SOL     OW33292   4.082   4.191  12.203  0.2397  0.1973  0.0234
 7278SOL    HW133293   4.110   4.184  12.111  1.1177  0.1531  0.2956
 7278SOL    HW233294   4.164   4.177  12.250  0.4644 -1.8663 -0.9754
 7279SOL     OW33295   1.931   1.611   7.054 -0.0351 -0.1615 -0.0620
 7279SOL    HW133296   1.956   1.701   7.034  1.7655 -0.1762  2.1527
 7279SOL    HW233297   2.009   1.600   7.108 -0.0564 -1.5682 -0.3287
 7280SOL     OW33298   0.529   3.690   2.374 -0.2239  0.1052  0.2206
 7280SOL    HW133299   0.604   3.680   2.433 -0.9929 -2.6181  0.7655
 7280SOL    HW233300   0.454   3.692   2.433  0.2576 -0.7668  0.8723
 7281SOL     OW33301   0.845   1.578   0.684 -0.5132  0.0604  0.4307
 7281SOL    HW133302   0.927   1.544   0.647 -1.2237 -1.0361 -0.1109
 7281SOL    HW233303   0.858   1.670   0.658  1.9864 -0.5687 -0.5740
 7282SOL     OW33304   1.918   1.133  10.579  0.2323  0.4173  0.1850
 7282SOL    HW133305   1.925   1.173  10.666 -2.6212  2.5524 -0.5632
 7282SOL    HW233306   1.833   1.090  10.576 -0.3917  1.6354  0.0722
 7283SOL     OW33307   3.923   1.105   9.051  0.4481 -0.2022  0.0082
 7283SOL    HW133308   3.874   1.051   8.989 -0.0807  0.0311  0.2261
 7283SOL    HW233309   4.002   1.053   9.065  0.7491  0.2866  0.1159
 7284SOL     OW33310   1.980   0.370  17.662 -0.0027  0.2628 -0.2301
 7284SOL    HW133311   1.904   0.321   0.016  0.1111 -0.2796 -0.7902
 7284SOL    HW233312   1.965   0.452   0.031 -0.9195  0.7081 -1.2670
 7285SOL     OW33313   2.987   3.279   5.489 -0.0460 -0.0971  0.4890
 7285SOL    HW133314   2.968   3.370   5.512 -3.5571 -0.4919 -0.9570
 7285SOL    HW233315   2.902   3.235   5.495 -0.1045  0.0076  0.4125
 7286SOL     OW33316   2.064   2.103   7.163  0.3132 -0.2010 -0.0197
 7286SOL    HW133317   2.115   2.138   7.090 -0.3385  0.6676 -0.0613
 7286SOL    HW233318   2.009   2.178   7.185  0.8329  0.4215 -0.8472
 7287SOL     OW33319   2.699   1.272   4.999  0.1021 -0.1355 -0.0908
 7287SOL    HW133320   2.778   1.263   5.052  0.7699 -0.7625 -1.1951
 7287SOL    HW233321   2.739   1.279   4.913  3.1194  2.3801  1.5117
 7288SOL     OW33322   0.613   3.735  12.387 -0.8040 -0.1883  0.0461
 7288SOL    HW133323   0.707   3.735  12.406 -0.8085  0.7912  0.0586
 7288SOL    HW233324   0.575   3.731  12.475 -2.3455  0.3007 -0.5872
 7289SOL     OW33325   2.278   4.574   3.347 -0.0728 -0.2462 -0.1027
 7289SOL    HW133326   2.363   4.591   3.305  0.5955  2.5349  2.3068
 7289SOL    HW233327   2.219   4.582   3.272 -0.4155 -0.2823  0.1621
 7290SOL     OW33328   2.987   4.531  11.891  0.6377  0.3191  0.0248
 7290SOL    HW133329   2.971   4.497  11.803  0.8807 -0.4286  0.2653
 7290SOL    HW233330   2.936   4.611  11.883 -1.6809 -1.1870 -0.4428
 7291SOL     OW33331   0.108   1.601  11.343  0.3085  0.0483 -0.5476
 7291SOL    HW133332   0.020   1.595  11.381  0.6616  1.8357  0.5206
 7291SOL    HW233333   0.153   1.612  11.426 -2.1964 -0.1684  0.8452
 7292SOL     OW33334   0.697   1.002   0.578 -0.6322 -0.8549  0.3090
 7292SOL    HW133335   0.785   0.966   0.583 -0.6293 -0.8164  0.5194
 7292SOL    HW233336   0.664   1.006   0.667 -0.8747 -2.2683  0.2854
 7293SOL     OW33337   4.382   3.832   6.569 -0.6108  0.1158 -0.0421
 7293SOL    HW133338   4.413   3.898   6.631 -0.0193 -0.7418  0.5688
 7293SOL    HW233339   4.459   3.805   6.519 -0.0477  0.2919  0.7385
 7294SOL     OW33340   3.861   4.631   3.892 -0.0264  0.3454  0.0674
 7294SOL    HW133341   3.832   4.664   3.806 -0.3527 -3.3271 -1.2169
 7294SOL    HW233342   3.883   4.542   3.867 -0.0685 -0.3747  2.6540
 7295SOL     OW33343   4.297   4.144   8.447 -0.3457 -0.2659  0.1491
 7295SOL    HW133344   4.278   4.060   8.407 -1.3611  0.5173 -1.0315
 7295SOL    HW233345   4.364   4.106   8.503 -0.4202 -0.5367  0.0516
 7296SOL     OW33346   0.309   3.726  14.295  0.8364 -0.1115  0.1186
 7296SOL    HW133347   0.386   3.720  14.351  2.2811 -3.6625 -2.2791
 7296SOL    HW233348   0.349   3.788  14.235 -0.8562  0.1786 -0.7242
 7297SOL     OW33349   0.998   3.215   3.236  0.2698  0.1690  0.0854
 7297SOL    HW133350   0.923   3.253   3.283 -1.3301  0.3334 -2.6192
 7297SOL    HW233351   0.964   3.132   3.205  0.5774 -0.7682  2.2268
 7298SOL     OW33352   0.472   2.103  15.124 -0.1148  0.5182  0.1292
 7298SOL    HW133353   0.468   2.013  15.090 -2.5724  0.8584 -0.4847
 7298SOL    HW233354   0.528   2.153  15.064 -1.1855  0.8682 -0.5761
 7299SOL     OW33355   0.128   0.043   1.922  0.1821 -0.6775  0.3564
 7299SOL    HW133356   0.160   4.718   1.843 -1.0441  0.9101 -1.0263
 7299SOL    HW233357   0.094   4.690   1.975 -2.1324 -3.0646 -4.4067
 7300SOL     OW33358   2.282   0.145   0.307 -0.0207  0.0462  0.1532
 7300SOL    HW133359   2.365   0.098   0.311 -0.3540 -0.6150 -0.6934
 7300SOL    HW233360   2.273   0.147   0.211 -0.0866 -0.6826  0.1431
 7301SOL     OW33361   4.436   1.882   8.392  0.1121  0.0222  0.0961
 7301SOL    HW133362   4.498   1.905   8.461 -0.1966 -1.4431  0.8705
 7301SOL    HW233363   4.384   1.831   8.455  0.2755  0.9151  0.9629
 7302SOL     OW33364   3.303   0.565  12.865 -0.6932 -0.5652  0.3473
 7302SOL    HW133365   3.210   0.544  12.873 -0.5978 -1.2165 -0.2431
 7302SOL    HW233366   3.296   0.660  12.854  2.2137 -0.5136 -1.1662
 7303SOL     OW33367   0.920   2.686   5.947 -0.0685 -0.2949 -0.2659
 7303SOL    HW133368   0.951   2.596   5.936 -1.2272 -0.5453 -1.4853
 7303SOL    HW233369   0.934   2.708   5.854  0.3050 -0.6387 -0.2891
 7304SOL     OW33370   0.517   0.735   1.836  0.4957  0.0189  0.2887
 7304SOL    HW133371   0.510   0.761   1.927 -0.0748  0.1485  0.2079
 7304SOL    HW233372   0.503   0.640   1.839 -1.0255  0.2492  0.5582
 7305SOL     OW33373   2.024   0.938  17.538 -0.4982 -0.9682 -0.2487
 7305SOL    HW133374   1.969   1.010  17.570 -0.4779 -0.5847 -1.0818
 7305SOL    HW233375   2.113   0.966  17.557  0.2806 -1.5729 -2.9996
 7306SOL     OW33376   3.409   4.662   2.891 -0.2049  0.2560  0.3443
 7306SOL    HW133377   3.361   4.606   2.952 -0.1836  1.7959  1.7811
 7306SOL    HW233378   3.394   4.617   2.808 -1.5168 -0.7893  1.1546
 7307SOL     OW33379   0.954   0.029   6.954 -0.1016 -0.0738 -0.2831
 7307SOL    HW133380   0.996   0.033   6.868 -1.2633  0.9816 -0.7945
 7307SOL    HW233381   1.023   0.062   7.011 -0.0242  1.5614 -1.3319
 7308SOL     OW33382   1.723   1.142   2.171 -0.2078 -0.5217 -0.2789
 7308SOL    HW133383   1.790   1.074   2.173  2.3754  1.9352 -3.1991
 7308SOL    HW233384   1.773   1.223   2.167 -1.5799  0.1640 -3.3445
 7309SOL     OW33385   0.447   3.726   0.774  0.2666 -0.4694  0.3124
 7309SOL    HW133386   0.493   3.764   0.699 -0.7748 -0.3087 -0.2510
 7309SOL    HW233387   0.361   3.767   0.765  0.4683 -0.0183  0.4106
 7310SOL     OW33388   4.518   3.833   7.794 -0.2775 -0.0885 -0.3772
 7310SOL    HW133389   4.590   3.890   7.768 -0.5063  0.4276  0.1159
 7310SOL    HW233390   4.462   3.836   7.717  3.1982  0.4648 -2.8997
 7311SOL     OW33391   3.513   0.733   1.321 -0.0948 -0.1727 -0.0006
 7311SOL    HW133392   3.536   0.704   1.232  1.8638  2.0911 -0.2471
 7311SOL    HW233393   3.536   0.651   1.365  0.3609  0.6087  1.1915
 7312SOL     OW33394   1.432   3.667   7.811  0.0800 -0.7656 -0.3809
 7312SOL    HW133395   1.498   3.692   7.746  0.8867  1.1137  1.1476
 7312SOL    HW233396   1.428   3.736   7.877  0.7370 -0.0997 -1.0357
 7313SOL     OW33397   2.069   2.599  10.569 -1.2334  0.0336 -0.6723
 7313SOL    HW133398   2.065   2.671  10.506 -1.5009 -0.3671 -1.1098
 7313SOL    HW233399   2.093   2.640  10.652  0.9002  0.5215 -1.5253
 7314SOL     OW33400   3.829   2.392  15.464 -0.0085  0.6520 -0.2866
 7314SOL    HW133401   3.803   2.387  15.372 -4.5879 -0.0604  1.0347
 7314SOL    HW233402   3.739   2.385  15.497 -0.2356  0.1460 -1.0287
 7315SOL     OW33403   4.189   0.770   9.806 -0.9411 -0.6537  0.8829
 7315SOL    HW133404   4.095   0.785   9.814 -0.6959 -0.0054  2.4734
 7315SOL    HW233405   4.193   0.681   9.771 -2.7546  0.2104 -1.5972
 7316SOL     OW33406   2.140   3.644   5.744 -0.1183  0.0256 -0.1934
 7316SOL    HW133407   2.089   3.673   5.668 -0.8274 -1.3332 -0.2308
 7316SOL    HW233408   2.083   3.674   5.814 -0.6728  1.9130 -1.4603
 7317SOL     OW33409   2.272   2.937   1.422 -0.0228  0.1200 -0.4777
 7317SOL    HW133410   2.228   2.992   1.487  1.1570  0.0882  0.3606
 7317SOL    HW233411   2.338   2.898   1.481  0.5560 -2.4888 -2.8434
 7318SOL     OW33412   1.568   4.162  14.306 -0.2950  0.5481 -0.1056
 7318SOL    HW133413   1.527   4.156  14.220 -1.9546 -1.1577  0.8212
 7318SOL    HW233414   1.510   4.230  14.339 -0.8151  0.2552 -0.4130
 7319SOL     OW33415   0.580   2.305  16.616 -0.2006 -0.0839  0.4009
 7319SOL    HW133416   0.613   2.253  16.689  6.0964  0.8580 -1.6845
 7319SOL    HW233417   0.527   2.235  16.578 -3.6716  1.6770  2.1128
 7320SOL     OW33418   3.815   0.039   3.646  0.1484  0.3984  0.3341
 7320SOL    HW133419   3.899   0.006   3.615  1.2406  3.0153  0.4874
 7320SOL    HW233420   3.791   0.092   3.569  2.6171  0.7698 -0.1749
 7321SOL     OW33421   1.537   0.719   2.951 -0.6653  0.2354  0.4765
 7321SOL    HW133422   1.529   0.637   2.998 -0.2888 -1.5856 -2.6368
 7321SOL    HW233423   1.579   0.778   3.014  1.4913 -0.9999  0.1846
 7322SOL     OW33424   0.594   0.493   2.858  0.2320 -0.2735 -0.4472
 7322SOL    HW133425   0.653   0.423   2.886 -2.6023 -1.9553  1.2399
 7322SOL    HW233426   0.512   0.461   2.894  1.5105 -3.3425 -0.2436
 7323SOL     OW33427   4.346   0.800   8.105 -0.1963  0.0593 -0.5623
 7323SOL    HW133428   4.326   0.833   8.192  1.2538 -1.2901  0.2835
 7323SOL    HW233429   4.258   0.804   8.068 -0.3852 -1.0648 -0.2406
 7324SOL     OW33430   4.151   1.316   3.155 -0.1305 -0.1258  0.0097
 7324SOL    HW133431   4.114   1.327   3.067 -1.2938 -1.8456  0.2777
 7324SOL    HW233432   4.183   1.226   3.148 -0.5446 -0.2644 -0.0952
 7325SOL     OW33433   0.398   0.504   8.314  0.0973  0.8218 -0.2336
 7325SOL    HW133434   0.442   0.585   8.340  0.4396  1.3767 -2.4911
 7325SOL    HW233435   0.445   0.487   8.232 -0.4029 -1.9425  0.0404
 7326SOL     OW33436   2.493   0.013   0.280  0.3184  0.4695  0.2575
 7326SOL    HW133437   2.540   4.664   0.330 -0.8982 -0.9017 -0.4611
 7326SOL    HW233438   2.498   4.697   0.191  0.0624 -0.7603  0.7199
 7327SOL     OW33439   1.998   4.622   2.841 -0.0527  0.2899 -0.3911
 7327SOL    HW133440   1.973   4.531   2.859  0.4614 -0.1599 -1.9508
 7327SOL    HW233441   1.997   4.616   2.746 -0.9215 -0.1171 -0.3584
 7328SOL     OW33442   3.680   1.785   6.471  0.3600 -0.0703  0.2811
 7328SOL    HW133443   3.697   1.691   6.471  2.5103  0.2853 -3.1204
 7328SOL    HW233444   3.763   1.829   6.489  0.5863  0.9490 -3.2774
 7329SOL     OW33445   0.727   0.587   5.860  0.1878  0.2536  0.2157
 7329SOL    HW133446   0.657   0.522   5.851  0.1773  0.2032  0.6756
 7329SOL    HW233447   0.808   0.543   5.835 -0.4634 -0.6147 -0.3977
 7330SOL     OW33448   1.213   3.097  15.565 -0.2154  0.7724 -0.6330
 7330SOL    HW133449   1.174   3.117  15.480 -0.0085  0.8197 -0.7170
 7330SOL    HW233450   1.305   3.081  15.541 -0.2192  1.0598 -0.8352
 7331SOL     OW33451   0.966   0.183   7.488 -0.3166  0.5620  0.1025
 7331SOL    HW133452   0.960   0.236   7.408  2.4186  0.7830  0.0312
 7331SOL    HW233453   0.936   0.096   7.460  0.4768  1.0809 -2.4060
 7332SOL     OW33454   2.254   1.678  16.145 -0.2532 -0.2202 -0.2549
 7332SOL    HW133455   2.256   1.604  16.084 -0.7399 -1.0622  0.7473
 7332SOL    HW233456   2.232   1.629  16.224  0.1559 -0.5157 -0.3285
 7333SOL     OW33457   4.241   3.726   9.106 -0.6597 -0.3779 -0.9662
 7333SOL    HW133458   4.162   3.779   9.104  0.3266  1.1518  1.6612
 7333SOL    HW233459   4.213   3.655   9.048 -0.4187  0.2915 -1.9008
 7334SOL     OW33460   1.186   2.900   1.366  0.0800  0.1688  0.7206
 7334SOL    HW133461   1.137   2.864   1.439  1.2848 -2.2228  0.3366
 7334SOL    HW233462   1.252   2.831   1.362 -0.8039 -0.5061 -2.8128
 7335SOL     OW33463   2.230   2.754   5.904  0.1700  0.0019  0.2713
 7335SOL    HW133464   2.189   2.692   5.845 -1.2829  1.0712  0.1406
 7335SOL    HW233465   2.149   2.805   5.908 -0.5738 -1.2972  2.1861
 7336SOL     OW33466   0.483   1.302   4.955 -0.0819 -0.5411 -0.7900
 7336SOL    HW133467   0.431   1.373   4.994  1.5461  0.4559 -0.4668
 7336SOL    HW233468   0.568   1.344   4.946  1.3878 -3.0376  1.3279
 7337SOL     OW33469   0.573   2.341   0.076 -0.1249  0.6357  0.1963
 7337SOL    HW133470   0.621   2.387   0.144  1.5424 -1.4399  0.4315
 7337SOL    HW233471   0.487   2.344   0.119 -0.0611  0.1116  0.3632
 7338SOL     OW33472   1.814   3.412   2.729 -0.0716 -0.2501 -0.2171
 7338SOL    HW133473   1.738   3.439   2.780  1.6104  0.9331  1.7099
 7338SOL    HW233474   1.784   3.453   2.648 -1.4600 -2.4950 -0.8552
 7339SOL     OW33475   1.709   1.088   0.237  0.0341  0.2169 -0.0333
 7339SOL    HW133476   1.671   1.116   0.320  1.3132  3.7228 -0.6006
 7339SOL    HW233477   1.785   1.146   0.226 -3.3851  4.4077 -1.7139
 7340SOL     OW33478   2.966   0.550   7.629 -0.3372  0.5120 -0.6601
 7340SOL    HW133479   2.920   0.610   7.571 -0.4866  0.8749 -0.1620
 7340SOL    HW233480   2.898   0.484   7.648  0.9356 -1.1614 -1.8855
 7341SOL     OW33481   4.171   4.708   0.519  0.0124 -0.1876  0.2390
 7341SOL    HW133482   4.116   0.033   0.584  2.5220 -1.4984  3.2265
 7341SOL    HW233483   4.104   4.676   0.458  2.0109 -1.0896 -1.4752
 7342SOL     OW33484   1.919   4.523   5.472 -0.2492 -0.4741  0.0002
 7342SOL    HW133485   1.893   4.465   5.401 -0.0126  0.0786 -0.5361
 7342SOL    HW233486   1.909   4.608   5.429  2.0142 -0.2043  0.0039
 7343SOL     OW33487   3.360   3.565  16.344  0.4903 -0.6710 -0.8352
 7343SOL    HW133488   3.274   3.601  16.325  0.7840  0.2730 -0.3406
 7343SOL    HW233489   3.372   3.517  16.262 -0.6938 -0.9039 -0.8683
 7344SOL     OW33490   2.487   1.279   8.513 -0.3969  0.0523 -0.4776
 7344SOL    HW133491   2.407   1.322   8.484 -0.1935  0.2854 -0.6863
 7344SOL    HW233492   2.486   1.295   8.608 -0.4722  1.1655 -0.6664
 7345SOL     OW33493   3.443   2.387   9.645 -0.3823  0.4533  0.1321
 7345SOL    HW133494   3.449   2.443   9.568  3.3167  1.9843  1.5562
 7345SOL    HW233495   3.369   2.426   9.691  0.2728 -1.6856  3.0270
 7346SOL     OW33496   2.351   0.306   8.507  0.3746 -0.3189  0.3673
 7346SOL    HW133497   2.313   0.224   8.476 -0.3287 -0.3316  1.2831
 7346SOL    HW233498   2.296   0.370   8.463  1.0226  0.0665  0.1067
 7347SOL     OW33499   3.546   1.375   4.432  0.8517  0.4058 -0.3958
 7347SOL    HW133500   3.550   1.393   4.338  1.7879  1.1187 -0.2164
 7347SOL    HW233501   3.531   1.464   4.463 -1.4436 -0.6778  1.6327
 7348SOL     OW33502   3.181   0.640   6.573  0.3979 -0.1006 -0.1769
 7348SOL    HW133503   3.095   0.639   6.530  0.9371  0.4748 -1.2822
 7348SOL    HW233504   3.212   0.560   6.531 -1.9274 -0.2971 -1.5388
 7349SOL     OW33505   2.153   1.763   8.467  0.4178 -0.5614 -0.2146
 7349SOL    HW133506   2.194   1.849   8.461  0.0327 -0.5556 -2.6720
 7349SOL    HW233507   2.081   1.780   8.527  0.7061 -2.4738  0.6518
 7350SOL     OW33508   3.977   3.842   0.720  0.2334  0.2620  0.2015
 7350SOL    HW133509   4.029   3.856   0.800  1.6289 -1.5140 -0.4052
 7350SOL    HW233510   3.932   3.760   0.740 -2.3708  1.3378 -1.1825
 7351SOL     OW33511   3.926   1.604   7.517  0.0533 -0.0375 -0.0372
 7351SOL    HW133512   3.926   1.633   7.608 -0.7253  3.3556 -1.1156
 7351SOL    HW233513   3.948   1.512   7.528 -0.2247  0.0257  1.0450
 7352SOL     OW33514   4.194   3.108  16.190  0.1861 -0.1093  0.4841
 7352SOL    HW133515   4.123   3.080  16.132  0.7023 -0.4456  0.0052
 7352SOL    HW233516   4.267   3.064  16.146  0.1689 -1.7104  2.0211
 7353SOL     OW33517   0.836   0.975  17.032 -0.0158 -0.3194  0.0697
 7353SOL    HW133518   0.874   0.966  17.119  1.8109  0.8493 -0.5883
 7353SOL    HW233519   0.891   0.908  16.990 -0.8246 -1.6627  1.1774
 7354SOL     OW33520   2.186   0.390  13.284  0.6211  0.4646  0.0273
 7354SOL    HW133521   2.103   0.412  13.327  0.4678  2.1778 -1.1220
 7354SOL    HW233522   2.237   0.469  13.303  1.7155 -0.4310  0.7634
 7355SOL     OW33523   1.859   3.486   7.946 -0.3116 -0.3005  0.0694
 7355SOL    HW133524   1.845   3.562   8.003  2.7664 -1.5803  2.4982
 7355SOL    HW233525   1.951   3.493   7.922 -0.1244  0.4105  0.9710
 7356SOL     OW33526   4.125   1.431  12.604  0.0675  0.0960  0.5030
 7356SOL    HW133527   4.205   1.378  12.604 -0.9172 -1.3655  1.5979
 7356SOL    HW233528   4.080   1.381  12.536 -1.1656  1.0963  0.5950
 7357SOL     OW33529   3.697   0.954  15.190 -0.4265  0.3018  0.0488
 7357SOL    HW133530   3.670   0.990  15.274 -2.8698 -0.3365 -0.4489
 7357SOL    HW233531   3.778   1.004  15.187 -0.2432  0.0429  0.9292
 7358SOL     OW33532   3.749   3.175   3.278 -0.5063 -0.0573  0.1963
 7358SOL    HW133533   3.653   3.171   3.277 -0.5064  0.5701 -1.8214
 7358SOL    HW233534   3.760   3.261   3.237 -3.5937  0.7040  0.9563
 7359SOL     OW33535   4.043   0.244  16.657 -0.0930 -0.1271 -1.1132
 7359SOL    HW133536   4.100   0.319  16.639  0.8427 -0.4996  0.2966
 7359SOL    HW233537   3.970   0.267  16.600  0.0379  1.1013 -0.7790
 7360SOL     OW33538   0.823   0.220   4.337  0.4853  0.3265 -0.1051
 7360SOL    HW133539   0.875   0.268   4.272  1.0668 -0.9812 -0.6154
 7360SOL    HW233540   0.766   0.293   4.361  0.8440  0.1870  1.1412
 7361SOL     OW33541   2.993   3.661  17.007  0.3941  0.2662  0.3420
 7361SOL    HW133542   3.049   3.731  16.972 -0.9088  1.0966 -0.0909
 7361SOL    HW233543   3.046   3.582  17.000 -0.4216 -0.2135 -0.5423
 7362SOL     OW33544   3.454   3.802   6.818 -0.5569  0.3315  0.1927
 7362SOL    HW133545   3.509   3.748   6.762 -0.1661  1.2989 -0.3648
 7362SOL    HW233546   3.505   3.883   6.810 -2.4073  1.3752 -0.9666
 7363SOL     OW33547   3.748   0.120   6.008  0.5732 -0.1541  0.3472
 7363SOL    HW133548   3.770   0.163   5.926  0.0479 -0.7718 -0.1136
 7363SOL    HW233549   3.664   0.162   6.027  2.6083  2.7827  2.8652
 7364SOL     OW33550   0.493   0.810  10.886 -0.1778  0.2519  0.4542
 7364SOL    HW133551   0.467   0.838  10.798  1.3703 -2.4118 -0.8543
 7364SOL    HW233552   0.548   0.733  10.871 -0.2607  0.2214  0.3056
 7365SOL     OW33553   1.083   2.193  11.433 -0.1505  0.0301  0.2570
 7365SOL    HW133554   1.081   2.219  11.525 -0.3119  2.2965 -0.3852
 7365SOL    HW233555   1.150   2.254  11.401  0.0074  0.4033  1.2900
 7366SOL     OW33556   3.818   3.439   5.264  0.0611 -0.6892 -0.5588
 7366SOL    HW133557   3.756   3.506   5.236 -2.5168 -2.8149  0.0868
 7366SOL    HW233558   3.820   3.461   5.357 -0.5915  0.9711 -0.9539
 7367SOL     OW33559   2.539   4.200  14.330 -0.1002 -0.2695  0.2651
 7367SOL    HW133560   2.517   4.290  14.353  1.7377  0.0428  0.7840
 7367SOL    HW233561   2.521   4.197  14.236  1.6936 -0.3992 -0.0687
 7368SOL     OW33562   0.647   3.889   3.509 -0.5422 -0.3746 -0.1309
 7368SOL    HW133563   0.616   3.902   3.419 -1.6376 -0.7872  0.1957
 7368SOL    HW233564   0.737   3.872   3.482  0.3390  3.4646  0.3791
 7369SOL     OW33565   3.238   1.773  14.816 -0.0535 -1.0625  0.2652
 7369SOL    HW133566   3.260   1.853  14.864 -1.2708 -0.2258 -0.5868
 7369SOL    HW233567   3.320   1.748  14.772 -0.9136 -1.9398 -0.8422
 7370SOL     OW33568   0.898   1.742   5.214  0.0522  0.4167 -0.6157
 7370SOL    HW133569   0.985   1.779   5.201  1.7284 -2.6727  1.7855
 7370SOL    HW233570   0.883   1.720   5.122 -3.0163 -3.0591  0.7025
 7371SOL     OW33571   0.325   4.553   7.808 -0.3736 -0.1410  0.2083
 7371SOL    HW133572   0.296   4.539   7.718  0.4426 -2.8501  0.3531
 7371SOL    HW233573   0.293   4.642   7.823 -0.8902 -0.6693  2.3568
 7372SOL     OW33574   4.121   0.736   3.430  0.2106  0.7388 -0.2679
 7372SOL    HW133575   4.091   0.647   3.413 -0.1593  0.6227  0.9964
 7372SOL    HW233576   4.140   0.774   3.344 -1.9410 -0.5372 -1.2989
 7373SOL     OW33577   0.433   2.785   4.771 -0.3144 -0.0524 -0.0186
 7373SOL    HW133578   0.391   2.704   4.801 -1.3621  0.0209 -1.2737
 7373SOL    HW233579   0.461   2.762   4.682 -1.9688  0.5197 -0.6865
 7374SOL     OW33580   4.405   0.694   3.452 -0.2794 -0.0432  0.5925
 7374SOL    HW133581   4.389   0.624   3.515  3.7367 -2.9072 -1.5993
 7374SOL    HW233582   4.337   0.752   3.485  0.0852  1.4432 -1.2802
 7375SOL     OW33583   2.800   2.675   1.123  0.4323  0.1057 -0.2341
 7375SOL    HW133584   2.845   2.716   1.049  2.8326  0.7007  1.5568
 7375SOL    HW233585   2.743   2.615   1.074 -1.1532  0.4586  1.1841
 7376SOL     OW33586   0.564   3.287   6.433  0.0351  0.1742 -0.1663
 7376SOL    HW133587   0.565   3.273   6.527  1.2279  1.8624  0.0544
 7376SOL    HW233588   0.644   3.338   6.419 -0.8882  1.5408 -0.4824
 7377SOL     OW33589   1.183   2.486   4.400 -0.6400  0.4107 -0.1050
 7377SOL    HW133590   1.228   2.568   4.416  1.5588 -0.8573  0.1143
 7377SOL    HW233591   1.141   2.508   4.317  0.7273  1.3270 -0.5522
 7378SOL     OW33592   1.246   1.655   6.421 -0.1088 -0.0281 -0.1350
 7378SOL    HW133593   1.223   1.564   6.440 -0.6830  0.5110  1.7254
 7378SOL    HW233594   1.298   1.678   6.498  0.9402 -2.7682 -0.0033
 7379SOL     OW33595   2.878   2.074   4.550 -0.3484 -0.3645  0.0389
 7379SOL    HW133596   2.854   2.049   4.460 -1.5438 -0.3341  0.3592
 7379SOL    HW233597   2.925   1.996   4.579  0.0842 -1.0359 -2.4809
 7380SOL     OW33598   2.199   1.494   4.002 -0.3476 -0.0922  0.5250
 7380SOL    HW133599   2.166   1.485   3.912 -0.6145 -1.3929  0.7591
 7380SOL    HW233600   2.170   1.585   4.007 -1.0501 -0.1369 -2.5478
 7381SOL     OW33601   2.717   1.036  16.048 -0.6163  0.5579 -0.0005
 7381SOL    HW133602   2.722   0.943  16.072 -2.3519 -0.0300 -1.8999
 7381SOL    HW233603   2.704   1.092  16.124  1.0510  3.0071 -1.5257
 7382SOL     OW33604   2.028   2.813   4.177 -0.1804 -0.2613  0.0227
 7382SOL    HW133605   2.071   2.840   4.258 -1.6840  1.6165  0.1718
 7382SOL    HW233606   2.045   2.718   4.176  2.2521  0.1749 -1.2200
 7383SOL     OW33607   4.365   0.318   8.433  0.1801  0.0475 -0.0514
 7383SOL    HW133608   4.430   0.306   8.502 -1.5423 -1.1277  1.3546
 7383SOL    HW233609   4.291   0.352   8.483 -0.7791 -1.4346 -0.4389
 7384SOL     OW33610   4.152   2.900   9.756 -0.1044 -0.3155 -0.6582
 7384SOL    HW133611   4.156   2.978   9.700 -0.8279 -0.8164 -1.4113
 7384SOL    HW233612   4.245   2.882   9.770 -0.0428 -0.3039 -1.0390
 7385SOL     OW33613   0.930   3.485  14.443  0.0997  0.1344  0.2560
 7385SOL    HW133614   0.902   3.408  14.493  0.2660 -0.8752 -1.1919
 7385SOL    HW233615   1.009   3.468  14.392 -0.7319 -0.9604 -0.6604
 7386SOL     OW33616   3.436   4.133   5.610 -0.0174  0.0592 -0.2958
 7386SOL    HW133617   3.360   4.082   5.639  0.2451 -0.3972 -0.4151
 7386SOL    HW233618   3.400   4.207   5.562  0.6659  1.4149  1.2715
 7387SOL     OW33619   0.719   3.720   7.691 -0.5825  0.0613 -0.3574
 7387SOL    HW133620   0.641   3.767   7.719  1.0106  0.8647  2.7424
 7387SOL    HW233621   0.737   3.667   7.768 -1.8654  0.1877  0.0266
 7388SOL     OW33622   0.795   3.888  15.487 -0.2384 -0.1391 -0.2871
 7388SOL    HW133623   0.781   3.967  15.436  1.3657  1.3038  1.5053
 7388SOL    HW233624   0.891   3.884  15.487 -0.3148 -2.0817 -1.2755
 7389SOL     OW33625   4.630   3.168   6.034 -0.3127 -0.5684 -0.2255
 7389SOL    HW133626   4.601   3.213   6.113 -0.5223 -3.1196  1.1518
 7389SOL    HW233627   4.643   3.076   6.057 -2.6669 -1.3424 -2.0522
 7390SOL     OW33628   1.364   2.925   8.998 -0.2604 -0.3204 -0.4001
 7390SOL    HW133629   1.433   2.983   9.030  0.8584 -1.3500 -0.9562
 7390SOL    HW233630   1.415   2.854   8.958  3.4332  0.2098  3.3579
 7391SOL     OW33631   1.676   1.078   6.128 -0.0777  0.2322 -0.5942
 7391SOL    HW133632   1.631   1.159   6.104 -0.3698  0.2991  0.1877
 7391SOL    HW233633   1.703   1.114   6.212  1.4861  0.3944 -1.1692
 7392SOL     OW33634   1.970   1.372   4.468 -0.0514  0.4133  0.5779
 7392SOL    HW133635   2.011   1.306   4.412  1.4301  0.7286  1.2760
 7392SOL    HW233636   1.923   1.433   4.411 -2.4590 -0.2323  1.9003
 7393SOL     OW33637   1.484   3.017   2.142  0.1264 -0.1314 -0.2060
 7393SOL    HW133638   1.537   3.094   2.119 -0.6385  0.3144 -0.4775
 7393SOL    HW233639   1.545   2.955   2.103 -1.0583 -1.1600 -0.4062
 7394SOL     OW33640   2.740   0.122   3.874 -0.0418 -0.0554 -0.6391
 7394SOL    HW133641   2.820   0.079   3.902 -0.3472 -0.0996  0.1731
 7394SOL    HW233642   2.772   0.124   3.784  0.9936 -2.4645 -0.3254
 7395SOL     OW33643   2.035   4.408   8.365 -0.4865  0.4397 -0.6798
 7395SOL    HW133644   2.062   4.433   8.454  0.3778 -0.6835 -0.6143
 7395SOL    HW233645   2.113   4.357   8.340 -0.4358  0.4175 -0.4785
 7396SOL     OW33646   0.092   0.742  13.307 -0.1592 -0.3664 -0.1219
 7396SOL    HW133647   0.150   0.796  13.361 -1.5371  0.5491  0.4405
 7396SOL    HW233648   0.138   0.659  13.301 -1.7509 -1.2452 -0.0438
 7397SOL     OW33649   3.122   3.131   5.275 -0.3683  0.0078 -0.4128
 7397SOL    HW133650   3.102   3.193   5.344 -1.1272 -1.7737  0.9670
 7397SOL    HW233651   3.134   3.189   5.199 -2.3216  0.4865 -0.3588
 7398SOL     OW33652   3.907   3.009   2.931  0.3247  0.0942 -0.1943
 7398SOL    HW133653   3.872   3.096   2.947 -0.5280 -0.2656 -0.1001
 7398SOL    HW233654   3.832   2.988   2.875  0.9791  2.3116 -1.8810
 7399SOL     OW33655   2.891   0.758  13.403 -0.2235 -0.8004  0.0736
 7399SOL    HW133656   2.961   0.761  13.338  0.3000  0.6832  0.6926
 7399SOL    HW233657   2.898   0.847  13.439 -3.0673 -0.5351  0.0285
 7400SOL     OW33658   1.559   2.596   2.939 -0.3250 -0.6331 -0.3818
 7400SOL    HW133659   1.469   2.629   2.938 -0.2365 -0.4096 -0.8184
 7400SOL    HW233660   1.563   2.533   3.011 -2.3189 -1.0305 -0.6069
 7401SOL     OW33661   2.226   0.494   6.512  0.0350 -0.3490 -0.1294
 7401SOL    HW133662   2.144   0.450   6.533  0.9532 -2.2374 -0.4914
 7401SOL    HW233663   2.273   0.491   6.596 -1.5800  0.9056  0.8230
 7402SOL     OW33664   2.824   0.222   5.358  0.5012  0.1421  0.4052
 7402SOL    HW133665   2.848   0.140   5.316  1.6182 -0.3002  1.9350
 7402SOL    HW233666   2.781   0.263   5.282  0.6738  0.7581  0.6361
 7403SOL     OW33667   3.487   1.718   2.489  0.4239  0.0795 -0.8436
 7403SOL    HW133668   3.412   1.770   2.518 -0.3325 -0.3952 -1.9503
 7403SOL    HW233669   3.437   1.649   2.445  1.6747 -0.9057 -0.7160
 7404SOL     OW33670   0.520   0.796   7.906 -0.9454 -0.1989 -0.4483
 7404SOL    HW133671   0.505   0.816   7.999 -0.4561 -1.4127 -0.1186
 7404SOL    HW233672   0.611   0.825   7.906 -1.2427  0.7353 -1.0734
 7405SOL     OW33673   0.922   1.620   1.876 -0.2259  0.0757  0.1270
 7405SOL    HW133674   0.916   1.577   1.961  2.6566 -2.2655 -0.8787
 7405SOL    HW233675   0.907   1.710   1.904 -2.4384 -0.9152  2.0909
 7406SOL     OW33676   0.040   1.670  17.602 -0.2019 -0.1851  0.2643
 7406SOL    HW133677   4.719   1.724  17.670 -0.9426  0.1435 -0.4372
 7406SOL    HW233678   0.003   1.582  17.613 -1.1344  0.1619 -0.0322
 7407SOL     OW33679   3.214   1.005   3.815 -0.5133 -0.4015 -0.4055
 7407SOL    HW133680   3.309   0.997   3.820 -0.5885 -1.0146  0.0464
 7407SOL    HW233681   3.189   0.946   3.886 -2.7162  3.6515  2.2054
 7408SOL     OW33682   3.316   2.212  13.084  0.1411 -0.0046 -0.5984
 7408SOL    HW133683   3.411   2.221  13.084  0.1936 -0.5191 -1.6800
 7408SOL    HW233684   3.329   2.121  13.057  0.8714  0.2749 -1.1778
 7409SOL     OW33685   1.704   3.129  10.934  0.2405 -0.2168  0.3027
 7409SOL    HW133686   1.730   3.037  10.941 -0.8884 -0.5416  0.2575
 7409SOL    HW233687   1.783   3.166  10.972 -1.1661  0.0078  3.0533
 7410SOL     OW33688   4.647   4.244   2.447 -0.3212 -0.6540  0.2932
 7410SOL    HW133689   4.635   4.202   2.362 -1.7251  0.5365 -0.0978
 7410SOL    HW233690   0.021   4.265   2.440 -0.5405  0.4629  0.7996
 7411SOL     OW33691   1.580   2.294   4.558  0.0106 -0.5187 -0.1465
 7411SOL    HW133692   1.528   2.283   4.637 -0.1245 -2.6127 -0.5255
 7411SOL    HW233693   1.556   2.383   4.531  0.4011 -0.0666  1.0196
 7412SOL     OW33694   1.168   1.757   8.137  0.0939  0.0082 -0.0304
 7412SOL    HW133695   1.132   1.845   8.130 -1.5304 -0.4267  2.9702
 7412SOL    HW233696   1.124   1.708   8.068  0.6412 -0.5857  0.0441
 7413SOL     OW33697   2.373   0.133  11.825  0.3516 -0.1103 -0.1273
 7413SOL    HW133698   2.445   0.132  11.889 -0.1977  1.1446  0.5210
 7413SOL    HW233699   2.329   0.217  11.844 -0.7038 -0.6028 -0.4051
 7414SOL     OW33700   2.004   3.987  11.416 -0.2385 -0.7983 -0.4616
 7414SOL    HW133701   2.030   3.899  11.389 -2.2627 -1.4777 -0.2323
 7414SOL    HW233702   1.955   3.968  11.496 -1.1617  2.2344 -0.3084
 7415SOL     OW33703   1.612   1.102   8.368  0.5972 -0.7216 -0.3632
 7415SOL    HW133704   1.561   1.058   8.301  0.5948  0.1953 -0.9667
 7415SOL    HW233705   1.588   1.194   8.352 -1.3361 -1.4267 -1.5510
 7416SOL     OW33706   3.412   4.592   4.832 -0.5776  0.1767 -0.6594
 7416SOL    HW133707   3.494   4.544   4.846 -0.1526  0.8094 -0.9940
 7416SOL    HW233708   3.348   4.521   4.831  1.7133 -1.8963 -0.1168
 7417SOL     OW33709   1.300   1.127   8.938  0.4887 -1.1086 -0.4373
 7417SOL    HW133710   1.363   1.198   8.945  0.0097 -0.8673  1.4063
 7417SOL    HW233711   1.267   1.131   9.027  1.0147  0.2124 -0.3079
 7418SOL     OW33712   1.593   3.637   8.190  0.1299  0.2945  0.0219
 7418SOL    HW133713   1.649   3.602   8.259 -1.2735  2.3689  2.1748
 7418SOL    HW233714   1.581   3.731   8.203  0.9022  0.1556  1.7482
 7419SOL     OW33715   3.709   3.518   6.415  0.2041 -0.8805  0.0315
 7419SOL    HW133716   3.764   3.557   6.347  0.3819  0.3330  0.8619
 7419SOL    HW233717   3.775   3.456   6.447  0.5833 -0.4058  0.1824
 7420SOL     OW33718   1.219   3.360   6.969  0.0374 -0.3187 -0.0285
 7420SOL    HW133719   1.166   3.281   6.959 -0.2676  0.1678 -2.3007
 7420SOL    HW233720   1.172   3.395   7.045 -3.0395  0.5624 -2.3224
 7421SOL     OW33721   2.031   3.618   3.291  0.5502  0.0336  0.3256
 7421SOL    HW133722   2.028   3.631   3.196  2.8421 -1.1443  0.0789
 7421SOL    HW233723   1.939   3.600   3.309  0.2157  2.1289  0.6092
 7422SOL     OW33724   3.617   1.234   5.697 -0.4831 -0.8406  0.8823
 7422SOL    HW133725   3.593   1.230   5.605  0.0972 -0.7330  0.7297
 7422SOL    HW233726   3.533   1.268   5.730 -1.0912  0.9538 -2.4556
 7423SOL     OW33727   1.875   0.984   3.967 -0.3750 -0.0261  0.2206
 7423SOL    HW133728   1.957   1.022   3.935 -0.3597 -0.3249 -0.0918
 7423SOL    HW233729   1.905   0.919   4.031  1.9613  1.5715  0.7499
 7424SOL     OW33730   3.107   2.723  13.017 -0.5176 -0.1689  0.5269
 7424SOL    HW133731   3.079   2.637  12.985 -1.6891  0.5248 -0.3015
 7424SOL    HW233732   3.051   2.781  12.965  0.3158  0.7293  0.6222
 7425SOL     OW33733   4.076   2.004   3.329  0.2531  0.2773  0.1378
 7425SOL    HW133734   4.112   1.919   3.355  0.3237 -0.1005 -1.2150
 7425SOL    HW233735   4.060   2.041   3.416  0.1476 -0.1063  0.2804
 7426SOL     OW33736   0.190   2.275   6.941  0.4307 -0.1995  0.1598
 7426SOL    HW133737   0.206   2.286   6.847  0.4140  0.8431  0.2801
 7426SOL    HW233738   0.199   2.180   6.950  0.1469 -0.1064  1.4089
 7427SOL     OW33739   3.449   4.670   8.744 -0.4356 -0.5053 -0.6224
 7427SOL    HW133740   3.522   4.608   8.741 -2.3088 -2.7365  0.0465
 7427SOL    HW233741   3.467   0.006   8.668  0.0333  0.3516  0.1085
 7428SOL     OW33742   3.544   3.985   8.234 -0.3507 -0.0595  0.1299
 7428SOL    HW133743   3.544   3.918   8.165 -0.5331  1.0938 -0.9888
 7428SOL    HW233744   3.567   4.061   8.181 -1.3583  0.4485  0.4449
 7429SOL     OW33745   3.958   2.860   4.324  0.0581  0.3916  0.6515
 7429SOL    HW133746   3.931   2.951   4.318  2.1563  0.9018 -0.9286
 7429SOL    HW233747   4.029   2.860   4.389 -0.2739  1.4224  1.0058
 7430SOL     OW33748   3.508   2.201   5.249 -0.2585 -0.2293 -0.4183
 7430SOL    HW133749   3.581   2.262   5.238 -0.6476  0.1093 -1.1440
 7430SOL    HW233750   3.428   2.253   5.256  0.7438  1.5405 -2.0305
 7431SOL     OW33751   2.472   2.328   3.488 -0.2058 -0.1786  0.1393
 7431SOL    HW133752   2.499   2.373   3.568  0.7488  0.8282 -0.7423
 7431SOL    HW233753   2.418   2.395   3.447 -1.8647 -0.6939  1.4688
 7432SOL     OW33754   3.978   1.995   7.621  0.1556 -0.5683  0.5367
 7432SOL    HW133755   3.980   2.086   7.589  1.3720 -0.9417 -0.4689
 7432SOL    HW233756   4.070   1.974   7.636  1.0209  2.0312 -1.0237
 7433SOL     OW33757   0.926   2.041   2.163  0.4081 -0.2906  0.1541
 7433SOL    HW133758   1.010   2.047   2.208 -0.0165 -2.9287  1.2649
 7433SOL    HW233759   0.939   2.108   2.096  1.2530  0.5346  1.1374
 7434SOL     OW33760   3.043   4.025   8.931 -0.3129  0.2872 -0.4129
 7434SOL    HW133761   3.060   4.087   9.002 -0.5182 -1.0911  0.8419
 7434SOL    HW233762   2.968   4.071   8.894  1.3421  3.1493 -0.1916
 7435SOL     OW33763   0.087   0.996  15.002  0.3184  0.3676 -0.7707
 7435SOL    HW133764   0.130   1.049  14.935  1.1910  0.8195  0.1407
 7435SOL    HW233765   0.153   0.926  15.005  3.3580  3.3082  1.9128
 7436SOL     OW33766   2.860   0.395   0.617 -0.2794  0.1984 -0.0290
 7436SOL    HW133767   2.831   0.353   0.698 -2.9261 -0.1529 -1.1543
 7436SOL    HW233768   2.902   0.471   0.658  1.5223 -1.1967  0.6958
 7437SOL     OW33769   3.291   3.602   4.178  0.8348  0.3065  0.5585
 7437SOL    HW133770   3.210   3.565   4.143  1.1350 -1.8072  2.1022
 7437SOL    HW233771   3.292   3.695   4.157 -0.9728 -0.0560 -1.1057
 7438SOL     OW33772   1.556   3.669   1.686 -0.7006  0.2526 -0.1936
 7438SOL    HW133773   1.651   3.668   1.700 -0.4313  2.0821 -1.8213
 7438SOL    HW233774   1.523   3.580   1.678 -0.4008  0.0998  0.2631
 7439SOL     OW33775   4.040   4.082  14.155  0.9038  0.5220 -0.3752
 7439SOL    HW133776   4.043   3.989  14.133 -0.1731  0.3788  0.1157
 7439SOL    HW233777   4.082   4.075  14.241 -0.3920 -0.1119  0.2086
 7440SOL     OW33778   2.294   1.596   4.652 -0.0221 -0.5522  0.2156
 7440SOL    HW133779   2.342   1.514   4.638  2.7282  1.1692 -0.4239
 7440SOL    HW233780   2.259   1.615   4.565  0.9824  1.7609  0.3131
 7441SOL     OW33781   0.318   3.111  15.503  0.1745 -0.3012  0.6166
 7441SOL    HW133782   0.287   3.083  15.417  0.0284  0.0738  0.5501
 7441SOL    HW233783   0.412   3.101  15.487  0.3581  1.5010  0.6051
 7442SOL     OW33784   0.476   0.784   2.675 -0.1641  0.0478  0.0324
 7442SOL    HW133785   0.466   0.823   2.762 -0.7437  2.1222 -0.9636
 7442SOL    HW233786   0.546   0.724   2.700  1.3570  1.3035 -1.2372
 7443SOL     OW33787   1.349   3.480  16.861 -0.2078  0.3286  0.3768
 7443SOL    HW133788   1.298   3.509  16.936 -0.8457 -1.5212  0.6723
 7443SOL    HW233789   1.430   3.531  16.863 -2.1480  3.3771  1.0469
 7444SOL     OW33790   1.387   1.621  13.457 -0.3611  0.1579 -0.6961
 7444SOL    HW133791   1.325   1.548  13.458 -0.6346  0.4347  3.1648
 7444SOL    HW233792   1.468   1.579  13.486 -0.4403 -0.3872 -1.2701
 7445SOL     OW33793   3.043   2.433   3.758 -0.4229 -0.1111 -0.2152
 7445SOL    HW133794   3.054   2.493   3.831  0.3077  0.7002 -0.9999
 7445SOL    HW233795   3.045   2.491   3.682  4.2533 -1.0760 -0.8002
 7446SOL     OW33796   0.308   1.016   7.419  0.2293 -0.7275  0.2320
 7446SOL    HW133797   0.346   0.957   7.354 -0.7447 -1.9371  0.7675
 7446SOL    HW233798   0.226   1.043   7.377  1.3479 -0.3328 -1.7039
 7447SOL     OW33799   3.320   1.855   3.326  0.4237  0.1807 -0.7787
 7447SOL    HW133800   3.406   1.827   3.296  0.0316  1.0600 -2.7298
 7447SOL    HW233801   3.267   1.799   3.270  0.7251  0.8803 -1.7612
 7448SOL     OW33802   2.386   2.971   5.915 -0.1341  0.4828  0.1581
 7448SOL    HW133803   2.331   2.893   5.910  0.1314  0.1777  1.9733
 7448SOL    HW233804   2.419   2.971   6.005 -0.2861  0.2073  0.2120
 7449SOL     OW33805   4.255   0.400   2.448  0.2346 -0.1311 -0.1511
 7449SOL    HW133806   4.180   0.413   2.391  2.1312 -1.0908 -2.9118
 7449SOL    HW233807   4.268   0.488   2.484 -0.3206  0.1841 -0.7221
 7450SOL     OW33808   2.339   4.575   9.728 -0.4763 -0.2520 -0.0365
 7450SOL    HW133809   2.267   4.630   9.697 -1.4154 -0.6022  1.4832
 7450SOL    HW233810   2.293   4.496   9.756 -0.8056 -0.3548 -0.8737
 7451SOL     OW33811   4.072   0.592   8.094 -0.4959 -0.4141 -0.0113
 7451SOL    HW133812   4.051   0.581   8.186  1.7487  0.3499  0.5757
 7451SOL    HW233813   4.030   0.675   8.069  2.8954  0.8520 -1.4916
 7452SOL     OW33814   1.838   3.037   0.421  0.3030 -0.1824 -0.2993
 7452SOL    HW133815   1.827   3.098   0.493 -1.3722 -0.8026 -0.0247
 7452SOL    HW233816   1.917   3.071   0.379  0.2300 -1.6309 -1.6529
 7453SOL     OW33817   4.403   1.214  12.839 -0.6218  0.4939  0.2149
 7453SOL    HW133818   4.308   1.218  12.833 -0.7092  2.0622  2.6149
 7453SOL    HW233819   4.415   1.187  12.930 -1.0061  0.0562  0.1322
 7454SOL     OW33820   1.913   0.373   1.860  0.4837 -0.4742  0.1143
 7454SOL    HW133821   1.861   0.341   1.786 -1.1876 -1.7222  1.8511
 7454SOL    HW233822   2.002   0.355   1.829  0.1917 -1.3660 -0.1911
 7455SOL     OW33823   0.038   0.751   5.131  0.5059  0.4663 -0.3505
 7455SOL    HW133824   0.094   0.697   5.076  1.1712 -0.0968  0.8800
 7455SOL    HW233825   4.674   0.703   5.131  0.4577  0.5518  0.9660
 7456SOL     OW33826   1.729   0.473  16.364 -0.2067  0.3976 -0.1948
 7456SOL    HW133827   1.659   0.453  16.301 -0.9051  0.9353  0.4136
 7456SOL    HW233828   1.685   0.484  16.448  0.1073  1.9337 -0.2244
 7457SOL     OW33829   3.986   3.592   8.025 -0.4480  0.3276 -0.5496
 7457SOL    HW133830   4.027   3.630   8.103  0.5835 -0.6800 -0.5932
 7457SOL    HW233831   4.027   3.506   8.018 -2.3251 -0.6086  0.1043
 7458SOL     OW33832   2.830   0.296  11.306 -0.5406 -0.1269 -0.1714
 7458SOL    HW133833   2.843   0.384  11.270 -1.4277 -0.8061 -2.1800
 7458SOL    HW233834   2.745   0.290  11.348  0.2994  1.8520  1.8169
 7459SOL     OW33835   0.024   4.696   1.423  0.3535  0.1906 -0.2227
 7459SOL    HW133836   0.068   4.680   1.340  1.0138  1.2721 -0.0848
 7459SOL    HW233837   4.709   0.067   1.423  1.1738  0.4953 -0.5830
 7460SOL     OW33838   1.031   4.649   7.381 -0.3414 -0.6029 -0.0172
 7460SOL    HW133839   0.997   4.561   7.361  1.1629 -0.8360 -1.6020
 7460SOL    HW233840   1.069   4.639   7.468 -0.8153 -1.1990  0.1248
 7461SOL     OW33841   1.911   2.384  10.711 -0.2803 -0.6290  0.1602
 7461SOL    HW133842   1.934   2.296  10.741  0.1484 -0.7467 -0.5040
 7461SOL    HW233843   1.982   2.408  10.651 -2.9506  2.0833 -1.8935
 7462SOL     OW33844   3.010   2.545   1.231  0.6272 -0.5786 -0.4320
 7462SOL    HW133845   2.975   2.553   1.320  1.3885 -1.1900 -0.0698
 7462SOL    HW233846   2.932   2.572   1.183  1.6627  3.3559  0.0765
 7463SOL     OW33847   3.363   2.173   6.855  0.0129  0.2517  0.2430
 7463SOL    HW133848   3.425   2.204   6.922  1.0439 -0.5783 -0.3297
 7463SOL    HW233849   3.305   2.108   6.894  1.4554 -2.4158 -2.0499
 7464SOL     OW33850   1.792   2.614   4.781 -0.0941 -0.3388  0.2878
 7464SOL    HW133851   1.878   2.590   4.814 -0.3368  1.3790  2.2234
 7464SOL    HW233852   1.808   2.636   4.689  1.9321  3.6378  1.5976
 7465SOL     OW33853   4.034   3.932   4.243 -0.0336 -0.0378 -0.1953
 7465SOL    HW133854   3.969   3.900   4.306 -0.3970  1.0111 -0.0263
 7465SOL    HW233855   4.118   3.922   4.287 -0.4748  3.2608  1.4019
 7466SOL     OW33856   3.988   3.661   0.453 -0.0237  0.2984  0.0519
 7466SOL    HW133857   4.063   3.653   0.393 -0.9302  0.2381 -1.0899
 7466SOL    HW233858   4.026   3.718   0.520  3.5616  0.5222 -2.1420
 7467SOL     OW33859   0.763   3.177  15.483 -0.3661  0.2613 -0.1638
 7467SOL    HW133860   0.825   3.170  15.556 -3.8688 -3.4487  2.4629
 7467SOL    HW233861   0.775   3.270  15.465  2.3526  0.3750  2.1912
 7468SOL     OW33862   3.703   2.987   0.936 -0.2206  0.4885  0.1053
 7468SOL    HW133863   3.796   3.000   0.958  0.1533 -0.8765 -0.6530
 7468SOL    HW233864   3.712   2.966   0.843  1.4754 -0.7319  0.5441
 7469SOL     OW33865   2.952   1.123   3.715  0.2426 -0.0251  0.3655
 7469SOL    HW133866   3.032   1.097   3.760 -0.4476 -0.4153  1.3891
 7469SOL    HW233867   2.985   1.125   3.625 -2.5559 -0.0826 -0.6786
 7470SOL     OW33868   1.255   1.516   3.840 -0.7539 -0.2005 -0.4107
 7470SOL    HW133869   1.180   1.568   3.810 -1.2838 -1.3677 -1.1478
 7470SOL    HW233870   1.320   1.583   3.861 -3.2325  1.9775  0.3770
 7471SOL     OW33871   0.111   3.122   7.128 -0.0177  0.2359  0.1691
 7471SOL    HW133872   0.037   3.168   7.090 -0.4848 -0.2534  0.4906
 7471SOL    HW233873   0.157   3.088   7.051  1.1361 -0.5718  1.2036
 7472SOL     OW33874   4.033   0.879  10.787  0.6524 -0.5863 -0.3312
 7472SOL    HW133875   3.939   0.880  10.772  0.7718 -0.9199 -1.0955
 7472SOL    HW233876   4.075   0.912  10.707  0.1811 -0.4715 -0.5294
 7473SOL     OW33877   0.785   1.128   1.455  0.3442  0.2567  0.0994
 7473SOL    HW133878   0.818   1.182   1.527 -1.7113  0.9098  0.5560
 7473SOL    HW233879   0.692   1.136   1.476  0.5436  0.5112  0.8795
 7474SOL     OW33880   0.930   0.474   6.497  0.3309 -0.4328 -0.3251
 7474SOL    HW133881   0.883   0.550   6.531  2.0943 -0.5679  2.3081
 7474SOL    HW233882   0.867   0.409   6.528  0.8580  0.1259  1.8788
 7475SOL     OW33883   4.217   1.299  13.190  0.0981  0.3916 -0.1291
 7475SOL    HW133884   4.156   1.313  13.118 -1.0193  1.1961  0.9779
 7475SOL    HW233885   4.153   1.308  13.261  1.5118  0.7154  1.1213
 7476SOL     OW33886   0.637   0.758   3.125 -0.7520  0.0814 -0.3922
 7476SOL    HW133887   0.691   0.680   3.110 -0.7472 -0.4967  2.6392
 7476SOL    HW233888   0.670   0.784   3.211  0.5540 -0.2007 -0.8122
 7477SOL     OW33889   2.501   0.169   5.098  0.0324  0.6620 -0.1024
 7477SOL    HW133890   2.465   0.126   5.175  1.7356  0.6475  0.6958
 7477SOL    HW233891   2.463   0.256   5.107  0.1796  1.0077 -2.8417
 7478SOL     OW33892   3.957   1.621   4.816  0.1723  0.0609 -0.7785
 7478SOL    HW133893   3.981   1.651   4.904 -3.2974  0.7196 -0.0543
 7478SOL    HW233894   4.033   1.637   4.762  1.7913  0.5431  1.6317
 7479SOL     OW33895   1.952   4.476  16.385 -0.1080 -0.2063  0.0535
 7479SOL    HW133896   1.975   4.549  16.443  0.9858  0.2990 -1.0178
 7479SOL    HW233897   1.907   4.519  16.311 -0.2964 -2.8362 -1.3529
 7480SOL     OW33898   0.896   2.884   4.605 -0.0628 -0.3341 -0.7276
 7480SOL    HW133899   0.830   2.833   4.651 -0.5216  0.0143 -1.0083
 7480SOL    HW233900   0.868   2.887   4.513  1.1274  2.0297 -0.9999
 7481SOL     OW33901   2.570   0.294  14.865  0.2216  0.5812 -0.0222
 7481SOL    HW133902   2.512   0.224  14.893  1.4500 -0.6375 -0.5167
 7481SOL    HW233903   2.630   0.251  14.803 -0.8582 -1.1294  0.1344
 7482SOL     OW33904   2.992   0.760  10.358  0.2139 -0.4547 -0.3152
 7482SOL    HW133905   3.029   0.694  10.299 -0.0923  0.6297 -1.7167
 7482SOL    HW233906   3.073   0.773  10.408  0.5952 -1.5121 -0.6562
 7483SOL     OW33907   2.454   1.887   3.206 -0.2013 -0.2809  0.2885
 7483SOL    HW133908   2.466   1.955   3.272 -0.9015  1.0130 -0.9043
 7483SOL    HW233909   2.486   1.815   3.261 -2.5352 -3.4525 -2.5227
 7484SOL     OW33910   2.833   3.463   8.797  0.2285 -0.3297 -0.4215
 7484SOL    HW133911   2.784   3.544   8.808 -1.3072 -1.2078 -0.6984
 7484SOL    HW233912   2.831   3.448   8.703  0.2951  1.7708 -0.7557
 7485SOL     OW33913   4.328   1.941   3.866 -0.1552 -0.4334 -0.2522
 7485SOL    HW133914   4.255   1.988   3.906  1.0403 -0.8824  2.4183
 7485SOL    HW233915   4.396   2.006   3.849  1.2272 -1.8491 -0.0851
 7486SOL     OW33916   3.528   1.801   9.828  0.0896 -0.5389 -0.4352
 7486SOL    HW133917   3.620   1.792   9.853  0.2479 -0.7709 -1.1070
 7486SOL    HW233918   3.517   1.724   9.772 -0.1602  0.2854 -1.5194
 7487SOL     OW33919   1.660   1.398  11.552 -0.8491  0.4238 -0.1715
 7487SOL    HW133920   1.647   1.488  11.522 -0.6882  0.1377 -1.0998
 7487SOL    HW233921   1.602   1.399  11.628  0.6753 -0.6559  1.0054
 7488SOL     OW33922   1.126   1.404   5.788  0.6183 -0.3602  0.0083
 7488SOL    HW133923   1.047   1.361   5.755  0.7451 -0.0447 -0.7130
 7488SOL    HW233924   1.097   1.434   5.874 -0.9549  1.2532 -1.0742
 7489SOL     OW33925   0.107   3.385   3.040  0.0292 -0.1325  0.2416
 7489SOL    HW133926   0.194   3.426   3.035  0.8748 -2.0613 -0.9145
 7489SOL    HW233927   0.064   3.406   2.957  0.4320  0.2048  0.1138
 7490SOL     OW33928   0.660   1.417   4.224 -0.5980  0.1722  0.1396
 7490SOL    HW133929   0.714   1.343   4.195  1.8497  2.9313 -2.3119
 7490SOL    HW233930   0.581   1.363   4.229 -0.5047  0.1876  1.5997
 7491SOL     OW33931   3.967   0.946   6.431  0.1566 -0.1670  0.3115
 7491SOL    HW133932   3.874   0.958   6.450  0.6074  3.4770  0.3568
 7491SOL    HW233933   3.987   1.033   6.396  0.4396 -0.8417 -1.1607
 7492SOL     OW33934   2.616   0.978   7.475  0.6927  0.2216 -0.0859
 7492SOL    HW133935   2.613   0.883   7.488 -0.7121 -0.0224 -2.1267
 7492SOL    HW233936   2.546   1.005   7.535  0.5731 -0.9531  0.3018
 7493SOL     OW33937   4.013   0.768   2.724  0.4077 -0.3450 -0.2180
 7493SOL    HW133938   3.921   0.744   2.724  0.2905  0.0908  0.3833
 7493SOL    HW233939   4.049   0.733   2.806 -0.7808  0.2913  0.5689
 7494SOL     OW33940   0.592   1.275   0.937  0.1467 -0.4294  0.8283
 7494SOL    HW133941   0.614   1.292   1.029  1.1569 -0.0643  0.5110
 7494SOL    HW233942   0.519   1.213   0.945  1.4651 -1.8218  2.0622
 7495SOL     OW33943   1.653   3.561   6.891 -0.1108 -0.2715  0.3322
 7495SOL    HW133944   1.586   3.502   6.857 -0.8800  0.5180  0.4799
 7495SOL    HW233945   1.629   3.565   6.984  0.0710 -1.8956  0.4429
 7496SOL     OW33946   0.974   2.128   8.371  0.0777 -0.3480 -0.6139
 7496SOL    HW133947   1.046   2.154   8.429 -0.4079 -2.0354  0.7351
 7496SOL    HW233948   0.932   2.057   8.420 -0.4349  0.8620  0.7029
 7497SOL     OW33949   1.331   1.939   7.178  0.4872 -0.3000  0.2266
 7497SOL    HW133950   1.258   1.922   7.238 -1.6046  2.8102 -1.4399
 7497SOL    HW233951   1.400   1.922   7.242 -0.8910 -2.3469  1.1525
 7498SOL     OW33952   0.736   2.707   4.723 -0.7084 -0.2391 -0.2213
 7498SOL    HW133953   0.756   2.618   4.753 -0.2150 -0.2874 -0.7057
 7498SOL    HW233954   0.671   2.686   4.656  0.3883 -1.0007 -1.0394
 7499SOL     OW33955   1.099   0.702   3.990 -0.2427  0.6301  0.3572
 7499SOL    HW133956   1.185   0.670   4.015 -0.4516  1.2970  1.9704
 7499SOL    HW233957   1.103   0.798   3.996 -1.1025  0.6232  1.1631
 7500SOL     OW33958   0.184   0.257   8.701 -0.5030  0.3711 -0.8830
 7500SOL    HW133959   0.120   0.188   8.723 -0.6400  0.8952  0.3721
 7500SOL    HW233960   0.128   0.331   8.679  1.1002  2.1224  0.9653
 7501SOL     OW33961   3.398   4.488   6.840  0.1436 -0.5323  0.3453
 7501SOL    HW133962   3.475   4.431   6.834 -0.5936 -1.1755 -3.4184
 7501SOL    HW233963   3.338   4.437   6.893  0.6803 -1.2431  0.2702
 7502SOL     OW33964   4.703   0.206   1.243 -0.2349  0.1727 -0.3956
 7502SOL    HW133965   4.671   0.282   1.194 -2.1400 -1.1367 -1.2177
 7502SOL    HW233966   0.070   0.200   1.202 -0.0215 -2.3408  0.4071
 7503SOL     OW33967   4.372   3.592   0.888  0.4498 -0.6919 -0.3394
 7503SOL    HW133968   4.397   3.649   0.816 -1.6958 -0.4669 -0.9142
 7503SOL    HW233969   4.325   3.530   0.832  0.5044  0.2793 -1.4528
 7504SOL     OW33970   2.156   1.599   2.035  0.2153  0.0120 -0.4621
 7504SOL    HW133971   2.215   1.665   2.072  0.2063 -0.1721 -0.1219
 7504SOL    HW233972   2.080   1.651   2.064  0.5475 -0.0739  0.5630
 7505SOL     OW33973   2.861   0.095   3.617  0.1479 -0.4944 -0.1480
 7505SOL    HW133974   2.811   0.037   3.560 -1.0631 -1.4195  1.8756
 7505SOL    HW233975   2.943   0.045   3.615  0.9046  0.6882  1.6085
 7506SOL     OW33976   1.140   4.666  15.681  0.2741  0.4498  0.3711
 7506SOL    HW133977   1.190   0.028  15.697 -0.2404  1.4972 -3.2784
 7506SOL    HW233978   1.190   4.609  15.738  0.6786  1.6060  1.1761
 7507SOL     OW33979   2.909   3.987   5.782 -0.2917  0.6723  0.5850
 7507SOL    HW133980   2.937   4.027   5.700  0.7816 -0.9006  0.2074
 7507SOL    HW233981   2.914   4.055   5.850 -0.8450  1.6359 -0.3226
 7508SOL     OW33982   3.833   0.369   5.558 -0.5654  0.1972  0.3050
 7508SOL    HW133983   3.753   0.330   5.524 -1.2158  2.2649 -0.5532
 7508SOL    HW233984   3.821   0.453   5.513  0.1270 -0.2233 -0.6675
 7509SOL     OW33985   4.339   3.166  10.138 -0.4212 -0.0094 -0.1223
 7509SOL    HW133986   4.402   3.109  10.093  1.1328  1.0647  0.7072
 7509SOL    HW233987   4.294   3.092  10.179  1.2052 -0.7698  0.3009
 7510SOL     OW33988   2.444   2.746   6.271 -0.4618 -0.0411 -0.1218
 7510SOL    HW133989   2.466   2.709   6.356 -0.9682  0.0034  0.0252
 7510SOL    HW233990   2.494   2.827   6.260  0.1069 -0.1031  2.0974
 7511SOL     OW33991   0.990   3.556  15.579 -0.1574 -0.1048 -0.0098
 7511SOL    HW133992   0.928   3.508  15.525  1.0826  0.0585 -1.5830
 7511SOL    HW233993   0.928   3.605  15.633 -0.2845  0.6577 -0.8366
 7512SOL     OW33994   4.404   1.502   6.349  0.2819  0.0754 -0.2793
 7512SOL    HW133995   4.361   1.442   6.289 -0.7946  1.6717 -1.0971
 7512SOL    HW233996   4.403   1.454   6.432  1.6073 -0.7436 -0.7508
 7513SOL     OW33997   0.821   0.345   3.014  0.0860  0.4346 -0.1101
 7513SOL    HW133998   0.765   0.271   3.036 -0.8096  0.0659 -3.5720
 7513SOL    HW233999   0.889   0.352   3.081 -0.6663 -1.2725  0.8001
 7514SOL     OW34000   4.392   3.462   3.189  1.0758  0.4175  0.4681
 7514SOL    HW134001   4.428   3.421   3.110 -1.6729 -0.1466 -0.5044
 7514SOL    HW234002   4.322   3.516   3.153 -0.0144 -0.0028  1.9831
 7515SOL     OW34003   0.561   4.708   7.085  1.1460  0.0259 -0.2545
 7515SOL    HW134004   0.638   4.656   7.108  0.6895  0.8860  3.3054
 7515SOL    HW234005   0.584   0.077   7.117  2.2569  0.0471 -1.1032
 7516SOL     OW34006   3.934   4.584   9.715 -0.3203 -0.4731  0.4540
 7516SOL    HW134007   3.946   4.628   9.799  1.9339 -1.5847  0.7201
 7516SOL    HW234008   3.858   4.632   9.682  0.8331  0.9145 -0.2093
 7517SOL     OW34009   2.656   1.665   7.299 -0.1562  0.1637  0.0113
 7517SOL    HW134010   2.584   1.722   7.271  0.5895  0.6918 -0.8340
 7517SOL    HW234011   2.617   1.620   7.373 -3.2733  3.3497  0.3420
 7518SOL     OW34012   2.195   2.475  15.810 -0.5917  0.2393 -0.7202
 7518SOL    HW134013   2.106   2.462  15.843 -0.3138 -2.8616 -1.1835
 7518SOL    HW234014   2.187   2.418  15.734  0.0575 -0.1257 -0.5117
 7519SOL     OW34015   0.683   0.580   0.357 -0.1321 -0.4283 -0.3383
 7519SOL    HW134016   0.598   0.536   0.347 -0.0729 -0.5879 -0.1342
 7519SOL    HW234017   0.738   0.545   0.287  2.5479  2.4838  0.3351
 7520SOL     OW34018   2.091   1.172   6.420  0.0207  0.3406  0.2093
 7520SOL    HW134019   2.106   1.241   6.355 -0.8496  1.0800  0.7932
 7520SOL    HW234020   2.007   1.135   6.395  0.3647 -1.7272  2.1241
 7521SOL     OW34021   3.911   2.345   3.539  0.3254  0.1120  0.2790
 7521SOL    HW134022   3.926   2.320   3.448  1.6409 -2.5597  1.2200
 7521SOL    HW234023   3.974   2.414   3.559  1.4831 -1.6953  2.9977
 7522SOL     OW34024   2.778   2.360   5.891  0.1276 -0.5801  0.2958
 7522SOL    HW134025   2.822   2.366   5.806 -0.8973 -1.2593 -0.2843
 7522SOL    HW234026   2.853   2.368   5.950  2.1087  0.6538 -2.3873
 7523SOL     OW34027   1.614   2.373   7.406 -0.3909  0.1947 -0.1577
 7523SOL    HW134028   1.702   2.384   7.441  0.6584  0.0228 -2.7305
 7523SOL    HW234029   1.560   2.317   7.462 -0.4079 -0.7418 -1.1001
 7524SOL     OW34030   3.712   2.743   5.657 -0.1455 -0.4362 -0.0721
 7524SOL    HW134031   3.722   2.778   5.569  3.9313  0.3147  0.6681
 7524SOL    HW234032   3.803   2.748   5.687 -0.2602 -0.3339  0.2598
 7525SOL     OW34033   0.402   4.631  17.081  0.1874 -0.8597  0.3235
 7525SOL    HW134034   0.316   4.661  17.111  0.2160  0.2129 -0.6821
 7525SOL    HW234035   0.379   4.554  17.029  1.8806 -1.0388 -0.1598
 7526SOL     OW34036   0.284   3.408   5.577  0.0889 -0.2080  0.3635
 7526SOL    HW134037   0.349   3.445   5.517 -0.3927 -1.6484 -1.0411
 7526SOL    HW234038   0.305   3.315   5.568 -2.0811 -0.6368 -0.3716
 7527SOL     OW34039   0.218   0.091  14.075  0.3080 -0.6728 -0.7537
 7527SOL    HW134040   0.218   0.183  14.103 -0.2564 -0.4247 -1.5622
 7527SOL    HW234041   0.213   0.049  14.161  1.0353  0.5673 -0.0930
 7528SOL     OW34042   2.476   0.344   3.509 -0.4517  0.0104 -0.0376
 7528SOL    HW134043   2.452   0.319   3.599  1.1333  1.6438  0.8347
 7528SOL    HW234044   2.533   0.270   3.490  1.6251  1.0763  1.9435
 7529SOL     OW34045   1.641   1.372   8.261  0.2433  0.9991  0.2486
 7529SOL    HW134046   1.568   1.431   8.242 -2.2144 -1.9761  0.3497
 7529SOL    HW234047   1.706   1.441   8.251  0.5624  1.0242  2.5314
 7530SOL     OW34048   0.340   2.053  10.449  0.3419  0.6653  0.2277
 7530SOL    HW134049   0.376   1.991  10.512 -1.2341  0.6224  1.0574
 7530SOL    HW234050   0.416   2.108  10.426  1.7944 -0.2359  2.9133
 7531SOL     OW34051   1.352   0.716  14.720  0.2659  0.3461  0.2436
 7531SOL    HW134052   1.402   0.794  14.747 -0.1083  0.2102  1.3300
 7531SOL    HW234053   1.291   0.762  14.662  0.7103  0.0911 -0.4123
 7532SOL     OW34054   3.708   3.076   6.254  0.3482 -0.4134  0.3267
 7532SOL    HW134055   3.632   3.116   6.296  1.3358  2.4486 -0.6283
 7532SOL    HW234056   3.699   3.082   6.159  0.1845 -0.6862  0.3243
 7533SOL     OW34057   0.357   4.568   6.109  0.0725 -0.5852  0.3254
 7533SOL    HW134058   0.263   4.552   6.111  0.4303 -2.4326  1.5087
 7533SOL    HW234059   0.358   4.627   6.184  0.0714 -1.8333  1.2852
 7534SOL     OW34060   3.283   1.318   5.364 -0.1825  0.1169  0.3114
 7534SOL    HW134061   3.338   1.320   5.442 -0.5137  1.0583  0.5240
 7534SOL    HW234062   3.251   1.228   5.362 -0.7035  0.2690  2.0200
 7535SOL     OW34063   4.411   3.661   0.612  0.4767 -0.4160 -0.2606
 7535SOL    HW134064   4.443   3.750   0.596  1.1015 -0.5272  0.3705
 7535SOL    HW234065   4.495   3.617   0.601 -0.0791 -1.3015 -0.9774
 7536SOL     OW34066   2.761   0.216   4.545 -0.3534  0.0470 -0.3681
 7536SOL    HW134067   2.773   0.207   4.639  0.8136  0.2995 -0.4904
 7536SOL    HW234068   2.763   0.311   4.542 -0.1639  0.0399 -0.4583
 7537SOL     OW34069   1.267   4.403  13.640 -0.1774  0.2819  0.2139
 7537SOL    HW134070   1.359   4.381  13.651 -0.7189 -2.2300 -0.1819
 7537SOL    HW234071   1.241   4.339  13.574  3.7077  0.4778 -1.4852
 7538SOL     OW34072   4.001   3.406  12.178  0.0686  0.0863 -0.1333
 7538SOL    HW134073   4.010   3.460  12.256 -0.5527  1.3690 -0.9515
 7538SOL    HW234074   4.092   3.381  12.158 -0.3082 -0.5603 -1.0381
 7539SOL     OW34075   0.295   1.162   2.890  0.3992 -0.3779  0.2308
 7539SOL    HW134076   0.304   1.088   2.951 -0.5175 -1.4878 -0.9642
 7539SOL    HW234077   0.304   1.120   2.805 -3.8711  1.8502 -1.2978
 7540SOL     OW34078   1.533   0.820  17.263 -0.1880  0.3717 -0.0073
 7540SOL    HW134079   1.537   0.909  17.227 -0.3879 -0.2408 -1.5411
 7540SOL    HW234080   1.626   0.799  17.263  0.0241  1.3391  3.0643
 7541SOL     OW34081   3.561   0.663   3.140 -0.2126 -0.2998  0.2188
 7541SOL    HW134082   3.578   0.730   3.074  0.1356 -2.7910 -2.2245
 7541SOL    HW234083   3.478   0.628   3.107 -0.8777 -1.2283  2.8475
 7542SOL     OW34084   4.366   1.110  10.396  0.1062 -0.6947  0.4730
 7542SOL    HW134085   4.413   1.072  10.322  0.4699  0.0766  0.3087
 7542SOL    HW234086   4.411   1.192  10.413 -0.1292 -0.1927 -1.3515
 7543SOL     OW34087   0.551   2.267  14.580 -0.1066  0.7487  0.4931
 7543SOL    HW134088   0.626   2.215  14.608 -2.0854 -1.2583  2.0941
 7543SOL    HW234089   0.573   2.277  14.488  1.1318  2.6268  0.9887
 7544SOL     OW34090   2.128   2.300   5.043 -0.1804  0.4976 -0.1670
 7544SOL    HW134091   2.039   2.318   5.074  0.3697  1.5396  0.8068
 7544SOL    HW234092   2.113   2.230   4.979 -0.0432  0.1643  0.1592
 7545SOL     OW34093   4.332   1.486   1.730  0.3600  0.1939 -0.1723
 7545SOL    HW134094   4.263   1.425   1.757  0.3280 -0.1198 -0.9716
 7545SOL    HW234095   4.277   1.564   1.732 -0.6897 -0.6739  3.8581
 7546SOL     OW34096   2.239   0.128   0.032 -0.1064 -0.3471  0.0436
 7546SOL    HW134097   2.279   0.150  17.626 -1.9532  3.1516  0.0563
 7546SOL    HW234098   2.221   0.035   0.019  0.1038 -0.4812  0.6882
 7547SOL     OW34099   4.375   0.824   9.240 -0.5575  0.5081 -0.2682
 7547SOL    HW134100   4.397   0.764   9.311  1.9739 -1.2170 -2.5440
 7547SOL    HW234101   4.460   0.844   9.200  0.2476 -3.8919 -0.6653
 7548SOL     OW34102   2.445   2.606   6.839 -0.1385 -0.4293 -0.1902
 7548SOL    HW134103   2.528   2.603   6.887  0.5048  0.4788 -1.2597
 7548SOL    HW234104   2.461   2.559   6.758  1.6923  1.7635 -1.0810
 7549SOL     OW34105   3.570   2.703   6.205 -0.4723  1.2351 -0.2958
 7549SOL    HW134106   3.574   2.642   6.279 -2.5597 -0.4412 -1.5441
 7549SOL    HW234107   3.475   2.714   6.202 -0.9182 -2.3022  0.9651
 7550SOL     OW34108   1.961   3.372   4.042 -0.7597  0.9757  0.4327
 7550SOL    HW134109   1.904   3.302   4.073 -0.6266  0.8532  0.3993
 7550SOL    HW234110   1.991   3.411   4.124  0.6238 -0.6101  0.6839
 7551SOL     OW34111   4.639   4.405   2.129 -0.0406 -0.0251 -0.2227
 7551SOL    HW134112   4.597   4.437   2.049 -2.8701 -1.0818  0.8349
 7551SOL    HW234113   4.593   4.321   2.139  1.6975 -0.8891  0.4943
 7552SOL     OW34114   1.831   0.190  16.364  0.2944 -0.4977  0.3941
 7552SOL    HW134115   1.739   0.171  16.350  0.5338 -1.0222 -0.4515
 7552SOL    HW234116   1.837   0.283  16.343  0.8969 -1.2777 -2.7648
 7553SOL     OW34117   1.050   1.928   4.826  0.4191  0.1983  0.5192
 7553SOL    HW134118   1.032   1.839   4.857 -1.9515 -0.2925 -2.2517
 7553SOL    HW234119   1.071   1.970   4.909  0.4372  2.0636 -0.4460
 7554SOL     OW34120   0.652   3.272   2.600 -0.5049 -0.0595 -0.6256
 7554SOL    HW134121   0.563   3.264   2.636 -0.8850 -0.4651 -1.6520
 7554SOL    HW234122   0.703   3.253   2.679 -0.0821 -1.6903 -1.2946
 7555SOL     OW34123   3.366   0.732   4.917  0.4468  0.0422  0.0021
 7555SOL    HW134124   3.437   0.752   4.856  1.6507 -1.6173  0.8580
 7555SOL    HW234125   3.298   0.748   4.851  0.1424 -1.8399 -0.1495
 7556SOL     OW34126   2.245   4.003   3.740 -0.0674 -0.0182 -0.3706
 7556SOL    HW134127   2.288   4.008   3.825  0.2735  3.5317 -0.7441
 7556SOL    HW234128   2.219   4.095   3.730  1.5204  0.1323 -3.1995
 7557SOL     OW34129   0.777   0.950  15.329 -0.4319 -0.1205 -0.2590
 7557SOL    HW134130   0.824   1.033  15.340  0.0013 -0.3906 -0.0634
 7557SOL    HW234131   0.696   0.972  15.375 -1.9284 -1.3146 -2.3031
 7558SOL     OW34132   3.703   4.626   7.388  0.1730  0.4332 -0.3482
 7558SOL    HW134133   3.693   4.542   7.434  2.2849  0.2262 -0.2755
 7558SOL    HW234134   3.633   4.677   7.430  0.4448  1.9938 -1.8298
 7559SOL     OW34135   4.146   0.567   3.046  0.2470 -0.7146  0.0133
 7559SOL    HW134136   4.222   0.610   3.008  0.2812 -0.9479 -0.1789
 7559SOL    HW234137   4.129   0.489   2.993 -1.2815 -1.5880  1.7307
 7560SOL     OW34138   2.305   2.714  16.379  0.2317  0.5627  0.2388
 7560SOL    HW134139   2.388   2.700  16.424 -0.0821  0.6910  0.8482
 7560SOL    HW234140   2.288   2.627  16.343  0.5445  1.1648 -1.4155
 7561SOL     OW34141   0.076   0.447   2.644 -0.1029  0.1604  0.6397
 7561SOL    HW134142   0.147   0.426   2.583 -0.6734 -2.0955  0.7510
 7561SOL    HW234143   4.718   0.428   2.590  0.7238 -1.0860 -0.0970
 7562SOL     OW34144   0.641   2.262  14.932 -0.4055 -0.4221  0.6781
 7562SOL    HW134145   0.735   2.273  14.914 -0.2388 -0.9997  1.2082
 7562SOL    HW234146   0.596   2.342  14.905  0.6443 -0.0404  0.0368
 7563SOL     OW34147   3.868   3.157  16.160  0.0827 -0.2092 -0.3714
 7563SOL    HW134148   3.889   3.095  16.230  1.9967  0.5684 -0.2525
 7563SOL    HW234149   3.773   3.156  16.165  0.0294  0.6667 -1.3392
 7564SOL     OW34150   1.167   0.388   1.123 -0.5896  0.7326 -0.5135
 7564SOL    HW134151   1.187   0.445   1.197  1.5686  0.6541 -1.0370
 7564SOL    HW234152   1.202   0.438   1.049 -0.8039  0.8601 -0.5292
 7565SOL     OW34153   4.069   0.076   5.713  0.4240 -0.5455 -0.3677
 7565SOL    HW134154   4.065   0.011   5.783 -1.4804  1.4564  1.4004
 7565SOL    HW234155   4.038   0.028   5.636 -1.7065  1.4884 -0.7854
 7566SOL     OW34156   1.430   1.707   0.677  0.3322  0.0105  0.3648
 7566SOL    HW134157   1.483   1.786   0.688 -0.1772  0.3811  0.1337
 7566SOL    HW234158   1.440   1.689   0.771 -2.8712 -3.2836  0.0709
 7567SOL     OW34159   2.834   1.321   4.384  0.0032 -0.0090 -0.7026
 7567SOL    HW134160   2.812   1.395   4.441  2.0251  0.1304 -0.1196
 7567SOL    HW234161   2.929   1.328   4.381 -0.0268  0.6049 -0.1943
 7568SOL     OW34162   2.999   1.762   5.685  0.1353  0.0165 -0.3192
 7568SOL    HW134163   2.978   1.746   5.777 -2.8990  1.5456 -0.7393
 7568SOL    HW234164   2.955   1.844   5.662 -0.9794  0.0627  1.9343
 7569SOL     OW34165   2.808   0.671   7.982 -0.0892 -0.0866  0.0180
 7569SOL    HW134166   2.890   0.713   8.008 -0.3774  0.5579 -0.1191
 7569SOL    HW234167   2.818   0.581   8.014 -1.2706 -0.6134 -1.1015
 7570SOL     OW34168   4.087   0.303   5.520 -0.9589  0.3990 -0.4082
 7570SOL    HW134169   4.080   0.236   5.588 -0.9601 -0.0425 -0.8454
 7570SOL    HW234170   4.005   0.350   5.539 -1.1954  0.0750 -0.6234
 7571SOL     OW34171   4.547   1.531  15.725  0.2994  0.4295  0.4030
 7571SOL    HW134172   4.470   1.512  15.672 -0.3406 -1.7735  2.1028
 7571SOL    HW234173   4.561   1.442  15.757  0.7262  0.6679  0.8826
 7572SOL     OW34174   1.673   4.145   2.776  0.2654  0.4465  0.0736
 7572SOL    HW134175   1.650   4.238   2.781 -0.2314  0.2179  2.3698
 7572SOL    HW234176   1.701   4.143   2.685 -0.2170  2.1520 -0.1154
 7573SOL     OW34177   4.670   3.409  14.838  0.0878  0.0101 -0.0389
 7573SOL    HW134178   4.663   3.413  14.742  0.5089 -0.9742 -0.1152
 7573SOL    HW234179   4.689   3.502  14.853 -0.5408 -0.1953  1.9025
 7574SOL     OW34180   0.303   1.094  17.317 -0.5793 -0.1032  0.1729
 7574SOL    HW134181   0.278   1.109  17.408 -1.7334  2.0592 -0.5075
 7574SOL    HW234182   0.221   1.086  17.270  0.7931  0.4198 -2.3126
 7575SOL     OW34183   3.618   2.072   9.679  0.3457 -1.1461  0.1107
 7575SOL    HW134184   3.609   1.979   9.656 -2.1996 -0.5221 -1.4275
 7575SOL    HW234185   3.663   2.057   9.762  2.9373  0.9154 -0.8762
 7576SOL     OW34186   4.318   2.974   6.201 -0.2223 -0.5038  0.4689
 7576SOL    HW134187   4.238   2.922   6.211 -1.9515  1.9016 -1.1444
 7576SOL    HW234188   4.380   2.901   6.208 -0.7222 -0.8901  0.8536
 7577SOL     OW34189   2.623   4.419   3.645  0.0886  0.4296  0.0362
 7577SOL    HW134190   2.685   4.372   3.700  1.1771  0.3406 -1.2667
 7577SOL    HW234191   2.593   4.477   3.715  1.3124  0.5115  0.4937
 7578SOL     OW34192   4.518   1.146   8.305 -0.7218  0.4770 -0.3892
 7578SOL    HW134193   4.487   1.063   8.270 -0.9808  0.3726  0.0835
 7578SOL    HW234194   4.557   1.188   8.229  0.5769  1.3608  0.7446
 7579SOL     OW34195   0.918   2.697   4.245 -0.3799 -0.3025 -0.0582
 7579SOL    HW134196   0.985   2.761   4.270  0.2719  0.2522 -3.1780
 7579SOL    HW234197   0.963   2.638   4.185 -1.4212  2.0443 -3.1231
 7580SOL     OW34198   1.027   1.826   2.969 -0.0563  0.4048  0.2065
 7580SOL    HW134199   1.103   1.773   2.946 -1.1673 -1.6017  1.0713
 7580SOL    HW234200   1.027   1.899   2.908  1.1213  2.2148  2.4029
 7581SOL     OW34201   1.840   2.100   4.324  0.0642  0.4880 -0.3776
 7581SOL    HW134202   1.916   2.049   4.296 -2.2673 -1.6694 -2.8224
 7581SOL    HW234203   1.801   2.118   4.238 -1.7353 -2.4109 -0.1707
 7582SOL     OW34204   3.790   2.245   7.705 -1.0943  0.3553 -0.4359
 7582SOL    HW134205   3.728   2.181   7.670  0.0502 -1.3116  0.6010
 7582SOL    HW234206   3.724   2.302   7.746  1.1423  1.6467  1.3839
 7583SOL     OW34207   4.367   1.955  14.996  0.3446 -0.2597  0.6656
 7583SOL    HW134208   4.416   1.873  14.990 -0.9705 -1.0439  0.7067
 7583SOL    HW234209   4.422   2.004  15.057  0.2848 -0.8330  1.1880
 7584SOL     OW34210   3.411   4.696  12.945 -0.2638  0.7986 -0.6403
 7584SOL    HW134211   3.416   4.603  12.925 -2.0923  0.4040  0.8625
 7584SOL    HW234212   3.406   0.006  12.854  1.7101  0.1253 -0.9709
 7585SOL     OW34213   2.932   2.898   6.673  0.1842 -0.3500 -0.2108
 7585SOL    HW134214   2.902   2.816   6.634 -0.2320 -0.9375  1.3319
 7585SOL    HW234215   2.916   2.963   6.605 -1.7282 -1.0474 -0.4063
 7586SOL     OW34216   3.901   0.585   8.641 -0.1652 -0.0805  0.0304
 7586SOL    HW134217   3.946   0.539   8.571 -1.5163  0.1471 -1.0011
 7586SOL    HW234218   3.842   0.651   8.603 -1.3473 -0.1011  1.7707
 7587SOL     OW34219   4.070   0.302   2.115 -0.0370 -0.0661  0.3803
 7587SOL    HW134220   4.165   0.295   2.124  0.1045  0.0182 -0.9988
 7587SOL    HW234221   4.065   0.234   2.048  1.9591 -0.9103  1.0825
 7588SOL     OW34222   3.255   2.069   4.986  0.3765 -0.0236  0.0378
 7588SOL    HW134223   3.313   2.073   4.910 -0.1658  1.5303 -0.2982
 7588SOL    HW234224   3.174   2.101   4.946  1.2591  4.2648  1.5989
 7589SOL     OW34225   2.891   2.446   7.611  0.7061  0.0714 -0.3590
 7589SOL    HW134226   2.962   2.506   7.632  1.4798 -1.2030  0.6560
 7589SOL    HW234227   2.821   2.511   7.621 -0.1787 -1.0133  0.4474
 7590SOL     OW34228   3.271   0.825  10.436 -0.1174  0.2263 -0.5680
 7590SOL    HW134229   3.296   0.916  10.449 -2.6327  0.8978 -0.4725
 7590SOL    HW234230   3.287   0.813  10.342 -1.6586  0.6491 -0.8797
 7591SOL     OW34231   2.504   2.721   3.772  0.4311 -0.2329 -0.2803
 7591SOL    HW134232   2.413   2.704   3.749  1.0458 -0.7138 -2.3629
 7591SOL    HW234233   2.539   2.749   3.688  3.4396 -0.6834  0.8113
 7592SOL     OW34234   3.810   3.355   3.955 -0.0356  0.6009 -0.6316
 7592SOL    HW134235   3.786   3.272   3.995  0.9257  1.5057  1.7900
 7592SOL    HW234236   3.788   3.410   4.029  1.4654  0.2263  0.0984
 7593SOL     OW34237   3.695   1.548   5.493 -0.1189 -0.2610 -0.2489
 7593SOL    HW134238   3.619   1.498   5.523 -0.5802 -0.5183 -1.8178
 7593SOL    HW234239   3.760   1.517   5.555 -0.3873  0.1849  0.2529
 7594SOL     OW34240   3.962   3.529   9.065  0.0565 -0.0626 -0.6274
 7594SOL    HW134241   3.988   3.562   8.979  1.8561 -1.3153 -0.5697
 7594SOL    HW234242   3.893   3.593   9.083 -0.7193 -1.1784  0.3658
 7595SOL     OW34243   4.203   3.807   0.964  0.2078  0.0384 -0.6476
 7595SOL    HW134244   4.260   3.735   0.937  0.8561  1.2561 -2.5940
 7595SOL    HW234245   4.265   3.875   0.989 -1.2034  0.9363  0.4096
 7596SOL     OW34246   3.698   3.383  10.270  0.3099 -0.6089 -0.0011
 7596SOL    HW134247   3.603   3.384  10.254  0.0771 -0.5561  1.3839
 7596SOL    HW234248   3.711   3.291  10.297  0.2789 -0.3210  1.0048
 7597SOL     OW34249   1.717   1.260   6.952 -0.0443 -0.1258 -0.0302
 7597SOL    HW134250   1.704   1.212   7.034 -0.4478  0.8141  0.4527
 7597SOL    HW234251   1.664   1.203   6.896 -0.5562  0.6679 -0.3584
 7598SOL     OW34252   3.952   2.758   8.401  0.7672 -0.6717  0.5025
 7598SOL    HW134253   4.014   2.686   8.416  2.1228  0.7720  1.9366
 7598SOL    HW234254   3.896   2.715   8.337  2.4216 -1.2972 -0.5428
 7599SOL     OW34255   3.102   1.634   4.448 -0.1964 -0.2827  0.9454
 7599SOL    HW134256   3.042   1.644   4.373 -0.2351 -0.5266  0.9453
 7599SOL    HW234257   3.096   1.728   4.464  0.1247 -0.3596  1.4872
 7600SOL     OW34258   3.413   2.391  15.818 -0.3085  0.0077  0.4633
 7600SOL    HW134259   3.396   2.301  15.845  0.3513  0.0352  0.9737
 7600SOL    HW234260   3.360   2.447  15.875  1.9477 -0.5639  3.1463
 7601SOL     OW34261   2.324   2.181  15.969 -0.4672 -0.1523 -0.8884
 7601SOL    HW134262   2.268   2.103  15.960 -0.0130 -0.9282  3.0828
 7601SOL    HW234263   2.276   2.225  16.039 -0.0088  0.9043 -1.2331
 7602SOL     OW34264   3.794   4.580   9.363  0.0724 -0.4041 -0.9069
 7602SOL    HW134265   3.759   4.660   9.325 -1.8234 -0.2335  1.1696
 7602SOL    HW234266   3.765   4.592   9.454  1.9600 -1.1420 -0.1996
 7603SOL     OW34267   2.327   2.732   1.822 -0.0672  0.4564 -0.0344
 7603SOL    HW134268   2.393   2.675   1.862 -1.5115  0.1952  2.0103
 7603SOL    HW234269   2.377   2.761   1.746  0.6378  0.2747  0.3623
 7604SOL     OW34270   2.634   1.163   4.660 -0.3397 -0.3171 -0.5359
 7604SOL    HW134271   2.717   1.193   4.697 -1.5485  0.6890  1.3612
 7604SOL    HW234272   2.665   1.132   4.575  0.8385  2.3475 -1.0760
 7605SOL     OW34273   2.182   3.329   2.676  0.2796  0.1710 -0.3358
 7605SOL    HW134274   2.113   3.269   2.650  0.1022 -0.4704  1.6050
 7605SOL    HW234275   2.254   3.291   2.626 -0.5881  1.5747 -2.6270
 7606SOL     OW34276   3.072   3.759   4.382  0.4365  0.6422  0.0974
 7606SOL    HW134277   3.139   3.716   4.329  0.7035  1.2727 -0.0769
 7606SOL    HW234278   3.024   3.815   4.321 -1.0574 -0.3049  0.3888
 7607SOL     OW34279   2.067   0.161  13.432  0.5806 -0.6137  0.2550
 7607SOL    HW134280   2.090   0.207  13.351  0.2472  1.6067  1.4155
 7607SOL    HW234281   2.153   0.133  13.463  0.5245 -2.7073 -1.4863
 7608SOL     OW34282   0.432   1.223  15.367  0.1252 -0.4319 -0.5787
 7608SOL    HW134283   0.352   1.171  15.358 -0.6324  0.4016  1.3260
 7608SOL    HW234284   0.486   1.166  15.422 -0.4464  0.4208  0.8646
 7609SOL     OW34285   1.234   2.333   7.236 -0.0044  0.2339 -0.1757
 7609SOL    HW134286   1.239   2.418   7.281 -1.5686 -0.1048  0.6335
 7609SOL    HW234287   1.274   2.358   7.153 -0.0858  1.2425  0.0830
 7610SOL     OW34288   1.792   4.372   7.806  0.3816  0.5297  0.1944
 7610SOL    HW134289   1.704   4.368   7.769 -0.0234 -2.5841  1.5227
 7610SOL    HW234290   1.780   4.316   7.883 -0.7976  2.2639  1.2728
 7611SOL     OW34291   2.442   1.058  14.608  0.3884 -0.0631  0.5421
 7611SOL    HW134292   2.395   1.134  14.573  0.2634 -1.0042 -1.3147
 7611SOL    HW234293   2.481   1.011  14.535  0.2186  2.8037 -1.3832
 7612SOL     OW34294   0.987   0.721   1.153 -0.0462  0.0911 -0.1461
 7612SOL    HW134295   0.994   0.793   1.089  0.8987  0.5873  0.5188
 7612SOL    HW234296   1.021   0.770   1.227  2.1843 -1.5580 -0.1007
 7613SOL     OW34297   4.645   2.382   9.173 -0.0560 -0.3236 -0.2021
 7613SOL    HW134298   0.002   2.425   9.213  0.8335 -0.7605 -1.4617
 7613SOL    HW234299   4.581   2.426   9.230 -1.7502 -0.8633 -1.6704
 7614SOL     OW34300   3.592   2.846   4.367 -0.1857  0.4355 -0.2244
 7614SOL    HW134301   3.595   2.781   4.438  0.9237 -0.2920 -0.9459
 7614SOL    HW234302   3.671   2.892   4.394  0.8854 -0.5977 -1.6270
 7615SOL     OW34303   4.258   1.070   3.170  0.8150 -0.3926 -0.6336
 7615SOL    HW134304   4.335   1.059   3.225  0.4474 -2.1136 -0.4605
 7615SOL    HW234305   4.210   0.988   3.183 -2.2708  1.1209 -2.2653
 7616SOL     OW34306   4.390   4.366   4.995 -0.4033 -0.5914  0.4803
 7616SOL    HW134307   4.334   4.302   4.951 -0.5716  1.1399 -1.8090
 7616SOL    HW234308   4.383   4.428   4.923  0.0793 -1.6023 -0.4473
 7617SOL     OW34309   1.994   3.643   3.025  0.0184  0.0477 -0.4021
 7617SOL    HW134310   1.925   3.709   3.017  0.4200  0.5397  0.1019
 7617SOL    HW234311   2.013   3.621   2.934  1.0730  1.8085 -0.6212
 7618SOL     OW34312   3.079   1.287   6.853 -0.5451  0.3531 -0.0898
 7618SOL    HW134313   3.095   1.210   6.907 -1.5628 -0.5202 -1.0434
 7618SOL    HW234314   2.996   1.272   6.808 -0.7462 -1.7177  0.9695
 7619SOL     OW34315   1.870   4.061   0.672  0.2668  0.1544 -0.3025
 7619SOL    HW134316   1.857   4.010   0.752  0.6107 -0.5051 -0.6699
 7619SOL    HW234317   1.799   4.125   0.680 -0.3068 -0.2053 -2.4802
 7620SOL     OW34318   2.313   3.665   7.841  0.2208 -0.1194 -0.6382
 7620SOL    HW134319   2.295   3.715   7.920  0.3358  1.1380 -1.4167
 7620SOL    HW234320   2.318   3.736   7.778  0.6193  0.1556 -0.2932
 7621SOL     OW34321   1.090   2.409   5.907 -0.7073 -0.2540  0.2615
 7621SOL    HW134322   1.172   2.458   5.909 -1.0304  0.3083 -0.1638
 7621SOL    HW234323   1.074   2.391   6.000  1.9627  0.6050  0.8914
 7622SOL     OW34324   3.867   1.104  10.998 -0.1434 -0.2316 -0.2020
 7622SOL    HW134325   3.880   1.119  11.091 -0.3297 -1.7953  0.0759
 7622SOL    HW234326   3.900   1.015  10.987 -1.4389 -0.7436  0.0498
 7623SOL     OW34327   2.872   0.383   3.723 -0.1003 -0.3148 -0.2166
 7623SOL    HW134328   2.841   0.457   3.671 -1.0561 -0.1396  0.5954
 7623SOL    HW234329   2.872   0.320   3.651 -1.5395  0.5217 -0.9360
 7624SOL     OW34330   2.534   0.398   4.447  0.4684 -0.1706  0.4206
 7624SOL    HW134331   2.575   0.359   4.370  0.6278  2.3360 -0.7542
 7624SOL    HW234332   2.474   0.454   4.398  0.3389  0.1704  0.9736
 7625SOL     OW34333   0.251   2.098  16.233  0.6182  0.3287  0.4763
 7625SOL    HW134334   0.253   2.193  16.248 -0.7473  0.6050 -1.0095
 7625SOL    HW234335   0.177   2.086  16.174  0.7411  2.1449 -0.0370
 7626SOL     OW34336   0.701   3.263  11.792 -0.1682 -0.0719 -0.3736
 7626SOL    HW134337   0.629   3.201  11.808  0.4685 -0.7305 -0.1006
 7626SOL    HW234338   0.688   3.288  11.700  0.5148 -0.1644 -0.4928
 7627SOL     OW34339   4.181   2.922   5.009  0.0289  0.0333 -0.5018
 7627SOL    HW134340   4.206   3.006   5.048  0.9200  0.2898 -1.6291
 7627SOL    HW234341   4.090   2.942   4.988 -1.0075 -2.0296  2.0051
 7628SOL     OW34342   2.421   3.530   3.936 -0.2237 -0.7690 -0.5950
 7628SOL    HW134343   2.477   3.465   3.977 -0.8343 -0.4802  0.6833
 7628SOL    HW234344   2.341   3.476   3.930  1.0956 -2.5552 -2.2000
 7629SOL     OW34345   2.042   3.219   2.340 -0.3400  0.1570  0.4406
 7629SOL    HW134346   2.047   3.312   2.361 -0.5280  0.7703 -2.1358
 7629SOL    HW234347   1.999   3.172   2.411 -0.1647  2.7515  2.2597
 7630SOL     OW34348   1.601   2.969   7.102 -0.1712  0.1190 -0.3533
 7630SOL    HW134349   1.648   3.024   7.039 -1.2140 -1.4014 -2.4710
 7630SOL    HW234350   1.509   2.988   7.085 -0.8571 -2.4823  0.4539
 7631SOL     OW34351   2.148   2.294  11.057 -0.3986 -0.5869  0.0758
 7631SOL    HW134352   2.133   2.230  11.127 -0.6516 -0.4757  0.1211
 7631SOL    HW234353   2.181   2.244  10.982  1.3538  2.6367 -1.2875
 7632SOL     OW34354   4.050   2.576  13.567 -0.4378  0.6232 -0.3097
 7632SOL    HW134355   3.977   2.591  13.507 -1.1912 -2.1764 -0.1279
 7632SOL    HW234356   4.077   2.501  13.513  2.2771  1.1460  0.3255
 7633SOL     OW34357   4.396   2.645   8.709 -0.3391 -0.0319  0.3432
 7633SOL    HW134358   4.400   2.715   8.775 -1.9411  0.5250 -0.1360
 7633SOL    HW234359   4.375   2.565   8.757 -0.6438 -0.4434 -0.4695
 7634SOL     OW34360   2.410   2.417   5.303  0.4582  0.2293  0.1951
 7634SOL    HW134361   2.356   2.338   5.299 -1.2659  1.3603  1.2025
 7634SOL    HW234362   2.344   2.484   5.287  0.4799 -0.6929 -3.7479
 7635SOL     OW34363   4.074   2.841  13.279 -0.5543  0.1139 -0.0842
 7635SOL    HW134364   4.072   2.914  13.216 -0.9330  0.4847  0.3593
 7635SOL    HW234365   4.102   2.882  13.361 -3.6272 -0.7744  1.4026
 7636SOL     OW34366   1.252   1.258   2.770  0.3540  0.1056  0.0601
 7636SOL    HW134367   1.219   1.188   2.714 -0.0747 -1.6056  2.4400
 7636SOL    HW234368   1.267   1.218   2.856 -1.1315  1.3045  0.8844
 7637SOL     OW34369   0.729   2.947   3.841  0.2226  0.2669  0.2039
 7637SOL    HW134370   0.710   3.033   3.803  0.5672  0.3388  0.1911
 7637SOL    HW234371   0.822   2.964   3.857  0.1505 -0.3965  1.3322
 7638SOL     OW34372   4.564   1.947   8.625  0.1012  0.2909  0.1270
 7638SOL    HW134373   4.646   1.996   8.614 -0.1668  0.5730 -0.6132
 7638SOL    HW234374   4.495   2.013   8.635 -2.4988 -2.2660 -1.0170
 7639SOL     OW34375   2.229   2.339   1.532  0.5411  0.3703  0.0703
 7639SOL    HW134376   2.204   2.431   1.539  0.3570  0.3306 -0.0607
 7639SOL    HW234377   2.176   2.312   1.457 -0.7835  0.5823  0.9362
 7640SOL     OW34378   1.406   3.533   4.603 -0.1912  0.1247 -0.2629
 7640SOL    HW134379   1.354   3.604   4.641  0.5060  1.2196 -1.3349
 7640SOL    HW234380   1.482   3.575   4.562 -1.6268  1.7237 -1.2860
 7641SOL     OW34381   1.050   3.913   7.352  0.1729 -0.0826 -0.0899
 7641SOL    HW134382   1.136   3.950   7.373  0.0606 -0.5603  1.1650
 7641SOL    HW234383   1.042   3.911   7.256  0.6360  0.9305 -0.1522
 7642SOL     OW34384   0.911   0.196   2.496  0.1208  0.1324 -0.2486
 7642SOL    HW134385   0.847   0.131   2.467  0.6671 -0.3783 -0.3253
 7642SOL    HW234386   0.860   0.217   2.573 -0.0859 -0.6643 -0.1646
 7643SOL     OW34387   2.051   3.566   2.776 -0.3730  0.2460 -0.3838
 7643SOL    HW134388   1.976   3.508   2.761 -0.1692 -0.0149 -0.3953
 7643SOL    HW234389   2.119   3.500   2.767  0.2761  0.8805 -0.1027
 7644SOL     OW34390   4.614   1.767   2.322 -0.3599  0.6488 -0.2102
 7644SOL    HW134391   4.688   1.728   2.369  0.3703  1.0121 -1.0716
 7644SOL    HW234392   4.551   1.695   2.332  0.6156 -0.1455  0.2803
 7645SOL     OW34393   2.650   3.070   7.803  0.2097  0.1883 -0.4124
 7645SOL    HW134394   2.573   3.025   7.837 -1.0470  2.6701 -0.0215
 7645SOL    HW234395   2.721   3.015   7.838  0.5772 -0.1036 -1.6224
 7646SOL     OW34396   3.088   0.502   1.594  0.1371 -0.2111  0.2945
 7646SOL    HW134397   3.093   0.506   1.690  4.1536  0.6309  0.0722
 7646SOL    HW234398   3.162   0.554   1.563  0.8971 -2.5304 -1.7678
 7647SOL     OW34399   2.369   4.577  11.761 -0.2121  0.2659  0.3578
 7647SOL    HW134400   2.360   4.661  11.806  1.4273  0.9240 -0.5369
 7647SOL    HW234401   2.417   4.616  11.687  1.6383 -1.4706  0.6451
 7648SOL     OW34402   4.394   1.552   0.304  0.2095  0.1697  0.5563
 7648SOL    HW134403   4.343   1.623   0.263  0.6974 -0.2109 -0.7102
 7648SOL    HW234404   4.481   1.588   0.292  0.6608 -1.0519  0.1751
 7649SOL     OW34405   2.545   0.943   4.785  0.0066  0.3975  0.1668
 7649SOL    HW134406   2.629   0.931   4.828 -0.1590  0.9125  0.6291
 7649SOL    HW234407   2.560   1.025   4.738 -0.6873  1.9386  2.6816
 7650SOL     OW34408   3.707   1.354  10.932  0.0339  0.1087 -0.3977
 7650SOL    HW134409   3.768   1.282  10.916  1.6280  1.1807  0.9719
 7650SOL    HW234410   3.621   1.312  10.936 -0.3924  1.2298  1.9654
 7651SOL     OW34411   2.206   1.424   4.280 -0.6946  0.4228 -0.1935
 7651SOL    HW134412   2.215   1.511   4.319  0.3951 -0.3605  1.3376
 7651SOL    HW234413   2.194   1.447   4.188  1.9406 -0.3322 -0.7542
 7652SOL     OW34414   2.303   0.101  14.710  1.3163 -0.1786  0.2026
 7652SOL    HW134415   2.327   0.189  14.681 -2.1901  1.0123  0.8298
 7652SOL    HW234416   2.305   0.115  14.805  0.3976  0.5174  0.1225
 7653SOL     OW34417   3.036   0.732   2.621  0.1821  0.1624  0.1234
 7653SOL    HW134418   2.966   0.737   2.556 -0.9361 -0.4949  1.2858
 7653SOL    HW234419   3.120   0.734   2.573 -0.3195  0.8662 -0.7339
 7654SOL     OW34420   1.822   1.328   0.993 -0.2848 -0.1883  0.1464
 7654SOL    HW134421   1.851   1.414   1.022 -1.9557 -0.4054  2.5065
 7654SOL    HW234422   1.888   1.301   0.929  0.4899 -1.0830  1.3385
 7655SOL     OW34423   0.937   2.951   2.515 -0.6191 -0.7461  0.4124
 7655SOL    HW134424   0.940   2.952   2.611  1.1547 -1.2087  0.3492
 7655SOL    HW234425   0.948   3.044   2.496  0.9107 -1.9419 -4.4456
 7656SOL     OW34426   3.035   0.380  12.181  0.2481 -0.1220 -0.2639
 7656SOL    HW134427   3.026   0.292  12.144 -0.8476  0.8163 -2.2515
 7656SOL    HW234428   3.122   0.399  12.146  1.4866 -1.0887  2.3157
 7657SOL     OW34429   3.955   4.676  16.053 -0.9254  0.6391 -0.1200
 7657SOL    HW134430   3.984   4.691  15.963 -2.5571  0.6119 -0.6502
 7657SOL    HW234431   3.876   0.011  16.061 -1.1259  0.4247 -0.6489
 7658SOL     OW34432   0.200   0.569  15.269 -0.5668 -0.3298  0.0789
 7658SOL    HW134433   0.216   0.509  15.197 -0.0214  1.2275 -1.1186
 7658SOL    HW234434   0.230   0.523  15.348 -1.6937  0.4533  0.9718
 7659SOL     OW34435   4.589   3.448   3.883 -0.4517  0.1038  0.2873
 7659SOL    HW134436   4.503   3.417   3.855 -0.4163  0.0209  0.2699
 7659SOL    HW234437   4.588   3.432   3.978 -1.7761 -0.8597  0.1163
 7660SOL     OW34438   3.663   1.554  16.615 -0.2499  0.7378  0.2109
 7660SOL    HW134439   3.645   1.513  16.530  1.1495 -0.2021  0.3779
 7660SOL    HW234440   3.572   1.548  16.644  0.1561 -0.3119  1.2250
 7661SOL     OW34441   4.075   3.390  15.966 -0.0337 -0.0410 -0.2305
 7661SOL    HW134442   4.004   3.454  15.974 -1.4439 -1.4768 -1.3072
 7661SOL    HW234443   4.045   3.317  16.021  1.0639 -0.3114  0.0009
 7662SOL     OW34444   1.440   0.674  11.014  0.0574 -0.0690 -0.0513
 7662SOL    HW134445   1.461   0.744  10.952  1.0480 -0.4188 -0.1190
 7662SOL    HW234446   1.424   0.727  11.092  2.3726 -0.1819  0.4964
 7663SOL     OW34447   4.324   2.224   6.471  0.0204  0.5676  0.1957
 7663SOL    HW134448   4.290   2.211   6.559 -0.1406 -0.5003 -0.0293
 7663SOL    HW234449   4.396   2.285   6.487 -0.4035  1.3270 -0.7813
 7664SOL     OW34450   1.862   3.756   7.175 -0.0320 -0.3629 -0.4383
 7664SOL    HW134451   1.884   3.823   7.239  1.2691 -0.5505 -0.6898
 7664SOL    HW234452   1.775   3.781   7.146 -0.2229 -1.1647 -0.5597
 7665SOL     OW34453   3.430   2.636  15.357 -0.2026  0.1445  0.5170
 7665SOL    HW134454   3.451   2.647  15.450 -1.3523  0.2125  0.7797
 7665SOL    HW234455   3.365   2.566  15.352  0.2016 -0.3401  2.2142
 7666SOL     OW34456   1.119   0.074   1.331 -0.2501 -0.1086 -0.0678
 7666SOL    HW134457   1.078   4.706   1.336 -2.0835  0.7397 -0.2404
 7666SOL    HW234458   1.064   0.128   1.388  0.5232 -0.4087  0.9702
 7667SOL     OW34459   0.126   2.629   6.932  0.3202 -0.0027 -0.2889
 7667SOL    HW134460   0.212   2.672   6.941 -0.0177  0.3968  0.9821
 7667SOL    HW234461   0.062   2.699   6.921  1.3044  1.1025  1.1119
 7668SOL     OW34462   0.686   1.837  15.577  0.4119  0.9998  0.1659
 7668SOL    HW134463   0.729   1.921  15.596  0.1390  1.4174 -1.0385
 7668SOL    HW234464   0.708   1.822  15.485  0.7309  1.5221  0.1523
 7669SOL     OW34465   2.183   4.446   1.956  0.2239 -0.1047 -0.2794
 7669SOL    HW134466   2.134   4.415   1.881 -0.2604  0.4531 -0.1898
 7669SOL    HW234467   2.189   4.384   2.029 -0.4277 -0.2840 -0.3877
 7670SOL     OW34468   4.604   1.045   0.112  0.3964 -0.0517  0.5059
 7670SOL    HW134469   4.671   0.977   0.120  0.3081 -0.3203 -0.9783
 7670SOL    HW234470   4.645   1.114   0.059  0.1590  0.5559  1.1169
 7671SOL     OW34471   3.426   2.050   8.219 -0.4544  0.2875 -0.2263
 7671SOL    HW134472   3.460   1.991   8.287 -3.0988  0.3673  1.1794
 7671SOL    HW234473   3.487   2.028   8.149  0.2351  2.6620 -0.3665
 7672SOL     OW34474   1.855   1.312   0.220  0.0442 -0.1997  0.0600
 7672SOL    HW134475   1.940   1.268   0.222  0.2063  0.1707  1.3748
 7672SOL    HW234476   1.856   1.343   0.129 -0.5060 -1.3804 -0.3410
 7673SOL     OW34477   0.795   2.049   5.960  0.4393  0.6653  0.7610
 7673SOL    HW134478   0.726   1.986   5.980  1.5413 -0.4432  1.1229
 7673SOL    HW234479   0.836   2.039   6.046  3.4525 -0.7907 -0.8440
 7674SOL     OW34480   1.867   1.969   9.574  0.4136 -0.6804 -0.3447
 7674SOL    HW134481   1.918   2.046   9.597  1.2832 -0.6879 -2.2191
 7674SOL    HW234482   1.869   1.912   9.650 -3.5232 -0.7405 -0.2699
 7675SOL     OW34483   2.093   0.004   3.541 -0.5504 -0.2459 -0.8792
 7675SOL    HW134484   2.071   4.656   3.605 -0.2158  0.8686  0.3989
 7675SOL    HW234485   2.151   4.678   3.480 -0.1456  0.1603 -0.7878
 7676SOL     OW34486   3.836   3.738   1.834  0.3367  0.1309  0.0398
 7676SOL    HW134487   3.829   3.833   1.847 -1.9028  0.3544 -2.7408
 7676SOL    HW234488   3.895   3.714   1.905 -0.4420  1.0402  0.9837
 7677SOL     OW34489   3.110   4.620  15.765  0.7730  0.1641 -0.4689
 7677SOL    HW134490   3.021   4.604  15.735  1.3264  0.2136 -2.1098
 7677SOL    HW234491   3.125   4.691  15.703 -0.1069  0.7229 -0.0367
 7678SOL     OW34492   2.006   2.578   5.100  0.0477  0.0138 -0.4592
 7678SOL    HW134493   1.918   2.599   5.132 -0.4044 -0.5080 -1.3793
 7678SOL    HW234494   2.051   2.557   5.182 -0.3496  0.2557 -0.1781
 7679SOL     OW34495   0.127   1.393  14.619 -0.0988 -0.3706  0.0996
 7679SOL    HW134496   0.066   1.449  14.573  1.0264  1.3503  0.7102
 7679SOL    HW234497   0.200   1.397  14.557  2.2316 -2.4398  2.6970
 7680SOL     OW34498   2.925   3.186   2.385 -0.4376 -0.2662 -0.2265
 7680SOL    HW134499   2.845   3.158   2.340 -0.7825  1.4089 -0.6561
 7680SOL    HW234500   2.984   3.138   2.327  1.5912 -0.3295  1.9085
 7681SOL     OW34501   4.187   0.994   8.552 -0.2485  0.2375  0.0071
 7681SOL    HW134502   4.234   0.910   8.552  0.0955  0.4293 -0.2633
 7681SOL    HW234503   4.100   0.975   8.585  0.4593 -2.7123  0.1615
 7682SOL     OW34504   2.606   3.730  13.417 -0.5705 -0.5843 -0.4411
 7682SOL    HW134505   2.697   3.703  13.427 -1.1676 -1.5364  2.2664
 7682SOL    HW234506   2.575   3.738  13.507  0.1973 -0.9297 -0.1440
 7683SOL     OW34507   2.695   2.713   8.730  0.0636 -0.0878 -0.0922
 7683SOL    HW134508   2.698   2.699   8.636  0.1594 -2.3624  0.2478
 7683SOL    HW234509   2.646   2.795   8.728  0.2339  0.0090 -0.2673
 7684SOL     OW34510   3.459   4.228   5.874  0.5448 -0.5198  0.7450
 7684SOL    HW134511   3.536   4.186   5.913 -1.0309 -2.4538  1.7421
 7684SOL    HW234512   3.467   4.204   5.781  1.4407 -1.0563  0.9582
 7685SOL     OW34513   3.617   1.034  17.190  0.5527  0.2977 -0.6433
 7685SOL    HW134514   3.631   0.939  17.181 -0.9520 -0.0048  0.3120
 7685SOL    HW234515   3.688   1.049  17.253  2.8149  0.9971 -3.3947
 7686SOL     OW34516   4.340   2.569   7.579  0.7125 -0.1207  0.6079
 7686SOL    HW134517   4.246   2.584   7.568  0.1702 -1.9201  2.7736
 7686SOL    HW234518   4.343   2.476   7.600  0.0136 -0.1509  0.5773
 7687SOL     OW34519   3.599   4.089   9.529  0.5905 -0.0188 -0.2711
 7687SOL    HW134520   3.585   3.997   9.554  0.1703  0.6914  2.1007
 7687SOL    HW234521   3.510   4.122   9.526  0.8950  0.9273  1.0941
 7688SOL     OW34522   0.589   2.552   4.085 -0.4358  0.6773 -0.1812
 7688SOL    HW134523   0.646   2.482   4.117 -0.9478  0.3942  0.1057
 7688SOL    HW234524   0.657   2.611   4.052 -0.0158 -0.1225 -0.7496
 7689SOL     OW34525   4.280   3.073   5.614 -0.0671  0.5907  0.0102
 7689SOL    HW134526   4.249   3.043   5.700  1.1065  0.1261  0.2686
 7689SOL    HW234527   4.353   3.129   5.640 -0.6261  1.0365  0.6280
 7690SOL     OW34528   0.856   3.742  15.737  0.3834  0.3254 -0.0912
 7690SOL    HW134529   0.833   3.789  15.656  0.4361  1.9783  0.8483
 7690SOL    HW234530   0.859   3.819  15.794 -1.3184  0.4518 -0.1703
 7691SOL     OW34531   0.272   2.752   4.101  0.4029 -0.5925  0.5325
 7691SOL    HW134532   0.212   2.678   4.114 -1.6361  1.0373  0.4363
 7691SOL    HW234533   0.218   2.819   4.058  1.6896  0.2544  0.2366
 7692SOL     OW34534   1.918   4.282   2.017  0.3799  0.3520 -0.2211
 7692SOL    HW134535   1.982   4.275   1.947  1.4261 -1.8269  0.9614
 7692SOL    HW234536   1.924   4.192   2.048 -0.5323  0.4986  0.4132
 7693SOL     OW34537   3.004   1.137   7.994  0.3969  0.1473  0.4291
 7693SOL    HW134538   2.922   1.132   7.944 -0.6781  0.6487  2.1533
 7693SOL    HW234539   3.002   1.058   8.048 -3.5567  1.2148  1.7890
 7694SOL     OW34540   3.211   3.691  13.614 -0.7183 -0.3946  0.0049
 7694SOL    HW134541   3.159   3.704  13.535  0.1760  0.2296 -0.4748
 7694SOL    HW234542   3.264   3.620  13.579  1.8401  1.0262  1.0290
 7695SOL     OW34543   3.928   0.744   7.813  0.2081  0.4169  0.0428
 7695SOL    HW134544   3.862   0.722   7.880 -0.9672  1.2037 -0.8468
 7695SOL    HW234545   3.934   0.837   7.832 -2.8479  1.2545 -3.1232
 7696SOL     OW34546   3.270   2.500  14.613  0.3481 -0.2906  0.2090
 7696SOL    HW134547   3.303   2.452  14.689  0.4860  0.3507  0.5452
 7696SOL    HW234548   3.229   2.427  14.564  1.1856  0.1520 -1.1563
 7697SOL     OW34549   1.188   2.893  13.230  0.2654 -0.0189 -0.1102
 7697SOL    HW134550   1.280   2.885  13.253 -0.0187  0.1761  1.0891
 7697SOL    HW234551   1.157   2.947  13.302 -0.5151  0.1355 -0.5646
 7698SOL     OW34552   4.657   4.650   2.897  0.1816  0.2458 -0.1332
 7698SOL    HW134553   0.019   4.601   2.905 -0.0709 -0.4532 -1.8374
 7698SOL    HW234554   4.600   4.597   2.841  0.9873 -2.5871  1.7716
 7699SOL     OW34555   4.100   2.256   4.483  0.3667  0.2610  0.1254
 7699SOL    HW134556   4.148   2.272   4.564 -1.2531  1.8357  0.7723
 7699SOL    HW234557   4.146   2.177   4.456 -1.8048 -1.1690  0.6397
 7700SOL     OW34558   1.121   2.010  11.883 -0.3067 -0.2434 -0.1029
 7700SOL    HW134559   1.208   2.038  11.853 -0.0960 -1.2249 -0.4047
 7700SOL    HW234560   1.119   2.056  11.967  2.2907 -0.8503  0.2926
 7701SOL     OW34561   1.565   1.395   0.923 -0.6725  0.3468  0.3621
 7701SOL    HW134562   1.656   1.364   0.922 -0.8279 -0.0939 -0.4659
 7701SOL    HW234563   1.547   1.387   1.016 -0.7550  0.6556  0.3724
 7702SOL     OW34564   1.974   0.777   8.306  0.0103 -0.4970 -0.0058
 7702SOL    HW134565   1.967   0.872   8.302 -1.6727 -0.5607  1.6159
 7702SOL    HW234566   1.965   0.765   8.400  0.0709 -3.3846 -0.3479
 7703SOL     OW34567   3.515   0.774   1.626  0.6882 -0.0901  0.4093
 7703SOL    HW134568   3.573   0.760   1.701 -0.0960  1.0708  1.2445
 7703SOL    HW234569   3.572   0.827   1.571 -0.7923 -0.4530 -1.4527
 7704SOL     OW34570   1.810   2.097   5.936  0.4100  0.4421 -0.4112
 7704SOL    HW134571   1.744   2.040   5.976  0.3911  0.8656  0.1453
 7704SOL    HW234572   1.759   2.170   5.901  1.0925  2.0230  1.8876
 7705SOL     OW34573   1.161   3.511   8.072  0.3272  0.1755  0.0364
 7705SOL    HW134574   1.250   3.476   8.071  0.3286  0.1335  0.9808
 7705SOL    HW234575   1.172   3.599   8.108  0.2667 -0.0174  0.5302
 7706SOL     OW34576   0.781   0.544   2.182 -0.1966 -0.5502  0.1736
 7706SOL    HW134577   0.723   0.470   2.166 -0.5002 -0.0823 -0.8832
 7706SOL    HW234578   0.834   0.546   2.102 -0.9970  0.5065 -0.3269
 7707SOL     OW34579   0.975   3.739   5.746 -0.1053 -0.4614 -0.3769
 7707SOL    HW134580   0.895   3.719   5.794  0.4872  1.6417  1.4376
 7707SOL    HW234581   0.948   3.820   5.704  0.8822  1.1041  2.0359
 7708SOL     OW34582   2.893   0.861   3.486 -0.1199 -0.0162 -0.0918
 7708SOL    HW134583   2.958   0.927   3.463  0.3467 -0.0597  1.0995
 7708SOL    HW234584   2.816   0.904   3.449  1.9220  1.8465 -2.1419
 7709SOL     OW34585   2.824   0.803   2.439 -0.7498  0.7341 -0.4260
 7709SOL    HW134586   2.868   0.801   2.354  0.0666 -2.2134  0.0490
 7709SOL    HW234587   2.783   0.888   2.423  0.1578  0.8720 -2.0671
 7710SOL     OW34588   3.902   1.352   4.840  0.3410 -0.1179  0.5960
 7710SOL    HW134589   3.810   1.328   4.846  0.3350 -1.0424 -3.2504
 7710SOL    HW234590   3.898   1.446   4.820 -0.9177 -0.8847 -2.5632
 7711SOL     OW34591   2.708   4.531   2.793 -0.3135  0.5374  0.7737
 7711SOL    HW134592   2.776   4.586   2.753 -1.9561  0.8248 -1.5977
 7711SOL    HW234593   2.627   4.578   2.777 -0.5102 -0.2357 -0.5055
 7712SOL     OW34594   4.074   4.453  10.639 -0.1734 -0.3138  0.5117
 7712SOL    HW134595   4.078   4.374  10.692  0.2617  0.7460  2.0741
 7712SOL    HW234596   4.147   4.499  10.680  1.0386 -1.4121 -0.4391
 7713SOL     OW34597   0.773   2.518  14.641 -0.0264  0.5152 -0.2043
 7713SOL    HW134598   0.789   2.602  14.684  1.3299 -0.3105  0.8990
 7713SOL    HW234599   0.707   2.491  14.704  0.3939 -1.1716 -0.4862
 7714SOL     OW34600   3.729   2.397   7.273  0.2444  0.0325 -0.0434
 7714SOL    HW134601   3.795   2.347   7.225 -1.2133 -1.1954 -0.7361
 7714SOL    HW234602   3.771   2.380   7.357 -1.9102  0.2763  1.0823
 7715SOL     OW34603   2.103   0.884   3.192  0.2613 -0.0104 -0.3127
 7715SOL    HW134604   2.111   0.789   3.178  2.3149  0.4524 -2.3474
 7715SOL    HW234605   2.012   0.887   3.221  0.3959 -0.6092  0.1676
 7716SOL     OW34606   0.774   1.496   0.400  0.2366  0.4512  0.0799
 7716SOL    HW134607   0.840   1.538   0.344 -1.3189  1.4076 -1.0310
 7716SOL    HW234608   0.758   1.412   0.356 -2.3614  1.3593 -0.6908
 7717SOL     OW34609   3.050   1.736   8.356  0.1010 -0.2075  0.0440
 7717SOL    HW134610   3.042   1.676   8.431 -3.0175  0.7450  0.4628
 7717SOL    HW234611   3.102   1.808   8.390  1.2113 -1.5189  1.1396
 7718SOL     OW34612   1.100   3.110   5.367 -0.1667  0.1755 -0.2577
 7718SOL    HW134613   1.009   3.094   5.390  0.5053 -1.5205  1.2021
 7718SOL    HW234614   1.145   3.027   5.379 -0.4331  0.3658  2.1279
 7719SOL     OW34615   1.764   0.646   6.523 -0.1185 -0.6442  0.0332
 7719SOL    HW134616   1.677   0.659   6.484  0.4911  0.3861 -1.0019
 7719SOL    HW234617   1.789   0.557   6.501 -0.9376 -0.8345 -0.1526
 7720SOL     OW34618   1.398   0.248   6.803  0.6261 -0.6177 -0.0886
 7720SOL    HW134619   1.348   0.314   6.849  1.1302 -0.9165  0.8933
 7720SOL    HW234620   1.361   0.266   6.717 -1.7445 -0.3687  1.0084
 7721SOL     OW34621   3.594   1.645   8.371 -0.1283 -0.4803 -0.2438
 7721SOL    HW134622   3.601   1.593   8.291 -0.0062 -0.6661 -0.1117
 7721SOL    HW234623   3.675   1.695   8.372 -0.5176  0.1325  0.7165
 7722SOL     OW34624   3.896   2.923  16.315 -0.4115 -0.2463 -0.1549
 7722SOL    HW134625   3.979   2.881  16.337 -0.1386  0.2168 -0.2920
 7722SOL    HW234626   3.875   2.959  16.401  0.6688 -0.5582  0.2463
 7723SOL     OW34627   3.356   1.967  12.988 -0.6964 -0.2821 -0.0757
 7723SOL    HW134628   3.306   1.953  12.908  0.6432 -1.1051 -0.7733
 7723SOL    HW234629   3.333   1.893  13.044  1.9020 -0.8914  0.1688
 7724SOL     OW34630   1.372   3.628   4.116  0.4268  0.1221 -0.9058
 7724SOL    HW134631   1.289   3.594   4.083 -0.3969 -0.4609  1.7697
 7724SOL    HW234632   1.346   3.719   4.128 -1.4772 -0.9845  3.6670
 7725SOL     OW34633   4.532   3.339   5.445  0.3306 -0.2892 -0.0684
 7725SOL    HW134634   4.514   3.311   5.534  2.1824 -2.5324 -0.4078
 7725SOL    HW234635   4.539   3.263   5.387 -0.3921 -0.2508 -0.2053
 7726SOL     OW34636   3.566   3.587   9.915 -0.4915  0.3946 -0.4650
 7726SOL    HW134637   3.660   3.599   9.925 -0.3165 -1.5663  0.1676
 7726SOL    HW234638   3.552   3.682   9.907  0.8465  0.7957  1.8449
 7727SOL     OW34639   2.382   4.069   9.463  0.0843 -0.6786 -0.0578
 7727SOL    HW134640   2.381   3.984   9.417 -1.6674 -1.1196  0.7978
 7727SOL    HW234641   2.475   4.086   9.447  0.2234 -2.5369 -1.2827
 7728SOL     OW34642   0.860   1.404   7.752  0.3123 -0.2706  0.1913
 7728SOL    HW134643   0.930   1.340   7.740  0.1196 -0.1520 -1.4695
 7728SOL    HW234644   0.846   1.434   7.663  3.8326 -0.7141 -0.4970
 7729SOL     OW34645   3.701   1.599   4.188 -0.5144 -0.2858  0.3985
 7729SOL    HW134646   3.732   1.689   4.176  0.0820 -0.4896  0.3730
 7729SOL    HW234647   3.778   1.543   4.177  0.5251  1.6777 -2.4043
 7730SOL     OW34648   2.705   1.589   0.609  0.5721  0.2387 -0.2267
 7730SOL    HW134649   2.687   1.507   0.562 -0.1401 -0.2670  0.9342
 7730SOL    HW234650   2.784   1.566   0.658  0.5833 -0.0588 -0.3789
 7731SOL     OW34651   1.919   2.137   0.408 -0.0622 -0.1531  0.5423
 7731SOL    HW134652   1.835   2.154   0.450  0.0772  2.1521 -0.1417
 7731SOL    HW234653   1.908   2.045   0.383  2.2346 -0.3167  0.1481
 7732SOL     OW34654   0.478   2.808   8.236 -0.7405  0.1521 -0.5360
 7732SOL    HW134655   0.485   2.721   8.195  1.7121  0.2933 -0.4013
 7732SOL    HW234656   0.447   2.776   8.320 -1.6897 -0.0101 -0.9468
 7733SOL     OW34657   2.076   1.012   3.761  0.4950  0.6537 -0.1633
 7733SOL    HW134658   2.061   1.045   3.672 -1.5980 -2.8036 -1.0982
 7733SOL    HW234659   2.149   1.057   3.802  0.6475  0.4853 -0.2535
 7734SOL     OW34660   0.797   2.125   2.754  0.0937  0.1343 -0.8375
 7734SOL    HW134661   0.880   2.081   2.732 -0.1656  0.0351 -1.6249
 7734SOL    HW234662   0.816   2.207   2.709  0.4445  0.3273 -0.3309
 7735SOL     OW34663   1.398   2.906   5.098 -0.3400  0.1208 -0.4104
 7735SOL    HW134664   1.489   2.910   5.069 -0.5291  0.1956 -0.9820
 7735SOL    HW234665   1.367   2.981   5.047  0.4738  1.6350  1.3070
 7736SOL     OW34666   0.387   0.919   6.876 -0.1523 -0.4811  0.4475
 7736SOL    HW134667   0.395   0.827   6.848 -0.5876  0.2238 -2.0049
 7736SOL    HW234668   0.363   0.968   6.797  0.3530 -3.5463 -1.6304
 7737SOL     OW34669   0.347   2.712   1.945  0.6955 -0.2507  0.2173
 7737SOL    HW134670   0.357   2.686   2.037  2.0981  1.2389  0.4918
 7737SOL    HW234671   0.429   2.761   1.942  1.6424 -1.6795  2.3084
 7738SOL     OW34672   3.404   3.334   2.898 -0.2794 -0.1802  0.0030
 7738SOL    HW134673   3.387   3.407   2.957 -0.4616 -0.4799  0.3242
 7738SOL    HW234674   3.485   3.296   2.934  0.2712  2.6016  1.6898
 7739SOL     OW34675   4.205   2.855   9.429 -0.0194  0.1623  0.6012
 7739SOL    HW134676   4.215   2.856   9.334 -1.3283 -3.3775  0.4253
 7739SOL    HW234677   4.134   2.917   9.448  1.1636  1.4873  0.6391
 7740SOL     OW34678   4.653   1.753   9.637  0.0371 -0.2287 -0.1990
 7740SOL    HW134679   4.687   1.669   9.607 -1.1027 -0.2506 -1.4108
 7740SOL    HW234680   4.601   1.724   9.713  1.2935 -0.1645  0.6871
 7741SOL     OW34681   4.105   0.394  14.874  0.5324  0.6681  0.2996
 7741SOL    HW134682   4.104   0.435  14.787  0.3984 -0.8951 -0.4478
 7741SOL    HW234683   4.198   0.397  14.896  0.7321 -0.8789 -0.3014
 7742SOL     OW34684   0.205   1.976  15.738  0.2384  0.4594 -0.0284
 7742SOL    HW134685   0.153   2.018  15.669 -1.0388 -0.2622  0.4858
 7742SOL    HW234686   0.287   1.956  15.693  0.9580  0.1997  1.3742
 7743SOL     OW34687   0.256   2.409   7.178 -0.4171  0.6813 -0.2250
 7743SOL    HW134688   0.226   2.379   7.092 -0.7628  0.5309 -0.0517
 7743SOL    HW234689   0.227   2.334   7.231  0.1827 -0.6110 -1.7354
 7744SOL     OW34690   1.185   3.809   3.816  0.0794 -0.1411  0.3576
 7744SOL    HW134691   1.223   3.839   3.734  0.0666  0.6906  0.6529
 7744SOL    HW234692   1.235   3.732   3.843  1.7253  1.1341  0.9814
 7745SOL     OW34693   0.528   1.424  10.792  0.0603  0.1681 -0.0026
 7745SOL    HW134694   0.494   1.513  10.799 -2.7576 -0.9287  0.5205
 7745SOL    HW234695   0.454   1.370  10.819  1.8308 -3.6255 -2.6296
 7746SOL     OW34696   4.432   1.255   7.941 -0.0721  0.3360 -0.3035
 7746SOL    HW134697   4.371   1.200   7.990 -1.1667 -1.4070 -3.6538
 7746SOL    HW234698   4.423   1.206   7.860 -2.6874  0.8632 -0.3412
 7747SOL     OW34699   2.770   2.298   8.135  0.0474 -0.2863  0.3244
 7747SOL    HW134700   2.675   2.296   8.147 -0.2417 -1.0818 -1.9859
 7747SOL    HW234701   2.788   2.239   8.062 -3.1543  1.0631 -1.5580
 7748SOL     OW34702   2.146   2.914   7.620 -0.4651  0.4335  0.3266
 7748SOL    HW134703   2.191   2.970   7.557  0.1635 -0.3165  0.0940
 7748SOL    HW234704   2.059   2.905   7.581  0.0777 -0.8269 -0.6207
 7749SOL     OW34705   3.063   2.299   8.937  0.4431  0.7337 -0.0857
 7749SOL    HW134706   2.967   2.295   8.946  0.5739 -2.6083 -0.4510
 7749SOL    HW234707   3.067   2.210   8.904  0.7535  0.7258 -0.0220
 7750SOL     OW34708   4.569   2.894  11.656 -0.8886  0.4635 -0.0334
 7750SOL    HW134709   4.517   2.820  11.627 -1.1231  0.8171 -0.5091
 7750SOL    HW234710   4.637   2.882  11.589 -1.4410 -2.0986 -0.1317
 7751SOL     OW34711   3.258   3.512  17.171 -0.0725  0.9749 -0.2692
 7751SOL    HW134712   3.263   3.519  17.076 -1.4520 -2.5463 -0.5924
 7751SOL    HW234713   3.297   3.598  17.186  0.1707  1.0846 -1.5227
 7752SOL     OW34714   2.151   3.604  10.283 -0.0878  0.0931 -0.6210
 7752SOL    HW134715   2.141   3.515  10.317  3.6378 -0.5513 -1.1895
 7752SOL    HW234716   2.076   3.603  10.225  0.4875 -2.0431 -1.3110
 7753SOL     OW34717   1.720   3.259   2.082  0.5552 -0.1723 -0.0272
 7753SOL    HW134718   1.756   3.346   2.098  0.6013  0.0825 -1.5098
 7753SOL    HW234719   1.630   3.288   2.064  0.5881  0.2651  0.5019
 7754SOL     OW34720   0.573   0.260  12.568  0.2372  0.4924  0.2305
 7754SOL    HW134721   0.503   0.254  12.502  0.5676  0.4100 -0.1145
 7754SOL    HW234722   0.616   0.175  12.558 -0.9084  0.0208 -0.7199
 7755SOL     OW34723   1.173   3.622   7.414 -0.0843 -0.0466  0.2707
 7755SOL    HW134724   1.210   3.585   7.494 -1.3305  0.9514  1.3073
 7755SOL    HW234725   1.094   3.652   7.457  0.8891  2.0400  0.6200
 7756SOL     OW34726   0.268   1.549   4.152  0.0032  0.1143 -0.2914
 7756SOL    HW134727   0.285   1.632   4.198 -0.1712 -0.3929  0.6808
 7756SOL    HW234728   0.222   1.589   4.079  0.7922 -0.2074 -0.9531
 7757SOL     OW34729   2.557   3.058   1.370 -0.4068 -0.0853  0.1270
 7757SOL    HW134730   2.495   2.994   1.336  2.2646 -1.0710 -2.7565
 7757SOL    HW234731   2.489   3.107   1.417  1.4555  1.1246  1.5459
 7758SOL     OW34732   3.278   0.489   9.726 -0.3986 -0.4386 -0.0702
 7758SOL    HW134733   3.369   0.520   9.727 -0.5584 -0.1751  4.0548
 7758SOL    HW234734   3.227   0.558   9.768  0.4069 -0.4055  0.8341
 7759SOL     OW34735   0.403   1.044  14.595 -0.0122  0.0136 -0.4097
 7759SOL    HW134736   0.355   0.998  14.526 -1.4474  0.7688  0.0854
 7759SOL    HW234737   0.489   1.065  14.559  0.5700 -0.1057  0.9245
 7760SOL     OW34738   3.608   2.314   7.958  0.2754  0.3840 -0.2596
 7760SOL    HW134739   3.546   2.241   7.955  0.3431  0.3325 -0.4432
 7760SOL    HW234740   3.671   2.273   8.018 -0.0737  2.6607  1.6338
 7761SOL     OW34741   2.289   1.107   5.772  0.0521  0.0338 -0.5165
 7761SOL    HW134742   2.235   1.109   5.692 -0.6381  0.4429 -0.0406
 7761SOL    HW234743   2.340   1.029   5.749 -0.8134  0.0278 -2.4341
 7762SOL     OW34744   0.700   2.543   8.151 -0.3692  0.2271  0.2897
 7762SOL    HW134745   0.726   2.451   8.159  1.6611  0.9035  1.3477
 7762SOL    HW234746   0.779   2.594   8.168  0.1634  0.6556 -3.4719
 7763SOL     OW34747   0.972   0.951   2.300  0.2840 -0.0407  0.5662
 7763SOL    HW134748   1.010   0.864   2.310  1.6727  0.5012  0.0893
 7763SOL    HW234749   1.037   1.008   2.342 -1.5806  1.8303  0.9460
 7764SOL     OW34750   0.959   4.331   4.983 -0.4791 -0.2365  0.5835
 7764SOL    HW134751   0.894   4.361   4.919  1.4578  2.7842  0.0246
 7764SOL    HW234752   1.011   4.412   4.981 -3.2313  1.5633  1.5387
 7765SOL     OW34753   3.467   0.754   9.951 -0.6382 -1.1534 -0.4973
 7765SOL    HW134754   3.441   0.818  10.018 -0.4058  1.5451 -2.9952
 7765SOL    HW234755   3.455   0.672   9.998 -1.2147  0.6173  2.4559
 7766SOL     OW34756   1.696   1.754  16.891  0.4639 -0.3684 -0.7823
 7766SOL    HW134757   1.760   1.717  16.829  1.3532  0.8639 -0.6182
 7766SOL    HW234758   1.628   1.696  16.857  0.6569 -0.7041 -0.5977
 7767SOL     OW34759   4.223   0.965   7.423 -0.2066 -0.3112  0.0411
 7767SOL    HW134760   4.192   1.054   7.409  1.1059  0.0634 -0.4959
 7767SOL    HW234761   4.157   0.916   7.471 -2.5247  0.8627 -1.9578
 7768SOL     OW34762   4.030   1.514  15.810 -0.5513  0.5429  0.6409
 7768SOL    HW134763   4.033   1.544  15.719 -1.6861 -0.9109  0.1296
 7768SOL    HW234764   3.947   1.467  15.803  1.2576 -2.7494  1.1609
 7769SOL     OW34765   3.866   0.855   3.054  0.2804  0.3797 -1.2286
 7769SOL    HW134766   3.825   0.914   2.991 -1.0983  2.9291  2.0545
 7769SOL    HW234767   3.833   0.893   3.136  1.9446 -0.0458 -0.3590
 7770SOL     OW34768   0.814   2.561  14.349  0.2330 -0.1016 -0.2280
 7770SOL    HW134769   0.769   2.477  14.343 -0.9532  0.6389 -1.7300
 7770SOL    HW234770   0.852   2.549  14.436 -0.2651 -3.0910 -0.4505
 7771SOL     OW34771   4.047   4.381   0.050  0.4080  0.4147  0.4076
 7771SOL    HW134772   4.091   4.306   0.010  0.6515 -0.2122  1.8340
 7771SOL    HW234773   3.977   4.335   0.097 -0.1192 -0.6429 -1.4049
 7772SOL     OW34774   2.636   0.144   3.389 -0.0287 -0.4186  0.9769
 7772SOL    HW134775   2.680   0.065   3.420 -0.8387 -1.5505 -0.7164
 7772SOL    HW234776   2.629   0.127   3.295 -0.4025  1.5617  0.6471
 7773SOL     OW34777   1.296   1.063   8.458 -0.3402 -0.1229 -0.1159
 7773SOL    HW134778   1.286   1.158   8.450  1.3485  0.1276  0.7258
 7773SOL    HW234779   1.355   1.045   8.385 -0.4904 -0.9942 -0.0152
 7774SOL     OW34780   2.951   2.735   9.395 -0.0320 -0.4524 -0.1355
 7774SOL    HW134781   2.900   2.715   9.316  0.0788 -1.6736  0.0916
 7774SOL    HW234782   2.956   2.830   9.397  0.4586 -0.4740 -0.2323
 7775SOL     OW34783   3.788   1.997   8.908 -0.1266 -0.5311 -0.2582
 7775SOL    HW134784   3.826   1.924   8.859 -1.1552 -1.0532 -0.2658
 7775SOL    HW234785   3.862   2.032   8.958 -0.7540 -0.8399  0.8696
 7776SOL     OW34786   3.269   1.057   4.187  0.1814  0.0288  0.1159
 7776SOL    HW134787   3.191   1.087   4.139 -1.2537 -1.4209  1.5408
 7776SOL    HW234788   3.339   1.112   4.152 -0.3888  1.0503  0.5572
 7777SOL     OW34789   0.527   0.403   1.455  0.2596  0.2956  1.0385
 7777SOL    HW134790   0.436   0.425   1.437  0.9540  1.6652 -0.7910
 7777SOL    HW234791   0.535   0.309   1.436  0.3860  0.7002 -0.8873
 7778SOL     OW34792   2.611   0.860  16.464  0.6178  0.3450 -0.1932
 7778SOL    HW134793   2.671   0.786  16.459 -2.0933 -1.9121  0.4974
 7778SOL    HW234794   2.573   0.858  16.376 -0.0449  0.2693  0.0918
 7779SOL     OW34795   3.558   4.699   4.552 -0.6993 -0.2060 -0.3246
 7779SOL    HW134796   3.522   4.612   4.540 -0.1130 -0.6650  1.3656
 7779SOL    HW234797   3.636   4.681   4.604 -0.3768 -0.8607 -1.0370
 7780SOL     OW34798   3.999   4.079  13.021  0.1340 -0.5245  0.2278
 7780SOL    HW134799   4.015   3.985  13.015 -0.4321 -0.7744  2.4714
 7780SOL    HW234800   4.083   4.099  13.061 -0.8656  2.4681  0.8237
 7781SOL     OW34801   2.248   3.122   3.373 -0.6831  0.6868  0.1343
 7781SOL    HW134802   2.321   3.069   3.341  0.9649  1.9976  1.6867
 7781SOL    HW234803   2.249   3.113   3.468  1.0219  0.7964  0.1280
 7782SOL     OW34804   3.082   2.298   7.867 -0.6298  0.3968 -0.2686
 7782SOL    HW134805   3.095   2.377   7.815 -0.2670  1.8379  2.0057
 7782SOL    HW234806   2.988   2.305   7.881 -0.4998  2.4060 -0.4105
 7783SOL     OW34807   3.430   0.439   3.344 -0.2883  0.0653  0.1270
 7783SOL    HW134808   3.427   0.436   3.248 -1.5758 -2.4811  0.2293
 7783SOL    HW234809   3.356   0.494   3.370 -1.2129 -0.4394 -1.3926
 7784SOL     OW34810   3.353   0.370  13.249  0.2355 -0.5147  0.2811
 7784SOL    HW134811   3.291   0.298  13.241 -0.1450  0.0534 -1.8763
 7784SOL    HW234812   3.428   0.316  13.222  1.1279  0.2946  1.1511
 7785SOL     OW34813   0.663   4.562   2.105 -0.1577 -0.1564 -0.1597
 7785SOL    HW134814   0.608   4.538   2.030  0.7002  1.9317 -1.4495
 7785SOL    HW234815   0.666   4.475   2.145 -3.0473  1.3089  3.2032
 7786SOL     OW34816   3.578   1.504   4.733  0.6158  0.6417  0.7060
 7786SOL    HW134817   3.494   1.458   4.728  1.0848 -0.2076  0.7280
 7786SOL    HW234818   3.596   1.497   4.827  2.7721 -2.5584  0.0453
 7787SOL     OW34819   1.431   2.227   3.120  0.2233  0.0916  0.5159
 7787SOL    HW134820   1.375   2.157   3.153 -1.5138  1.9986  1.5803
 7787SOL    HW234821   1.359   2.285   3.095  0.6655  0.8312  0.9924
 7788SOL     OW34822   0.804   2.280   3.216 -0.7591 -0.0174  0.2862
 7788SOL    HW134823   0.824   2.257   3.307  0.7554  0.7829  0.1562
 7788SOL    HW234824   0.839   2.212   3.158 -1.5954  0.0807 -0.3368
 7789SOL     OW34825   4.296   0.148   6.905  0.0995 -0.6029 -0.5291
 7789SOL    HW134826   4.268   0.239   6.913  0.2791 -0.6562  0.6794
 7789SOL    HW234827   4.226   0.096   6.943  0.0525  0.2274  0.5075
 7790SOL     OW34828   1.629   0.949   7.933 -0.4505  0.0946  0.2407
 7790SOL    HW134829   1.637   0.986   7.845  1.6776  0.1429  0.4555
 7790SOL    HW234830   1.648   1.026   7.987  0.6971  0.1368 -0.2256
 7791SOL     OW34831   0.989   4.285   8.195  0.3744 -0.5238 -0.3249
 7791SOL    HW134832   0.902   4.270   8.231 -0.3232  1.6681 -1.0451
 7791SOL    HW234833   0.999   4.201   8.151 -0.9422 -1.4718  1.1991
 7792SOL     OW34834   2.347   2.120   3.944 -0.2384 -0.2778  0.2672
 7792SOL    HW134835   2.289   2.065   3.995 -1.0248  0.1183 -0.1970
 7792SOL    HW234836   2.412   2.142   4.011  0.1937 -0.6784 -0.0152
 7793SOL     OW34837   4.339   0.030   3.133 -0.1812  0.0747 -0.5469
 7793SOL    HW134838   4.413   0.087   3.111  0.5082 -0.0964  1.3185
 7793SOL    HW234839   4.261   0.081   3.110  0.1873 -0.2265 -2.5166
 7794SOL     OW34840   3.260   3.918   9.819 -0.4881 -0.2185  0.0664
 7794SOL    HW134841   3.204   3.856   9.867  0.7862 -0.8530  0.7385
 7794SOL    HW234842   3.195   3.987   9.803 -0.8960 -0.9450 -1.4265
 7795SOL     OW34843   2.810   3.831   2.120  0.1253 -0.5073  0.0725
 7795SOL    HW134844   2.739   3.895   2.118  0.9374  0.2881 -3.0493
 7795SOL    HW234845   2.857   3.847   2.202 -2.0726 -1.9482  1.6436
 7796SOL     OW34846   0.623   4.333   9.709 -0.2873  0.3501 -0.0621
 7796SOL    HW134847   0.619   4.331   9.614 -3.1449 -2.7620  0.1067
 7796SOL    HW234848   0.629   4.427   9.727 -0.2050  0.6655 -1.7953
 7797SOL     OW34849   4.269   1.197   9.768  0.3435 -0.5402  0.2463
 7797SOL    HW134850   4.250   1.288   9.745 -0.8964 -0.9498 -0.3465
 7797SOL    HW234851   4.206   1.175   9.837  0.9387 -1.1069  0.6092
 7798SOL     OW34852   2.471   0.199   6.739 -0.3926 -0.0123  0.1152
 7798SOL    HW134853   2.504   0.270   6.683  2.6445 -1.7681 -0.2960
 7798SOL    HW234854   2.432   0.137   6.678  1.2523 -0.0876 -0.8693
 7799SOL     OW34855   0.158   0.347  14.142  0.5044  0.4053 -0.1635
 7799SOL    HW134856   0.075   0.305  14.163  1.8364 -1.7014  0.9659
 7799SOL    HW234857   0.203   0.366  14.224 -0.2602  2.9288 -0.3261
 7800SOL     OW34858   1.027   2.579   1.951 -0.3268 -0.3663  0.0343
 7800SOL    HW134859   1.066   2.652   1.998  1.9130 -0.6639 -1.3501
 7800SOL    HW234860   1.104   2.524   1.937 -0.5452 -0.1204 -2.1374
 7801SOL     OW34861   3.436   4.452   7.432  0.5248 -0.2271  0.5425
 7801SOL    HW134862   3.357   4.506   7.434 -0.4431 -1.6589  0.1503
 7801SOL    HW234863   3.447   4.443   7.337 -1.0627 -1.2417  0.4550
 7802SOL     OW34864   3.170   1.807  12.299  0.1385 -0.1096 -0.0925
 7802SOL    HW134865   3.241   1.867  12.276 -0.3682 -0.0153 -1.3922
 7802SOL    HW234866   3.192   1.796  12.392 -0.0593  0.1079 -0.0186
 7803SOL     OW34867   2.939   0.182   7.539 -0.6478  0.1958 -0.0445
 7803SOL    HW134868   2.872   0.146   7.481  0.3340  0.7962 -1.5501
 7803SOL    HW234869   2.991   0.105   7.560 -0.8360 -0.0216 -0.3838
 7804SOL     OW34870   4.382   1.953   7.878 -0.0113 -0.4877  0.2904
 7804SOL    HW134871   4.389   2.048   7.868  2.0744 -0.7130 -0.3159
 7804SOL    HW234872   4.446   1.943   7.948  1.5272  1.2797 -0.8627
 7805SOL     OW34873   1.233   0.241   5.599  0.3424 -0.0877  0.9937
 7805SOL    HW134874   1.327   0.221   5.603  0.4403  0.6976  2.5064
 7805SOL    HW234875   1.207   0.245   5.507  3.2687 -0.7433  0.1259
 7806SOL     OW34876   0.527   3.512   4.729  0.5946 -0.6102 -0.2618
 7806SOL    HW134877   0.621   3.524   4.739  0.0082  1.5289  2.5810
 7806SOL    HW234878   0.506   3.480   4.817  0.4149  0.7320  0.1738
 7807SOL     OW34879   3.832   4.241  13.129  0.0769 -0.2002  0.0189
 7807SOL    HW134880   3.892   4.248  13.203  0.3800 -0.5117 -0.1968
 7807SOL    HW234881   3.878   4.171  13.083  0.4863 -0.4071  0.7547
 7808SOL     OW34882   3.862   0.236   9.848  0.3161 -0.2774  0.2496
 7808SOL    HW134883   3.778   0.212   9.811  0.0617  0.4598  0.3461
 7808SOL    HW234884   3.829   0.221   9.936  0.0293  3.5647  0.8220
 7809SOL     OW34885   4.670   3.417  14.092  0.5974 -0.1633 -0.3588
 7809SOL    HW134886   4.595   3.434  14.035 -0.0971  1.8198  1.1384
 7809SOL    HW234887   0.001   3.499  14.092 -3.2518  2.1500  0.5678
 7810SOL     OW34888   2.109   2.334   2.282  0.5485  0.9383  0.2335
 7810SOL    HW134889   2.081   2.365   2.369  1.0330  3.0792 -0.3739
 7810SOL    HW234890   2.027   2.359   2.239  0.5031  0.7203  0.1972
 7811SOL     OW34891   1.088   3.333   7.429  0.5345  0.0717  0.1886
 7811SOL    HW134892   0.995   3.335   7.451  0.4354  0.3457 -0.2786
 7811SOL    HW234893   1.130   3.340   7.515 -0.1330 -1.3869  0.6315
 7812SOL     OW34894   3.290   0.336   8.980 -0.5314 -0.0847 -0.2176
 7812SOL    HW134895   3.328   0.344   8.892  0.6371 -0.9328  0.1998
 7812SOL    HW234896   3.352   0.273   9.018 -0.5468  0.3423  0.5158
 7813SOL     OW34897   4.618   1.492  16.417  0.0791 -0.0585 -0.4176
 7813SOL    HW134898   4.547   1.471  16.479  1.5199  1.5115  1.7687
 7813SOL    HW234899   4.604   1.587  16.420  0.5897 -0.0463  1.8462
 7814SOL     OW34900   0.910   0.036   4.800 -0.3669 -0.4259 -0.4019
 7814SOL    HW134901   0.884   4.678   4.751 -0.0518 -0.0520 -1.1537
 7814SOL    HW234902   0.861   0.040   4.882  0.7029  0.7072  0.1980
 7815SOL     OW34903   2.436   1.040   5.348 -0.0840 -0.4926  0.2443
 7815SOL    HW134904   2.446   0.949   5.321 -1.4259  0.3924 -3.2881
 7815SOL    HW234905   2.524   1.071   5.327  0.1466 -2.1353 -1.2209
 7816SOL     OW34906   2.761   1.481  12.244 -0.1806 -0.3938  0.9538
 7816SOL    HW134907   2.818   1.481  12.321  0.0581  0.8809  0.7840
 7816SOL    HW234908   2.786   1.407  12.189  1.9211  0.5380  0.6622
 7817SOL     OW34909   0.668   1.680   4.228 -0.9043 -0.4315  0.3878
 7817SOL    HW134910   0.658   1.682   4.133 -1.0073  0.5073  0.4238
 7817SOL    HW234911   0.673   1.584   4.235  1.5944 -0.3179  0.1327
 7818SOL     OW34912   1.854   3.562  13.951  0.3430  0.6154 -0.0491
 7818SOL    HW134913   1.812   3.568  13.865 -1.7896  1.4477  1.0783
 7818SOL    HW234914   1.945   3.544  13.927  0.3359 -0.0805  0.4465
 7819SOL     OW34915   1.340   0.978   0.567 -0.1683  0.3924 -0.2812
 7819SOL    HW134916   1.395   1.033   0.510 -1.2054 -0.7243 -2.3694
 7819SOL    HW234917   1.387   0.994   0.649 -2.2512  1.4508  0.6915
 7820SOL     OW34918   1.515   2.893  15.157 -0.3301  0.1165 -0.3281
 7820SOL    HW134919   1.542   2.802  15.159  1.7381  0.7401 -0.3072
 7820SOL    HW234920   1.502   2.900  15.062 -0.1180  0.2368 -0.3471
 7821SOL     OW34921   1.109   3.536   4.033 -0.3541 -0.3509  0.1411
 7821SOL    HW134922   1.039   3.473   4.013 -0.2593 -1.5212  3.4768
 7821SOL    HW234923   1.048   3.603   4.065 -1.7682 -1.2963 -0.5727
 7822SOL     OW34924   2.142   2.730   4.898  0.2660  0.2761  0.5554
 7822SOL    HW134925   2.199   2.668   4.853 -0.5756 -0.4017  0.4062
 7822SOL    HW234926   2.091   2.673   4.957 -0.8430  1.6423  0.9154
 7823SOL     OW34927   2.833   4.508   3.056 -0.0032 -0.0742 -0.1220
 7823SOL    HW134928   2.922   4.484   3.031  0.1759 -0.9245  1.3350
 7823SOL    HW234929   2.787   4.480   2.977 -1.5172  1.5093  0.1959
 7824SOL     OW34930   2.075   1.416   3.449 -0.6914 -0.0636 -1.0201
 7824SOL    HW134931   2.109   1.480   3.387 -0.6539 -1.2534 -2.2251
 7824SOL    HW234932   2.006   1.378   3.394  2.1698 -2.0752 -3.2465
 7825SOL     OW34933   4.512   0.647   5.175  0.7489  0.2089 -0.0240
 7825SOL    HW134934   4.418   0.641   5.158  0.8781  3.2316 -1.7435
 7825SOL    HW234935   4.510   0.606   5.261 -0.4488 -1.7534 -0.9827
 7826SOL     OW34936   0.196   3.296   5.048 -0.6692 -0.4395  0.0186
 7826SOL    HW134937   0.274   3.273   4.997 -0.4210  1.2785 -0.3787
 7826SOL    HW234938   0.171   3.374   4.998 -0.1414 -1.5457 -1.9333
 7827SOL     OW34939   0.583   0.114   9.705 -0.3211  0.0264 -0.4230
 7827SOL    HW134940   0.636   0.036   9.723 -1.0795 -0.6385 -1.0874
 7827SOL    HW234941   0.646   0.185   9.688  0.5744 -0.3530  1.4222
 7828SOL     OW34942   2.391   4.189   0.151  0.0384 -0.1872 -0.1528
 7828SOL    HW134943   2.446   4.118   0.185 -0.1355 -0.9206 -1.3676
 7828SOL    HW234944   2.404   4.175   0.057 -0.4466 -0.6944 -0.1477
 7829SOL     OW34945   1.004   1.714   4.959 -0.4397  0.1146 -0.4722
 7829SOL    HW134946   1.039   1.625   4.952  2.4735  1.1978  0.5196
 7829SOL    HW234947   0.910   1.711   4.940 -0.7771  1.4870  0.9798
 7830SOL     OW34948   4.697   0.706  14.086 -0.0562 -0.3900 -0.0064
 7830SOL    HW134949   0.066   0.684  14.055  0.3417 -0.0639  0.8724
 7830SOL    HW234950   4.650   0.623  14.091 -0.8530  0.1815  2.3624
 7831SOL     OW34951   0.959   2.123   5.242  0.0928  0.3890 -0.1774
 7831SOL    HW134952   0.991   2.134   5.152  2.7465 -0.7582  0.6266
 7831SOL    HW234953   1.039   2.080   5.271  0.4797  0.3204 -1.3218
 7832SOL     OW34954   0.831   1.091   7.365  0.1176  0.2586  0.6461
 7832SOL    HW134955   0.807   1.040   7.442 -3.1273  0.5148 -0.2082
 7832SOL    HW234956   0.744   1.117   7.337  1.1406  3.5746  0.4754
 7833SOL     OW34957   3.980   3.134   4.304 -0.4777  0.1870  0.2689
 7833SOL    HW134958   4.016   3.147   4.216  1.9796 -0.1816  1.2054
 7833SOL    HW234959   3.888   3.148   4.284 -0.3827 -2.7284 -2.1646
 7834SOL     OW34960   0.369   2.451   4.179 -0.8082 -0.4292 -0.0392
 7834SOL    HW134961   0.317   2.489   4.108 -0.7353  2.7947  1.6245
 7834SOL    HW234962   0.454   2.463   4.136 -0.5425 -2.7294 -0.1820
 7835SOL     OW34963   1.859   2.644   7.638 -0.3198  0.3676  0.2602
 7835SOL    HW134964   1.951   2.626   7.659  0.3498  2.0037 -1.3375
 7835SOL    HW234965   1.869   2.728   7.595 -2.6868  0.9115  0.7436
 7836SOL     OW34966   2.152   4.562   5.850  0.1956  0.2154  0.3014
 7836SOL    HW134967   2.103   4.617   5.789  1.5238  0.0429 -0.9265
 7836SOL    HW234968   2.094   4.584   5.924 -0.3512 -0.5109  0.0898
 7837SOL     OW34969   4.214   2.756   4.511 -0.2170  0.3050  0.5993
 7837SOL    HW134970   4.182   2.795   4.593  1.8220 -0.8661  1.9585
 7837SOL    HW234971   4.282   2.707   4.558 -0.8190 -0.8167  0.2964
 7838SOL     OW34972   2.622   3.990   5.434 -0.0879  0.2303 -0.0646
 7838SOL    HW134973   2.613   3.926   5.363 -2.2651 -1.3989  1.7262
 7838SOL    HW234974   2.537   3.968   5.469 -0.0231  0.9376  0.5298
 7839SOL     OW34975   3.457   0.101   8.996  0.1819 -0.2995 -0.8586
 7839SOL    HW134976   3.446   0.101   8.900  1.0999  1.8605 -0.9703
 7839SOL    HW234977   3.421   0.015   9.019 -1.1963  0.1324 -1.3472
 7840SOL     OW34978   4.590   2.379   6.526 -0.1849  0.5250  0.1240
 7840SOL    HW134979   4.633   2.464   6.538 -0.5825  0.6329  0.7623
 7840SOL    HW234980   4.657   2.310   6.515 -2.9311 -2.0879 -0.2627
 7841SOL     OW34981   4.322   1.512  15.584  0.3382 -0.2504  0.0553
 7841SOL    HW134982   4.283   1.458  15.652  0.4157  0.3056  0.5401
 7841SOL    HW234983   4.265   1.589  15.587 -0.0351 -0.6025  1.9677
 7842SOL     OW34984   3.208   4.097   6.861 -0.4442  0.1497  0.1147
 7842SOL    HW134985   3.134   4.099   6.800 -0.9811 -0.1551  0.7644
 7842SOL    HW234986   3.283   4.120   6.806 -1.5560  1.0963 -0.9862
 7843SOL     OW34987   2.175   1.940   3.426 -0.3927 -0.0067 -0.9938
 7843SOL    HW134988   2.182   1.991   3.346  1.4065  0.1941 -0.6939
 7843SOL    HW234989   2.245   1.970   3.483  0.1652 -1.5078 -0.8709
 7844SOL     OW34990   0.932   3.619   0.931 -0.0644  0.6732 -0.1220
 7844SOL    HW134991   1.000   3.679   0.961 -2.8164  2.7632  1.9146
 7844SOL    HW234992   0.955   3.633   0.839 -0.2868 -1.5540 -0.5191
 7845SOL     OW34993   0.908   1.759  11.972 -0.4428 -0.2543  0.2003
 7845SOL    HW134994   0.896   1.667  11.997 -2.4478 -0.2057 -0.5421
 7845SOL    HW234995   0.829   1.766  11.918 -0.2079 -1.4111 -0.2873
 7846SOL     OW34996   0.362   0.116   3.313 -0.1714  0.4855 -0.1287
 7846SOL    HW134997   0.350   0.057   3.388  0.3293 -1.1213 -1.3314
 7846SOL    HW234998   0.396   0.190   3.365  1.2726 -2.4355  3.0977
 7847SOL     OW34999   0.292   0.877   6.574  0.2439 -0.2111 -0.1117
 7847SOL    HW135000   0.273   0.962   6.533  0.4563 -0.3627 -0.5167
 7847SOL    HW235001   0.227   0.884   6.645 -0.4401 -2.8264 -0.5018
 7848SOL     OW35002   0.143   1.726   3.978 -0.2115  0.0483  0.1208
 7848SOL    HW135003   0.059   1.768   3.960 -0.0937  1.7547  3.7905
 7848SOL    HW235004   0.200   1.801   3.989 -0.5340  0.0388  1.7611
 7849SOL     OW35005   1.203   3.976   9.650 -0.2950 -0.4865  0.0038
 7849SOL    HW135006   1.238   3.887   9.645 -0.4954 -0.5914  0.4577
 7849SOL    HW235007   1.255   4.013   9.579 -0.1973 -0.0662  0.2953
 7850SOL     OW35008   1.638   0.911   0.700 -0.6883  0.2524 -0.5877
 7850SOL    HW135009   1.647   0.979   0.767  1.4734 -0.6259 -0.0064
 7850SOL    HW235010   1.603   0.852   0.766  1.2005 -2.7349 -2.2648
 7851SOL     OW35011   0.965   3.674   4.668  0.0260 -0.2540  0.1324
 7851SOL    HW135012   0.889   3.658   4.723 -0.8287  1.5218 -0.5554
 7851SOL    HW235013   0.938   3.630   4.588 -0.6134 -1.9957  1.3075
 7852SOL     OW35014   4.036   1.665   5.100  0.4304  0.3419  0.3025
 7852SOL    HW135015   4.027   1.754   5.067 -1.5130  0.4522  1.1103
 7852SOL    HW235016   4.113   1.678   5.156  0.7273  0.7379 -0.2014
 7853SOL     OW35017   2.364   2.371   6.285 -0.0957 -0.0259 -0.6561
 7853SOL    HW135018   2.385   2.428   6.211 -0.7435 -0.4683 -1.1897
 7853SOL    HW235019   2.435   2.309   6.271 -0.8846 -1.0504 -0.0883
 7854SOL     OW35020   1.800   2.693   2.816  0.3040  0.4238 -0.2572
 7854SOL    HW135021   1.873   2.631   2.814  1.5456  1.8227  1.4050
 7854SOL    HW235022   1.730   2.654   2.869 -0.0792  2.6884  0.9053
 7855SOL     OW35023   2.286   0.031   4.907  0.6902  0.3041  0.0798
 7855SOL    HW135024   2.308   0.081   4.986  1.5101 -0.9028  0.6134
 7855SOL    HW235025   2.197   0.058   4.886  0.3229 -0.1741  1.0381
 7856SOL     OW35026   1.322   0.251   3.265  0.4392 -0.3375 -0.4837
 7856SOL    HW135027   1.320   0.164   3.226  0.5926 -0.9251  0.7975
 7856SOL    HW235028   1.250   0.249   3.328  0.3362  3.4283 -0.4729
 7857SOL     OW35029   0.722   3.222   6.088 -0.6774  0.2036  0.7800
 7857SOL    HW135030   0.768   3.303   6.065 -1.6820  0.3283 -0.8391
 7857SOL    HW235031   0.755   3.153   6.030 -0.0493  2.0237 -1.0480
 7858SOL     OW35032   2.324   4.574  15.056  0.5131 -0.3923  0.0252
 7858SOL    HW135033   2.286   4.648  15.104 -1.2413 -0.5920 -1.0515
 7858SOL    HW235034   2.394   4.551  15.118 -0.2613  0.9527  1.4181
 7859SOL     OW35035   3.411   1.447   5.150 -0.5679 -0.5321 -0.0911
 7859SOL    HW135036   3.330   1.493   5.128  0.3386  1.3431  0.5011
 7859SOL    HW235037   3.375   1.413   5.231  2.9880 -2.9511  0.4241
 7860SOL     OW35038   2.296   3.495   7.568  0.2507 -0.7338 -0.6507
 7860SOL    HW135039   2.357   3.569   7.567  2.1857 -2.3426 -3.4450
 7860SOL    HW235040   2.212   3.533   7.592 -0.1137 -0.8429 -1.7893
 7861SOL     OW35041   1.684   3.615   3.182  0.5473  0.3540  0.8760
 7861SOL    HW135042   1.707   3.684   3.119  1.1797 -1.6634 -1.0965
 7861SOL    HW235043   1.708   3.534   3.138  0.8273  2.7252 -3.3758
 7862SOL     OW35044   2.924   3.818   1.837  0.2490 -0.0774 -0.3215
 7862SOL    HW135045   2.987   3.747   1.850  0.8309  0.7861  1.5436
 7862SOL    HW235046   2.899   3.846   1.925 -1.1007  0.3675 -0.8603
 7863SOL     OW35047   2.504   3.388   8.708 -0.1771  0.7155  0.2383
 7863SOL    HW135048   2.549   3.362   8.627 -2.2863 -0.1357 -0.6725
 7863SOL    HW235049   2.521   3.480   8.727 -1.8901  0.7042  1.7641
 7864SOL     OW35050   2.204   2.942  16.250  0.2515 -0.0356  0.1964
 7864SOL    HW135051   2.226   2.850  16.270 -1.2942 -0.4110  0.1410
 7864SOL    HW235052   2.290   2.984  16.240 -0.3859  0.8451 -1.5915
 7865SOL     OW35053   3.243   4.375  10.852  0.3130  0.1594  0.6497
 7865SOL    HW135054   3.222   4.287  10.821  1.2116 -0.5170  1.9549
 7865SOL    HW235055   3.247   4.368  10.947  0.8368 -0.4664  0.5772
 7866SOL     OW35056   2.007   0.088   4.959 -0.3252 -0.0418  0.6858
 7866SOL    HW135057   1.961   0.106   4.877 -0.8974 -1.3285  0.7252
 7866SOL    HW235058   1.957   0.009   4.977 -2.7181  1.3581  0.1930
 7867SOL     OW35059   1.507   1.074  17.143 -0.3504  0.0716  0.8303
 7867SOL    HW135060   1.562   1.074  17.064 -3.8489 -1.5884 -1.6189
 7867SOL    HW235061   1.429   1.035  17.104  0.0874 -0.6599  0.6918
 7868SOL     OW35062   4.193   1.629   6.023  0.1806  0.4385  0.2289
 7868SOL    HW135063   4.248   1.602   5.950  0.4851  2.0669 -0.1562
 7868SOL    HW235064   4.264   1.666   6.076 -1.8991  0.7613  2.7938
 7869SOL     OW35065   2.675   4.075  14.545  0.9355 -0.8275  0.0182
 7869SOL    HW135066   2.619   4.107  14.475 -0.6071 -2.4150  0.5307
 7869SOL    HW235067   2.636   3.988  14.550  0.1425 -0.6001 -2.2249
 7870SOL     OW35068   0.579   2.159   8.203  0.0974  0.1378 -0.3085
 7870SOL    HW135069   0.508   2.187   8.145 -0.9038  2.6156  2.1482
 7870SOL    HW235070   0.543   2.186   8.287 -4.6576  1.8541 -2.8810
 7871SOL     OW35071   3.884   2.278   4.818 -0.2455  0.0082  0.2691
 7871SOL    HW135072   3.899   2.345   4.752 -0.6068  0.8913  1.0843
 7871SOL    HW235073   3.826   2.215   4.777 -0.2006 -0.0333  0.2687
 7872SOL     OW35074   3.023   0.476   4.156  0.4733 -0.0901  0.2537
 7872SOL    HW135075   2.943   0.446   4.114  0.4240  2.3072 -1.3138
 7872SOL    HW235076   3.011   0.569   4.139  0.8175 -0.2165 -0.6753
 7873SOL     OW35077   1.399   3.204   7.747  0.1194  0.2775 -0.4652
 7873SOL    HW135078   1.394   3.152   7.827  0.9906  3.0275  1.3451
 7873SOL    HW235079   1.463   3.267   7.780 -0.8571  0.2353  1.5356
 7874SOL     OW35080   1.609   4.444   2.898  0.3370  0.2136 -0.0746
 7874SOL    HW135081   1.548   4.517   2.902  0.1698  0.1412 -1.3382
 7874SOL    HW235082   1.545   4.383   2.935  0.6323  0.6690  1.1984
 7875SOL     OW35083   4.527   1.315   4.109  0.0216 -0.5616 -0.6767
 7875SOL    HW135084   4.452   1.272   4.066 -0.7424  0.3998 -0.3077
 7875SOL    HW235085   4.602   1.264   4.077  1.4398  0.0700  1.7010
 7876SOL     OW35086   3.801   4.346   9.630 -0.0513 -0.3419 -0.1202
 7876SOL    HW135087   3.825   4.279   9.694  0.8795 -1.3988 -1.5436
 7876SOL    HW235088   3.834   4.427   9.669  2.1544 -1.9316  1.3211
 7877SOL     OW35089   2.007   0.455  12.669 -0.1118 -0.2495 -0.3633
 7877SOL    HW135090   1.991   0.371  12.712 -0.3587 -0.2893 -0.5276
 7877SOL    HW235091   2.076   0.496  12.720 -1.0889  1.7064 -0.6373
 7878SOL     OW35092   0.145   3.709  16.962  0.3440  0.1992 -1.0538
 7878SOL    HW135093   0.161   3.625  16.918  3.3821 -0.7992  1.9371
 7878SOL    HW235094   0.050   3.707  16.969  0.0935  1.6247 -3.7629
 7879SOL     OW35095   0.803   2.495   7.693  0.2280  0.5434  0.4495
 7879SOL    HW135096   0.735   2.534   7.639 -1.4499 -1.5384  1.0530
 7879SOL    HW235097   0.888   2.523   7.659  0.4047 -0.4270  0.0759
 7880SOL     OW35098   0.286   0.235  15.705  0.1414  0.1516  0.0050
 7880SOL    HW135099   0.289   0.252  15.799  0.9061 -0.8213  0.1602
 7880SOL    HW235100   0.373   0.256  15.670 -0.8057  2.2322 -1.1106
 7881SOL     OW35101   2.198   2.802  10.406 -0.0728 -0.1019  0.0195
 7881SOL    HW135102   2.281   2.821  10.362 -1.5063  0.1110 -2.5562
 7881SOL    HW235103   2.136   2.868  10.376  1.9178  1.3324 -0.9149
 7882SOL     OW35104   0.853   2.377   2.532 -0.4759 -0.8781  0.0128
 7882SOL    HW135105   0.929   2.427   2.503 -2.4020  0.5467 -2.4889
 7882SOL    HW235106   0.808   2.373   2.448  1.7899 -2.7145 -1.1277
 7883SOL     OW35107   2.960   2.155   2.358  0.5364  0.6155  0.1200
 7883SOL    HW135108   2.893   2.210   2.319  0.2519  1.3275  1.5916
 7883SOL    HW235109   3.006   2.116   2.283  2.4063 -0.5030  1.8445
 7884SOL     OW35110   2.355   2.368   2.749  0.0563 -0.7190  0.9252
 7884SOL    HW135111   2.426   2.315   2.786 -0.7928 -1.1729  1.9124
 7884SOL    HW235112   2.282   2.307   2.751  1.6257 -2.6277  0.6118
 7885SOL     OW35113   4.413   3.428   1.451 -0.8247 -0.5069  0.4707
 7885SOL    HW135114   4.487   3.396   1.401 -0.6282  2.0878 -0.8965
 7885SOL    HW235115   4.456   3.480   1.519 -0.8951 -0.6250  0.6059
 7886SOL     OW35116   1.802   1.515   9.775 -0.1715 -0.1855 -0.2856
 7886SOL    HW135117   1.826   1.476   9.859 -0.3000  1.0472  0.3347
 7886SOL    HW235118   1.722   1.470   9.750 -0.4795 -0.4267  1.1129
 7887SOL     OW35119   2.370   4.441  15.633 -0.2142  0.5569  0.2668
 7887SOL    HW135120   2.290   4.495  15.636 -1.0045 -0.6325  0.6212
 7887SOL    HW235121   2.439   4.499  15.601 -0.0361  1.5445  2.4473
 7888SOL     OW35122   2.770   3.749   9.962  0.2000 -0.8455  0.4442
 7888SOL    HW135123   2.773   3.730   9.869  0.0528 -0.4017  0.3454
 7888SOL    HW235124   2.710   3.824   9.970  2.1720  0.9212 -1.3759
 7889SOL     OW35125   2.122   0.839  16.216  0.7567 -0.4896  0.0729
 7889SOL    HW135126   2.119   0.811  16.307  0.8781 -0.7035  0.0115
 7889SOL    HW235127   2.030   0.848  16.193  0.4489  0.5762  1.7336
 7890SOL     OW35128   0.856   1.626  17.534  0.1901 -0.1917  0.2296
 7890SOL    HW135129   0.791   1.634  17.463 -0.1852 -1.8959  0.3759
 7890SOL    HW235130   0.822   1.690  17.597 -1.1743 -1.1370  0.4614
 7891SOL     OW35131   0.505   3.650   3.224  0.3751  0.1157 -0.1612
 7891SOL    HW135132   0.422   3.602   3.223  0.4355 -0.0062  1.3351
 7891SOL    HW235133   0.459   3.734   3.220 -0.6818 -0.4133  1.0433
 7892SOL     OW35134   0.238   1.150   6.497  0.0795  0.8482 -0.2779
 7892SOL    HW135135   0.265   1.184   6.582 -0.0184 -3.2592  1.3947
 7892SOL    HW235136   0.170   1.211   6.468 -1.0248  0.2860  1.1401
 7893SOL     OW35137   1.214   3.510   2.714 -0.0616 -0.4421  0.4460
 7893SOL    HW135138   1.265   3.464   2.648  2.0801  0.7860  1.2623
 7893SOL    HW235139   1.263   3.499   2.795 -1.0534  1.1577  1.2660
 7894SOL     OW35140   1.111   2.043  10.663  0.3531  0.2365  0.0366
 7894SOL    HW135141   1.195   2.086  10.646  1.1163 -1.0499  0.5690
 7894SOL    HW235142   1.072   2.096  10.733  1.6462  0.2945  0.7140
 7895SOL     OW35143   3.336   3.486   3.867 -0.0768 -0.1519 -0.1231
 7895SOL    HW135144   3.355   3.414   3.928  0.6201 -0.9260 -1.2671
 7895SOL    HW235145   3.415   3.538   3.876  0.0419 -0.2682 -0.5130
 7896SOL     OW35146   2.017   1.870   9.290  0.4629  0.2765 -0.8814
 7896SOL    HW135147   2.088   1.837   9.345  0.8404 -1.5190 -2.4499
 7896SOL    HW235148   1.947   1.815   9.325  1.6679 -1.6231 -1.4230
 7897SOL     OW35149   1.004   0.374   4.181  0.3838  0.4805 -0.7497
 7897SOL    HW135150   1.077   0.428   4.212  0.2565 -1.1883  2.3452
 7897SOL    HW235151   0.943   0.432   4.135  0.5080  0.2810 -1.1655
 7898SOL     OW35152   2.634   2.314   1.947  0.1108 -0.5372 -0.1426
 7898SOL    HW135153   2.719   2.271   1.955  0.2279 -0.2134  0.3130
 7898SOL    HW235154   2.668   2.403   1.938 -1.2775  0.2509  2.4189
 7899SOL     OW35155   3.664   2.698   2.885 -0.1068 -0.3308  0.0204
 7899SOL    HW135156   3.739   2.687   2.827  1.1709 -0.8215  1.7479
 7899SOL    HW235157   3.630   2.609   2.883 -1.9069  0.3812 -1.2806
 7900SOL     OW35158   0.786   3.058  12.709 -0.4053  0.9446  0.4400
 7900SOL    HW135159   0.842   2.983  12.730  1.3986  2.2545  0.3441
 7900SOL    HW235160   0.698   3.024  12.724  0.8135 -0.9444  3.2945
 7901SOL     OW35161   3.876   1.372   1.471 -0.1990  0.1302 -0.5679
 7901SOL    HW135162   3.885   1.457   1.426  0.0841  0.0497 -0.6661
 7901SOL    HW235163   3.820   1.326   1.408  1.6589 -2.7904 -0.0559
 7902SOL     OW35164   3.674   1.214   0.771  0.1376  0.4061  0.1984
 7902SOL    HW135165   3.608   1.283   0.772 -0.8531 -0.5359 -0.0065
 7902SOL    HW235166   3.745   1.268   0.737  1.6669 -0.5784  1.8148
 7903SOL     OW35167   3.069   0.028  10.530 -0.6140 -0.6536 -0.6221
 7903SOL    HW135168   3.145   0.056  10.479 -0.3337 -0.4158 -0.0637
 7903SOL    HW235169   3.050   4.675  10.470  0.8288  0.9559 -3.0187
 7904SOL     OW35170   1.062   3.198   3.991 -0.3327  0.1102  0.2495
 7904SOL    HW135171   0.997   3.253   3.947 -0.8154 -0.2098  0.5650
 7904SOL    HW235172   1.084   3.243   4.073  0.9617 -1.7629  0.9083
 7905SOL     OW35173   1.704   4.100   8.597 -0.2992  0.6958  0.4305
 7905SOL    HW135174   1.628   4.113   8.539  0.8330 -1.2281 -1.5008
 7905SOL    HW235175   1.742   4.188   8.592  1.0370  0.0068 -1.4964
 7906SOL     OW35176   2.235   1.501   4.895  0.0282 -0.4863  0.2222
 7906SOL    HW135177   2.253   1.560   4.822  2.1701  2.2150  2.8840
 7906SOL    HW235178   2.317   1.516   4.942 -0.3832 -1.3985  1.2377
 7907SOL     OW35179   1.094   4.688   0.525 -0.4441 -0.5162  0.8290
 7907SOL    HW135180   1.077   4.698   0.619  1.2640  0.9943  0.9699
 7907SOL    HW235181   1.098   0.060   0.495  0.7911 -1.4830 -1.9241
 7908SOL     OW35182   1.978   0.715   8.585  1.3655 -0.2751  0.0668
 7908SOL    HW135183   2.069   0.743   8.597  2.0678 -0.9321 -3.6992
 7908SOL    HW235184   1.954   0.690   8.674 -1.4413  1.4841 -0.1942
 7909SOL     OW35185   0.735   1.152   4.108  0.1723 -0.3902 -0.0653
 7909SOL    HW135186   0.828   1.146   4.085  0.3931 -0.9735  0.9857
 7909SOL    HW235187   0.694   1.105   4.036 -0.1381 -0.1031 -0.0743
 7910SOL     OW35188   3.959   3.616   1.637 -0.4484 -0.0280 -0.0351
 7910SOL    HW135189   3.900   3.652   1.703 -0.1015 -0.2476  0.3941
 7910SOL    HW235190   3.905   3.609   1.559  1.0096  2.2115 -1.2434
 7911SOL     OW35191   3.807   2.784   5.401  0.1941 -0.1791 -0.2312
 7911SOL    HW135192   3.880   2.725   5.380 -1.1758 -1.7472 -0.5465
 7911SOL    HW235193   3.856   2.864   5.423 -0.7671 -0.0190  1.3682
 7912SOL     OW35194   1.044   0.866   8.138  0.8396  0.7671  0.6944
 7912SOL    HW135195   1.049   0.772   8.157 -0.3673  0.7578  0.9423
 7912SOL    HW235196   1.024   0.862   8.045 -1.7876  0.6172  1.2501
 7913SOL     OW35197   3.414   2.873   8.336 -0.4678 -0.1237 -0.1448
 7913SOL    HW135198   3.505   2.883   8.309 -0.6293  1.9359  0.0132
 7913SOL    HW235199   3.387   2.924   8.259 -1.5302  0.1863  0.4284
 7914SOL     OW35200   4.566   3.105   3.518 -0.1354  0.1386 -0.2712
 7914SOL    HW135201   4.618   3.061   3.451 -0.2646 -1.5895  0.7627
 7914SOL    HW235202   4.527   3.181   3.474 -1.9476  0.0179  1.1129
 7915SOL     OW35203   2.696   2.479   6.342  0.8976  0.1471  0.1105
 7915SOL    HW135204   2.752   2.478   6.265 -0.3283 -2.5751 -0.7370
 7915SOL    HW235205   2.658   2.392   6.354  1.4228 -0.1398 -0.2984
 7916SOL     OW35206   1.951   4.386   8.904 -0.3270 -0.9979  0.3651
 7916SOL    HW135207   1.931   4.322   8.972 -2.1706 -1.5784 -0.7272
 7916SOL    HW235208   1.867   4.425   8.879  1.4282  1.3494 -1.8441
 7917SOL     OW35209   0.037   3.752   5.475 -0.4044  0.0471 -0.0476
 7917SOL    HW135210   0.042   3.659   5.453 -1.0209  0.6834 -2.8834
 7917SOL    HW235211   4.694   3.751   5.549  1.4800  1.2737  1.5380
 7918SOL     OW35212   2.350   0.679   4.087  0.0753 -0.2387  0.4523
 7918SOL    HW135213   2.387   0.711   4.005 -1.7169  0.3973 -0.0808
 7918SOL    HW235214   2.350   0.763   4.133 -0.4858 -1.2555  2.3305
 7919SOL     OW35215   4.179   3.392   6.539  0.0288  0.0733  0.6233
 7919SOL    HW135216   4.252   3.330   6.528 -1.4734 -1.2946 -1.7195
 7919SOL    HW235217   4.134   3.364   6.619 -1.6608  3.3134  0.7799
 7920SOL     OW35218   1.536   3.054   8.669 -0.7136 -0.5752  0.3168
 7920SOL    HW135219   1.564   2.966   8.646 -1.0267 -0.4253 -0.6194
 7920SOL    HW235220   1.565   3.051   8.760 -2.5931  1.5903  1.0010
 7921SOL     OW35221   4.354   2.165   6.020  0.1055  0.4748 -0.0614
 7921SOL    HW135222   4.303   2.188   6.097 -1.5991 -1.9640 -0.4387
 7921SOL    HW235223   4.340   2.249   5.975  0.7950  0.8604  0.4569
 7922SOL     OW35224   1.165   1.467  13.140  0.3697  0.3363 -0.0225
 7922SOL    HW135225   1.125   1.447  13.224 -1.9622 -0.4798 -1.3442
 7922SOL    HW235226   1.143   1.559  13.124  1.6803  0.6675  0.0730
 7923SOL     OW35227   1.363   4.608   2.456  0.6945  0.0917  0.5033
 7923SOL    HW135228   1.426   4.541   2.483 -0.7222 -1.3081  0.3502
 7923SOL    HW235229   1.366   4.598   2.361 -1.1079 -0.6367  0.5305
 7924SOL     OW35230   1.385   3.441   8.499  0.0645 -0.1963 -0.2131
 7924SOL    HW135231   1.381   3.531   8.469 -0.5031 -1.2554 -3.2461
 7924SOL    HW235232   1.291   3.421   8.505  0.1819 -0.2446  1.4736
 7925SOL     OW35233   2.954   4.096   5.230  0.2816 -0.2976 -0.1117
 7925SOL    HW135234   3.037   4.138   5.252  0.9211 -1.5704 -0.0573
 7925SOL    HW235235   2.884   4.139   5.279  0.0631 -0.0009 -0.6927
 7926SOL     OW35236   2.977   1.127   4.132  0.3574  0.2847  0.0536
 7926SOL    HW135237   3.007   1.207   4.088 -0.1254  0.2227 -0.3945
 7926SOL    HW235238   2.893   1.110   4.089  1.4298 -1.0113 -1.5433
 7927SOL     OW35239   0.465   3.934  11.778 -0.0116  0.2861 -0.3080
 7927SOL    HW135240   0.387   3.935  11.722 -0.2999  1.2458  0.1122
 7927SOL    HW235241   0.480   3.840  11.790 -0.4191  0.1559 -0.7859
 7928SOL     OW35242   3.186   0.245   9.606  0.1546 -0.1118 -0.4211
 7928SOL    HW135243   3.231   0.323   9.635  1.7354 -0.5178 -1.7800
 7928SOL    HW235244   3.168   0.258   9.513 -3.6748  2.9479  0.7361
 7929SOL     OW35245   1.466   0.262  11.511  0.2438 -0.1124 -0.1380
 7929SOL    HW135246   1.386   0.301  11.547 -0.0379 -1.0928  0.2943
 7929SOL    HW235247   1.461   0.274  11.417 -2.1005 -0.7490 -0.1079
 7930SOL     OW35248   1.057   0.176  11.859  0.3237 -0.4872  0.1313
 7930SOL    HW135249   1.029   0.171  11.950  0.9571  1.9526  0.4583
 7930SOL    HW235250   1.064   0.082  11.841  2.0098  0.0266 -1.8454
 7931SOL     OW35251   4.593   3.835   2.588 -0.1060  0.0988 -0.0564
 7931SOL    HW135252   4.645   3.769   2.633 -1.7881 -2.2602 -1.5642
 7931SOL    HW235253   4.556   3.888   2.659 -3.6483 -1.9396 -0.3611
 7932SOL     OW35254   1.213   2.394  12.641 -0.2938 -0.1073 -0.0737
 7932SOL    HW135255   1.293   2.438  12.671  0.7187  0.1883 -3.1589
 7932SOL    HW235256   1.183   2.376  12.730  3.8240 -1.9515  0.9296
 7933SOL     OW35257   3.299   0.512   4.560  0.2496 -0.0469 -0.7004
 7933SOL    HW135258   3.223   0.571   4.553  0.9890  1.0905  0.9747
 7933SOL    HW235259   3.251   0.430   4.548 -1.3131  0.9348 -1.1387
 7934SOL     OW35260   2.830   0.537   8.346 -0.1197  0.3209  0.2678
 7934SOL    HW135261   2.866   0.625   8.358  0.5294 -0.3103  2.8275
 7934SOL    HW235262   2.742   0.555   8.312  0.2440  0.6971 -0.4935
 7935SOL     OW35263   4.595   2.231   9.480 -0.6681 -0.2272  0.3930
 7935SOL    HW135264   4.655   2.239   9.554  1.7087  1.1635 -1.6791
 7935SOL    HW235265   4.627   2.149   9.441 -1.0416  0.1383 -0.6804
 7936SOL     OW35266   4.337   0.448  10.026  0.1798 -0.3722  0.4345
 7936SOL    HW135267   4.383   0.408  10.100  2.5432  2.0319  0.2862
 7936SOL    HW235268   4.247   0.422  10.045 -0.0936 -0.0033 -0.3643
 7937SOL     OW35269   4.521   1.299   3.318 -0.2484  0.2027 -0.1326
 7937SOL    HW135270   4.601   1.246   3.320 -0.1891  0.3189  0.8301
 7937SOL    HW235271   4.531   1.342   3.234 -2.0523 -0.1855 -0.5333
 7938SOL     OW35272   0.466   1.114   3.301 -0.4564 -0.1250  0.0969
 7938SOL    HW135273   0.547   1.134   3.347  0.1084 -1.4508 -0.3326
 7938SOL    HW235274   0.450   1.026   3.336 -0.2506 -0.7643 -1.3717
 7939SOL     OW35275   1.916   4.441  11.257 -0.2973 -0.0569 -0.3357
 7939SOL    HW135276   1.982   4.375  11.276  0.3588  0.8121  0.4151
 7939SOL    HW235277   1.962   4.525  11.255 -1.1627  0.4443  0.7600
 7940SOL     OW35278   1.221   2.911  16.547 -0.0448  0.1613  0.5408
 7940SOL    HW135279   1.178   2.887  16.629  0.1112 -0.0983  0.5462
 7940SOL    HW235280   1.274   2.832  16.556 -3.1505 -1.8256  0.9520
 7941SOL     OW35281   0.443   0.825   7.616  0.6011 -0.0980 -0.0731
 7941SOL    HW135282   0.458   0.825   7.710 -1.6479 -1.6980  0.2695
 7941SOL    HW235283   0.351   0.851   7.606  0.4488 -0.6215 -0.0523
 7942SOL     OW35284   0.663   1.215  15.714 -0.1372 -0.8403 -0.5192
 7942SOL    HW135285   0.608   1.262  15.777 -0.5030 -3.2919  0.9709
 7942SOL    HW235286   0.735   1.272  15.687 -0.6447  0.8391  1.7072
 7943SOL     OW35287   4.502   3.368   6.753  0.1473  1.0135  0.4845
 7943SOL    HW135288   4.449   3.293   6.726  1.0440  0.8429 -0.7982
 7943SOL    HW235289   4.425   3.418   6.780 -0.6663 -1.0232  1.9141
 7944SOL     OW35290   1.317   2.306   8.465 -0.2917  0.4609 -0.0347
 7944SOL    HW135291   1.275   2.390   8.447 -0.6013 -0.2732 -2.8398
 7944SOL    HW235292   1.400   2.331   8.422 -0.5375  0.4964 -0.4929
 7945SOL     OW35293   0.883   0.309   7.734  0.2847  0.2873  0.1154
 7945SOL    HW135294   0.909   0.278   7.648  1.5624  0.1694  0.5421
 7945SOL    HW235295   0.900   0.228   7.783  0.1033 -1.1518 -2.2017
 7946SOL     OW35296   1.464   2.716   5.594 -0.6444  0.1514 -0.5326
 7946SOL    HW135297   1.479   2.711   5.688  0.0978 -1.3186 -0.7228
 7946SOL    HW235298   1.472   2.624   5.570 -2.6991 -0.6694  1.9697
 7947SOL     OW35299   2.330   0.251   2.906 -0.0151  0.2162  0.4376
 7947SOL    HW135300   2.301   0.243   2.815 -2.4223 -0.9216  1.3274
 7947SOL    HW235301   2.408   0.307   2.900  1.3335 -1.8861 -1.8624
 7948SOL     OW35302   2.249   3.197   8.239  0.0144 -0.2527 -0.4677
 7948SOL    HW135303   2.326   3.213   8.294 -0.4068  1.9487 -0.5307
 7948SOL    HW235304   2.192   3.208   8.315 -0.6107  1.2191 -1.1372
 7949SOL     OW35305   2.907   1.917  12.204 -0.2461  0.0445 -0.0315
 7949SOL    HW135306   2.919   2.011  12.188  0.9337 -0.0376  0.3746
 7949SOL    HW235307   3.000   1.900  12.220 -0.6768 -2.7802 -0.5520
 7950SOL     OW35308   2.607   1.531   8.273 -0.4031  0.1108 -0.2376
 7950SOL    HW135309   2.697   1.561   8.265  0.2786 -1.6670  0.7465
 7950SOL    HW235310   2.568   1.613   8.302 -0.2916  0.2956 -0.6103
 7951SOL     OW35311   0.219   0.514   0.073  1.3102 -0.1413  0.0123
 7951SOL    HW135312   0.227   0.453  17.678 -3.0327  0.9778 -1.3881
 7951SOL    HW235313   0.165   0.466   0.135  3.3442 -0.2494  1.7213
 7952SOL     OW35314   3.631   1.262  12.738 -0.2150 -0.5662  0.2771
 7952SOL    HW135315   3.618   1.350  12.771 -0.6575 -0.6860  0.4254
 7952SOL    HW235316   3.695   1.231  12.802 -0.7275 -0.8688  0.6533
 7953SOL     OW35317   0.360   0.628  15.809 -0.7271 -0.1443 -0.5761
 7953SOL    HW135318   0.302   0.658  15.880 -1.0814 -0.2072 -0.8368
 7953SOL    HW235319   0.307   0.577  15.747  0.5582 -2.0383 -0.1401
 7954SOL     OW35320   0.652   3.545   6.391  1.1272 -0.0194  0.6656
 7954SOL    HW135321   0.689   3.547   6.303  1.2818  0.5044  0.7413
 7954SOL    HW235322   0.583   3.611   6.384  1.6604  0.3625 -1.0196
 7955SOL     OW35323   1.136   1.058   2.616 -0.1247 -0.0554 -0.3256
 7955SOL    HW135324   1.048   1.097   2.610  0.9610  2.5847  0.6952
 7955SOL    HW235325   1.131   0.997   2.689  4.0149 -1.4276 -1.1829
 7956SOL     OW35326   1.461   0.390   5.285 -0.0178  0.3219 -0.0339
 7956SOL    HW135327   1.418   0.311   5.318  3.7840 -1.4180  0.6775
 7956SOL    HW235328   1.406   0.425   5.214  1.2223  3.0956  0.3581
 7957SOL     OW35329   2.705   3.229   6.351  0.1739  0.5266 -0.2438
 7957SOL    HW135330   2.721   3.323   6.358 -1.0356  0.8407 -1.6329
 7957SOL    HW235331   2.624   3.221   6.401  0.2629  0.1606 -0.1626
 7958SOL     OW35332   3.069   2.838   8.434 -0.8080 -0.1923 -0.0343
 7958SOL    HW135333   2.983   2.852   8.394 -0.6525  1.7030  0.3035
 7958SOL    HW235334   3.115   2.915   8.401  2.0160 -2.4553 -1.3328
 7959SOL     OW35335   3.188   4.596  11.105 -0.2957 -0.2847 -1.3969
 7959SOL    HW135336   3.248   4.522  11.113  1.0729  0.6856 -2.9270
 7959SOL    HW235337   3.107   4.554  11.135  0.0239 -0.3350 -0.5845
 7960SOL     OW35338   0.192   0.694   2.460 -0.5704  0.1201 -0.4793
 7960SOL    HW135339   0.267   0.753   2.472  1.0012 -1.5379 -2.2554
 7960SOL    HW235340   0.154   0.702   2.548  0.0967  1.9008 -0.3474
 7961SOL     OW35341   2.655   1.603   6.107  0.1146  0.5683 -0.6554
 7961SOL    HW135342   2.679   1.511   6.120 -0.7124  0.5334  0.6092
 7961SOL    HW235343   2.736   1.653   6.116  2.3208 -3.3320  1.1210
 7962SOL     OW35344   3.989   2.318   0.168  0.0507 -0.1274  0.0070
 7962SOL    HW135345   4.060   2.281   0.220  0.8642 -0.1644 -1.1402
 7962SOL    HW235346   4.018   2.304   0.078 -0.3464 -3.1304  0.3509
 7963SOL     OW35347   4.561   2.790   7.671 -0.6423 -0.0473 -0.4711
 7963SOL    HW135348   4.653   2.769   7.657 -0.4408 -0.6292  1.7575
 7963SOL    HW235349   4.522   2.712   7.630 -1.2002 -0.0671  0.1022
 7964SOL     OW35350   3.755   1.353  15.309 -0.5461 -0.7379 -0.6606
 7964SOL    HW135351   3.779   1.327  15.398 -2.2733 -0.9476 -0.2399
 7964SOL    HW235352   3.801   1.287  15.257  0.5838 -1.3440  1.1047
 7965SOL     OW35353   1.030   4.306   7.703 -0.0925  0.5600 -0.2472
 7965SOL    HW135354   0.996   4.243   7.767  0.5720  1.0525  0.5834
 7965SOL    HW235355   1.023   4.257   7.621  0.7097  1.5535 -0.9090
 7966SOL     OW35356   1.149   4.445   3.119  0.2193  0.3760 -0.0047
 7966SOL    HW135357   1.147   4.349   3.121  2.5805  0.3450  1.9419
 7966SOL    HW235358   1.159   4.460   3.213 -1.5210  1.1024  0.0662
 7967SOL     OW35359   4.018   1.499  16.295  0.2836 -0.2087  0.0312
 7967SOL    HW135360   3.955   1.551  16.345  2.3703  2.5433 -0.1949
 7967SOL    HW235361   4.074   1.452  16.357  0.4718 -1.5780 -1.1938
 7968SOL     OW35362   2.940   0.293   1.540  0.3411  0.6800  0.3441
 7968SOL    HW135363   2.855   0.334   1.525  0.0101 -0.5983 -1.3432
 7968SOL    HW235364   2.993   0.371   1.556 -1.8566  1.9397  1.3969
 7969SOL     OW35365   2.461   3.224   5.571  0.7353 -0.4054  0.0297
 7969SOL    HW135366   2.416   3.256   5.493  0.7771 -0.3409  0.0320
 7969SOL    HW235367   2.406   3.280   5.627 -2.3100 -1.8124 -1.5780
 7970SOL     OW35368   3.643   4.004  13.259 -0.4787 -0.0336  0.8160
 7970SOL    HW135369   3.699   3.976  13.187  1.5131  0.1166  2.2894
 7970SOL    HW235370   3.571   3.943  13.246  0.5327 -0.8266 -1.0652
 7971SOL     OW35371   1.632   2.348   3.409 -0.0208  0.2333  0.1547
 7971SOL    HW135372   1.620   2.437   3.442  0.9193  0.1860  0.6339
 7971SOL    HW235373   1.584   2.354   3.326 -1.7814 -4.8549  0.8466
 7972SOL     OW35374   1.845   0.958  11.353  0.5073  0.2167  0.7557
 7972SOL    HW135375   1.931   0.948  11.395  1.6443  0.5836 -1.4438
 7972SOL    HW235376   1.794   1.028  11.393  1.9538  1.1873  0.9004
 7973SOL     OW35377   2.257   3.751  11.386  0.0678  0.1948  0.0831
 7973SOL    HW135378   2.289   3.754  11.296  2.2385 -1.2026  0.8079
 7973SOL    HW235379   2.179   3.698  11.366  0.0957  0.6450 -1.2138
 7974SOL     OW35380   1.658   4.019   6.183 -0.5820  0.4990  0.5632
 7974SOL    HW135381   1.672   4.068   6.264 -1.8323 -0.4846  1.3633
 7974SOL    HW235382   1.603   4.084   6.139 -0.3163  0.3321 -0.0114
 7975SOL     OW35383   0.402   4.063   7.027  0.3140  0.6962 -0.4329
 7975SOL    HW135384   0.413   3.968   7.022  0.3300  0.6189  1.0141
 7975SOL    HW235385   0.467   4.079   7.096 -0.0991 -2.1514  0.6286
 7976SOL     OW35386   3.460   0.958   7.271  0.0828 -0.4969 -0.2315
 7976SOL    HW135387   3.474   1.038   7.323  1.1171  0.3926 -1.9010
 7976SOL    HW235388   3.366   0.944   7.282  0.5117 -2.3289  1.0907
 7977SOL     OW35389   0.266   2.295   6.029 -0.1616  0.5600 -0.2755
 7977SOL    HW135390   0.301   2.382   6.010 -2.0498  1.2298 -0.6483
 7977SOL    HW235391   0.342   2.256   6.071 -0.1118  0.9812  0.0271
 7978SOL     OW35392   1.344   3.185  10.666  0.0895 -0.3723  0.2643
 7978SOL    HW135393   1.314   3.232  10.744 -1.2569  1.5064 -1.3911
 7978SOL    HW235394   1.281   3.219  10.603 -0.1845  1.3961  1.4941
 7979SOL     OW35395   0.822   3.853   3.768 -0.1356  0.7104 -0.1653
 7979SOL    HW135396   0.771   3.880   3.692 -1.1877 -0.2576  0.2024
 7979SOL    HW235397   0.824   3.934   3.819 -0.6240 -0.1209  1.1738
 7980SOL     OW35398   3.118   3.638   2.522 -0.6646  0.3578 -0.3221
 7980SOL    HW135399   3.064   3.716   2.510 -1.7117 -0.7293 -2.6291
 7980SOL    HW235400   3.052   3.568   2.514  0.1237 -0.0444 -3.1860
 7981SOL     OW35401   1.121   2.189   8.597 -0.0707  0.0108  0.4380
 7981SOL    HW135402   1.143   2.179   8.690 -2.6706  1.3097  1.1841
 7981SOL    HW235403   1.203   2.234   8.572 -0.7918  0.9061 -0.3301
 7982SOL     OW35404   3.775   3.742   9.088  0.2789 -0.7045 -0.4201
 7982SOL    HW135405   3.774   3.832   9.120  0.0536 -0.5334 -0.9016
 7982SOL    HW235406   3.748   3.755   8.997 -0.1872  0.8316 -0.0653
 7983SOL     OW35407   4.713   4.567   7.685 -0.1030  0.1157  0.2015
 7983SOL    HW135408   0.014   4.493   7.742 -2.0185 -0.6031 -0.0761
 7983SOL    HW235409   0.077   4.613   7.670  0.2714 -0.1879  1.3003
 7984SOL     OW35410   2.254   0.749   0.158 -0.7512 -0.6893  0.7574
 7984SOL    HW135411   2.249   0.775   0.250 -0.7815  3.3442 -0.4116
 7984SOL    HW235412   2.234   0.655   0.155 -0.3971 -0.7456  0.2724
 7985SOL     OW35413   4.686   2.881   6.028 -0.2904 -0.1736 -0.0591
 7985SOL    HW135414   4.656   2.833   5.951 -0.3002  2.3758 -1.6598
 7985SOL    HW235415   0.062   2.865   6.028 -0.6582 -2.3402 -1.1637
 7986SOL     OW35416   1.241   0.536   5.196  0.1705  0.0363 -0.2606
 7986SOL    HW135417   1.285   0.614   5.163 -0.5015  1.4434  2.1236
 7986SOL    HW235418   1.164   0.553   5.142  0.2128 -0.5826 -0.5152
 7987SOL     OW35419   3.338   4.121   9.591  0.1102 -0.7805 -0.1243
 7987SOL    HW135420   3.344   4.195   9.652 -2.1188 -1.9718  1.5366
 7987SOL    HW235421   3.274   4.150   9.525  0.4668 -0.1258 -0.1797
 7988SOL     OW35422   2.777   0.975  13.674  0.0348 -0.2999  0.0226
 7988SOL    HW135423   2.715   0.902  13.675  1.2241 -1.3427 -2.0500
 7988SOL    HW235424   2.766   0.994  13.580  1.7824 -1.3112 -0.3754
 7989SOL     OW35425   4.557   0.471   9.582 -0.6109 -0.1130  0.1452
 7989SOL    HW135426   4.564   0.379   9.608 -1.6059  0.2145  1.5529
 7989SOL    HW235427   4.651   0.482   9.590 -0.8466  1.1991  1.0223
 7990SOL     OW35428   2.013   3.062  16.914  0.2968  0.4233 -0.3500
 7990SOL    HW135429   1.972   2.991  16.963  2.9211  1.0650  2.7710
 7990SOL    HW235430   2.061   3.016  16.845  0.2623 -0.9279  0.5175
 7991SOL     OW35431   2.303   2.750  11.964  0.3326 -0.2875  1.0445
 7991SOL    HW135432   2.221   2.753  12.014  1.0528 -2.6421  2.3679
 7991SOL    HW235433   2.311   2.655  11.954  2.1367 -0.2640  2.1699
 7992SOL     OW35434   1.150   1.900  14.300 -0.1704 -0.5073  0.0303
 7992SOL    HW135435   1.244   1.909  14.284 -0.4540  0.4358 -1.1232
 7992SOL    HW235436   1.144   1.805  14.314 -1.2294 -0.4531 -0.0996
 7993SOL     OW35437   2.455   4.699  11.469 -0.3010  0.3897  0.5237
 7993SOL    HW135438   2.413   4.648  11.400 -0.5192  1.1067  0.1252
 7993SOL    HW235439   2.548   4.677  11.462 -0.7995 -2.0994  1.9476
 7994SOL     OW35440   1.657   2.906   5.035 -0.4318  0.3131  0.0310
 7994SOL    HW135441   1.725   2.948   4.983  1.1130 -1.9705  0.1854
 7994SOL    HW235442   1.706   2.849   5.095 -0.7502 -0.3404 -0.3238
 7995SOL     OW35443   3.156   3.841  16.903 -0.1701  0.1213 -0.0145
 7995SOL    HW135444   3.223   3.777  16.877  1.9051  1.1602  2.7428
 7995SOL    HW235445   3.178   3.911  16.842 -0.8536  0.5422  0.2169
 7996SOL     OW35446   3.459   2.261   3.425  0.8211  0.0584 -0.0590
 7996SOL    HW135447   3.446   2.348   3.463  0.0578  0.5670 -1.4835
 7996SOL    HW235448   3.517   2.284   3.352  2.5360  0.6250  1.4548
 7997SOL     OW35449   0.220   0.098   2.900 -0.5010 -0.1292 -0.6754
 7997SOL    HW135450   0.219   0.002   2.909 -1.9654 -0.0944 -0.5089
 7997SOL    HW235451   0.310   0.110   2.931  0.0220 -1.0849 -1.8113
 7998SOL     OW35452   1.122   4.714   3.660 -0.1543 -0.4683  0.0465
 7998SOL    HW135453   1.193   4.691   3.720 -0.8904 -1.4526  0.5406
 7998SOL    HW235454   1.043   4.706   3.714  0.8622 -1.3949  1.3965
 7999SOL     OW35455   2.111   4.229  13.087  0.4018  0.6661  0.3681
 7999SOL    HW135456   2.161   4.235  13.005 -1.3210 -1.1887 -0.8110
 7999SOL    HW235457   2.177   4.225  13.156 -0.4609  0.4497  1.1742
 8000SOL     OW35458   0.747   0.277   3.551  0.0692 -0.1658 -0.0859
 8000SOL    HW135459   0.755   0.353   3.609 -0.2530 -0.3992  0.2664
 8000SOL    HW235460   0.825   0.283   3.496 -0.7817  0.8625 -1.1969
 8001SOL     OW35461   4.172   0.682   2.465 -0.4628  0.1297  0.1613
 8001SOL    HW135462   4.135   0.654   2.381 -0.3606 -3.3836  1.2777
 8001SOL    HW235463   4.098   0.722   2.510  0.3138  2.7109 -0.8644
 8002SOL     OW35464   2.537   4.350   6.035 -0.6290 -0.1693 -0.3057
 8002SOL    HW135465   2.523   4.409   6.108  0.2799 -0.0228 -0.2427
 8002SOL    HW235466   2.448   4.353   6.000  0.0338  0.8253 -1.9179
 8003SOL     OW35467   3.876   4.367   3.788 -0.1437  0.0779 -0.1792
 8003SOL    HW135468   3.855   4.354   3.696 -1.5346  0.4664  0.0796
 8003SOL    HW235469   3.930   4.294   3.818 -1.3709 -0.0935  1.6242
 8004SOL     OW35470   1.352   0.170   8.508 -0.3296 -0.9225  0.2114
 8004SOL    HW135471   1.404   0.135   8.580 -1.0209 -1.1269  0.6144
 8004SOL    HW235472   1.268   0.189   8.549 -0.2018  0.9408 -0.3630
 8005SOL     OW35473   2.567   4.005   0.223 -0.1912  0.2467  0.0656
 8005SOL    HW135474   2.651   3.961   0.234 -0.4856  0.2689  2.5255
 8005SOL    HW235475   2.516   3.924   0.213  0.6168 -0.0557 -1.5806
 8006SOL     OW35476   3.410   1.420  14.231  0.6715 -0.8200  0.2005
 8006SOL    HW135477   3.357   1.487  14.190  1.7530  0.3003  0.6304
 8006SOL    HW235478   3.358   1.410  14.310  1.3759  1.8849  1.0058
 8007SOL     OW35479   0.560   0.792   3.883 -0.2904 -0.3190  0.6107
 8007SOL    HW135480   0.475   0.837   3.879 -0.8545 -1.3817  0.5831
 8007SOL    HW235481   0.602   0.841   3.813 -0.1326  1.2842  1.8192
 8008SOL     OW35482   1.288   4.219   6.644 -0.6841 -0.7995 -0.8973
 8008SOL    HW135483   1.334   4.135   6.645  0.2715 -0.2710 -0.4939
 8008SOL    HW235484   1.359   4.274   6.678  0.4434 -2.2254 -0.9467
 8009SOL     OW35485   1.032   0.806  15.147  0.0869 -0.2621 -0.1722
 8009SOL    HW135486   1.114   0.800  15.196  0.6566  0.8126 -0.9996
 8009SOL    HW235487   0.969   0.757  15.200 -0.0682 -0.8595 -0.9141
 8010SOL     OW35488   1.131   3.588   2.451 -0.0852  1.1237  0.3593
 8010SOL    HW135489   1.213   3.631   2.479  1.1363 -1.1259  0.1895
 8010SOL    HW235490   1.155   3.563   2.362  1.5930 -0.5494  1.2791
 8011SOL     OW35491   2.957   0.977  15.169 -0.0126  0.0941 -0.0572
 8011SOL    HW135492   3.029   0.991  15.230  1.1691  1.8549 -1.8451
 8011SOL    HW235493   2.954   1.060  15.120  2.3074  0.2961  0.1524
 8012SOL     OW35494   3.742   3.507  17.471  0.3512 -0.3856  0.4125
 8012SOL    HW135495   3.816   3.531  17.526  0.5695  0.8620 -0.4272
 8012SOL    HW235496   3.735   3.412  17.479 -1.3025 -0.3221 -0.1449
 8013SOL     OW35497   0.775   4.699   8.299  0.3824  0.0045  0.1566
 8013SOL    HW135498   0.715   4.683   8.371 -0.4980 -1.3193 -0.8637
 8013SOL    HW235499   0.809   4.609   8.292 -1.7304 -0.9314  2.1280
 8014SOL     OW35500   0.301   1.682   0.829 -0.1870 -0.6304 -0.4556
 8014SOL    HW135501   0.216   1.683   0.874  0.0074  1.8445 -0.1325
 8014SOL    HW235502   0.344   1.736   0.895 -1.6087 -0.6581  0.4997
 8015SOL     OW35503   2.853   4.595   8.673  0.3776  0.0165  0.1605
 8015SOL    HW135504   2.848   4.502   8.694 -1.0957 -0.4787 -2.3106
 8015SOL    HW235505   2.829   4.597   8.580  1.5786  0.9632 -0.1323
 8016SOL     OW35506   2.334   2.808   6.971 -0.5281 -0.1137  0.3278
 8016SOL    HW135507   2.367   2.890   6.933  0.8589  0.2739  2.3553
 8016SOL    HW235508   2.370   2.748   6.905  0.8457 -1.4833  2.3386
 8017SOL     OW35509   0.704   0.875   1.086  0.0715 -0.1738  0.1935
 8017SOL    HW135510   0.755   0.927   1.147 -0.1176  0.5002 -0.2255
 8017SOL    HW235511   0.639   0.835   1.145  1.9334  0.2112  2.4913
 8018SOL     OW35512   2.328   4.056   1.022  0.2345  0.4721  0.7586
 8018SOL    HW135513   2.273   4.121   0.979 -1.2751 -0.7640  0.8492
 8018SOL    HW235514   2.405   4.112   1.039  0.6053 -0.5161  2.3591
 8019SOL     OW35515   4.454   0.514   8.796  0.4876 -0.2802  0.1244
 8019SOL    HW135516   4.529   0.507   8.854 -0.3208  0.6338  1.2792
 8019SOL    HW235517   4.381   0.528   8.857 -0.2984 -0.9345 -0.6578
 8020SOL     OW35518   1.568   0.089   1.661  0.1800 -0.3413  0.8373
 8020SOL    HW135519   1.642   0.039   1.697  0.9247  0.3139  0.2038
 8020SOL    HW235520   1.530   0.111   1.746 -0.7042  1.2021  0.0400
 8021SOL     OW35521   3.110   2.587   7.736  0.4175  0.4689  0.2296
 8021SOL    HW135522   3.202   2.599   7.712  1.2361 -1.7460  2.2936
 8021SOL    HW235523   3.098   2.634   7.818 -0.7633 -0.8204  0.7909
 8022SOL     OW35524   0.576   2.050  17.222 -0.1701  0.1651 -0.0104
 8022SOL    HW135525   0.500   2.027  17.275  1.3878 -1.1098  1.6810
 8022SOL    HW235526   0.638   1.997  17.271 -0.9487  0.7170  1.5802
 8023SOL     OW35527   0.803   2.883   2.084 -0.0896  0.1802  0.0869
 8023SOL    HW135528   0.815   2.962   2.138 -0.9771  1.2760 -1.3126
 8023SOL    HW235529   0.803   2.919   1.995  2.3788  1.0748  0.4395
 8024SOL     OW35530   3.486   2.412   8.746  0.7225  0.3899 -0.2486
 8024SOL    HW135531   3.559   2.468   8.721  0.1615  2.0783  1.9550
 8024SOL    HW235532   3.528   2.326   8.739  0.5028  0.3121 -0.6288
 8025SOL     OW35533   3.500   3.364   8.319  0.7228 -0.2555  0.2741
 8025SOL    HW135534   3.591   3.332   8.316  0.0798 -1.9182 -1.4068
 8025SOL    HW235535   3.513   3.453   8.288 -3.5158 -0.4780 -2.1607
 8026SOL     OW35536   2.959   2.398  15.450 -0.3469 -1.0563 -0.1196
 8026SOL    HW135537   2.964   2.493  15.437  1.8788 -1.1477  0.1613
 8026SOL    HW235538   2.870   2.387  15.415 -0.9032 -0.2308  1.0210
 8027SOL     OW35539   0.851   4.717   1.535 -0.0974 -0.1256 -0.1209
 8027SOL    HW135540   0.912   0.067   1.509 -0.0660  0.1219  0.6193
 8027SOL    HW235541   0.809   4.678   1.458  0.7107 -0.4753 -0.3946
 8028SOL     OW35542   3.939   2.381  14.031  0.4032  0.1346  0.3088
 8028SOL    HW135543   3.854   2.389  13.988  0.0621  1.0338  1.1661
 8028SOL    HW235544   4.001   2.423  13.971  0.2539  0.6319  0.5051
 8029SOL     OW35545   0.479   1.066  10.606 -0.6906  0.0201  0.1611
 8029SOL    HW135546   0.552   1.105  10.653  0.0203 -0.6306 -0.3969
 8029SOL    HW235547   0.445   1.140  10.555 -2.7327 -1.1030 -0.1266
 8030SOL     OW35548   0.549   3.700   9.045 -0.9937  0.0339  0.1359
 8030SOL    HW135549   0.484   3.769   9.033 -0.1958  0.4056 -2.1000
 8030SOL    HW235550   0.528   3.654   8.963 -1.6796 -1.4029  1.1112
 8031SOL     OW35551   4.621   3.599   2.753 -0.4194 -0.5550  0.3256
 8031SOL    HW135552   4.548   3.539   2.742 -1.7258  1.4449 -1.9075
 8031SOL    HW235553   4.686   3.534   2.779 -0.3393  0.4371  2.6322
 8032SOL     OW35554   1.808   4.538   1.981  0.2849  0.2679  0.6908
 8032SOL    HW135555   1.877   4.479   2.013  0.8794  0.1447 -0.7901
 8032SOL    HW235556   1.780   4.571   2.065 -1.0885  0.3852  0.1775
 8033SOL     OW35557   1.024   1.947   2.698  0.0522  0.0252 -0.3439
 8033SOL    HW135558   0.949   1.934   2.641 -0.6062  1.6312  0.1385
 8033SOL    HW235559   1.100   1.908   2.655 -1.5223 -2.6839 -0.6051
 8034SOL     OW35560   4.280   4.530   5.398 -0.7141 -0.5115  0.1936
 8034SOL    HW135561   4.185   4.524   5.408 -0.7458  1.3786  1.1334
 8034SOL    HW235562   4.298   4.440   5.370  4.9821  0.7280 -0.2028
 8035SOL     OW35563   3.275   3.758  15.224  0.1633 -0.0636  0.1972
 8035SOL    HW135564   3.349   3.698  15.215 -0.3453 -0.7977  0.7695
 8035SOL    HW235565   3.278   3.812  15.146  1.2316  0.7621  0.8121
 8036SOL     OW35566   2.235   3.403   3.531  0.2594  0.0714  0.4408
 8036SOL    HW135567   2.246   3.452   3.449  1.5882 -0.7787  0.1025
 8036SOL    HW235568   2.326   3.388   3.556 -0.0379  0.3243  1.6810
 8037SOL     OW35569   0.654   1.673   5.579 -0.0751  0.1355  0.0382
 8037SOL    HW135570   0.643   1.725   5.659 -3.3788  0.0209 -0.3544
 8037SOL    HW235571   0.731   1.710   5.536  0.5268 -0.9153  0.2037
 8038SOL     OW35572   1.058   0.071   4.451 -0.3575  0.1538 -0.0842
 8038SOL    HW135573   1.071   0.005   4.382  1.7038  0.6343 -0.1372
 8038SOL    HW235574   0.968   0.100   4.436 -1.1794 -2.0787  0.4846
 8039SOL     OW35575   3.629   0.985   7.020 -0.0262  0.1155  0.3985
 8039SOL    HW135576   3.704   1.031   7.057  0.5424 -2.0804  1.9643
 8039SOL    HW235577   3.570   0.987   7.095 -0.7678 -0.4319 -0.1564
 8040SOL     OW35578   3.509   3.705   2.799 -0.6444  0.1044 -0.0973
 8040SOL    HW135579   3.517   3.693   2.893 -0.1833 -0.7319 -0.2436
 8040SOL    HW235580   3.426   3.751   2.790  0.3237  1.3373 -2.9959
 8041SOL     OW35581   4.200   1.120   4.326  0.3506  0.1724  0.0992
 8041SOL    HW135582   4.171   1.033   4.351 -0.2459  0.2201 -0.4173
 8041SOL    HW235583   4.289   1.092   4.305 -0.1520 -0.5116 -1.1429
 8042SOL     OW35584   1.524   2.411   8.275  0.1124 -0.0379  0.2361
 8042SOL    HW135585   1.551   2.323   8.248  0.9277 -0.1286  1.3727
 8042SOL    HW235586   1.460   2.436   8.208  0.4272  0.3683  0.0901
 8043SOL     OW35587   2.579   4.153   8.619 -0.3247  0.1245 -0.4379
 8043SOL    HW135588   2.665   4.190   8.600 -1.0969  1.9070 -0.4863
 8043SOL    HW235589   2.578   4.071   8.569 -0.0324  1.2575 -2.3061
 8044SOL     OW35590   1.650   0.673   7.051  0.0762  0.5146  0.1322
 8044SOL    HW135591   1.691   0.658   6.965 -0.8227 -0.2518 -0.1724
 8044SOL    HW235592   1.722   0.705   7.104 -0.2786  0.7868  0.4463
 8045SOL     OW35593   4.115   3.332  17.412 -0.5995  0.0327 -0.1341
 8045SOL    HW135594   4.030   3.294  17.388  0.5097 -0.3425 -3.5362
 8045SOL    HW235595   4.085   3.407  17.464  2.4851  0.8322  0.5028
 8046SOL     OW35596   0.973   4.318  12.274 -0.2698 -0.5891  0.2564
 8046SOL    HW135597   1.046   4.267  12.239 -0.4422 -0.1155 -0.7998
 8046SOL    HW235598   0.979   4.393  12.213  0.6325 -0.0274  1.0513
 8047SOL     OW35599   3.515   0.254  17.387 -0.7345 -0.1310 -0.5819
 8047SOL    HW135600   3.530   0.234  17.479  0.8765 -1.6423 -1.1789
 8047SOL    HW235601   3.484   0.170  17.354 -1.6728  0.0293 -0.0778
 8048SOL     OW35602   2.188   0.764   6.507 -0.3282 -0.0612 -0.4626
 8048SOL    HW135603   2.268   0.787   6.555 -0.0684  1.0951 -1.4548
 8048SOL    HW235604   2.213   0.688   6.455 -0.1887 -1.0030  0.9747
 8049SOL     OW35605   4.036   2.413   9.013  0.0779  0.6477  0.1418
 8049SOL    HW135606   4.083   2.377   9.087  0.4132 -0.2203 -0.5027
 8049SOL    HW235607   4.009   2.496   9.054  1.2793  0.6596  0.8772
 8050SOL     OW35608   4.281   3.399   5.420  0.2844  0.0320 -0.1908
 8050SOL    HW135609   4.371   3.381   5.446 -0.3248 -2.7410 -0.0483
 8050SOL    HW235610   4.273   3.481   5.468 -0.4516  0.3095 -0.7774
 8051SOL     OW35611   2.451   3.881   9.682 -0.0576  0.0795 -0.1980
 8051SOL    HW135612   2.425   3.858   9.593  2.0844 -1.8429 -0.3488
 8051SOL    HW235613   2.533   3.926   9.659 -0.3663  1.0149  0.5302
 8052SOL     OW35614   2.817   1.179  12.961 -0.3887  0.1860  0.2510
 8052SOL    HW135615   2.727   1.189  12.930  0.2556 -2.6006 -2.4689
 8052SOL    HW235616   2.855   1.256  12.918  0.1151  0.7572  1.7127
 8053SOL     OW35617   2.680   4.348  11.367  0.2701  0.2555 -0.1862
 8053SOL    HW135618   2.675   4.312  11.278  0.4803 -0.6590  0.1660
 8053SOL    HW235619   2.593   4.327  11.399  1.5607 -2.9948  1.1866
 8054SOL     OW35620   3.208   4.206   5.271 -0.0858  0.1187  0.0037
 8054SOL    HW135621   3.278   4.145   5.250 -0.6297 -0.0990 -1.1691
 8054SOL    HW235622   3.179   4.228   5.183  3.9861 -4.3893 -2.4743
 8055SOL     OW35623   0.070   4.499   2.599 -0.2827 -0.1644  0.2109
 8055SOL    HW135624   0.028   4.495   2.513 -1.3376 -1.7728  0.7965
 8055SOL    HW235625   0.112   4.581   2.577  0.7965 -0.6709  0.3953
 8056SOL     OW35626   2.456   3.458   2.495 -0.0742 -0.2644  0.4756
 8056SOL    HW135627   2.448   3.446   2.400 -2.7717 -1.5282  0.8654
 8056SOL    HW235628   2.458   3.368   2.527  1.5766 -1.2288 -2.2546
 8057SOL     OW35629   2.809   1.898   7.066  0.0393  0.0689 -0.2229
 8057SOL    HW135630   2.869   1.955   7.115  1.2065  1.5840 -3.3800
 8057SOL    HW235631   2.863   1.823   7.040 -0.2045 -0.2567  0.2312
 8058SOL     OW35632   3.122   4.210   6.404 -0.3616 -0.1502 -0.3504
 8058SOL    HW135633   3.212   4.241   6.393 -1.4320  2.2136 -2.2908
 8058SOL    HW235634   3.119   4.133   6.347 -1.2579  0.6188 -1.3166
 8059SOL     OW35635   0.389   2.821   5.802 -0.2735  0.4007  0.3100
 8059SOL    HW135636   0.480   2.793   5.794 -0.2933  0.4148  0.0407
 8059SOL    HW235637   0.371   2.864   5.718 -1.2678 -0.4532  0.0951
 8060SOL     OW35638   0.402   4.363   5.933  0.1344  0.5364 -0.2140
 8060SOL    HW135639   0.387   4.402   6.019  0.5092  2.3390 -0.9483
 8060SOL    HW235640   0.429   4.439   5.882  1.4410  0.0101 -0.2960
 8061SOL     OW35641   4.490   2.857   4.176 -0.4744 -0.0818  0.4811
 8061SOL    HW135642   4.484   2.833   4.084 -0.2243  0.5162  0.3133
 8061SOL    HW235643   4.565   2.806   4.204 -1.1272 -0.8697  0.8133
 8062SOL     OW35644   2.725   1.912   4.995 -0.4651  0.0115 -0.4052
 8062SOL    HW135645   2.685   1.846   5.052  0.1975  0.3680  0.4850
 8062SOL    HW235646   2.698   1.877   4.910  2.0719  2.2882 -2.1517
 8063SOL     OW35647   4.268   4.147  10.161 -0.1803  0.6432  0.1507
 8063SOL    HW135648   4.235   4.078  10.104  0.0948  1.4431 -0.9987
 8063SOL    HW235649   4.200   4.147  10.228 -0.7631 -0.9963 -0.4520
 8064SOL     OW35650   3.453   4.680   3.592  0.3551  0.1988  0.0269
 8064SOL    HW135651   3.544   4.691   3.617  0.4317  1.2179 -0.7107
 8064SOL    HW235652   3.443   0.022   3.519 -1.6337  2.4729  2.1839
 8065SOL     OW35653   0.070   3.058   0.598 -0.1160 -0.0140  0.1278
 8065SOL    HW135654   4.697   3.081   0.588  0.1370  2.0681  2.8790
 8065SOL    HW235655   0.078   3.032   0.690 -0.4756  0.4756  0.2919
 8066SOL     OW35656   0.122   2.620   7.313 -0.0755  0.8707  0.4551
 8066SOL    HW135657   0.179   2.546   7.293 -0.7266 -0.0575  1.9994
 8066SOL    HW235658   0.165   2.691   7.266 -0.2239  0.8348  0.2677
 8067SOL     OW35659   2.474   2.827  10.304  0.5941  0.2840 -0.1333
 8067SOL    HW135660   2.565   2.800  10.317  0.4062 -0.0959  0.3637
 8067SOL    HW235661   2.466   2.832  10.208 -2.2026  0.4151  0.1085
 8068SOL     OW35662   4.707   2.206   8.450  0.5763  0.6745 -0.0527
 8068SOL    HW135663   0.028   2.292   8.436  0.1900  0.5169 -2.2136
 8068SOL    HW235664   4.681   2.174   8.363  0.8896  1.5945 -0.4916
 8069SOL     OW35665   1.733   2.626   0.033 -0.3764 -0.2998  0.8274
 8069SOL    HW135666   1.653   2.676   0.014 -0.6813 -1.3794 -0.7424
 8069SOL    HW235667   1.783   2.631  17.630  0.7206  0.6975  1.5776
 8070SOL     OW35668   1.155   2.057  13.690 -0.8865 -0.2657  0.3009
 8070SOL    HW135669   1.155   1.973  13.645  1.1798  0.2831 -0.7088
 8070SOL    HW235670   1.147   2.021  13.778 -1.1117 -0.0821  0.3560
 8071SOL     OW35671   1.343   0.366   0.588 -0.0715  0.6383  0.4616
 8071SOL    HW135672   1.305   0.451   0.562  0.2447 -0.2097 -2.8193
 8071SOL    HW235673   1.397   0.405   0.656  2.6164 -1.9414 -0.2074
 8072SOL     OW35674   2.778   4.238   8.460  0.2318  0.0602 -0.4658
 8072SOL    HW135675   2.866   4.250   8.496  1.0037  1.1080 -2.7000
 8072SOL    HW235676   2.800   4.197   8.376 -0.1225  1.5297 -1.2824
 8073SOL     OW35677   1.819   3.468   5.714 -0.0312 -0.1159  0.7998
 8073SOL    HW135678   1.740   3.443   5.667  1.4288 -0.4092 -1.5037
 8073SOL    HW235679   1.872   3.500   5.641 -1.1355  1.2633  0.5988
 8074SOL     OW35680   0.996   3.287   7.693  0.3519 -0.2484 -0.1025
 8074SOL    HW135681   1.003   3.350   7.765 -0.0822  1.4290 -1.5361
 8074SOL    HW235682   0.919   3.318   7.645  1.7589 -0.5241 -2.5006
 8075SOL     OW35683   1.273   3.163   2.771 -0.1283  0.3532  0.2968
 8075SOL    HW135684   1.366   3.182   2.757  0.1103 -1.0546 -0.0356
 8075SOL    HW235685   1.269   3.147   2.865 -1.8178 -1.2504 -0.0585
 8076SOL     OW35686   3.897   4.038  10.062 -0.6435 -0.0546 -0.3791
 8076SOL    HW135687   3.976   3.983  10.067 -1.0184 -0.5224  0.3663
 8076SOL    HW235688   3.884   4.035  10.156  0.2386 -0.7484 -0.2760
 8077SOL     OW35689   2.804   2.550   9.634 -0.0784 -0.6270  0.3828
 8077SOL    HW135690   2.881   2.566   9.579 -0.3074  0.7578  0.4646
 8077SOL    HW235691   2.831   2.466   9.670  0.9375  0.2240  1.6171
 8078SOL     OW35692   1.628   3.710   5.548 -0.1587 -0.3369  0.0740
 8078SOL    HW135693   1.602   3.760   5.625 -2.0329 -0.8310 -0.2517
 8078SOL    HW235694   1.658   3.781   5.491 -0.2119  0.6482  1.2779
 8079SOL     OW35695   3.228   2.276   4.084  0.3030 -0.4274 -0.1144
 8079SOL    HW135696   3.249   2.361   4.047 -2.1270  0.3270  0.2646
 8079SOL    HW235697   3.268   2.295   4.169  1.0012  1.1140 -0.7943
 8080SOL     OW35698   3.835   3.656  10.194  0.2824  0.3716 -0.3844
 8080SOL    HW135699   3.843   3.722  10.262 -0.4232  2.2284 -2.1053
 8080SOL    HW235700   3.764   3.598  10.221  0.1743  0.8794  0.3975
 8081SOL     OW35701   3.362   2.061   9.510 -0.1564  0.3131  0.4658
 8081SOL    HW135702   3.420   1.997   9.469  0.9400 -0.7397  3.6330
 8081SOL    HW235703   3.294   2.004   9.543  0.3287 -1.9052 -2.3788
 8082SOL     OW35704   3.484   1.052   5.003 -0.7451 -0.5038 -0.0714
 8082SOL    HW135705   3.532   0.985   4.954 -0.8384 -0.3766 -0.3332
 8082SOL    HW235706   3.397   1.028   4.972 -1.7457 -0.0688  2.3959
 8083SOL     OW35707   0.431   0.532   0.969  0.1082  0.2755  0.0153
 8083SOL    HW135708   0.412   0.574   1.053  1.5571  3.8433 -1.4134
 8083SOL    HW235709   0.518   0.499   0.991  0.4196  1.7511  1.0105
 8084SOL     OW35710   2.489   0.962   3.397  0.0967 -0.0183  0.2221
 8084SOL    HW135711   2.459   1.047   3.431 -0.4329  0.4937 -1.5299
 8084SOL    HW235712   2.577   0.995   3.381 -0.6523  2.5063  1.2717
 8085SOL     OW35713   4.570   1.380   4.381 -0.1782 -0.4283 -0.1756
 8085SOL    HW135714   4.530   1.330   4.453  1.2502 -0.5089  0.5586
 8085SOL    HW235715   4.545   1.333   4.302 -1.0597 -1.4522  0.7038
 8086SOL     OW35716   3.312   2.543   5.555 -0.3500 -0.5623  0.1737
 8086SOL    HW135717   3.286   2.507   5.471 -0.1020  1.5636 -0.8205
 8086SOL    HW235718   3.231   2.541   5.606 -1.7353 -0.3961 -2.0256
 8087SOL     OW35719   4.076   1.022   0.397  0.3677  0.3260  0.3941
 8087SOL    HW135720   4.002   1.001   0.339 -1.0654 -1.1744  2.7525
 8087SOL    HW235721   4.074   1.117   0.392  3.6565  0.4521  1.6370
 8088SOL     OW35722   0.139   0.514   4.388 -0.8802 -0.0626  0.3098
 8088SOL    HW135723   0.154   0.461   4.467 -1.6821 -0.6834  0.0427
 8088SOL    HW235724   0.191   0.593   4.398 -3.0884  1.3655  0.3875
 8089SOL     OW35725   4.395   4.032   2.313 -0.2629  0.2303 -0.3648
 8089SOL    HW135726   4.323   4.030   2.377  0.9183 -0.9308  0.9339
 8089SOL    HW235727   4.453   3.974   2.362 -1.8656 -2.3423 -1.5149
 8090SOL     OW35728   0.213   4.259   2.426  0.0821 -0.4070 -0.4069
 8090SOL    HW135729   0.251   4.340   2.393  0.0459 -0.1012  0.2942
 8090SOL    HW235730   0.242   4.266   2.517  1.3111 -0.4047 -0.7976
 8091SOL     OW35731   4.551   0.390   7.845 -0.5007 -0.0367  0.5956
 8091SOL    HW135732   4.573   0.402   7.753 -2.0742 -1.6921  0.0057
 8091SOL    HW235733   4.474   0.446   7.849  0.3507  1.0825  1.4518
 8092SOL     OW35734   0.214   1.468  16.457 -0.6095 -0.1101 -0.1611
 8092SOL    HW135735   0.236   1.391  16.510 -1.1065 -1.6143 -2.1791
 8092SOL    HW235736   0.126   1.442  16.430 -0.1557 -2.8759  1.0165
 8093SOL     OW35737   3.902   2.219   9.321 -0.1038 -0.0211  0.0794
 8093SOL    HW135738   3.951   2.264   9.390  0.4350  2.2618 -1.7892
 8093SOL    HW235739   3.822   2.231   9.372 -1.3474 -2.7997 -1.2447
 8094SOL     OW35740   0.850   2.973   3.202  0.2147 -0.2899 -0.2803
 8094SOL    HW135741   0.883   2.940   3.286  0.9850  0.4962 -0.2726
 8094SOL    HW235742   0.819   2.886   3.177 -1.9838  0.8796 -1.6748
 8095SOL     OW35743   4.553   3.514  17.366 -0.3298  0.6860  0.0764
 8095SOL    HW135744   4.495   3.439  17.384  1.0346 -0.5258 -0.6513
 8095SOL    HW235745   4.534   3.565  17.445  0.8966  2.6399 -0.9039
 8096SOL     OW35746   0.869   0.642   2.995 -0.0624  0.0665 -0.3270
 8096SOL    HW135747   0.947   0.639   3.051  0.4935  1.1229 -1.0568
 8096SOL    HW235748   0.864   0.547   2.985  0.3284 -0.1689  1.5771
 8097SOL     OW35749   1.574   3.325   5.286  0.0311 -0.4753 -0.2840
 8097SOL    HW135750   1.578   3.343   5.380 -1.4536  2.1822 -0.7528
 8097SOL    HW235751   1.652   3.274   5.263  0.1738  0.3269 -1.5470
 8098SOL     OW35752   2.137   1.489   2.275  0.8169 -0.0957  0.4980
 8098SOL    HW135753   2.135   1.582   2.297 -1.4189 -0.3351  1.3048
 8098SOL    HW235754   2.134   1.490   2.180 -0.4311 -3.1798  0.4968
 8099SOL     OW35755   1.492   3.778   4.841 -0.2695  0.5335  0.1024
 8099SOL    HW135756   1.407   3.806   4.876 -1.8552  0.0131 -3.3531
 8099SOL    HW235757   1.521   3.726   4.915 -2.2635 -1.9375 -0.8544
 8100SOL     OW35758   3.922   1.928   8.058 -0.1420 -0.1314 -0.0550
 8100SOL    HW135759   3.999   1.871   8.058  1.0870  1.5326 -0.7054
 8100SOL    HW235760   3.852   1.885   8.010  0.6404  0.3096 -1.5685
 8101SOL     OW35761   1.211   1.825   3.248  0.1368 -0.1568 -0.0935
 8101SOL    HW135762   1.230   1.812   3.341 -1.4582  0.8432  0.3690
 8101SOL    HW235763   1.125   1.866   3.256 -0.7085 -1.9393 -0.1003
 8102SOL     OW35764   2.063   4.365   4.936  0.7936 -0.3776  1.1032
 8102SOL    HW135765   2.034   4.275   4.950  0.4284 -0.0710  2.3679
 8102SOL    HW235766   2.066   4.364   4.840 -2.7903  3.2632  0.9390
 8103SOL     OW35767   0.906   4.478   5.303  0.6264  0.0345  0.4997
 8103SOL    HW135768   0.975   4.523   5.350  0.2759  1.1140 -0.0264
 8103SOL    HW235769   0.957   4.460   5.224 -2.2988 -1.6951 -0.9958
 8104SOL     OW35770   1.453   1.326   1.595 -0.2626  0.3362 -0.5059
 8104SOL    HW135771   1.391   1.395   1.570  2.0190  2.1838 -1.0920
 8104SOL    HW235772   1.465   1.285   1.509 -0.9312  0.7134 -0.7767
 8105SOL     OW35773   2.022   4.709   6.092  0.8046  0.3974  0.3742
 8105SOL    HW135774   2.101   0.043   6.079  1.2280  0.1472  1.8518
 8105SOL    HW235775   1.967   0.066   6.107 -0.0789 -0.6420  2.3972
 8106SOL     OW35776   0.894   2.398   5.373  0.0983 -0.2277  0.1726
 8106SOL    HW135777   0.931   2.311   5.355  0.6453  0.9074 -4.1249
 8106SOL    HW235778   0.953   2.439   5.437 -0.9948  0.7285  0.5634
 8107SOL     OW35779   4.243   1.388   4.371  0.5534 -0.2899 -0.3866
 8107SOL    HW135780   4.229   1.296   4.348  2.0798 -0.6936  0.3211
 8107SOL    HW235781   4.152   1.420   4.374  0.0188 -1.6987 -1.6225
 8108SOL     OW35782   2.409   4.076  17.557 -0.5509  0.3767  0.1163
 8108SOL    HW135783   2.347   4.038  17.495  0.9883 -1.8058 -0.1077
 8108SOL    HW235784   2.487   4.105  17.510 -1.6377  2.8273 -0.1882
 8109SOL     OW35785   0.640   1.004   0.841 -0.0736 -0.1637  0.0927
 8109SOL    HW135786   0.674   1.092   0.858  0.9524 -1.0340  2.6887
 8109SOL    HW235787   0.666   0.948   0.915  0.8651 -0.2013 -0.2698
 8110SOL     OW35788   3.231   3.247   2.493  0.4363  0.6105 -0.6448
 8110SOL    HW135789   3.200   3.290   2.413 -0.1838  0.5483 -0.4447
 8110SOL    HW235790   3.249   3.161   2.456 -0.1981  0.4357 -0.5637
 8111SOL     OW35791   4.551   1.025  15.910  0.2594  0.1772  0.0455
 8111SOL    HW135792   4.642   1.006  15.931  0.0269  0.7489  1.5636
 8111SOL    HW235793   4.502   0.978  15.977 -0.1721  0.4291 -0.0886
 8112SOL     OW35794   0.945   3.549   6.793 -0.7868  0.1868  0.4568
 8112SOL    HW135795   0.979   3.466   6.759  0.9698  1.6578 -1.3518
 8112SOL    HW235796   0.861   3.551   6.746 -1.4198 -1.9514  1.5022
 8113SOL     OW35797   0.541   4.061   0.059  0.4199 -0.7956  0.1862
 8113SOL    HW135798   0.623   4.038   0.101  0.6384  2.8138  1.7808
 8113SOL    HW235799   0.532   4.021  17.652 -0.3734  0.3802 -0.2916
 8114SOL     OW35800   2.482   2.525  15.210  0.2074 -0.3767  0.3781
 8114SOL    HW135801   2.445   2.446  15.248  0.4365  0.6136  2.7067
 8114SOL    HW235802   2.569   2.531  15.250 -0.4772  2.2817  1.5032
 8115SOL     OW35803   0.584   1.582   3.973 -0.0603 -0.7974 -0.2560
 8115SOL    HW135804   0.498   1.556   3.940  0.0034 -1.3592  0.0323
 8115SOL    HW235805   0.636   1.504   3.992  0.8898 -0.2180 -0.4385
 8116SOL     OW35806   3.520   1.012   4.585  0.3297  0.2066  0.0298
 8116SOL    HW135807   3.431   1.046   4.580 -1.0190 -3.8382 -3.2355
 8116SOL    HW235808   3.515   0.928   4.539 -0.9418  0.3054  0.0005
 8117SOL     OW35809   4.028   3.579   2.803 -0.5025  0.1464 -0.0619
 8117SOL    HW135810   3.939   3.610   2.820 -0.9115 -1.2100  0.2530
 8117SOL    HW235811   4.024   3.492   2.843 -0.4355  0.1462 -0.0552
 8118SOL     OW35812   3.848   3.025   4.583  0.4367 -0.2235  0.2448
 8118SOL    HW135813   3.761   3.040   4.618 -0.4859  0.2734 -2.2957
 8118SOL    HW235814   3.909   3.069   4.643  1.3247 -1.8400  0.5396
 8119SOL     OW35815   3.586   4.344   4.839 -0.5869 -0.4280 -0.3647
 8119SOL    HW135816   3.666   4.291   4.841 -0.6993 -0.5542  0.7760
 8119SOL    HW235817   3.534   4.290   4.899  0.1726 -1.3424 -0.5320
 8120SOL     OW35818   2.934   3.406   1.675  0.1886  0.1247 -0.1118
 8120SOL    HW135819   2.970   3.462   1.606  1.6823  0.0303  0.5769
 8120SOL    HW235820   2.971   3.325   1.639 -1.8704 -0.9124  0.1469
 8121SOL     OW35821   3.497   1.176   7.416 -0.5106 -0.2069 -0.3955
 8121SOL    HW135822   3.460   1.134   7.494 -0.8068  1.1749  0.2202
 8121SOL    HW235823   3.557   1.244   7.448 -2.5375  0.4974  1.8864
 8122SOL     OW35824   0.541   4.458   6.548 -0.4684 -0.0801 -0.0305
 8122SOL    HW135825   0.552   4.510   6.627  0.0955  1.3828 -1.0603
 8122SOL    HW235826   0.515   4.528   6.487  1.7688  0.6290 -0.1562
 8123SOL     OW35827   0.810   0.613   4.425  0.4173 -0.3132  0.1173
 8123SOL    HW135828   0.761   0.539   4.390 -0.3335 -0.3294  1.2108
 8123SOL    HW235829   0.815   0.590   4.518  2.4001 -1.4193 -0.2550
 8124SOL     OW35830   0.782   0.374   1.564  0.9910 -0.1167  0.1028
 8124SOL    HW135831   0.773   0.363   1.659  1.3194  2.7926  0.4955
 8124SOL    HW235832   0.692   0.394   1.537  1.7832 -0.1334 -2.4960
 8125SOL     OW35833   1.664   4.320   7.020 -0.4438 -0.8014  0.4413
 8125SOL    HW135834   1.667   4.229   7.050  0.0079 -0.3402  1.8051
 8125SOL    HW235835   1.610   4.307   6.942  1.3008 -1.5021 -0.6520
 8126SOL     OW35836   1.172   0.286   5.311 -0.0089 -0.0955 -0.2467
 8126SOL    HW135837   1.176   0.377   5.283 -0.4023 -0.8477 -2.8015
 8126SOL    HW235838   1.254   0.249   5.277 -0.0598 -1.3763  1.0377
 8127SOL     OW35839   3.316   4.068  17.044  0.1881  0.0025  0.1300
 8127SOL    HW135840   3.284   4.050  16.956  2.2913  0.1350 -0.6469
 8127SOL    HW235841   3.406   4.089  17.020 -1.3473  2.3230 -3.4094
 8128SOL     OW35842   4.339   0.732   8.596 -0.3137  0.1475  0.7901
 8128SOL    HW135843   4.417   0.686   8.625  0.5137 -0.9244 -3.1162
 8128SOL    HW235844   4.265   0.680   8.627  1.5584 -3.0387 -0.0972
 8129SOL     OW35845   0.094   1.348   2.979 -0.3443  0.2899 -0.4670
 8129SOL    HW135846   0.173   1.302   2.954 -0.1368  1.4409 -1.9853
 8129SOL    HW235847   0.057   1.369   2.893 -1.5349  0.6654  0.1283
 8130SOL     OW35848   4.566   0.667  11.629  0.1897  0.2660  0.0478
 8130SOL    HW135849   4.545   0.653  11.537  2.9287  0.7319 -0.6489
 8130SOL    HW235850   4.540   0.757  11.646 -0.6870  0.3274 -1.6100
 8131SOL     OW35851   1.945   4.350   6.835  0.2542 -0.6161 -0.3072
 8131SOL    HW135852   1.956   4.440   6.806 -4.3117  0.0131  0.0640
 8131SOL    HW235853   1.867   4.368   6.887  0.8900 -1.3775  0.9235
 8132SOL     OW35854   2.470   3.149   3.020  0.1175  0.3739 -0.2514
 8132SOL    HW135855   2.537   3.122   2.957 -0.0779 -0.7702  0.0345
 8132SOL    HW235856   2.431   3.220   2.970 -3.9419 -1.9804 -0.4198
 8133SOL     OW35857   2.540   2.561   1.661  0.1529  0.4339 -0.3372
 8133SOL    HW135858   2.509   2.572   1.571  0.7894  1.0986 -0.4761
 8133SOL    HW235859   2.526   2.471   1.689  0.9136  0.1526 -0.8662
 8134SOL     OW35860   1.193   1.098   8.151 -0.0324  0.3267  0.1303
 8134SOL    HW135861   1.138   1.021   8.133 -0.0841  0.5030 -0.4904
 8134SOL    HW235862   1.119   1.159   8.157  0.3325  0.7347  0.4773
 8135SOL     OW35863   3.490   0.569   3.931  0.2621  0.0625  0.2633
 8135SOL    HW135864   3.464   0.530   3.848 -1.0108  1.3080  0.0739
 8135SOL    HW235865   3.408   0.588   3.978 -0.1439 -0.3689 -0.2793
 8136SOL     OW35866   0.265   0.365  15.057 -0.4984  0.3474 -0.2148
 8136SOL    HW135867   0.196   0.356  14.991 -0.2052 -0.2769 -0.4379
 8136SOL    HW235868   0.313   0.283  15.047 -3.7263 -1.3060 -2.4098
 8137SOL     OW35869   4.632   3.932   6.729 -0.0540 -0.6850  0.0657
 8137SOL    HW135870   4.666   4.009   6.774 -0.1006 -1.0233  0.6774
 8137SOL    HW235871   4.680   3.859   6.767  0.5279 -0.8448 -0.9890
 8138SOL     OW35872   3.873   1.372   1.965  0.4971  0.4806  0.2767
 8138SOL    HW135873   3.906   1.388   1.877  1.3867  1.4919  0.7812
 8138SOL    HW235874   3.793   1.424   1.963  0.4914  0.3882 -1.5915
 8139SOL     OW35875   2.703   3.497   6.387  0.1532  0.1464  0.4176
 8139SOL    HW135876   2.621   3.543   6.402 -0.0575 -0.3155  0.6968
 8139SOL    HW235877   2.779   3.555   6.383  0.7570 -0.4858  2.2324
 8140SOL     OW35878   0.842   0.741   2.722  0.0779  0.3108 -0.5911
 8140SOL    HW135879   0.824   0.713   2.812  0.0167  1.6829 -0.1726
 8140SOL    HW235880   0.914   0.802   2.741  1.6011 -1.2779 -1.2352
 8141SOL     OW35881   2.137   3.300  16.144 -0.1865  0.6293 -0.0351
 8141SOL    HW135882   2.157   3.372  16.204 -0.8147  1.9061 -1.3272
 8141SOL    HW235883   2.080   3.250  16.202  0.4437  0.5766  0.5283
 8142SOL     OW35884   3.173   2.007   6.984 -0.0283  0.2574  0.7029
 8142SOL    HW135885   3.198   1.939   6.922  1.3014  1.1355  0.2817
 8142SOL    HW235886   3.154   1.954   7.062 -0.3034 -1.3553 -0.4523
 8143SOL     OW35887   0.600   4.550   6.801  0.4983  0.3391 -0.2473
 8143SOL    HW135888   0.666   4.595   6.854  0.0458 -0.1102  0.7043
 8143SOL    HW235889   0.571   4.487   6.867  0.2887  0.8108  0.1135
 8144SOL     OW35890   0.429   4.511   2.634 -0.3632  0.9134  0.2829
 8144SOL    HW135891   0.431   4.607   2.633  1.8340  0.8561  1.1978
 8144SOL    HW235892   0.420   4.494   2.540  1.8657  1.6514 -0.0534
 8145SOL     OW35893   3.075   1.064  17.559  0.5697  0.1995 -0.1977
 8145SOL    HW135894   3.091   1.157  17.577 -2.5148  0.4089  1.5112
 8145SOL    HW235895   3.078   1.068  17.463  0.5640  1.5866 -0.1449
 8146SOL     OW35896   2.226   0.220   6.196  0.0481 -0.3093  0.1134
 8146SOL    HW135897   2.316   0.248   6.177 -0.3889  0.6477 -0.5545
 8146SOL    HW235898   2.224   0.175   6.281 -0.9789 -0.4173  0.0221
 8147SOL     OW35899   2.611   3.955   8.819 -0.0957 -0.1288  0.6943
 8147SOL    HW135900   2.621   4.031   8.760  2.4561  0.2606  1.6224
 8147SOL    HW235901   2.632   3.999   8.901  2.3122 -2.0738  1.1075
 8148SOL     OW35902   0.115   0.171   6.470  0.3086  0.3041  0.1917
 8148SOL    HW135903   0.032   0.160   6.424 -0.1042  0.1906  0.9650
 8148SOL    HW235904   0.088   0.150   6.559 -0.5713  1.3971  0.1856
 8149SOL     OW35905   2.302   1.190   5.161  0.5276  0.2056 -0.4579
 8149SOL    HW135906   2.248   1.250   5.212 -2.5831 -0.9428 -2.4480
 8149SOL    HW235907   2.346   1.147   5.234  1.2911 -0.5772 -1.3836
 8150SOL     OW35908   1.770   1.941   2.850 -0.3559 -0.1294 -0.3993
 8150SOL    HW135909   1.720   2.012   2.889  0.3588  0.9782 -1.5284
 8150SOL    HW235910   1.853   1.988   2.860 -0.1384 -0.9557  1.7043
 8151SOL     OW35911   4.420   1.060   1.273 -0.0681 -0.4579 -0.3793
 8151SOL    HW135912   4.397   0.979   1.318  2.1067 -0.9264 -0.0920
 8151SOL    HW235913   4.335   1.103   1.277  0.2251  0.2478 -1.9742
 8152SOL     OW35914   1.605   4.065   3.137 -0.1171 -0.5444  0.6623
 8152SOL    HW135915   1.691   4.055   3.178  1.4612 -1.3064 -2.8000
 8152SOL    HW235916   1.602   4.159   3.119 -1.9548 -0.1757  2.9981
 8153SOL     OW35917   1.505   1.195  11.885  0.3142  0.1580 -0.4710
 8153SOL    HW135918   1.523   1.284  11.855  1.0316  0.4831  0.9350
 8153SOL    HW235919   1.592   1.169  11.914 -0.8119 -3.3057 -0.2551
 8154SOL     OW35920   0.905   0.767   0.219 -0.1851  0.6388 -0.2377
 8154SOL    HW135921   0.954   0.697   0.176  1.8534  1.8250  0.1088
 8154SOL    HW235922   0.830   0.725   0.260 -2.0343 -0.0178 -4.2990
 8155SOL     OW35923   2.714   0.296   2.172 -0.5006  0.0518 -0.0577
 8155SOL    HW135924   2.737   0.366   2.233 -1.3803  0.6586 -0.4373
 8155SOL    HW235925   2.632   0.266   2.211 -0.6793 -0.2014 -0.6252
 8156SOL     OW35926   0.351   4.065   2.315  0.2720  0.5393 -0.0288
 8156SOL    HW135927   0.307   4.149   2.326  0.0842  0.2384  1.5224
 8156SOL    HW235928   0.340   4.018   2.397 -0.0829  0.2919 -0.2195
 8157SOL     OW35929   2.177   2.573   5.696  0.2115 -0.5954 -0.0068
 8157SOL    HW135930   2.170   2.478   5.694 -1.2530 -0.4875 -0.3365
 8157SOL    HW235931   2.272   2.568   5.691  0.1875 -1.1156  0.0356
 8158SOL     OW35932   3.006   1.556   8.585 -0.1666  0.1828  0.7714
 8158SOL    HW135933   2.950   1.505   8.642 -0.7599 -1.4581 -1.2966
 8158SOL    HW235934   3.073   1.571   8.652 -0.8260 -3.1559  2.1494
 8159SOL     OW35935   0.940   1.775   8.728  0.3033 -0.2916  0.1562
 8159SOL    HW135936   1.020   1.826   8.729 -0.1482  0.4406 -1.2655
 8159SOL    HW235937   0.903   1.794   8.642 -2.1838 -0.8267  1.0984
 8160SOL     OW35938   0.693   4.080   7.573 -0.3285 -0.0415  0.0141
 8160SOL    HW135939   0.645   4.162   7.586 -0.3044  0.0951 -0.8088
 8160SOL    HW235940   0.620   4.026   7.543 -0.8528  1.1152 -0.7678
 8161SOL     OW35941   1.239   0.493  16.953  0.4335 -0.1509  0.0919
 8161SOL    HW135942   1.229   0.570  16.897 -0.5926  0.5063  1.1676
 8161SOL    HW235943   1.266   0.535  17.034  1.3363  0.3686 -0.4829
 8162SOL     OW35944   1.406   2.140   7.396 -0.4756  0.1950  0.8982
 8162SOL    HW135945   1.347   2.198   7.348  0.8745  0.7331 -0.1039
 8162SOL    HW235946   1.341   2.109   7.459 -2.8235  0.6765 -1.3147
 8163SOL     OW35947   0.994   4.301  17.512 -0.5140 -0.2104  0.3594
 8163SOL    HW135948   0.968   4.393  17.515  2.4692  0.7410 -2.6240
 8163SOL    HW235949   0.971   4.272  17.601 -1.3860  1.6323  0.7423
 8164SOL     OW35950   1.926   3.951   5.436 -0.1110  0.0523  0.5554
 8164SOL    HW135951   1.876   3.936   5.355  0.3573  0.4787  0.1837
 8164SOL    HW235952   1.873   4.025   5.465 -1.5353 -0.4174 -0.8455
 8165SOL     OW35953   2.240   3.412   6.061  0.0910  0.0511 -0.0228
 8165SOL    HW135954   2.171   3.437   6.124 -0.9863  1.7620 -1.8605
 8165SOL    HW235955   2.210   3.323   6.079 -1.5836  0.3416 -1.2989
 8166SOL     OW35956   1.775   2.796  13.556 -0.1227  0.1299 -0.0364
 8166SOL    HW135957   1.823   2.838  13.484 -2.2039  2.7767  0.1139
 8166SOL    HW235958   1.694   2.845  13.571 -0.1680  0.2729 -0.7208
 8167SOL     OW35959   3.022   2.250  15.676  0.6482  0.2836  0.3024
 8167SOL    HW135960   3.006   2.290  15.591  0.4553  0.6585  0.5195
 8167SOL    HW235961   3.084   2.182  15.647 -1.3943 -2.6225  2.7687
 8168SOL     OW35962   0.207   0.074   7.911  0.7396 -0.1636 -0.0839
 8168SOL    HW135963   0.234   0.079   8.003 -1.5869  1.0971  0.5150
 8168SOL    HW235964   0.114   0.055   7.919  0.6807  0.1117 -0.1208
 8169SOL     OW35965   3.223   3.590  14.946  0.0426  0.1810 -0.7213
 8169SOL    HW135966   3.153   3.639  14.989  0.9331 -0.5191  1.5131
 8169SOL    HW235967   3.196   3.499  14.957 -1.9751  1.0528  1.4587
 8170SOL     OW35968   1.029   0.788   8.629  0.5937  0.1689 -0.3699
 8170SOL    HW135969   1.021   0.852   8.557 -2.0140  0.6390  0.3288
 8170SOL    HW235970   1.014   0.705   8.583 -3.0944  0.1861  0.8121
 8171SOL     OW35971   2.636   1.461   5.437  0.2767 -0.0511 -0.2760
 8171SOL    HW135972   2.705   1.451   5.502 -2.1118 -2.7173  1.8536
 8171SOL    HW235973   2.575   1.527   5.470 -0.0819  1.3516 -3.6727
 8172SOL     OW35974   1.042   2.645   9.035  0.5836 -0.2168 -0.2836
 8172SOL    HW135975   0.969   2.615   9.090  0.1243  0.5360 -0.4768
 8172SOL    HW235976   1.049   2.735   9.065  0.3536 -1.1625  2.6781
 8173SOL     OW35977   4.142   0.835   3.153  0.5920 -0.3937  0.0886
 8173SOL    HW135978   4.140   0.747   3.116 -1.0644  0.6270 -2.2546
 8173SOL    HW235979   4.077   0.882   3.101  0.1843 -0.3481  0.6343
 8174SOL     OW35980   3.993   0.554  10.359 -0.0325 -0.8576 -0.0081
 8174SOL    HW135981   4.036   0.624  10.311 -2.6331  0.7710  0.0200
 8174SOL    HW235982   3.972   0.499  10.284 -1.5439 -1.4152  0.8199
 8175SOL     OW35983   0.596   0.135   6.588 -0.3069 -0.1802  0.7816
 8175SOL    HW135984   0.593   0.191   6.665 -1.0735  1.3920 -0.3981
 8175SOL    HW235985   0.524   0.077   6.613  1.1629 -3.2133 -2.0267
 8176SOL     OW35986   0.578   2.965  15.621 -0.8974 -0.3340 -0.4846
 8176SOL    HW135987   0.670   2.990  15.616 -0.4138 -1.5559  2.2631
 8176SOL    HW235988   0.550   3.025  15.690 -0.2335  0.0224 -0.5259
 8177SOL     OW35989   2.530   0.791   6.576  0.3628 -0.2380 -0.1412
 8177SOL    HW135990   2.610   0.785   6.628 -0.6684 -0.5912  1.3936
 8177SOL    HW235991   2.575   0.816   6.495 -0.5755 -0.5324 -0.7474
 8178SOL     OW35992   2.646   3.708   9.291  0.0515  0.1305  0.4043
 8178SOL    HW135993   2.632   3.616   9.315  0.1858  0.0419  0.1501
 8178SOL    HW235994   2.741   3.717   9.289 -0.0725  1.1200 -0.9777
 8179SOL     OW35995   2.938   0.645   0.750 -0.0953 -0.2839  0.3468
 8179SOL    HW135996   2.986   0.707   0.696 -0.5009  0.0241  0.3433
 8179SOL    HW235997   2.911   0.706   0.819 -2.2274  0.5477 -1.2134
 8180SOL     OW35998   4.523   1.968   7.454 -0.0402  0.4915 -0.2446
 8180SOL    HW135999   4.556   1.878   7.451  0.1654  0.6215 -2.2721
 8180SOL    HW236000   4.588   2.012   7.509  0.8676 -1.3005  0.1154
 8181SOL     OW36001   0.132   4.573  17.164 -0.3355  0.2054  0.1751
 8181SOL    HW136002   0.105   4.555  17.254  3.0805  2.5698  1.6932
 8181SOL    HW236003   0.104   4.491  17.123 -0.4341 -0.0027  0.6516
 8182SOL     OW36004   0.241   3.743  15.426 -0.5133 -0.7011 -0.3075
 8182SOL    HW136005   0.331   3.716  15.409 -0.1724 -0.1794  0.7190
 8182SOL    HW236006   0.218   3.778  15.339 -0.4649  1.6309  0.6021
 8183SOL     OW36007   2.226   0.168   2.660 -0.4006 -0.2776 -0.1003
 8183SOL    HW136008   2.210   0.078   2.632 -0.8405  0.1542 -1.2517
 8183SOL    HW236009   2.138   0.200   2.638 -0.1994  0.1266 -0.3218
 8184SOL     OW36010   2.505   2.530   6.108  0.1616 -0.9444  0.8156
 8184SOL    HW136011   2.499   2.598   6.176  0.5277  0.3532 -0.4526
 8184SOL    HW236012   2.553   2.586   6.047  2.1460 -1.6420  1.7307
 8185SOL     OW36013   1.300   4.703   2.715  0.1975 -0.5582 -0.6754
 8185SOL    HW136014   1.307   4.628   2.774  1.9335  2.1050  2.5174
 8185SOL    HW236015   1.297   4.675   2.624  2.3815 -3.1771  0.0430
 8186SOL     OW36016   2.186   4.237   5.472 -1.1309 -0.3061 -0.1987
 8186SOL    HW136017   2.194   4.320   5.425 -2.6988 -0.8227 -1.3987
 8186SOL    HW236018   2.259   4.190   5.432  1.6747  1.7294  2.5382
 8187SOL     OW36019   3.775   0.452  10.981 -0.3315 -0.1737 -0.0613
 8187SOL    HW136020   3.757   0.477  10.890 -1.7653  1.4890  0.6651
 8187SOL    HW236021   3.739   0.526  11.031 -3.9915 -1.5741 -0.6621
 8188SOL     OW36022   1.825   3.585   3.622  0.8926 -0.2953 -0.1927
 8188SOL    HW136023   1.845   3.494   3.597  0.8986  0.0128 -1.2912
 8188SOL    HW236024   1.809   3.567   3.715  0.4163 -0.9769 -0.4065
 8189SOL     OW36025   0.058   0.132   7.151  0.6228 -0.3305 -0.1218
 8189SOL    HW136026   4.683   0.138   7.166  1.0363 -0.3708  2.4660
 8189SOL    HW236027   0.093   0.180   7.226  0.8322 -0.4947 -0.1140
 8190SOL     OW36028   0.971   2.762  15.496 -0.5102 -0.8609 -0.3490
 8190SOL    HW136029   0.951   2.813  15.575  2.0681  1.0882 -0.9702
 8190SOL    HW236030   0.924   2.811  15.429 -0.1784  0.1134  0.1422
 8191SOL     OW36031   0.654   3.488   1.757 -0.2943  0.3738 -0.1741
 8191SOL    HW136032   0.686   3.398   1.759  0.8556  0.7644 -1.1412
 8191SOL    HW236033   0.601   3.489   1.837  1.3804 -1.6084  0.9216
 8192SOL     OW36034   0.455   1.349   1.363 -1.3796 -0.1973 -0.2256
 8192SOL    HW136035   0.530   1.375   1.311  0.5856 -2.5270  1.4362
 8192SOL    HW236036   0.395   1.300   1.307 -1.8502 -1.7618  1.6281
 8193SOL     OW36037   4.280   1.464  15.290 -0.8864  0.1038  0.2712
 8193SOL    HW136038   4.195   1.487  15.326 -1.0640 -1.2116  0.7187
 8193SOL    HW236039   4.328   1.515  15.356  1.3983 -1.0775 -0.4710
 8194SOL     OW36040   3.010   2.165   3.484  0.0759  0.1102  0.3285
 8194SOL    HW136041   3.025   2.259   3.472  1.4751 -0.1703 -0.1992
 8194SOL    HW236042   3.097   2.130   3.462 -0.3635 -0.9372  0.2732
 8195SOL     OW36043   1.701   0.972  11.756 -0.0067  0.0970  0.4860
 8195SOL    HW136044   1.691   1.023  11.837  0.5103  2.0022 -0.6607
 8195SOL    HW236045   1.778   0.917  11.771 -1.6070 -2.1686  0.3322
 8196SOL     OW36046   3.732   2.643   9.812  0.2811 -0.0843 -0.4785
 8196SOL    HW136047   3.731   2.664   9.719  1.1344  1.5089 -0.1272
 8196SOL    HW236048   3.725   2.547   9.813  1.7738 -0.2055 -1.4878
 8197SOL     OW36049   4.337   1.366   0.984 -0.9237  0.2196 -0.0084
 8197SOL    HW136050   4.366   1.275   0.989 -0.2016  0.5429  1.8263
 8197SOL    HW236051   4.386   1.398   0.908 -2.1260  1.1326 -0.4052
 8198SOL     OW36052   2.824   0.357   3.068  0.0556  0.0640  0.0711
 8198SOL    HW136053   2.896   0.297   3.087  0.6074  1.2471  1.7376
 8198SOL    HW236054   2.798   0.387   3.155  0.8840  2.8565 -0.6442
 8199SOL     OW36055   4.545   0.668   5.820 -0.3388  0.3557  0.8740
 8199SOL    HW136056   4.542   0.578   5.787 -0.4022  0.5992  0.2098
 8199SOL    HW236057   4.451   0.679   5.833 -0.8792 -2.0203 -0.8899
 8200SOL     OW36058   0.085   1.898  16.560 -0.1559  0.2530  0.3961
 8200SOL    HW136059   0.129   1.816  16.581  0.0775  0.6199  1.3569
 8200SOL    HW236060   0.139   1.940  16.493 -2.4303  0.8070 -1.0951
 8201SOL     OW36061   4.253   3.304   3.579 -0.0297 -0.0049  0.1712
 8201SOL    HW136062   4.185   3.336   3.519 -1.3554  0.5060  1.9619
 8201SOL    HW236063   4.329   3.317   3.522 -0.2990  1.2365  0.1033
 8202SOL     OW36064   3.304   4.470   5.694  0.4342 -0.4372 -0.1398
 8202SOL    HW136065   3.266   4.406   5.633  1.6784 -1.2878 -0.0316
 8202SOL    HW236066   3.359   4.509   5.626 -1.1301 -0.2556 -1.2926
 8203SOL     OW36067   1.659   1.583   7.954  0.3536 -0.4592  0.3558
 8203SOL    HW136068   1.730   1.626   8.001 -1.3596  1.6824  0.9486
 8203SOL    HW236069   1.588   1.608   8.012  0.5544 -0.1240  0.4520
 8204SOL     OW36070   1.277   2.826   6.096 -0.3020 -0.7188  0.0482
 8204SOL    HW136071   1.192   2.870   6.101 -0.0114 -0.2621  1.0196
 8204SOL    HW236072   1.348   2.880   6.130 -1.3431  1.8221 -1.8118
 8205SOL     OW36073   3.036   3.649   9.132  0.1304  0.1703 -0.9698
 8205SOL    HW136074   3.129   3.667   9.146 -0.2237 -1.4033  3.2063
 8205SOL    HW236075   2.992   3.729   9.160  0.6464  0.6337 -1.4789
 8206SOL     OW36076   0.314   0.238   4.076 -0.1355 -0.0188 -0.1450
 8206SOL    HW136077   0.247   0.181   4.039  1.1611 -2.7683  1.7077
 8206SOL    HW236078   0.303   0.322   4.032 -0.3953 -0.6040 -1.1793
 8207SOL     OW36079   2.150   2.196   7.855  0.1467  0.3820 -0.1539
 8207SOL    HW136080   2.134   2.203   7.949 -1.1412  0.5124 -0.3734
 8207SOL    HW236081   2.237   2.158   7.849 -0.3313 -0.8635  0.7907
 8208SOL     OW36082   4.671   2.758   3.021 -0.1607  0.4199 -0.6148
 8208SOL    HW136083   0.034   2.715   2.998  0.3197  1.4499 -0.8258
 8208SOL    HW236084   4.648   2.711   3.101  2.1984 -0.6330 -0.5785
 8209SOL     OW36085   1.047   2.765  13.049  0.0087 -0.2980  0.3753
 8209SOL    HW136086   1.076   2.682  13.087 -0.2304 -1.5511 -2.2040
 8209SOL    HW236087   1.096   2.819  13.112 -2.1002 -0.0450  1.7854
 8210SOL     OW36088   1.935   0.956   2.175  0.7186  0.2561  0.3061
 8210SOL    HW136089   1.888   0.898   2.234  0.3312  0.3112  0.0491
 8210SOL    HW236090   2.014   0.967   2.228 -0.0583  1.8888  1.1193
 8211SOL     OW36091   2.298   1.636   9.290  0.2663  0.1058  0.0299
 8211SOL    HW136092   2.293   1.716   9.238 -1.1818  1.3384  2.1140
 8211SOL    HW236093   2.259   1.668   9.371 -2.0596  0.5821 -1.3011
 8212SOL     OW36094   0.230   4.074   5.657 -0.2807  0.2629 -0.0517
 8212SOL    HW136095   0.258   3.989   5.622 -0.5364 -0.2028  0.8502
 8212SOL    HW236096   0.155   4.045   5.708  1.0631  2.1867  3.0557
 8213SOL     OW36097   1.220   1.636   1.315  0.1430 -0.3715 -0.0591
 8213SOL    HW136098   1.267   1.716   1.338 -2.7511  2.0748 -2.6206
 8213SOL    HW236099   1.249   1.627   1.224  0.4633 -0.0741  0.0145
 8214SOL     OW36100   0.642   3.828   5.695 -0.1813 -0.3019 -0.2433
 8214SOL    HW136101   0.576   3.792   5.635 -1.0373  3.3060 -1.4255
 8214SOL    HW236102   0.678   3.752   5.742  0.1716 -0.7005 -1.1545
 8215SOL     OW36103   2.403   0.412   0.905 -0.3670  0.3877  0.0827
 8215SOL    HW136104   2.421   0.445   0.817 -2.1497  2.1473  0.3853
 8215SOL    HW236105   2.410   0.496   0.950 -1.3411  0.1121  0.7409
 8216SOL     OW36106   3.541   1.973   9.067 -0.7222  0.3254  0.3681
 8216SOL    HW136107   3.628   2.013   9.068 -1.1204  1.2100 -0.4966
 8216SOL    HW236108   3.491   2.051   9.040 -2.2648 -0.8000 -0.0237
 8217SOL     OW36109   2.447   2.863   5.223  0.2369  0.0108  0.1264
 8217SOL    HW136110   2.481   2.796   5.164  0.0213 -1.0027  1.1564
 8217SOL    HW236111   2.522   2.914   5.252 -1.1272  0.7856  2.2839
 8218SOL     OW36112   4.058   2.318   7.784 -0.5627 -0.8664  0.0806
 8218SOL    HW136113   4.099   2.299   7.868  1.4175  2.5822 -0.0930
 8218SOL    HW236114   3.969   2.284   7.789 -1.0514  0.3073 -0.6609
 8219SOL     OW36115   2.433   0.553   6.696 -1.2220 -0.2669  0.2903
 8219SOL    HW136116   2.464   0.626   6.643  3.5752 -1.2097  1.8258
 8219SOL    HW236117   2.469   0.480   6.645 -3.5251 -0.8175 -0.5579
 8220SOL     OW36118   2.872   3.669  13.532 -0.0316  0.2287  0.3582
 8220SOL    HW136119   2.910   3.754  13.508 -0.5167  0.7593  1.4811
 8220SOL    HW236120   2.897   3.619  13.454  2.8016  1.5696  0.3890
 8221SOL     OW36121   4.351   3.904   8.317  0.4642  0.2686 -0.2001
 8221SOL    HW136122   4.343   3.817   8.279  1.1944  0.3490 -0.5407
 8221SOL    HW236123   4.382   3.951   8.240 -3.7342  1.3398 -1.2529
 8222SOL     OW36124   3.899   4.196   0.730 -0.3042  0.7103  0.6493
 8222SOL    HW136125   3.817   4.147   0.721  0.1035 -0.0769  1.1852
 8222SOL    HW236126   3.878   4.249   0.807 -1.1172  0.3007  0.7076
 8223SOL     OW36127   3.372   3.593   7.502  0.0080 -0.1169 -0.1069
 8223SOL    HW136128   3.302   3.599   7.437  2.1441  1.1185 -2.2685
 8223SOL    HW236129   3.358   3.502   7.530  2.6463 -0.7288 -0.7873
 8224SOL     OW36130   0.892   4.008   4.443 -0.0846  0.3193  0.0134
 8224SOL    HW136131   0.829   3.958   4.390 -0.2820  1.4575 -0.8208
 8224SOL    HW236132   0.877   4.100   4.424 -0.9348 -0.4664 -3.2699
 8225SOL     OW36133   2.819   3.801   5.426 -0.1935 -0.4274 -0.0837
 8225SOL    HW136134   2.773   3.772   5.348 -2.2213 -2.9856  2.0672
 8225SOL    HW236135   2.771   3.881   5.446  2.0333  0.8496  0.1436
 8226SOL     OW36136   1.005   3.939  13.455  0.7790  0.6708 -0.1885
 8226SOL    HW136137   0.947   4.012  13.472  0.9058  0.9283 -0.8902
 8226SOL    HW236138   1.077   3.969  13.399 -0.2099 -1.5717 -2.6647
 8227SOL     OW36139   1.361   1.181   5.307 -0.5360  0.1491  0.5142
 8227SOL    HW136140   1.383   1.096   5.270 -0.6203  0.4724 -0.2806
 8227SOL    HW236141   1.437   1.190   5.365  1.2487 -0.3104 -1.7129
 8228SOL     OW36142   0.436   1.598   2.171  0.8343  0.0567 -0.2122
 8228SOL    HW136143   0.477   1.517   2.140 -0.2638 -0.8733  0.7519
 8228SOL    HW236144   0.398   1.638   2.093 -0.8756 -1.1733 -0.0228
 8229SOL     OW36145   0.299   4.145   6.776  0.0647 -0.4026  0.5780
 8229SOL    HW136146   0.337   4.057   6.777  0.1361 -0.3800 -0.9285
 8229SOL    HW236147   0.357   4.184   6.841 -0.3618 -1.1940  1.4387
 8230SOL     OW36148   1.055   1.196  13.938 -0.8262  0.1694  0.6396
 8230SOL    HW136149   1.147   1.200  13.965 -0.5496 -1.1893 -0.0954
 8230SOL    HW236150   1.046   1.101  13.942  0.1035  0.2057  3.8557
 8231SOL     OW36151   2.580   4.523   2.016  0.0153 -0.5360  0.1055
 8231SOL    HW136152   2.566   4.438   2.059 -0.3791 -1.1823 -1.3246
 8231SOL    HW236153   2.674   4.516   2.003  0.0110  0.7184 -0.5050
 8232SOL     OW36154   0.736   1.639  16.974 -0.3344  0.3254  1.1160
 8232SOL    HW136155   0.679   1.563  16.961  0.0174 -0.0074  1.4919
 8232SOL    HW236156   0.810   1.590  17.011  0.1618  0.2680  0.0522
 8233SOL     OW36157   3.924   1.976   4.363  0.7100 -0.1412 -0.1219
 8233SOL    HW136158   3.907   2.070   4.361 -2.0735 -0.7026 -2.1179
 8233SOL    HW236159   4.015   1.985   4.391 -0.2540  1.4633  2.5004
 8234SOL     OW36160   3.694   3.041   6.689  0.5316  0.5093  0.6818
 8234SOL    HW136161   3.618   3.094   6.668 -0.5587 -0.9969  0.8148
 8234SOL    HW236162   3.705   2.997   6.605 -0.3368  0.4560  0.5937
 8235SOL     OW36163   2.616   3.473   9.988  0.4899 -0.5205  0.4121
 8235SOL    HW136164   2.661   3.538   9.934  0.8602  0.0317  1.3881
 8235SOL    HW236165   2.536   3.519  10.014  1.0274  2.0956 -2.4967
 8236SOL     OW36166   4.325   2.801   6.483  0.0812 -0.3587  0.2525
 8236SOL    HW136167   4.392   2.869   6.475  2.2723 -2.6180 -0.6046
 8236SOL    HW236168   4.338   2.755   6.566 -0.6392  0.8494  1.0381
 8237SOL     OW36169   3.825   1.841   8.308 -0.2145  0.1565  0.3376
 8237SOL    HW136170   3.813   1.898   8.232 -0.4641  2.0314  1.7500
 8237SOL    HW236171   3.907   1.795   8.290  0.0422  0.8051 -0.1703
 8238SOL     OW36172   0.480   0.134   9.951  0.0944  0.5831  0.1905
 8238SOL    HW136173   0.385   0.125   9.955  0.1302 -0.7071 -2.0081
 8238SOL    HW236174   0.508   0.116   9.861 -2.3052 -1.4909 -0.1281
 8239SOL     OW36175   4.033   4.246   4.127 -0.7232 -0.5449 -0.5259
 8239SOL    HW136176   4.049   4.164   4.082 -3.0966 -0.3225 -1.7845
 8239SOL    HW236177   4.020   4.310   4.057  2.9776  0.0150 -0.6786
 8240SOL     OW36178   0.715   1.909  15.295 -0.0871 -0.1699 -0.5852
 8240SOL    HW136179   0.662   1.833  15.269  0.4674 -0.3908 -1.0848
 8240SOL    HW236180   0.728   1.946  15.208  0.0450 -2.4235 -1.5385
 8241SOL     OW36181   2.754   1.044   2.335  0.2954  0.2531 -0.0636
 8241SOL    HW136182   2.705   1.033   2.253 -0.2146  2.2665 -0.0329
 8241SOL    HW236183   2.841   1.057   2.298  0.1073 -0.0071 -0.5975
 8242SOL     OW36184   1.954   0.714  17.400  0.6184 -0.1073  0.1610
 8242SOL    HW136185   2.020   0.665  17.448  0.6078 -0.0799  0.2034
 8242SOL    HW236186   1.956   0.803  17.435 -1.2682 -0.4321  1.1325
 8243SOL     OW36187   2.773   0.271   9.600  0.0291 -0.5684 -0.0646
 8243SOL    HW136188   2.771   0.178   9.623  2.1693 -0.8445 -1.0360
 8243SOL    HW236189   2.701   0.272   9.537 -1.7581 -2.9864  1.9421
 8244SOL     OW36190   3.498   2.661  15.962 -0.4768  0.8823 -0.1211
 8244SOL    HW136191   3.563   2.668  15.893  0.4131 -0.4356  0.5883
 8244SOL    HW236192   3.552   2.628  16.034 -1.4285 -0.6381 -0.1237
 8245SOL     OW36193   3.049   0.323  17.245 -0.8358  0.1942  0.0129
 8245SOL    HW136194   3.012   0.235  17.246  2.5793 -1.2477  0.8408
 8245SOL    HW236195   3.134   0.294  17.213 -0.5347  0.2292  0.7812
 8246SOL     OW36196   1.044   4.199   9.742  1.3976 -0.3958 -0.5130
 8246SOL    HW136197   0.951   4.177   9.733  0.9982  1.9842 -2.0813
 8246SOL    HW236198   1.086   4.125   9.698  0.5023 -1.4524  0.4032
 8247SOL     OW36199   1.890   0.629   6.171 -0.1267 -0.2284  0.2455
 8247SOL    HW136200   1.977   0.665   6.190  1.2131 -2.5347 -1.5981
 8247SOL    HW236201   1.884   0.555   6.230 -2.0178  0.2370  0.6401
 8248SOL     OW36202   3.488   1.906   4.213  0.1467  0.3043  0.7438
 8248SOL    HW136203   3.573   1.889   4.254  0.1739  0.7007  0.8568
 8248SOL    HW236204   3.506   1.914   4.119 -0.3330 -1.0823  0.5352
 8249SOL     OW36205   2.597   0.433   6.948  0.2542  0.1784  0.5817
 8249SOL    HW136206   2.576   0.469   6.862 -2.9324 -2.1916  0.3713
 8249SOL    HW236207   2.614   0.344   6.916 -0.3799  0.1641  0.2853
 8250SOL     OW36208   3.345   2.758   6.553 -0.4324  0.0508 -0.8027
 8250SOL    HW136209   3.340   2.833   6.493  2.2373  1.4305  0.6878
 8250SOL    HW236210   3.411   2.707   6.507  2.5026  3.6323 -0.5651
 8251SOL     OW36211   1.864   1.207   8.586 -0.2971  0.7017 -0.1027
 8251SOL    HW136212   1.948   1.209   8.633  0.0097 -0.0183 -0.6164
 8251SOL    HW236213   1.853   1.300   8.568 -0.9174  0.6603  0.0816
 8252SOL     OW36214   0.646   0.173   5.336  0.0127 -0.4868 -0.1100
 8252SOL    HW136215   0.720   0.174   5.276  1.4075  1.9532  1.6418
 8252SOL    HW236216   0.578   0.124   5.291 -1.0218  0.5926  0.2917
 8253SOL     OW36217   3.907   0.519   5.107  0.6687 -0.1386  0.4029
 8253SOL    HW136218   3.968   0.452   5.138  2.2861  1.0993 -0.1196
 8253SOL    HW236219   3.944   0.604   5.130  0.4014 -0.1742  0.9782
 8254SOL     OW36220   1.540   1.801   9.580  0.1457  0.2865 -0.1421
 8254SOL    HW136221   1.523   1.725   9.635  0.0482 -2.5389 -4.0245
 8254SOL    HW236222   1.453   1.841   9.575  2.1906  4.9048  0.6847
 8255SOL     OW36223   3.689   3.593   3.414  0.0143  0.3562  0.1431
 8255SOL    HW136224   3.597   3.595   3.441  0.2667  2.1897  0.8506
 8255SOL    HW236225   3.741   3.549   3.481  2.2573  0.4398 -1.5281
 8256SOL     OW36226   1.195   3.383   4.493  0.1437 -0.0176  0.1432
 8256SOL    HW136227   1.118   3.386   4.551  1.1155  2.1681  1.2918
 8256SOL    HW236228   1.262   3.384   4.561 -1.0992  1.5763  1.3313
 8257SOL     OW36229   1.054   4.456   3.936  0.0012  0.4836 -0.6345
 8257SOL    HW136230   1.057   4.421   3.847 -0.3987 -1.5435  0.1582
 8257SOL    HW236231   0.993   4.529   3.927 -2.1131 -1.2633 -0.6450
 8258SOL     OW36232   0.436   3.725   4.391  0.5318 -0.1748  0.3501
 8258SOL    HW136233   0.439   3.642   4.438  1.3611 -0.5274 -0.3167
 8258SOL    HW236234   0.349   3.760   4.413 -0.0413 -0.2627 -1.7605
 8259SOL     OW36235   1.198   3.181   6.548 -0.0252  0.1393 -0.2071
 8259SOL    HW136236   1.200   3.224   6.463  0.9269 -1.6299 -1.0738
 8259SOL    HW236237   1.234   3.094   6.531 -0.8615  0.0458 -1.4583
 8260SOL     OW36238   2.999   3.174   9.093  0.3792  0.3299  0.4185
 8260SOL    HW136239   3.082   3.132   9.068  0.8500  2.4864 -1.6808
 8260SOL    HW236240   3.008   3.263   9.060  0.1685  0.4281  0.6332
 8261SOL     OW36241   3.956   3.582   0.783  0.1672  0.2808  0.9025
 8261SOL    HW136242   4.012   3.542   0.716 -0.8686  0.4808 -0.0944
 8261SOL    HW236243   3.906   3.505   0.808 -2.3095  1.6194  0.1296
 8262SOL     OW36244   4.291   3.111   8.878  0.3744 -0.2207 -0.1245
 8262SOL    HW136245   4.353   3.075   8.942  0.5330 -0.7561 -0.5772
 8262SOL    HW236246   4.311   3.204   8.863  0.9662 -0.4029 -0.4625
 8263SOL     OW36247   1.348   3.462   5.769  0.3686 -0.2771 -0.1155
 8263SOL    HW136248   1.287   3.487   5.700  1.1654  2.8211  0.3000
 8263SOL    HW236249   1.354   3.535   5.831  0.1624 -0.4474  0.1069
 8264SOL     OW36250   1.676   1.964   1.465 -0.0314  0.0982  0.8319
 8264SOL    HW136251   1.657   1.912   1.543 -1.7754 -0.5102 -0.0003
 8264SOL    HW236252   1.771   1.953   1.458 -0.0310  0.9358 -0.4059
 8265SOL     OW36253   3.831   1.885   3.294  0.8047  0.0938  0.1258
 8265SOL    HW136254   3.917   1.925   3.283  1.6352 -1.7676 -0.1596
 8265SOL    HW236255   3.853   1.799   3.257  0.2345  0.6718 -1.5495
 8266SOL     OW36256   3.746   1.656   1.586  0.1157  0.3804  0.0750
 8266SOL    HW136257   3.824   1.638   1.534 -1.2602 -0.2999 -1.7639
 8266SOL    HW236258   3.678   1.646   1.519  1.7239 -0.5809 -1.4188
 8267SOL     OW36259   2.470   0.694  14.311 -0.1380  0.2411  0.0143
 8267SOL    HW136260   2.548   0.714  14.260  1.4176 -0.7107  1.9832
 8267SOL    HW236261   2.454   0.775  14.360 -0.1578 -0.0444  0.4846
 8268SOL     OW36262   0.825   4.235   8.660  0.2921 -0.0307 -0.1392
 8268SOL    HW136263   0.781   4.162   8.618 -0.9023  2.5245 -3.3665
 8268SOL    HW236264   0.866   4.199   8.739 -3.4411  0.8132  2.1802
 8269SOL     OW36265   2.214   2.620   3.070 -0.2887 -0.3495  0.9706
 8269SOL    HW136266   2.231   2.711   3.091 -1.8669  0.1583  0.0692
 8269SOL    HW236267   2.269   2.633   2.993 -0.8343 -1.4322  0.3986
 8270SOL     OW36268   2.234   1.117   5.507 -0.4085  0.0793  0.3606
 8270SOL    HW136269   2.170   1.160   5.451  1.6718  1.1619 -1.1797
 8270SOL    HW236270   2.307   1.090   5.451  0.6759  0.1137  1.7461
 8271SOL     OW36271   3.744   1.054  10.753 -0.3234  0.0452  0.0681
 8271SOL    HW136272   3.774   1.086  10.837 -1.8567 -0.4112  0.7897
 8271SOL    HW236273   3.818   1.071  10.695 -0.9488  2.6307  0.0494
 8272SOL     OW36274   1.403   0.539   8.864 -0.1242 -0.2557 -0.2979
 8272SOL    HW136275   1.448   0.536   8.949  0.1070 -0.2866 -0.4190
 8272SOL    HW236276   1.378   0.448   8.849 -1.9012 -0.3540  3.2405
 8273SOL     OW36277   0.754   4.152   3.227  0.1530 -0.3804 -0.3091
 8273SOL    HW136278   0.699   4.212   3.175 -0.1568 -0.0070  0.4577
 8273SOL    HW236279   0.801   4.113   3.154  1.2955  0.7648 -0.1792
 8274SOL     OW36280   1.922   0.564   7.874 -0.0463 -0.8269  0.4765
 8274SOL    HW136281   1.878   0.585   7.792  0.2984  1.7009  0.9441
 8274SOL    HW236282   2.014   0.561   7.846  0.8186 -0.6977  3.2531
 8275SOL     OW36283   3.838   0.067   2.027 -0.1772  0.0198  0.0375
 8275SOL    HW136284   3.850   0.028   2.114  3.6714  1.5694  0.1782
 8275SOL    HW236285   3.833   4.704   1.977 -0.5701 -0.5135  0.9439
 8276SOL     OW36286   3.909   2.847   9.294 -0.2966 -0.4234  0.6413
 8276SOL    HW136287   3.840   2.880   9.236  0.0570  1.2548  1.1750
 8276SOL    HW236288   3.933   2.929   9.337 -0.7330  0.4361 -0.7591
 8277SOL     OW36289   4.659   2.948   0.859  0.2236  0.1930 -0.3242
 8277SOL    HW136290   4.692   2.940   0.949  0.6494 -0.0616 -0.5040
 8277SOL    HW236291   4.626   3.038   0.862  0.9006  0.3412  3.6323
 8278SOL     OW36292   4.259   1.882   9.965 -0.3457  0.0331  0.2317
 8278SOL    HW136293   4.165   1.869   9.974 -0.3189  0.6938  1.5778
 8278SOL    HW236294   4.253   1.975   9.943  1.2202 -0.1564 -0.9930
 8279SOL     OW36295   3.382   4.543   2.655 -0.5414  0.1941  0.6243
 8279SOL    HW136296   3.441   4.605   2.613 -0.9874  0.5340  0.5014
 8279SOL    HW236297   3.339   4.511   2.575  1.5020  0.1747 -0.4911
 8280SOL     OW36298   1.948   2.259  15.169  0.0756  0.0833  0.1512
 8280SOL    HW136299   1.950   2.319  15.243 -1.1048 -1.7696  1.6850
 8280SOL    HW236300   1.939   2.317  15.094 -1.9691 -0.6551 -0.1956
 8281SOL     OW36301   0.042   1.068   6.029 -0.0424 -0.1884  0.0993
 8281SOL    HW136302   0.129   1.042   6.060  0.1177 -0.1966 -0.3506
 8281SOL    HW236303   0.028   0.993   5.971  0.2498  0.5634 -0.9662
 8282SOL     OW36304   3.806   0.943   8.867  0.4263 -0.1671  0.3758
 8282SOL    HW136305   3.716   0.938   8.897  0.3832  0.1002  0.2920
 8282SOL    HW236306   3.827   0.850   8.867 -5.4262 -1.4656 -1.3687
 8283SOL     OW36307   2.701   3.949   4.228 -0.2625 -0.4666 -0.2882
 8283SOL    HW136308   2.660   3.870   4.192 -1.1126 -0.4340  0.6240
 8283SOL    HW236309   2.698   3.930   4.322 -0.4543  0.9764 -0.0030
 8284SOL     OW36310   1.166   1.909   8.662  0.3126  0.4590 -0.1316
 8284SOL    HW136311   1.162   1.974   8.592  4.0806 -0.1405 -0.9308
 8284SOL    HW236312   1.248   1.929   8.709 -0.2521  1.6485  0.3630
 8285SOL     OW36313   0.345   1.883   5.251 -0.1139 -0.5291 -1.1286
 8285SOL    HW136314   0.287   1.810   5.272 -3.1487  1.9894 -0.7137
 8285SOL    HW236315   0.362   1.914   5.340 -0.0932 -0.1502 -1.2629
 8286SOL     OW36316   2.236   0.974   8.840  0.0198 -0.3310 -0.0591
 8286SOL    HW136317   2.163   0.952   8.898 -0.4465  0.2270 -0.4322
 8286SOL    HW236318   2.304   1.003   8.900  0.1758 -0.8941  0.0367
 8287SOL     OW36319   2.709   2.774  16.631 -0.0327  0.9266 -0.1728
 8287SOL    HW136320   2.706   2.752  16.725  0.9822 -2.6690 -0.9861
 8287SOL    HW236321   2.724   2.868  16.642 -1.3256  1.0061  1.0223
 8288SOL     OW36322   1.631   3.291  15.377  0.1140 -0.2020 -0.5313
 8288SOL    HW136323   1.561   3.293  15.311 -0.4162  0.9108  0.0509
 8288SOL    HW236324   1.699   3.265  15.316  0.2752  0.9464 -0.8371
 8289SOL     OW36325   1.754   0.693   5.641 -0.2960 -0.1845 -0.5771
 8289SOL    HW136326   1.784   0.695   5.732 -1.7971  0.3165 -0.1016
 8289SOL    HW236327   1.684   0.758   5.642 -0.0210  0.1008 -0.0474
 8290SOL     OW36328   2.534   1.196   5.896 -0.1353  0.1134  0.5719
 8290SOL    HW136329   2.458   1.188   5.838  0.9110  0.2966 -0.8335
 8290SOL    HW236330   2.499   1.172   5.981  0.5557  0.5992  0.9964
 8291SOL     OW36331   1.960   3.281   5.029  0.3043 -0.0631 -0.0860
 8291SOL    HW136332   1.913   3.361   5.008 -0.3461 -0.5314 -0.4118
 8291SOL    HW236333   1.916   3.209   4.985  0.5563 -0.1993 -0.1187
 8292SOL     OW36334   0.533   0.429  15.220 -0.0786  0.1271  0.5458
 8292SOL    HW136335   0.537   0.446  15.314 -0.4139  0.2429  0.5388
 8292SOL    HW236336   0.442   0.459  15.208 -0.2766  0.0172  1.7694
 8293SOL     OW36337   1.757   3.736   6.337  0.3350  0.3430 -0.3036
 8293SOL    HW136338   1.798   3.822   6.345  0.2057  0.2201  1.9079
 8293SOL    HW236339   1.756   3.717   6.431  1.7898  0.4807 -0.2661
 8294SOL     OW36340   3.942   2.983   2.530  0.4585  0.2535 -0.2249
 8294SOL    HW136341   3.861   3.018   2.568  0.7366  0.0815  0.5286
 8294SOL    HW236342   3.929   2.998   2.437  1.4579  0.5820 -0.3102
 8295SOL     OW36343   0.799   2.094  15.652  0.2902  0.4344  0.7917
 8295SOL    HW136344   0.763   2.053  15.731  0.1079 -1.7103 -0.4354
 8295SOL    HW236345   0.725   2.142  15.614 -1.7304 -2.9436  0.4539
 8296SOL     OW36346   3.327   0.753   8.017  0.5895 -0.0992 -0.0985
 8296SOL    HW136347   3.329   0.746   7.921  0.2637  0.5296 -0.1510
 8296SOL    HW236348   3.379   0.678   8.044 -0.6559 -1.2395 -0.8821
 8297SOL     OW36349   4.444   2.969   9.971 -0.0266 -0.6472 -0.2328
 8297SOL    HW136350   4.532   2.953  10.005 -0.8864  0.7352  2.6461
 8297SOL    HW236351   4.430   2.897   9.910  1.3231  0.4978 -1.8927
 8298SOL     OW36352   4.697   4.305  13.937 -0.4470  0.2894 -0.3297
 8298SOL    HW136353   0.020   4.235  13.987 -1.6980 -0.4440 -0.3049
 8298SOL    HW236354   4.604   4.296  13.959 -0.3161 -2.5079 -0.8719
 8299SOL     OW36355   3.144   2.064   1.712  0.4910 -0.1570 -0.1941
 8299SOL    HW136356   3.170   2.151   1.744 -2.5080  1.4968 -2.3113
 8299SOL    HW236357   3.211   2.019   1.764  1.1879 -2.1400 -2.8158
 8300SOL     OW36358   1.106   0.612  10.594 -0.3098 -0.2382  0.0807
 8300SOL    HW136359   1.178   0.553  10.617 -0.2954  0.1273  0.9492
 8300SOL    HW236360   1.155   0.694  10.588  0.2328 -0.7082 -1.9477
 8301SOL     OW36361   2.763   3.002  15.722 -0.0222  0.2332  0.2078
 8301SOL    HW136362   2.726   3.085  15.692  2.2775  1.2907  0.2808
 8301SOL    HW236363   2.784   3.022  15.813  2.4083 -2.3617  0.2334
 8302SOL     OW36364   1.099   0.560   0.455 -0.4623  0.0626  0.0129
 8302SOL    HW136365   1.039   0.592   0.522  1.6250 -0.1091  2.0053
 8302SOL    HW236366   1.151   0.639   0.440  2.2070 -1.8002 -0.5350
 8303SOL     OW36367   3.156   4.132  10.853 -0.1528 -0.0845 -0.3287
 8303SOL    HW136368   3.177   4.049  10.895  1.4989  0.0456 -0.8870
 8303SOL    HW236369   3.081   4.171  10.899 -0.6832 -2.4620  0.7985
 8304SOL     OW36370   1.796   4.231   2.533 -0.0256  0.2217 -0.2280
 8304SOL    HW136371   1.875   4.179   2.521 -0.4955 -0.7766  0.9352
 8304SOL    HW236372   1.777   4.234   2.440 -2.5648 -0.7461  0.2463
 8305SOL     OW36373   0.720   2.835   4.393 -0.7670 -0.2168  0.6364
 8305SOL    HW136374   0.758   2.820   4.306 -0.4775 -1.0979  0.9185
 8305SOL    HW236375   0.628   2.843   4.368 -0.4092 -0.8490 -0.8766
 8306SOL     OW36376   3.835   2.142   7.050  0.2352  0.8034  0.1112
 8306SOL    HW136377   3.902   2.078   7.075 -0.3577 -0.7910 -2.3243
 8306SOL    HW236378   3.781   2.094   6.988  0.0261  0.1601  0.7911
 8307SOL     OW36379   3.187   3.599   6.639 -0.0651 -0.1979 -0.5221
 8307SOL    HW136380   3.120   3.651   6.596 -2.4918 -2.5297  0.4644
 8307SOL    HW236381   3.202   3.541   6.563  0.7060 -0.1923 -0.3810
 8308SOL     OW36382   3.114   2.606   1.804  0.5610 -0.0986  0.7454
 8308SOL    HW136383   3.130   2.533   1.863 -1.5515  0.5068  2.0512
 8308SOL    HW236384   3.057   2.563   1.740 -0.0380 -0.2230  1.3653
 8309SOL     OW36385   1.173   1.722   2.424 -0.8075  0.6326  0.6028
 8309SOL    HW136386   1.084   1.751   2.405  0.1511  1.9823 -1.7073
 8309SOL    HW236387   1.169   1.674   2.508 -1.8379 -0.9580 -0.3422
 8310SOL     OW36388   0.647   2.051   6.701  0.2814 -0.0627 -0.0075
 8310SOL    HW136389   0.730   2.093   6.677  0.2203  0.2472  0.3237
 8310SOL    HW236390   0.585   2.092   6.640 -1.4684 -3.3576 -0.4471
 8311SOL     OW36391   4.382   0.855   5.342  0.4679 -0.0601 -0.1593
 8311SOL    HW136392   4.372   0.775   5.394  2.3010 -2.1379 -3.0071
 8311SOL    HW236393   4.298   0.900   5.347 -0.6481 -2.0087 -1.1942
 8312SOL     OW36394   2.538   4.417   0.809  0.0374  0.1029 -0.6839
 8312SOL    HW136395   2.491   4.420   0.892 -0.6593  3.2278 -1.1732
 8312SOL    HW236396   2.626   4.390   0.836 -1.0314 -1.7299  0.8886
 8313SOL     OW36397   3.949   4.447   3.070  0.3232  0.0716  0.4515
 8313SOL    HW136398   3.948   4.533   3.027  0.0769 -1.8721 -3.4047
 8313SOL    HW236399   4.018   4.403   3.020  1.9069  3.3212 -0.2100
 8314SOL     OW36400   1.993   1.720   5.334  0.1400  0.4522 -0.2844
 8314SOL    HW136401   1.940   1.659   5.385 -1.1385  0.5777 -1.4641
 8314SOL    HW236402   1.919   1.759   5.286 -0.3589 -0.5997 -0.3573
 8315SOL     OW36403   3.917   3.864  15.997  0.0140 -0.3047  0.0435
 8315SOL    HW136404   3.935   3.958  15.987  0.0470 -0.4016 -0.8100
 8315SOL    HW236405   3.855   3.867  16.070 -0.0112  2.3086 -0.0753
 8316SOL     OW36406   3.902   0.852  11.151 -0.1420  0.4897 -0.0726
 8316SOL    HW136407   3.843   0.793  11.199  2.4810 -0.6205  1.7634
 8316SOL    HW236408   3.946   0.905  11.217  1.7109 -1.4027  0.2113
 8317SOL     OW36409   1.848   0.557   3.990  0.8342  0.4885 -0.5796
 8317SOL    HW136410   1.776   0.495   3.990 -0.3841  1.8996  0.7009
 8317SOL    HW236411   1.905   0.513   4.054 -0.2429  0.8593  0.6425
 8318SOL     OW36412   1.638   0.642  13.453  0.1640  0.7311 -0.1492
 8318SOL    HW136413   1.692   0.690  13.515 -0.6027  0.9162  0.3777
 8318SOL    HW236414   1.567   0.622  13.514  0.1216 -1.3932 -0.8837
 8319SOL     OW36415   2.064   3.616   8.679  0.4145 -0.0003 -0.2825
 8319SOL    HW136416   2.043   3.683   8.614 -0.2425 -0.4402 -0.5241
 8319SOL    HW236417   2.125   3.563   8.627 -1.8438 -0.4961 -2.4053
 8320SOL     OW36418   0.241   4.327   2.723 -0.3324 -0.2274  0.6043
 8320SOL    HW136419   0.332   4.334   2.753 -0.4424  1.4856  0.5121
 8320SOL    HW236420   0.233   4.410   2.676  1.2550 -0.6007 -0.3313
 8321SOL     OW36421   3.069   2.011   8.897 -0.0519 -0.7464  0.0988
 8321SOL    HW136422   3.035   1.958   8.825  2.0370 -2.9720  0.7411
 8321SOL    HW236423   3.162   1.987   8.892  0.2980  0.7499 -0.5005
 8322SOL     OW36424   2.369   0.327  14.123  0.7617  0.3517  0.3174
 8322SOL    HW136425   2.364   0.237  14.092 -0.2174  0.2343  0.8004
 8322SOL    HW236426   2.314   0.374  14.061 -1.9888 -2.2477  0.8078
 8323SOL     OW36427   3.916   2.272  12.716 -0.0619  0.1584 -0.2547
 8323SOL    HW136428   3.904   2.328  12.639 -1.4825 -0.6906 -0.6441
 8323SOL    HW236429   3.970   2.199  12.684  0.1834  0.0129  0.4745
 8324SOL     OW36430   3.294   2.913   3.972 -0.0941  0.0379  0.1676
 8324SOL    HW136431   3.359   2.866   4.023  2.2352  0.0934 -2.6990
 8324SOL    HW236432   3.332   2.886   3.888  0.5153 -1.3680  0.9111
 8325SOL     OW36433   0.790   0.001   2.820 -0.0721  0.2702  0.4972
 8325SOL    HW136434   0.883   4.712   2.840  0.4474  2.2206 -1.1551
 8325SOL    HW236435   0.784   4.674   2.736  0.2602  1.4769 -0.1863
 8326SOL     OW36436   0.017   0.706   2.270 -0.5009  0.4467 -0.4819
 8326SOL    HW136437   0.087   0.704   2.205  1.7536 -0.1649  1.9585
 8326SOL    HW236438   0.079   0.695   2.342  1.0324 -1.3433 -2.0712
 8327SOL     OW36439   1.472   2.596   9.536  0.3405 -0.4473  0.0213
 8327SOL    HW136440   1.515   2.512   9.528  1.6042  0.3529 -1.5649
 8327SOL    HW236441   1.382   2.571   9.512  0.3594 -0.9095  0.4421
 8328SOL     OW36442   0.256   2.766   8.417 -0.3590  0.2834  0.3168
 8328SOL    HW136443   0.206   2.731   8.491 -1.1124  1.8977  0.5893
 8328SOL    HW236444   0.194   2.772   8.345  0.0307  0.9657  0.0394
 8329SOL     OW36445   3.080   3.921  12.520  0.2813  0.0828  0.1871
 8329SOL    HW136446   3.027   3.976  12.577 -0.8133 -0.5528 -0.2201
 8329SOL    HW236447   3.156   3.980  12.513 -1.3499  1.8765 -2.2585
 8330SOL     OW36448   4.422   3.019   1.156 -0.3404  0.1744  0.3627
 8330SOL    HW136449   4.491   2.953   1.150 -2.3677 -1.7065 -2.3147
 8330SOL    HW236450   4.351   2.961   1.129 -0.6653 -0.0498  1.7283
 8331SOL     OW36451   2.329   0.370   5.142  0.4346  0.2938 -0.6121
 8331SOL    HW136452   2.250   0.391   5.093  0.6433  2.1527 -0.1614
 8331SOL    HW236453   2.304   0.408   5.226  1.2994 -2.6154  0.9761
 8332SOL     OW36454   1.367   0.407   4.200 -0.2449  0.4785  0.1146
 8332SOL    HW136455   1.329   0.348   4.265  1.3855 -0.5225  0.1282
 8332SOL    HW236456   1.299   0.474   4.213 -1.0142 -0.1976 -0.3735
 8333SOL     OW36457   0.891   1.300   7.055 -0.0294 -0.3270  0.4672
 8333SOL    HW136458   0.878   1.307   7.150 -0.9024 -0.6944  0.3719
 8333SOL    HW236459   0.812   1.341   7.021  0.9888  2.2733  1.2349
 8334SOL     OW36460   0.970   1.690   1.396 -0.4063 -0.5620 -0.6559
 8334SOL    HW136461   0.918   1.726   1.324 -0.9380  1.4847  0.7466
 8334SOL    HW236462   1.053   1.678   1.350  1.1429 -0.7426  2.1821
 8335SOL     OW36463   2.503   1.468   7.044  0.3394  0.1547  0.2693
 8335SOL    HW136464   2.534   1.396   6.990  0.1349  1.2034 -1.2255
 8335SOL    HW236465   2.409   1.478   7.027  0.5361  1.7223  0.0518
 8336SOL     OW36466   1.983   0.114   2.995  0.6698 -0.5834 -0.2831
 8336SOL    HW136467   1.988   0.046   2.928  1.2147 -0.7047 -0.1271
 8336SOL    HW236468   1.891   0.125   3.016  0.3789 -1.4934 -1.1082
 8337SOL     OW36469   3.110   4.085   7.490 -0.0720 -0.6137  0.2015
 8337SOL    HW136470   3.174   4.015   7.502  1.0869  0.5574  0.9781
 8337SOL    HW236471   3.030   4.044   7.457  0.2402  0.3891 -1.8023
 8338SOL     OW36472   0.810   3.808  12.827  0.1660  0.7372  0.6598
 8338SOL    HW136473   0.879   3.864  12.791  0.8543 -1.4114 -1.3742
 8338SOL    HW236474   0.859   3.769  12.900 -0.7223 -3.3257 -0.8807
 8339SOL     OW36475   0.994   1.319   3.011 -0.5912 -0.1895  0.6688
 8339SOL    HW136476   1.044   1.376   3.070 -0.7347  2.5571 -1.8449
 8339SOL    HW236477   0.953   1.388   2.958  0.4093  0.3816  0.6386
 8340SOL     OW36478   2.177   2.413   8.972 -0.2241 -0.5711 -0.1619
 8340SOL    HW136479   2.106   2.372   8.923  0.2653 -2.6817  0.8959
 8340SOL    HW236480   2.162   2.503   8.944 -0.3861 -0.7877 -0.7668
 8341SOL     OW36481   1.384   1.376   3.165  0.0467  0.2734 -0.0818
 8341SOL    HW136482   1.353   1.398   3.253  0.0092 -0.1709  0.0152
 8341SOL    HW236483   1.379   1.464   3.128  1.2189 -0.8673 -2.9167
 8342SOL     OW36484   1.587   2.256   3.830  0.6926  0.0395  0.1066
 8342SOL    HW136485   1.585   2.351   3.844  0.5709 -0.1933  1.6898
 8342SOL    HW236486   1.676   2.244   3.797 -0.2620 -0.4371 -2.3223
 8343SOL     OW36487   0.988   1.574  12.267 -0.3119 -0.5253 -0.6109
 8343SOL    HW136488   0.911   1.601  12.317  0.5006 -1.2904  1.0467
 8343SOL    HW236489   0.955   1.547  12.182  0.6240 -1.9618 -0.5124
 8344SOL     OW36490   2.829   0.399   6.550  0.4775 -0.7176  0.1478
 8344SOL    HW136491   2.891   0.467   6.523 -0.6443  0.7315  1.1895
 8344SOL    HW236492   2.852   0.404   6.643  1.2227  0.6302 -0.1077
 8345SOL     OW36493   1.618   3.464   0.036  0.0064 -0.2673  0.0761
 8345SOL    HW136494   1.551   3.487  17.652 -1.3791 -1.1180  1.2422
 8345SOL    HW236495   1.625   3.549   0.079  0.5614 -1.1136  1.6707
 8346SOL     OW36496   2.174   3.600   8.941 -0.4068 -0.0288  0.0774
 8346SOL    HW136497   2.139   3.600   8.852 -0.4614 -1.2983  0.0994
 8346SOL    HW236498   2.166   3.508   8.964 -0.6996 -0.3116 -1.1710
 8347SOL     OW36499   4.163   3.945   5.149  0.0750  0.0182  0.1862
 8347SOL    HW136500   4.185   3.875   5.211  0.0838 -0.0852  0.0660
 8347SOL    HW236501   4.238   3.931   5.092  0.1930 -0.4256  0.4442
 8348SOL     OW36502   2.526   3.587   0.329  0.0577 -0.4818 -0.6001
 8348SOL    HW136503   2.562   3.658   0.382 -0.6384 -1.0859  0.6857
 8348SOL    HW236504   2.488   3.543   0.406 -0.5578  2.9454  1.0553
 8349SOL     OW36505   0.388   2.138   7.680 -0.1411 -0.0541 -0.2714
 8349SOL    HW136506   0.480   2.162   7.693 -0.5752  0.9400  0.9834
 8349SOL    HW236507   0.395   2.085   7.600 -1.1846 -2.4246  1.2125
 8350SOL     OW36508   3.604   3.602   3.051  0.4609  0.2328 -0.5986
 8350SOL    HW136509   3.669   3.549   3.098 -0.0106 -1.0831 -1.4228
 8350SOL    HW236510   3.523   3.560   3.078 -1.5208  2.9464 -2.3886
 8351SOL     OW36511   4.038   1.504   8.447 -0.1692  0.2394  0.5237
 8351SOL    HW136512   4.040   1.576   8.384  1.6291  1.2460  1.7675
 8351SOL    HW236513   4.103   1.527   8.513  0.7480  1.7053 -0.8907
 8352SOL     OW36514   4.114   2.918   3.209  0.1774  0.2016 -0.6138
 8352SOL    HW136515   4.103   2.830   3.173  0.3191 -0.3734  0.7445
 8352SOL    HW236516   4.192   2.949   3.163  0.7653 -1.6949 -0.8656
 8353SOL     OW36517   2.193   2.190   8.406  0.7620 -0.2293 -0.4167
 8353SOL    HW136518   2.162   2.120   8.464  0.8403 -0.0390 -0.1453
 8353SOL    HW236519   2.288   2.179   8.397  0.9458  0.8412  0.2200
 8354SOL     OW36520   0.087   2.804   5.026  0.0080 -0.3910 -0.5089
 8354SOL    HW136521   0.102   2.727   5.080 -3.0607 -0.3166  0.4107
 8354SOL    HW236522   0.057   2.865   5.093  0.5130 -0.4010 -0.2728
 8355SOL     OW36523   3.859   4.016   9.548 -0.7000  0.2228  0.3386
 8355SOL    HW136524   3.846   4.051   9.637 -0.1764  1.7059 -0.1780
 8355SOL    HW236525   3.769   4.029   9.517  0.4738  1.4649 -2.5544
 8356SOL     OW36526   2.139   2.774   9.837  0.4322  0.7345 -0.1415
 8356SOL    HW136527   2.063   2.745   9.786  2.2584 -1.8789 -1.3527
 8356SOL    HW236528   2.177   2.688   9.855  1.9505  1.1238 -1.5077
 8357SOL     OW36529   0.101   1.154   7.283  0.1036 -0.1871 -0.5952
 8357SOL    HW136530   0.068   1.090   7.220 -1.1589 -1.2994  1.2071
 8357SOL    HW236531   0.026   1.163   7.342  0.4089 -0.4637 -0.1669
 8358SOL     OW36532   3.793   3.863  10.374  0.3857 -0.5626 -0.0974
 8358SOL    HW136533   3.733   3.933  10.349  0.3999 -1.2609 -2.0413
 8358SOL    HW236534   3.737   3.811  10.432  1.0154 -1.3479 -0.1850
 8359SOL     OW36535   0.783   0.313   5.536  0.3620  0.3752 -0.1680
 8359SOL    HW136536   0.823   0.394   5.504  0.8198 -0.6238 -2.1058
 8359SOL    HW236537   0.734   0.275   5.463  1.2005 -2.4536  0.7485
 8360SOL     OW36538   0.406   1.968   3.683  0.1436  0.3454  0.1594
 8360SOL    HW136539   0.432   2.058   3.664 -0.6806  0.1213 -1.9817
 8360SOL    HW236540   0.489   1.925   3.664  1.1504  1.6299  1.5845
 8361SOL     OW36541   3.987   3.071   9.418 -0.1174  0.7677 -0.0400
 8361SOL    HW136542   4.048   3.140   9.391  0.2437  0.9869  1.3247
 8361SOL    HW236543   3.949   3.110   9.496  1.2684 -1.8045  1.9066
 8362SOL     OW36544   4.449   4.524   7.642 -0.0562 -0.7145  0.2732
 8362SOL    HW136545   4.430   4.616   7.627  0.9352 -0.4107  0.8959
 8362SOL    HW236546   4.543   4.522   7.660  0.2875  2.1807 -1.1411
 8363SOL     OW36547   1.865   1.479   6.719  0.1696 -0.2443 -0.4377
 8363SOL    HW136548   1.957   1.480   6.743  0.3323  2.4677 -1.2256
 8363SOL    HW236549   1.842   1.397   6.762  3.1938 -1.1934 -0.6256
 8364SOL     OW36550   1.505   2.971   2.451 -0.5529  0.2744  0.7206
 8364SOL    HW136551   1.472   2.882   2.438  1.4299 -0.0983 -1.6183
 8364SOL    HW236552   1.422   3.018   2.457  0.8036  2.7153  0.4198
 8365SOL     OW36553   1.579   0.199   6.379 -0.1347 -0.5358 -0.3637
 8365SOL    HW136554   1.566   0.234   6.291 -4.6221 -2.4678 -0.4672
 8365SOL    HW236555   1.497   0.216   6.425 -0.1033 -1.7310  0.1391
 8366SOL     OW36556   2.921   4.260  12.833 -0.6015  0.6227 -0.1054
 8366SOL    HW136557   2.984   4.331  12.846  0.0735  0.2947 -1.6634
 8366SOL    HW236558   2.838   4.306  12.816 -0.0174  0.7643 -2.4346
 8367SOL     OW36559   2.632   3.697   4.447 -0.6966  0.3250  0.1972
 8367SOL    HW136560   2.647   3.701   4.541 -1.9171 -1.1630  0.4592
 8367SOL    HW236561   2.595   3.785   4.434  0.0662  0.9358  2.3044
 8368SOL     OW36562   1.852   3.890   7.624 -0.0481 -0.0489 -0.4107
 8368SOL    HW136563   1.814   3.976   7.608  1.5216  0.5096 -1.1633
 8368SOL    HW236564   1.832   3.882   7.717 -0.6776  0.7527 -0.4830
 8369SOL     OW36565   0.278   3.522   4.092  0.7492  0.2313  0.3642
 8369SOL    HW136566   0.256   3.603   4.138 -0.6528 -1.3889  2.4828
 8369SOL    HW236567   0.304   3.560   4.007 -0.3986  1.1010  0.3977
 8370SOL     OW36568   2.025   0.029   2.206  0.1440 -0.2354 -0.2678
 8370SOL    HW136569   2.044   0.097   2.270 -2.0722  1.0408 -0.9715
 8370SOL    HW236570   1.952   0.069   2.159  0.2526 -0.6679 -0.8079
 8371SOL     OW36571   0.135   3.710   7.614  0.1633 -0.3634  0.1156
 8371SOL    HW136572   0.159   3.640   7.674 -2.4273 -3.2230 -2.1805
 8371SOL    HW236573   0.044   3.687   7.593  0.0644  0.6068 -0.5543
 8372SOL     OW36574   0.517   1.220   8.615 -0.3638 -0.0243 -0.5262
 8372SOL    HW136575   0.537   1.130   8.642  0.5694  0.1957 -0.4882
 8372SOL    HW236576   0.480   1.200   8.529 -3.0589  0.7659  0.4361
 8373SOL     OW36577   2.518   1.411   0.136 -0.9045  0.0069  0.2828
 8373SOL    HW136578   2.457   1.454   0.076  0.0085  0.8426 -0.0460
 8373SOL    HW236579   2.561   1.492   0.163 -0.0180  0.3319 -2.1218
 8374SOL     OW36580   0.864   4.589  11.868 -0.9231  0.1719  0.0672
 8374SOL    HW136581   0.828   4.677  11.874  1.3855  1.0605  0.6038
 8374SOL    HW236582   0.830   4.567  11.780  0.6374  1.2689 -0.7990
 8375SOL     OW36583   0.845   1.450  15.764 -0.2889  0.5632 -0.9821
 8375SOL    HW136584   0.905   1.515  15.725  0.0149  0.6934 -0.2978
 8375SOL    HW236585   0.790   1.520  15.799  1.2296  0.5604  1.4192
 8376SOL     OW36586   0.333   0.805   1.641 -0.1151  0.0806  0.2529
 8376SOL    HW136587   0.274   0.745   1.687  0.7978 -1.4181 -0.5204
 8376SOL    HW236588   0.415   0.789   1.688 -0.0314  0.7512  0.3253
 8377SOL     OW36589   2.825   4.460   7.247  0.5463 -0.1391  0.1129
 8377SOL    HW136590   2.846   4.386   7.190 -1.6391 -0.4440 -0.3209
 8377SOL    HW236591   2.902   4.458   7.303  0.9124  0.4751 -0.3746
 8378SOL     OW36592   0.966   2.180  15.091 -0.1225 -0.0173 -0.4357
 8378SOL    HW136593   0.954   2.224  15.007 -0.3768  0.5113 -0.1233
 8378SOL    HW236594   0.903   2.107  15.087  0.4351 -0.5900  1.0575
 8379SOL     OW36595   4.265   1.337   6.165  0.0334 -0.6149 -0.0534
 8379SOL    HW136596   4.307   1.283   6.099  2.2105  2.0811 -0.8824
 8379SOL    HW236597   4.227   1.265   6.215 -0.1114 -0.3644  0.1997
 8380SOL     OW36598   3.583   3.271   4.540  0.1648  0.6378 -0.4978
 8380SOL    HW136599   3.544   3.356   4.521  1.4183  1.3325  0.0250
 8380SOL    HW236600   3.587   3.275   4.635 -2.4856 -2.1565 -0.2574
 8381SOL     OW36601   0.610   0.336   2.107  0.1132  0.0945  0.5661
 8381SOL    HW136602   0.516   0.353   2.103  0.2773  1.0023  0.6676
 8381SOL    HW236603   0.622   0.241   2.113 -0.8355 -0.0769 -0.1418
 8382SOL     OW36604   3.335   2.872   5.153 -0.3465  0.4154  0.0639
 8382SOL    HW136605   3.377   2.955   5.127  2.1007 -0.9087 -0.2449
 8382SOL    HW236606   3.407   2.813   5.178 -0.8132  0.9331  2.6316
 8383SOL     OW36607   4.517   0.151  16.607  0.2688  0.0088 -0.2537
 8383SOL    HW136608   4.522   0.242  16.637 -1.9106 -0.0211  0.1672
 8383SOL    HW236609   4.590   0.104  16.649 -0.0286  0.8345  1.1592
 8384SOL     OW36610   1.859   1.619   2.398  0.2164  0.0897  0.0565
 8384SOL    HW136611   1.791   1.653   2.340  0.4054  1.4925  0.6581
 8384SOL    HW236612   1.938   1.670   2.382 -1.9624  3.3841 -0.1444
 8385SOL     OW36613   3.797   4.692   4.675 -0.4382 -0.2862 -0.5623
 8385SOL    HW136614   3.814   0.067   4.675  2.7433 -0.8344  1.9613
 8385SOL    HW236615   3.819   4.670   4.766 -1.9639 -0.4448 -0.2286
 8386SOL     OW36616   1.901   3.898   2.681 -0.3437 -0.0011  0.3434
 8386SOL    HW136617   1.855   3.918   2.600  1.2727  0.8338 -0.3643
 8386SOL    HW236618   1.821   3.868   2.724 -1.0949 -0.6436 -1.5023
 8387SOL     OW36619   0.878   0.666  12.364  0.0461 -0.2718 -0.1099
 8387SOL    HW136620   0.950   0.610  12.334  1.1396  1.4818 -0.8276
 8387SOL    HW236621   0.829   0.610  12.423  0.3571  1.6878  2.0109
 8388SOL     OW36622   2.415   0.245   8.786  0.5908 -0.7981 -0.6422
 8388SOL    HW136623   2.374   0.197   8.858 -1.5432 -1.1714 -2.1197
 8388SOL    HW236624   2.349   0.230   8.719 -0.2170  3.6876 -0.9001
 8389SOL     OW36625   2.783   0.609  13.864  0.0236 -0.1437  0.0075
 8389SOL    HW136626   2.840   0.677  13.902 -1.1538  1.4677 -1.1122
 8389SOL    HW236627   2.787   0.538  13.928  0.4998 -0.0107  0.1334
 8390SOL     OW36628   3.932   4.048   7.388  0.0341  0.6510  0.1855
 8390SOL    HW136629   3.853   3.998   7.408  0.7193  0.0245  1.3836
 8390SOL    HW236630   3.978   4.047   7.472  2.0688 -0.7636 -0.9358
 8391SOL     OW36631   2.850   2.884   5.962  0.0040 -0.3967  0.2475
 8391SOL    HW136632   2.843   2.960   6.020 -0.5627 -1.1248  1.1410
 8391SOL    HW236633   2.934   2.850   5.994  0.8797  2.0265  0.5673
 8392SOL     OW36634   0.887   3.854  13.213 -0.4173  0.1775 -0.0522
 8392SOL    HW136635   0.934   3.858  13.296 -1.0212 -3.5137  0.4943
 8392SOL    HW236636   0.934   3.926  13.171 -0.5020  1.4116  1.9789
 8393SOL     OW36637   2.845   3.339   6.699 -0.1122 -0.5740 -0.1847
 8393SOL    HW136638   2.864   3.296   6.782  0.9068  0.4384  0.0923
 8393SOL    HW236639   2.781   3.280   6.659 -2.1993  1.3368  0.3102
 8394SOL     OW36640   3.492   0.576   9.489  0.7702  0.2496 -0.7088
 8394SOL    HW136641   3.412   0.526   9.507  2.2942 -1.6919  0.6347
 8394SOL    HW236642   3.565   0.524   9.522 -0.9934 -0.4418  2.0278
 8395SOL     OW36643   2.461   1.969   6.387 -0.4569 -0.2372 -0.0536
 8395SOL    HW136644   2.427   1.918   6.313  2.7270 -1.1986 -0.8333
 8395SOL    HW236645   2.387   1.962   6.448 -1.6805  0.8112 -1.4305
 8396SOL     OW36646   2.051   4.581  12.327  0.4575 -0.5936 -0.1603
 8396SOL    HW136647   2.140   4.552  12.346  0.8165 -0.0501 -1.0331
 8396SOL    HW236648   2.055   4.671  12.358  0.4903  0.2166 -2.4782
 8397SOL     OW36649   1.330   3.619   7.181  0.2433  0.2068  0.5196
 8397SOL    HW136650   1.272   3.612   7.257  0.8512  0.3432  1.0041
 8397SOL    HW236651   1.263   3.632   7.115 -0.0633  0.9153  0.9740
 8398SOL     OW36652   4.340   2.549   9.141  0.3222  0.1698 -0.1352
 8398SOL    HW136653   4.397   2.539   9.218 -1.3656 -0.3719  1.0393
 8398SOL    HW236654   4.261   2.499   9.161  1.1018 -2.3578 -3.4661
 8399SOL     OW36655   0.511   3.444   8.088 -0.2735  0.3862  0.1126
 8399SOL    HW136656   0.522   3.407   8.000  2.1949  0.4024  0.4060
 8399SOL    HW236657   0.605   3.460   8.100 -0.0522 -0.6601 -0.2348
 8400SOL     OW36658   4.511   3.483  11.598  0.3815  0.9139  0.3181
 8400SOL    HW136659   4.534   3.418  11.532 -3.4186  0.5366 -0.6537
 8400SOL    HW236660   4.417   3.467  11.593  0.8395 -1.6349  0.0453
 8401SOL     OW36661   1.968   3.692   5.544  0.7331  0.4310  0.2555
 8401SOL    HW136662   1.966   3.623   5.477 -0.6257  0.2925  0.4416
 8401SOL    HW236663   1.939   3.767   5.493 -0.4269  0.3359  0.7793
 8402SOL     OW36664   3.825   3.409   3.629 -0.3536  0.3180 -0.4005
 8402SOL    HW136665   3.733   3.392   3.646  0.0184 -0.4475  0.8719
 8402SOL    HW236666   3.871   3.368   3.702  0.6031  0.5683 -0.8475
 8403SOL     OW36667   1.602   2.283   1.983  0.0528 -0.0554 -0.1271
 8403SOL    HW136668   1.658   2.210   1.956  1.0281  0.7721 -0.3592
 8403SOL    HW236669   1.572   2.294   1.893  1.2313 -1.4291 -0.6796
 8404SOL     OW36670   2.076   1.721   3.949  0.1534  0.1411  0.5387
 8404SOL    HW136671   2.059   1.767   3.866  0.3048 -0.2769  0.2763
 8404SOL    HW236672   1.998   1.753   3.994 -1.4467 -5.5700  1.8725
 8405SOL     OW36673   2.676   3.870   0.998 -0.2389  0.0535 -0.0466
 8405SOL    HW136674   2.584   3.874   0.973 -0.2226 -0.3469 -0.1694
 8405SOL    HW236675   2.697   3.776   1.003  1.8390  0.3872 -2.3478
 8406SOL     OW36676   1.442   1.995   0.701  0.2696  0.1312 -0.1818
 8406SOL    HW136677   1.433   2.036   0.787  0.3202 -0.3433  0.0496
 8406SOL    HW236678   1.537   1.989   0.697  0.2041  0.2599 -1.7983
 8407SOL     OW36679   2.238   1.462   8.441  0.0941 -0.2403 -0.0335
 8407SOL    HW136680   2.248   1.549   8.480 -1.8775 -0.0231 -0.0291
 8407SOL    HW236681   2.187   1.419   8.510  1.7066 -1.2236  0.5466
 8408SOL     OW36682   0.217   4.534  10.825 -0.0026 -0.3401  0.4334
 8408SOL    HW136683   0.265   4.583  10.892  0.0966  0.2949 -0.0934
 8408SOL    HW236684   0.129   4.545  10.861 -0.1837  0.2055 -0.1660
 8409SOL     OW36685   3.682   1.418   9.702 -0.4573  0.4789  0.7248
 8409SOL    HW136686   3.621   1.350   9.730 -1.7047  0.9539 -0.8755
 8409SOL    HW236687   3.734   1.412   9.782  0.2981  0.4913  0.2352
 8410SOL     OW36688   4.194   3.389   0.724  0.1152 -0.2547 -0.4834
 8410SOL    HW136689   4.209   3.384   0.630 -1.3954 -1.2962 -0.6719
 8410SOL    HW236690   4.192   3.297   0.752 -1.8633 -0.7029 -2.1616
 8411SOL     OW36691   2.998   4.124   0.172 -0.2859 -0.2655  0.1668
 8411SOL    HW136692   3.053   4.180   0.228  0.5995  1.7516 -2.7035
 8411SOL    HW236693   3.026   4.043   0.215  0.8199 -0.0773 -0.1837
 8412SOL     OW36694   4.452   1.438  16.642 -0.7145  0.0165  0.1162
 8412SOL    HW136695   4.434   1.344  16.646 -0.7182  0.0743  1.4615
 8412SOL    HW236696   4.479   1.450  16.733 -1.1655  1.4113  0.0685
 8413SOL     OW36697   0.344   2.344   6.700  0.1471  0.0971 -0.1818
 8413SOL    HW136698   0.361   2.279   6.632  0.1991  1.6125 -1.6227
 8413SOL    HW236699   0.354   2.426   6.652 -1.3286 -0.0147 -0.6863
 8414SOL     OW36700   2.806   3.272   3.509  0.1547 -0.1173  0.0636
 8414SOL    HW136701   2.753   3.239   3.582  1.1213 -0.8501  0.4324
 8414SOL    HW236702   2.735   3.277   3.445  1.0086 -0.7650 -0.9338
 8415SOL     OW36703   4.659   1.321  10.269  0.5835 -0.3169  0.0945
 8415SOL    HW136704   4.678   1.407  10.307  0.5430 -0.4650  0.4489
 8415SOL    HW236705   4.647   1.276  10.353 -1.1730  0.0178  0.0239
 8416SOL     OW36706   2.476   4.551   4.810 -0.4602 -0.4776  0.5036
 8416SOL    HW136707   2.412   4.571   4.742  0.6509  0.1604 -0.3450
 8416SOL    HW236708   2.458   4.611   4.883 -1.5836 -1.8809  1.3717
 8417SOL     OW36709   0.208   1.042  15.361  0.6640  0.1154 -0.0324
 8417SOL    HW136710   0.231   0.953  15.334 -3.1353 -0.6082 -0.8348
 8417SOL    HW236711   0.138   1.021  15.423 -1.2236 -0.0828 -2.2248
 8418SOL     OW36712   3.178   2.045   4.674  0.3544 -0.5176 -0.3654
 8418SOL    HW136713   3.118   1.970   4.672  0.8731 -0.9541  1.0963
 8418SOL    HW236714   3.228   2.018   4.597 -0.1587  1.4838 -1.3826
 8419SOL     OW36715   2.521   3.141  13.923  0.3845 -0.0404  0.0257
 8419SOL    HW136716   2.587   3.072  13.930  0.8790  0.3827 -0.4342
 8419SOL    HW236717   2.562   3.207  13.979  1.3624 -0.2912 -0.3872
 8420SOL     OW36718   0.253   1.455  16.114 -0.4049 -0.7112 -0.3440
 8420SOL    HW136719   0.313   1.458  16.039  1.6279 -1.9381  1.2471
 8420SOL    HW236720   0.237   1.361  16.121 -2.2132 -0.4621 -1.2152
 8421SOL     OW36721   1.824   3.636  14.223 -0.0188  0.4112  0.3275
 8421SOL    HW136722   1.893   3.697  14.197  0.6592  0.2051  1.6298
 8421SOL    HW236723   1.802   3.599  14.138 -1.3480 -1.4108  1.4740
 8422SOL     OW36724   2.335   0.559   8.760 -0.1985  0.2042  0.5590
 8422SOL    HW136725   2.337   0.466   8.783 -0.2149  0.1001  0.1450
 8422SOL    HW236726   2.426   0.585   8.749 -0.3710  1.2963  1.7548
 8423SOL     OW36727   1.275   0.517   2.624  0.5756 -0.2763  0.0476
 8423SOL    HW136728   1.185   0.533   2.597  0.6838  1.9167  1.0009
 8423SOL    HW236729   1.283   0.422   2.636 -0.9480 -0.5182 -0.8043
 8424SOL     OW36730   0.202   2.899   7.498 -0.0650  0.5511 -0.0553
 8424SOL    HW136731   0.220   2.890   7.405  2.8622  1.7735  0.3871
 8424SOL    HW236732   0.107   2.896   7.487 -0.1240 -1.3435  0.9898
 8425SOL     OW36733   0.683   1.550   2.579  0.1837 -0.5976  0.0338
 8425SOL    HW136734   0.697   1.458   2.555 -0.3534 -0.9482  1.0591
 8425SOL    HW236735   0.615   1.575   2.517 -0.1867 -0.8779  0.3196
 8426SOL     OW36736   2.966   2.733   9.811 -0.2295 -0.1484 -0.3672
 8426SOL    HW136737   2.953   2.716   9.905 -1.1602  2.2781 -0.0640
 8426SOL    HW236738   2.895   2.682   9.772  0.7107  0.6126 -3.0396
 8427SOL     OW36739   2.161   4.715   1.870 -0.3622  0.3905 -0.4104
 8427SOL    HW136740   2.252   0.022   1.886  1.3146 -5.3557 -0.8173
 8427SOL    HW236741   2.162   4.622   1.893 -0.5936  0.3254 -0.6730
 8428SOL     OW36742   2.117   2.176   4.513  0.0213  0.3169 -0.6196
 8428SOL    HW136743   2.113   2.135   4.427  0.7653  0.7044 -0.8419
 8428SOL    HW236744   2.029   2.155   4.545  0.3683 -2.0350 -1.2728
 8429SOL     OW36745   2.124   0.458  17.379 -0.1091  0.7918  0.0773
 8429SOL    HW136746   2.136   0.512  17.457  0.1043 -1.8117  1.8465
 8429SOL    HW236747   2.068   0.386  17.409 -1.0078  0.9131 -1.2858
 8430SOL     OW36748   1.760   1.712   7.488  0.2310  0.3881 -0.5420
 8430SOL    HW136749   1.703   1.787   7.504 -0.7758 -0.1266 -1.7293
 8430SOL    HW236750   1.796   1.706   7.577 -0.2620 -1.7019 -0.4823
 8431SOL     OW36751   2.248   3.769   9.200  0.1895  0.4492 -0.3023
 8431SOL    HW136752   2.217   3.717   9.126 -0.4708  1.8443 -1.0165
 8431SOL    HW236753   2.182   3.838   9.205  0.5343  0.7354  0.2025
 8432SOL     OW36754   0.969   0.595   1.932 -0.6129 -0.3614  0.3710
 8432SOL    HW136755   1.062   0.574   1.922 -0.3072  0.7760  0.8381
 8432SOL    HW236756   0.960   0.681   1.891  0.3956  0.8066  2.5815
 8433SOL     OW36757   0.346   0.848  13.701  0.0595 -0.4409 -0.1338
 8433SOL    HW136758   0.306   0.869  13.617  0.5836 -0.8434 -0.4801
 8433SOL    HW236759   0.365   0.934  13.737 -0.6547 -0.0534 -0.6810
 8434SOL     OW36760   1.803   4.404   5.669  1.0455  0.2640  0.3127
 8434SOL    HW136761   1.831   4.313   5.661 -1.8284 -0.5547 -0.6327
 8434SOL    HW236762   1.861   4.448   5.607 -0.8929  0.1642 -1.5607
 8435SOL     OW36763   0.494   1.308  11.777  0.1396  0.4329 -0.2354
 8435SOL    HW136764   0.573   1.331  11.825  0.0330  0.8163 -0.2468
 8435SOL    HW236765   0.487   1.360  11.697 -0.9759  0.1033 -0.3552
 8436SOL     OW36766   3.929   0.040   9.090 -0.2306  0.2988  0.0333
 8436SOL    HW136767   3.927   4.664   9.084 -0.8760  0.2605  0.8548
 8436SOL    HW236768   3.870   0.052   9.164 -0.0279 -2.6357  0.6558
 8437SOL     OW36769   2.818   3.750   8.519  0.0327 -0.4045  0.0552
 8437SOL    HW136770   2.880   3.776   8.587 -1.1251  0.7290  0.6829
 8437SOL    HW236771   2.816   3.655   8.527 -3.5022 -0.3517 -0.1027
 8438SOL     OW36772   3.458   3.736   7.159  0.0923  0.0205  0.0315
 8438SOL    HW136773   3.501   3.821   7.173  0.9475 -0.3858 -0.1158
 8438SOL    HW236774   3.365   3.760   7.164  0.3192  0.4455  2.3002
 8439SOL     OW36775   1.535   4.471   5.800  0.1007 -0.4266 -0.1051
 8439SOL    HW136776   1.577   4.539   5.851  0.3297  0.4269 -1.4409
 8439SOL    HW236777   1.586   4.477   5.720 -0.5004 -0.5806 -0.4978
 8440SOL     OW36778   1.309   0.952   7.012  0.3638 -0.0501 -0.4005
 8440SOL    HW136779   1.248   1.017   6.977 -0.1045 -1.0953 -1.5221
 8440SOL    HW236780   1.298   0.874   6.957  1.5245  1.3261 -2.5686
 8441SOL     OW36781   4.093   0.275   4.915  0.1940 -0.2589  0.1177
 8441SOL    HW136782   4.170   0.329   4.930 -0.1306  0.4679 -0.8527
 8441SOL    HW236783   4.027   0.340   4.891 -0.9459 -1.9727 -1.3497
 8442SOL     OW36784   4.357   1.519   5.446 -0.0672  0.1705  0.4598
 8442SOL    HW136785   4.404   1.559   5.519  1.1695 -0.7883  0.1795
 8442SOL    HW236786   4.267   1.503   5.476  0.4848  0.2040  2.1307
 8443SOL     OW36787   2.133   4.373   4.585  0.1816  0.1087 -0.2073
 8443SOL    HW136788   2.146   4.314   4.511 -3.3074  0.9415 -1.4597
 8443SOL    HW236789   2.051   4.417   4.564  0.6897  0.6268 -1.1331
 8444SOL     OW36790   2.666   3.798  17.173 -1.0133 -0.0128 -0.4680
 8444SOL    HW136791   2.678   3.728  17.238 -0.8928 -0.7236 -1.2562
 8444SOL    HW236792   2.571   3.799  17.161 -0.7499 -0.4348 -2.4645
 8445SOL     OW36793   3.157   0.030   5.667 -0.3072 -0.2815 -0.0973
 8445SOL    HW136794   3.139   4.655   5.679 -0.3883 -0.2565 -0.0258
 8445SOL    HW236795   3.125   0.052   5.580  0.5889  1.5718  0.0590
 8446SOL     OW36796   3.655   1.429   6.601 -0.6264  0.1471  0.3597
 8446SOL    HW136797   3.681   1.337   6.593 -1.2684  0.1028 -1.2878
 8446SOL    HW236798   3.741   1.472   6.592 -0.4363  0.0681  1.8084
 8447SOL     OW36799   1.728   2.532  14.955 -0.1255 -0.0328 -0.7026
 8447SOL    HW136800   1.658   2.543  15.018  0.4235  2.1355 -0.4720
 8447SOL    HW236801   1.674   2.547  14.877 -1.9764  1.4675  0.8916
 8448SOL     OW36802   2.736   2.299   2.624  0.4515  0.7148  0.6193
 8448SOL    HW136803   2.770   2.388   2.613  0.2472  0.4789 -1.9053
 8448SOL    HW236804   2.784   2.263   2.699 -0.9458  1.1064  1.6987
 8449SOL     OW36805   3.618   0.486   6.835 -0.0342 -0.1441  0.1072
 8449SOL    HW136806   3.611   0.525   6.923  1.2450  0.0374  0.1347
 8449SOL    HW236807   3.526   0.492   6.813  0.1995  2.0745 -0.2292
 8450SOL     OW36808   3.015   0.158   5.885  0.4277  0.0400  0.2318
 8450SOL    HW136809   3.069   0.112   5.821  1.7150 -0.6558  1.8220
 8450SOL    HW236810   2.959   0.088   5.921  0.1377  0.2706  0.2320
 8451SOL     OW36811   2.202   1.402   8.988 -0.2380 -0.5847  0.3272
 8451SOL    HW136812   2.232   1.356   9.066 -0.4861 -0.3950  0.5363
 8451SOL    HW236813   2.165   1.479   9.032  0.7099 -0.2744  0.5870
 8452SOL     OW36814   3.865   3.772   5.523 -0.2362 -0.1406 -0.3052
 8452SOL    HW136815   3.954   3.789   5.553  0.5277 -1.2407 -1.9107
 8452SOL    HW236816   3.863   3.800   5.431  1.2079 -0.2876 -0.3771
 8453SOL     OW36817   1.465   0.444   0.050 -0.2039 -0.5888  0.1819
 8453SOL    HW136818   1.432   0.437   0.140 -0.6081 -1.4616 -0.0317
 8453SOL    HW236819   1.406   0.502   0.002  1.4990  0.6752 -0.3989
 8454SOL     OW36820   2.479   3.022   5.004  0.1879  0.0567 -0.5678
 8454SOL    HW136821   2.393   2.994   5.035  0.7714 -0.6943  0.4140
 8454SOL    HW236822   2.445   3.083   4.939  1.0940  1.1597  0.0018
 8455SOL     OW36823   4.495   0.395   3.168 -0.4682  0.2104  0.4727
 8455SOL    HW136824   4.474   0.415   3.076 -1.4155  3.3951  1.3565
 8455SOL    HW236825   4.527   0.306   3.157 -1.9245 -0.3316  0.5588
 8456SOL     OW36826   4.644   2.085  14.651  1.2138 -0.0495  0.0103
 8456SOL    HW136827   4.660   2.168  14.608  2.8179 -0.1402  0.4037
 8456SOL    HW236828   4.652   2.109  14.744  1.9936 -0.9792  0.1895
 8457SOL     OW36829   2.893   2.214  12.578  1.0238  0.1443  0.2984
 8457SOL    HW136830   2.822   2.169  12.531  0.4984  1.6606 -0.3587
 8457SOL    HW236831   2.875   2.305  12.556 -2.2384 -0.8489 -1.1428
 8458SOL     OW36832   3.418   2.746  15.086  0.5062  0.2724  0.7730
 8458SOL    HW136833   3.505   2.785  15.080  0.8806 -0.5829  0.6686
 8458SOL    HW236834   3.414   2.703  15.171  4.4484 -1.0560  0.2873
 8459SOL     OW36835   2.150   0.031   9.360  0.1802  0.3645  0.3369
 8459SOL    HW136836   2.154   0.035   9.455  1.2491 -0.1935  0.3138
 8459SOL    HW236837   2.088   4.679   9.344 -0.8071  0.8965  1.8059
 8460SOL     OW36838   2.717   3.636   2.833  0.1688  0.4006  0.0235
 8460SOL    HW136839   2.678   3.645   2.746  1.2918  0.3788 -0.4885
 8460SOL    HW236840   2.752   3.549   2.814  0.6385  0.2798  1.4609
 8461SOL     OW36841   3.754   1.605   0.878  0.2919 -0.1194 -0.3722
 8461SOL    HW136842   3.785   1.554   0.803  1.2775 -0.4427  0.2592
 8461SOL    HW236843   3.709   1.680   0.841  1.5378  1.4568  1.3158
 8462SOL     OW36844   2.238   2.681   6.589 -0.4095  0.1587 -0.0619
 8462SOL    HW136845   2.254   2.739   6.664 -0.6895  0.2830 -0.0997
 8462SOL    HW236846   2.197   2.745   6.530 -0.1391 -0.5024 -0.9699
 8463SOL     OW36847   2.452   2.410  16.917  0.6885  0.3330 -0.3145
 8463SOL    HW136848   2.415   2.477  16.974  2.0258  0.9453 -0.1930
 8463SOL    HW236849   2.376   2.359  16.888  0.3381  1.0787 -0.7138
 8464SOL     OW36850   1.667   0.031   5.198 -0.7689  0.1627  0.9058
 8464SOL    HW136851   1.660   4.697   5.277  2.6761 -1.9815 -0.2256
 8464SOL    HW236852   1.679   4.678   5.136 -1.3995  2.2083 -1.6091
 8465SOL     OW36853   1.011   2.951  12.505 -0.4548 -0.1786 -0.7254
 8465SOL    HW136854   1.067   2.877  12.483 -1.1302 -0.6371 -0.9009
 8465SOL    HW236855   1.033   3.008  12.431 -3.6546 -1.2607 -2.5118
 8466SOL     OW36856   0.271   0.283   7.014  0.1649  0.5061 -0.6375
 8466SOL    HW136857   0.199   0.297   6.954 -1.7839  1.1099  1.8310
 8466SOL    HW236858   0.265   0.360   7.071 -2.0390 -0.6909  0.7328
 8467SOL     OW36859   3.970   0.227   2.620  0.0877 -0.6103 -0.4955
 8467SOL    HW136860   3.917   0.301   2.589 -0.2890 -0.2997  0.8925
 8467SOL    HW236861   3.986   0.176   2.541  1.4349 -2.4612  0.9699
 8468SOL     OW36862   4.026   4.348  10.179 -0.0595  0.4843  0.0813
 8468SOL    HW136863   3.964   4.309  10.240  0.5223  1.7299  1.4748
 8468SOL    HW236864   4.083   4.397  10.239 -0.6184  2.3653 -0.9296
 8469SOL     OW36865   3.244   3.112   2.775  0.0079 -0.1517 -0.3924
 8469SOL    HW136866   3.209   3.130   2.862 -0.1947 -0.6658 -0.3724
 8469SOL    HW236867   3.168   3.072   2.733 -0.0982 -0.7526  0.3896
 8470SOL     OW36868   1.836   4.248   4.585 -0.0986 -0.5976 -0.2215
 8470SOL    HW136869   1.894   4.178   4.615 -1.8284 -2.9713 -2.3803
 8470SOL    HW236870   1.856   4.243   4.492 -0.5066  1.6313 -0.4197
 8471SOL     OW36871   4.710   1.406  12.007 -0.2221  0.5912  0.0970
 8471SOL    HW136872   4.648   1.479  12.008  0.7072  1.3698  0.8356
 8471SOL    HW236873   0.057   1.427  12.073 -1.9878  1.4688  1.5999
 8472SOL     OW36874   0.457   4.565   4.846  0.3431  0.1242 -0.0183
 8472SOL    HW136875   0.486   4.551   4.937 -1.0328 -0.6743  0.2990
 8472SOL    HW236876   0.382   4.505   4.844  0.0736  0.4401  0.5464
 8473SOL     OW36877   1.047   3.170  12.280 -0.0926 -0.1054  0.2287
 8473SOL    HW136878   1.062   3.120  12.200 -0.8437 -0.8459  0.5508
 8473SOL    HW236879   1.111   3.239  12.265 -0.4493  0.4512  1.2882
 8474SOL     OW36880   4.328   0.204   5.783  0.0718  0.4511 -0.7804
 8474SOL    HW136881   4.250   0.194   5.729  0.8822 -0.6141 -1.7316
 8474SOL    HW236882   4.293   0.269   5.845  0.0709 -1.2286  1.0029
 8475SOL     OW36883   3.149   4.559  10.095  0.3068 -0.3308 -0.3749
 8475SOL    HW136884   3.068   4.516  10.068 -0.0256 -0.1373  0.3216
 8475SOL    HW236885   3.123   4.595  10.180 -1.3832 -0.8727 -0.6524
 8476SOL     OW36886   1.636   4.638   6.542  0.2085  0.3877 -0.0730
 8476SOL    HW136887   1.579   4.641   6.465 -0.4608  0.8758  0.4424
 8476SOL    HW236888   1.608   4.716   6.589  0.0894  0.1431  0.2693
 8477SOL     OW36889   2.199   1.891   7.686 -0.2577  0.1549  0.5370
 8477SOL    HW136890   2.169   1.865   7.598 -1.3729  2.2656  0.3115
 8477SOL    HW236891   2.178   1.806   7.724  0.6961  0.2221  1.2125
 8478SOL     OW36892   0.348   4.431   1.239 -0.0355 -0.6278  0.1694
 8478SOL    HW136893   0.398   4.357   1.204  1.2548  0.1804  0.3245
 8478SOL    HW236894   0.402   4.507   1.260  0.1062 -1.0935  1.5113
 8479SOL     OW36895   3.498   0.761   5.699  0.3517 -0.4451 -0.4872
 8479SOL    HW136896   3.546   0.799   5.625  0.6003  0.5596  0.1866
 8479SOL    HW236897   3.558   0.759   5.774  0.4328 -2.8648 -0.6105
 8480SOL     OW36898   0.997   0.705  15.992  0.7354 -0.0833 -0.1763
 8480SOL    HW136899   0.939   0.779  15.975  1.4773  0.3294 -0.9223
 8480SOL    HW236900   1.074   0.755  15.964  0.3591  2.0651  2.6742
 8481SOL     OW36901   1.633   3.048   0.215  0.2901  0.6715 -0.5971
 8481SOL    HW136902   1.658   2.990   0.143 -0.6836 -0.2555 -0.2016
 8481SOL    HW236903   1.699   3.026   0.281 -0.4105 -2.2311 -0.8633
 8482SOL     OW36904   1.377   4.714   8.309  0.0308 -0.4373  0.7517
 8482SOL    HW136905   1.355   0.059   8.377 -0.9905 -0.3708  0.3487
 8482SOL    HW236906   1.342   4.636   8.354 -0.7694 -0.2176  0.4960
 8483SOL     OW36907   3.756   3.356   7.299 -0.3206  0.7252 -0.0577
 8483SOL    HW136908   3.723   3.440   7.268 -2.9489 -0.0440  0.6143
 8483SOL    HW236909   3.823   3.381   7.362 -0.7359  0.8306  0.3411
 8484SOL     OW36910   2.873   4.659   4.572 -0.3298 -0.3266  0.3674
 8484SOL    HW136911   2.867   0.032   4.597 -0.4524  0.2596 -1.8385
 8484SOL    HW236912   2.783   4.629   4.577 -1.3838  2.2189 -3.4115
 8485SOL     OW36913   1.956   1.719  17.012 -0.0661 -0.5061  0.3632
 8485SOL    HW136914   1.869   1.682  17.001 -0.4593  0.2791  0.8772
 8485SOL    HW236915   1.932   1.797  17.062 -1.4876 -1.0429  0.5017
 8486SOL     OW36916   4.238   4.305   4.312 -0.0341 -0.3030  0.3674
 8486SOL    HW136917   4.279   4.219   4.304  0.1153 -0.2956  1.0873
 8486SOL    HW236918   4.159   4.305   4.257  0.8602  0.1563 -0.8998
 8487SOL     OW36919   1.151   3.663   9.116  0.2689  0.4978 -0.0283
 8487SOL    HW136920   1.140   3.609   9.037 -0.1539 -0.2906  0.5763
 8487SOL    HW236921   1.064   3.703   9.119 -0.4308 -1.0492  0.0663
 8488SOL     OW36922   0.317   1.588   5.749 -0.1541 -0.2517  0.6394
 8488SOL    HW136923   0.368   1.613   5.672  0.7804 -0.5868  1.1516
 8488SOL    HW236924   0.365   1.512   5.781  2.6215  0.4384 -1.9344
 8489SOL     OW36925   2.320   4.026  17.304 -0.0878  0.2957 -0.1620
 8489SOL    HW136926   2.297   3.958  17.241  1.8782 -1.0284  0.5758
 8489SOL    HW236927   2.406   4.048  17.269 -0.4516 -2.5449 -2.8519
 8490SOL     OW36928   0.050   2.362  12.212 -0.1802 -0.1141 -0.6797
 8490SOL    HW136929   0.065   2.451  12.180  0.6313  0.3243  0.9154
 8490SOL    HW236930   0.033   2.381  12.304 -2.3028  2.0496 -1.5153
 8491SOL     OW36931   2.837   3.348   7.345 -0.4526  0.4909 -0.0909
 8491SOL    HW136932   2.831   3.439   7.317 -0.1280  0.6913  0.4791
 8491SOL    HW236933   2.767   3.349   7.410  0.5851 -0.6045  1.0523
 8492SOL     OW36934   1.970   1.560  12.312 -0.0079 -0.2125 -0.2778
 8492SOL    HW136935   1.998   1.507  12.237  1.2517  0.2535 -0.1358
 8492SOL    HW236936   2.046   1.617  12.325 -0.4509  0.1927  0.5003
 8493SOL     OW36937   0.454   1.727  13.509 -0.1033  0.4960 -0.2980
 8493SOL    HW136938   0.511   1.761  13.439  0.0602 -0.8375 -0.8261
 8493SOL    HW236939   0.441   1.641  13.470 -2.4532  1.8052 -2.3668
 8494SOL     OW36940   4.060   3.566   7.636 -0.2168 -0.3961 -0.0117
 8494SOL    HW136941   4.042   3.517   7.556 -1.6544 -0.9433  0.6344
 8494SOL    HW236942   3.971   3.575   7.671  0.4239 -2.0205  2.0990
 8495SOL     OW36943   0.715   0.142  10.080  0.3568  0.6321 -0.3001
 8495SOL    HW136944   0.745   0.225  10.043  1.7221  1.0370  1.7208
 8495SOL    HW236945   0.625   0.148  10.048 -0.0272  0.1477  0.6724
 8496SOL     OW36946   4.244   4.563   5.822 -0.8595  0.0391 -0.4159
 8496SOL    HW136947   4.316   4.519   5.777  0.0300 -0.2895  1.3444
 8496SOL    HW236948   4.172   4.503   5.800 -0.5226 -0.4444 -0.1810
 8497SOL     OW36949   1.014   1.889   7.372  0.1377  0.0968  0.5236
 8497SOL    HW136950   0.946   1.850   7.316 -0.4353 -0.2614  1.4594
 8497SOL    HW236951   1.038   1.967   7.323  1.2163 -0.1342  0.6980
 8498SOL     OW36952   3.476   0.866  10.811 -0.8021 -0.1248  0.7379
 8498SOL    HW136953   3.433   0.888  10.894  0.9961 -0.6485  1.8027
 8498SOL    HW236954   3.487   0.957  10.786 -1.0180 -0.4796 -0.6570
 8499SOL     OW36955   4.226   0.503   9.229  0.4892 -0.7125  0.9022
 8499SOL    HW136956   4.213   0.408   9.235  0.6817 -0.6883  1.7881
 8499SOL    HW236957   4.315   0.506   9.266  0.9789  0.6984 -0.4260
 8500SOL     OW36958   1.178   3.483   3.221  0.0887  0.5051  0.2642
 8500SOL    HW136959   1.154   3.393   3.243  0.1410  0.5727  0.5913
 8500SOL    HW236960   1.096   3.499   3.174 -0.7512  1.5041  2.0734
 8501SOL     OW36961   0.505   1.405   9.678 -0.1961 -0.0758 -0.2787
 8501SOL    HW136962   0.583   1.359   9.712 -0.2455 -0.1788 -0.3059
 8501SOL    HW236963   0.483   1.465   9.749  0.6103  0.9667 -0.9222
 8502SOL     OW36964   2.491   1.105   0.157  0.1914 -0.8100  0.1706
 8502SOL    HW136965   2.512   1.188   0.115  1.9277 -0.9853  0.6954
 8502SOL    HW236966   2.487   1.126   0.250  0.6649  0.7931 -0.1803
 8503SOL     OW36967   3.240   1.147   7.812 -0.3238 -0.1885  0.4184
 8503SOL    HW136968   3.270   1.238   7.815 -0.1941 -0.3200  2.7023
 8503SOL    HW236969   3.158   1.146   7.861 -1.5722 -0.6376 -1.6684
 8504SOL     OW36970   0.790   3.782   6.906  0.1149 -0.3220  0.0256
 8504SOL    HW136971   0.751   3.697   6.925 -0.9690  0.6271  1.9829
 8504SOL    HW236972   0.720   3.813   6.848 -0.7429 -2.9499 -0.3228
 8505SOL     OW36973   1.377   3.537   6.307  0.2020  0.4073 -0.2332
 8505SOL    HW136974   1.422   3.619   6.287  1.1315  0.1608  0.9073
 8505SOL    HW236975   1.284   3.561   6.297  0.2605  0.2158 -1.2935
 8506SOL     OW36976   1.715   0.440  15.271 -0.4659  0.6063  0.3742
 8506SOL    HW136977   1.791   0.459  15.216 -0.4060  1.7303  0.8347
 8506SOL    HW236978   1.640   0.460  15.215 -0.8837  1.7660  1.3482
 8507SOL     OW36979   1.715   4.553   8.842 -0.0069  0.2496  0.5241
 8507SOL    HW136980   1.636   4.534   8.791 -0.4254  0.7175  0.9950
 8507SOL    HW236981   1.663   4.592   8.913 -0.0299  0.7017  0.2587
 8508SOL     OW36982   1.882   0.776   3.290  0.0818  0.3946  0.0605
 8508SOL    HW136983   1.798   0.819   3.303  0.6156  0.9636  1.6982
 8508SOL    HW236984   1.865   0.684   3.311  1.4460  0.2468  0.5075
 8509SOL     OW36985   0.330   4.494   1.986  0.6991  0.1925 -0.4119
 8509SOL    HW136986   0.301   4.429   1.922  0.4008  0.5760 -0.6584
 8509SOL    HW236987   0.390   4.547   1.934  2.6117 -1.3871  0.1767
 8510SOL     OW36988   3.732   3.077   2.663 -0.0114 -0.2336 -0.1305
 8510SOL    HW136989   3.692   3.153   2.704  0.2098  0.2085 -0.7438
 8510SOL    HW236990   3.653   3.023   2.653  0.6074 -1.4617  1.7048
 8511SOL     OW36991   1.779   0.666   6.804  0.6595  0.6491 -0.4080
 8511SOL    HW136992   1.748   0.649   6.715  0.3675  2.3447 -0.6293
 8511SOL    HW236993   1.851   0.604   6.813  0.2533 -0.0512 -1.9537
 8512SOL     OW36994   1.415   0.130  13.435 -0.1523  0.8015 -0.1452
 8512SOL    HW136995   1.408   0.226  13.434  1.0753  0.9157  2.0224
 8512SOL    HW236996   1.388   0.119  13.343 -0.6919  0.8250  0.0094
 8513SOL     OW36997   1.696   0.341   3.944  0.2490 -0.1027 -0.1198
 8513SOL    HW136998   1.719   0.275   3.879  0.7028  0.4496 -0.5261
 8513SOL    HW236999   1.605   0.313   3.954  0.6811 -1.8523 -1.1495
 8514SOL     OW37000   4.669   2.613   7.881  0.1210 -0.5875 -0.3241
 8514SOL    HW137001   4.706   2.677   7.941  0.2873 -1.1663  0.1898
 8514SOL    HW237002   4.709   2.647   7.801 -2.6097  0.6686 -1.1642
 8515SOL     OW37003   4.218   1.254   1.938 -0.0788 -0.7763 -0.3150
 8515SOL    HW137004   4.146   1.200   1.905  0.5720 -2.3995  0.9090
 8515SOL    HW237005   4.267   1.198   1.998  0.2444  0.2217  0.3486
 8516SOL     OW37006   1.159   3.273   8.529 -0.0239  0.1058  0.0616
 8516SOL    HW137007   1.128   3.258   8.440  0.6890  0.4377 -0.2406
 8516SOL    HW237008   1.108   3.219   8.589 -0.3080 -0.0002 -0.2797
 8517SOL     OW37009   4.154   3.903  10.049  0.2126  0.1213  0.1153
 8517SOL    HW137010   4.126   3.813  10.030  0.4247  0.0478  0.1535
 8517SOL    HW237011   4.180   3.942   9.966  4.7162 -0.9596  1.0129
 8518SOL     OW37012   0.608   0.049   0.480 -0.0079  0.0560 -0.0366
 8518SOL    HW137013   0.604   0.084   0.569  0.2254 -2.5343  1.0038
 8518SOL    HW237014   0.515   0.026   0.473  0.1707 -0.1289 -1.7967
 8519SOL     OW37015   1.522   1.520   1.904 -0.2106  0.1098 -0.5851
 8519SOL    HW137016   1.594   1.562   1.951 -0.3288 -0.0149 -0.2982
 8519SOL    HW237017   1.579   1.494   1.831  1.9629  3.0284  0.0300
 8520SOL     OW37018   2.222   4.276   9.422 -0.3067  0.6262 -0.2824
 8520SOL    HW137019   2.272   4.195   9.418  2.0428  2.1351 -1.4068
 8520SOL    HW237020   2.234   4.295   9.516  0.6498  1.1044 -0.4989
 8521SOL     OW37021   2.108   2.564   8.149  0.1662  0.7008  0.0022
 8521SOL    HW137022   2.108   2.552   8.244  1.2498  0.2874 -0.0607
 8521SOL    HW237023   2.033   2.513   8.117 -0.2780  2.1304 -1.2737
 8522SOL     OW37024   3.538   2.154   1.987 -0.1505  0.1484 -0.0877
 8522SOL    HW137025   3.498   2.238   2.010  3.0338  0.8429  2.8761
 8522SOL    HW237026   3.615   2.180   1.936  0.0503  2.0034  1.1408
 8523SOL     OW37027   0.402   2.880  13.398 -0.2224 -0.1376  0.1467
 8523SOL    HW137028   0.461   2.805  13.391 -0.1962 -0.2341  1.3548
 8523SOL    HW237029   0.457   2.948  13.360  0.9792 -1.1763  0.0306
 8524SOL     OW37030   3.079   0.238   3.823 -0.4251  0.3088 -0.7088
 8524SOL    HW137031   3.033   0.165   3.865 -0.9444  1.6492  1.0790
 8524SOL    HW237032   3.006   0.296   3.802 -0.4823  0.0147 -1.3048
 8525SOL     OW37033   4.557   1.521   9.329  0.2050 -0.0750  0.0870
 8525SOL    HW137034   4.536   1.575   9.253 -1.2855 -0.4253  0.2391
 8525SOL    HW237035   4.608   1.453   9.286  0.5483 -1.5119  2.7566
 8526SOL     OW37036   3.279   4.499   4.395 -0.1871  0.0026  0.6035
 8526SOL    HW137037   3.296   4.541   4.311  0.1579 -1.7986 -0.2382
 8526SOL    HW237038   3.257   4.569   4.456 -0.9682 -0.7548  1.1926
 8527SOL     OW37039   0.966   4.667   8.644  0.4320  0.8795  0.5387
 8527SOL    HW137040   0.996   4.608   8.712 -0.1117 -0.1426 -0.1022
 8527SOL    HW237041   0.884   4.626   8.616  0.3655  1.4214 -0.0728
 8528SOL     OW37042   0.204   2.630   2.783 -0.1991 -0.1158  0.7551
 8528SOL    HW137043   0.274   2.582   2.738 -0.8872 -1.1812  0.8311
 8528SOL    HW237044   0.139   2.562   2.800  1.2534 -0.5847  4.3752
 8529SOL     OW37045   3.018   4.034   2.226  0.1898  0.4883  0.0567
 8529SOL    HW137046   3.008   4.072   2.138  0.6533  1.3817  0.3939
 8529SOL    HW237047   3.065   4.106   2.268  0.6885  0.6408 -0.7428
 8530SOL     OW37048   3.405   1.809   5.890  0.1128  0.2963  0.3159
 8530SOL    HW137049   3.478   1.829   5.832  0.8828 -2.8226  0.2247
 8530SOL    HW237050   3.405   1.865   5.968 -0.4448 -0.5286  0.9115
 8531SOL     OW37051   0.119   2.269   3.711  0.1812  0.0498 -0.9096
 8531SOL    HW137052   0.119   2.286   3.806 -1.4895  0.6204 -1.0091
 8531SOL    HW237053   0.060   2.194   3.704  2.5751 -1.9858  0.6514
 8532SOL     OW37054   2.662   3.382  14.086 -0.5843 -0.0166 -1.0051
 8532SOL    HW137055   2.609   3.378  14.165  3.5143 -0.9560  1.7058
 8532SOL    HW237056   2.746   3.342  14.108 -0.1945  2.2576  1.6489
 8533SOL     OW37057   3.110   4.583   6.529 -0.4963  0.3067 -0.1369
 8533SOL    HW137058   3.067   4.642   6.590 -0.4618 -1.7362  1.8374
 8533SOL    HW237059   3.160   4.642   6.472  1.1247  0.7253  1.6969
 8534SOL     OW37060   1.786   2.208  14.410 -0.1051 -0.0527  0.2865
 8534SOL    HW137061   1.850   2.210  14.339  0.1433  0.0001  0.5118
 8534SOL    HW237062   1.708   2.236  14.362 -1.5541  0.2328  2.7952
 8535SOL     OW37063   3.072   2.381   2.936  0.0604  0.1081  0.0939
 8535SOL    HW137064   3.040   2.294   2.910 -2.6848  0.4924  2.1699
 8535SOL    HW237065   3.164   2.359   2.949 -0.3159 -0.9980  0.9270
 8536SOL     OW37066   1.240   2.088   6.961 -0.0239  0.1812  0.3924
 8536SOL    HW137067   1.286   2.054   7.039 -1.2287 -0.1417  0.9611
 8536SOL    HW237068   1.275   2.175   6.981  1.2033 -0.2148 -0.0244
 8537SOL     OW37069   0.459   0.101   1.651 -0.2133  0.4249  0.3009
 8537SOL    HW137070   0.486   0.104   1.559  1.2931  0.7949  0.7491
 8537SOL    HW237071   0.491   0.181   1.692  1.2085 -0.4794  0.9557
 8538SOL     OW37072   0.008   0.433   6.240 -0.0895 -0.0524  0.3464
 8538SOL    HW137073   0.037   0.496   6.174  2.9863 -1.5302  0.2964
 8538SOL    HW237074   0.038   0.350   6.203 -0.8667  0.3661 -1.2125
 8539SOL     OW37075   1.619   1.629   5.141 -0.0789  0.3555 -0.5039
 8539SOL    HW137076   1.574   1.713   5.146 -0.9754 -0.1264 -0.4964
 8539SOL    HW237077   1.558   1.562   5.172 -0.9024  1.9197  1.2519
 8540SOL     OW37078   3.324   2.444   2.296 -0.2166  0.0698  0.2986
 8540SOL    HW137079   3.292   2.378   2.357 -0.9533 -0.4491 -0.6385
 8540SOL    HW237080   3.354   2.516   2.350 -2.5127  1.7252 -0.6266
 8541SOL     OW37081   1.373   4.710   4.366 -0.3864  0.2863  0.4477
 8541SOL    HW137082   1.461   4.694   4.332 -0.1640  4.1294 -0.7103
 8541SOL    HW237083   1.326   4.632   4.336 -0.2137 -0.0454  1.0479
 8542SOL     OW37084   3.101   1.484   9.471 -0.9620  0.5182 -0.2076
 8542SOL    HW137085   3.031   1.547   9.480 -0.6140  0.9928 -0.7899
 8542SOL    HW237086   3.134   1.497   9.382 -0.6983  1.9073  0.0912
 8543SOL     OW37087   1.442   3.817  15.483 -0.3462 -1.0066 -0.0325
 8543SOL    HW137088   1.519   3.765  15.509 -1.4840 -2.3326  0.6604
 8543SOL    HW237089   1.383   3.743  15.471 -0.8165 -0.3137 -1.8645
 8544SOL     OW37090   2.956   3.324   6.989 -0.1055  0.1260  0.1190
 8544SOL    HW137091   2.879   3.380   6.980  0.2514  0.2653 -2.2509
 8544SOL    HW237092   2.930   3.288   7.074 -1.3820  2.0898  0.5591
 8545SOL     OW37093   0.544   0.659  12.833  0.5409  0.0257 -0.4209
 8545SOL    HW137094   0.606   0.600  12.875  0.0541  0.4212  0.8591
 8545SOL    HW237095   0.470   0.640  12.891  1.6431 -0.6045  0.7704
 8546SOL     OW37096   2.114   2.967   5.406  0.1574 -0.0484  0.3122
 8546SOL    HW137097   2.190   2.964   5.464 -1.9965 -0.0188  3.1060
 8546SOL    HW237098   2.043   2.965   5.470  0.2574  1.0707  0.4563
 8547SOL     OW37099   2.160   3.056   2.133  0.5413  0.1062  0.3565
 8547SOL    HW137100   2.108   3.100   2.201  0.3690  1.0866 -0.3986
 8547SOL    HW237101   2.100   3.044   2.059  1.3428  3.1471 -0.8023
 8548SOL     OW37102   1.842   4.511   6.409 -0.2003  0.0848  0.2980
 8548SOL    HW137103   1.886   4.426   6.414  0.0522  0.2718  1.1143
 8548SOL    HW237104   1.802   4.529   6.494  4.0816  0.7623  2.1400
 8549SOL     OW37105   0.205   4.274   1.383 -0.3668  0.1933 -0.1451
 8549SOL    HW137106   0.273   4.208   1.371 -0.1966  0.0830  1.4077
 8549SOL    HW237107   0.250   4.342   1.333  0.6649 -1.5452 -1.5695
 8550SOL     OW37108   3.405   4.650   3.271 -0.2295 -0.3842 -0.2479
 8550SOL    HW137109   3.496   4.638   3.243  0.3748  0.1138  1.4622
 8550SOL    HW237110   3.399   0.020   3.304 -1.4433  0.0093 -1.5639
 8551SOL     OW37111   0.684   2.038  15.901  0.2997  0.3327  0.1659
 8551SOL    HW137112   0.631   1.961  15.882 -1.9249  1.3254  2.4073
 8551SOL    HW237113   0.731   2.005  15.978  1.5844 -2.3741 -1.7733
 8552SOL     OW37114   0.306   3.602  12.816  0.1119 -0.6569 -0.1429
 8552SOL    HW137115   0.239   3.600  12.747 -1.5310  1.4233  1.3902
 8552SOL    HW237116   0.361   3.528  12.791 -1.1544 -0.7889 -2.5745
 8553SOL     OW37117   2.950   1.586  11.759  0.1092 -0.3048 -0.3601
 8553SOL    HW137118   2.878   1.526  11.778 -1.8092  0.8866 -3.8792
 8553SOL    HW237119   3.029   1.542  11.790  0.4068 -0.0410 -0.7555
 8554SOL     OW37120   2.488   0.318   6.098 -0.4445 -0.0592  0.0697
 8554SOL    HW137121   2.564   0.362   6.136 -0.7680 -1.1966  2.0690
 8554SOL    HW237122   2.536   0.238   6.077 -1.1555 -0.8913  1.5748
 8555SOL     OW37123   0.212   0.347   8.063  0.6372  0.3897  0.1150
 8555SOL    HW137124   0.305   0.369   8.067  0.5832  0.9267 -2.1174
 8555SOL    HW237125   0.180   0.352   8.154 -0.0047 -2.7258  0.0726
 8556SOL     OW37126   1.456   3.352  12.593  0.4699  0.3661 -0.4445
 8556SOL    HW137127   1.458   3.444  12.564 -0.7410 -0.1690 -2.2074
 8556SOL    HW237128   1.363   3.332  12.581  0.4099  0.3438  0.0472
 8557SOL     OW37129   4.212   2.840   8.856  0.2844  0.3208  0.0696
 8557SOL    HW137130   4.215   2.929   8.820  0.7819 -0.1191 -0.9930
 8557SOL    HW237131   4.126   2.813   8.824 -0.0270  2.0714 -0.6045
 8558SOL     OW37132   4.330   3.703   5.791 -0.5048  0.3000 -0.3131
 8558SOL    HW137133   4.238   3.718   5.811 -0.5237  1.0275 -0.9381
 8558SOL    HW237134   4.361   3.786   5.825 -1.5305 -0.0534  1.4859
 8559SOL     OW37135   0.190   0.030   7.606  0.6561 -0.3655  0.2211
 8559SOL    HW137136   0.165   0.067   7.521 -1.8661 -2.9812 -0.1885
 8559SOL    HW237137   0.219   0.106   7.656 -0.2442  1.2439 -1.6998
 8560SOL     OW37138   0.410   3.875  16.702 -0.9804 -0.3860  0.0231
 8560SOL    HW137139   0.404   3.822  16.781 -0.4003  2.1724  1.7800
 8560SOL    HW237140   0.475   3.943  16.717  0.3624 -1.4603 -0.8669
 8561SOL     OW37141   1.067   2.271   7.663  0.6540 -0.1004  0.0599
 8561SOL    HW137142   0.976   2.252   7.640  1.6235 -1.2178 -2.8995
 8561SOL    HW237143   1.062   2.263   7.758 -1.8836 -0.1250 -0.0715
 8562SOL     OW37144   0.344   2.929   5.551  0.1360 -0.2903  0.0076
 8562SOL    HW137145   0.254   2.960   5.563  0.5097  0.6873  0.2957
 8562SOL    HW237146   0.340   2.852   5.495 -2.6653 -1.1634  1.4240
 8563SOL     OW37147   1.676   2.971   7.390  0.3587 -0.0831  0.3385
 8563SOL    HW137148   1.591   2.982   7.433  0.0624 -0.2109 -0.2073
 8563SOL    HW237149   1.644   2.976   7.300 -1.0621  2.0519  0.9662
 8564SOL     OW37150   1.339   3.752   1.446  0.5213  0.8943 -0.0566
 8564SOL    HW137151   1.279   3.749   1.521 -0.5940  2.9006 -0.8854
 8564SOL    HW237152   1.285   3.768   1.369 -1.1280  0.9487  1.1091
 8565SOL     OW37153   2.131   2.529   9.509 -0.1717  0.9686  0.3096
 8565SOL    HW137154   2.057   2.551   9.567 -0.0313  0.5766  0.6319
 8565SOL    HW237155   2.183   2.473   9.566  0.4598  1.9377  0.6922
 8566SOL     OW37156   2.704   2.958   4.700  0.2944  0.2592 -0.3767
 8566SOL    HW137157   2.787   2.915   4.679 -1.2196 -2.1740 -1.2680
 8566SOL    HW237158   2.702   2.976   4.794 -0.8687  0.3568 -0.4238
 8567SOL     OW37159   4.297   0.804   7.792 -0.1307 -0.3343 -0.4193
 8567SOL    HW137160   4.233   0.733   7.791  0.4814 -0.8301 -2.9447
 8567SOL    HW237161   4.352   0.771   7.863 -4.1578  0.3438  3.0264
 8568SOL     OW37162   0.563   3.765   1.717  0.5079  0.1398 -0.3785
 8568SOL    HW137163   0.510   3.792   1.792  1.5186 -0.8981  0.6997
 8568SOL    HW237164   0.575   3.671   1.724 -1.6124  0.1150  2.9922
 8569SOL     OW37165   0.496   3.079   6.067  0.3534 -0.0071 -0.3246
 8569SOL    HW137166   0.435   3.111   6.001  2.7380  1.2773 -1.9039
 8569SOL    HW237167   0.546   3.160   6.077  1.0983 -0.5466  0.3684
 8570SOL     OW37168   0.231   0.285   1.115  0.2240 -0.1613  0.0366
 8570SOL    HW137169   0.313   0.237   1.124 -1.1433 -2.4503  0.3574
 8570SOL    HW237170   0.256   0.376   1.134 -0.8973  0.9986 -3.8609
 8571SOL     OW37171   0.207   2.766  16.871  0.7239  0.4601  0.6079
 8571SOL    HW137172   0.228   2.720  16.789 -1.7229  0.4791 -0.0110
 8571SOL    HW237173   0.238   2.696  16.928  3.1708  0.8978 -0.1924
 8572SOL     OW37174   3.810   3.220  17.516  0.1617 -0.2187  0.4945
 8572SOL    HW137175   3.841   3.137  17.480 -0.4887 -0.0666 -0.4190
 8572SOL    HW237176   3.860   3.210  17.597  2.7400 -1.3496 -1.2434
 8573SOL     OW37177   2.194   1.780   9.497 -0.7467  0.8430  0.2779
 8573SOL    HW137178   2.256   1.831   9.549 -1.0373  0.1814  1.2772
 8573SOL    HW237179   2.153   1.727   9.565  2.9434  0.3675  2.1050
 8574SOL     OW37180   3.140   1.864   9.510 -0.3913 -0.2197 -0.4903
 8574SOL    HW137181   3.148   1.816   9.592  1.6433  1.3717  0.2536
 8574SOL    HW237182   3.054   1.832   9.483 -0.6859  1.0773 -1.1241
 8575SOL     OW37183   0.646   1.005   8.690  0.3761  0.2207 -0.3063
 8575SOL    HW137184   0.716   0.967   8.744 -0.1638  0.4889  0.5918
 8575SOL    HW237185   0.675   0.986   8.601 -1.5998  0.5188 -1.0305
 8576SOL     OW37186   4.388   1.064   7.730 -0.2188  0.4355  0.3281
 8576SOL    HW137187   4.355   0.982   7.766 -1.0046  0.7882  0.4202
 8576SOL    HW237188   4.437   1.044   7.651 -1.3365 -1.7598  0.2021
 8577SOL     OW37189   0.886   3.271  13.503  0.7643  0.1137 -0.1143
 8577SOL    HW137190   0.923   3.359  13.507 -0.7642  0.7547 -0.1344
 8577SOL    HW237191   0.936   3.229  13.573  0.1604  1.1766  0.9468
 8578SOL     OW37192   0.389   2.659   6.219 -0.6704  0.6638  0.4538
 8578SOL    HW137193   0.385   2.634   6.126  0.4473 -1.4972  0.9817
 8578SOL    HW237194   0.298   2.674   6.243 -1.2978  0.4314 -1.7978
 8579SOL     OW37195   1.886   0.101   3.379 -0.1565 -0.1393 -0.1355
 8579SOL    HW137196   1.961   0.073   3.432  1.3032  1.2110 -1.5025
 8579SOL    HW237197   1.908   0.194   3.378  1.5222 -0.5867 -2.1972
 8580SOL     OW37198   2.346   3.204   4.855  0.4899 -0.6993 -0.6337
 8580SOL    HW137199   2.311   3.125   4.813 -0.2152 -0.8550  0.2357
 8580SOL    HW237200   2.341   3.267   4.783 -0.4651  0.4729  0.4521
 8581SOL     OW37201   2.772   0.536   9.250 -0.3159 -0.3176 -0.2075
 8581SOL    HW137202   2.842   0.515   9.311 -1.2315  0.1452  0.9879
 8581SOL    HW237203   2.736   0.449   9.230 -1.5888  0.2158 -0.2063
 8582SOL     OW37204   4.093   3.903   5.468  0.7679 -0.4875 -0.2911
 8582SOL    HW137205   4.172   3.871   5.424  0.9895  0.2349 -0.4084
 8582SOL    HW237206   4.111   3.997   5.471  0.1443 -0.2836 -2.2606
 8583SOL     OW37207   1.533   4.656   4.029  0.0622 -0.1005  0.0382
 8583SOL    HW137208   1.574   4.572   4.048  3.5286  1.3389 -0.9494
 8583SOL    HW237209   1.563   4.716   4.097  0.9893 -0.5645  0.0429
 8584SOL     OW37210   2.372   0.861   2.491 -0.0887  0.2794  0.5138
 8584SOL    HW137211   2.333   0.785   2.533 -1.1244  1.4590  1.6963
 8584SOL    HW237212   2.455   0.869   2.540 -0.0543  1.3603  0.2740
 8585SOL     OW37213   0.297   3.849   3.535 -0.3393 -0.2048  0.1019
 8585SOL    HW137214   0.223   3.813   3.485 -1.9590 -0.3475  2.5953
 8585SOL    HW237215   0.247   3.856   3.617 -1.6958  0.1715 -0.7532
 8586SOL     OW37216   2.710   0.393   7.527  0.3355  0.7409 -0.7614
 8586SOL    HW137217   2.756   0.319   7.566  0.4062  1.2030  0.0427
 8586SOL    HW237218   2.730   0.390   7.433  0.3923 -1.6311 -0.6639
 8587SOL     OW37219   3.463   1.372   9.329  0.3980 -0.3492  0.1469
 8587SOL    HW137220   3.510   1.291   9.347 -0.2077 -1.2586 -2.3266
 8587SOL    HW237221   3.375   1.334   9.328 -1.4539  4.0066 -2.1883
 8588SOL     OW37222   3.873   1.082   5.592  0.4140 -0.2790  0.0005
 8588SOL    HW137223   3.786   1.116   5.613  1.0048  0.9301  0.5228
 8588SOL    HW237224   3.895   1.018   5.659 -3.8626 -0.3968  1.3116
 8589SOL     OW37225   3.141   4.211   5.023  0.1601 -0.4261 -0.2113
 8589SOL    HW137226   3.050   4.227   4.998  0.1255 -0.7778 -0.3116
 8589SOL    HW237227   3.160   4.123   4.991  1.6003 -0.3106  0.3130
 8590SOL     OW37228   2.523   1.976  15.983 -0.0917 -0.3186  0.6911
 8590SOL    HW137229   2.491   2.064  16.000  0.4239 -0.5421  2.7900
 8590SOL    HW237230   2.618   1.992  15.981  0.0217 -1.2031 -1.4112
 8591SOL     OW37231   1.187   0.786   4.859 -0.5583 -0.4276  0.2581
 8591SOL    HW137232   1.094   0.782   4.837 -0.8657 -0.1584  1.5572
 8591SOL    HW237233   1.216   0.708   4.812  1.1772 -0.2046  0.9488
 8592SOL     OW37234   2.244   1.032   0.025 -0.0710  0.1188  0.2440
 8592SOL    HW137235   2.246   0.938   0.045 -0.0855  0.2721  0.9657
 8592SOL    HW237236   2.333   1.059   0.046  0.1545 -1.0902  0.8787
 8593SOL     OW37237   1.921   1.075  16.077  0.0541 -0.1099 -0.3220
 8593SOL    HW137238   1.911   0.984  16.049 -1.8627 -0.1637  0.4904
 8593SOL    HW237239   1.884   1.052  16.163  0.2576  1.2636  0.1253
 8594SOL     OW37240   3.483   2.755  11.977  0.2977  0.1447 -0.2165
 8594SOL    HW137241   3.555   2.801  11.934 -0.3448  0.2138 -1.2349
 8594SOL    HW237242   3.449   2.694  11.912  0.2578  2.6990 -2.5905
 8595SOL     OW37243   1.613   0.361   7.679  0.5193 -0.3971 -0.1227
 8595SOL    HW137244   1.560   0.297   7.727 -1.8315  0.9108 -0.9583
 8595SOL    HW237245   1.675   0.386   7.747  0.4496  0.6558 -0.4515
 8596SOL     OW37246   3.902   0.844   6.103  0.4180 -0.1521  0.1870
 8596SOL    HW137247   3.862   0.929   6.120 -0.4129 -0.7976  1.4528
 8596SOL    HW237248   3.942   0.814   6.185 -0.1452  1.7069  1.1402
 8597SOL     OW37249   2.571   1.233  12.845 -0.0863 -0.3372 -0.0668
 8597SOL    HW137250   2.477   1.219  12.833  0.3230 -2.1713 -1.1002
 8597SOL    HW237251   2.594   1.268  12.759  1.9244 -0.2500  0.5114
 8598SOL     OW37252   0.591   3.140  15.844  0.1205 -0.1075 -0.1399
 8598SOL    HW137253   0.644   3.213  15.877  0.7974 -0.9839  0.7327
 8598SOL    HW237254   0.638   3.063  15.878  0.6713 -0.8733 -2.6282
 8599SOL     OW37255   4.094   2.684   3.924  0.2561 -0.2310 -0.1611
 8599SOL    HW137256   4.156   2.722   3.862  1.5375 -1.8140  0.1544
 8599SOL    HW237257   4.069   2.768   3.965 -1.8847 -0.8983 -0.1223
 8600SOL     OW37258   2.182   1.324  15.742  0.0103 -0.0265  0.2787
 8600SOL    HW137259   2.095   1.363  15.736 -0.1784 -0.7244 -1.6609
 8600SOL    HW237260   2.161   1.260  15.809 -2.2612  2.0453  1.5452
 8601SOL     OW37261   0.655   4.105   5.947  0.2539 -0.1953 -0.0729
 8601SOL    HW137262   0.700   4.140   5.871  0.1855 -1.2393 -0.5970
 8601SOL    HW237263   0.664   4.182   6.003 -0.0706 -0.5317  0.4474
 8602SOL     OW37264   2.980   1.703   7.990  0.5804  0.3764 -0.5045
 8602SOL    HW137265   2.932   1.664   8.063 -2.1750  3.0723 -0.8962
 8602SOL    HW237266   3.053   1.737   8.042  0.2279 -0.7972  0.7537
 8603SOL     OW37267   3.194   4.653   8.449 -0.2915 -0.4312 -0.1765
 8603SOL    HW137268   3.218   4.691   8.365 -0.2151 -0.6971 -0.2754
 8603SOL    HW237269   3.193   0.002   8.517  0.1185 -1.3366  0.7514
 8604SOL     OW37270   0.223   1.644   6.808  0.2234  0.3851  0.0205
 8604SOL    HW137271   0.245   1.715   6.868 -2.0046  0.2803  0.9551
 8604SOL    HW237272   0.170   1.685   6.739 -1.6813 -1.1297  0.5826
 8605SOL     OW37273   3.728   2.797   3.965  0.4277 -0.2121 -0.3369
 8605SOL    HW137274   3.781   2.876   3.972 -1.0376  0.9378 -2.6492
 8605SOL    HW237275   3.713   2.795   3.871 -1.6366  0.2562 -0.0168
 8606SOL     OW37276   1.418   0.932   8.225  0.2763  0.1916  0.0132
 8606SOL    HW137277   1.367   1.006   8.194  1.0967  1.1671  0.9615
 8606SOL    HW237278   1.436   0.877   8.149 -2.4549 -1.0864  0.3084
 8607SOL     OW37279   0.454   4.250  13.454 -0.3510 -0.4673  0.0767
 8607SOL    HW137280   0.444   4.157  13.474  0.2876 -0.3817  0.8193
 8607SOL    HW237281   0.471   4.240  13.360 -2.3979  1.2867 -0.4736
 8608SOL     OW37282   0.174   4.238  12.488  0.0477  0.0170  0.6766
 8608SOL    HW137283   0.248   4.291  12.457  0.8323  0.0051  2.5240
 8608SOL    HW237284   0.216   4.154  12.508 -0.2196 -0.2518  0.1042
 8609SOL     OW37285   4.168   0.308   3.833 -0.0264  0.2722  0.2823
 8609SOL    HW137286   4.193   0.295   3.742  0.7673  0.9570  0.4067
 8609SOL    HW237287   4.084   0.261   3.840  0.0912  0.1217  0.6621
 8610SOL     OW37288   4.557   3.163   2.813 -0.5747 -0.1293  0.4026
 8610SOL    HW137289   4.523   3.074   2.821  0.6993 -0.3799  2.8872
 8610SOL    HW237290   4.546   3.180   2.719 -2.3302 -2.5014  0.1914
 8611SOL     OW37291   0.443   4.490   1.522  0.3425 -0.1058  0.4114
 8611SOL    HW137292   0.433   4.576   1.562  0.0584  0.4570 -0.8694
 8611SOL    HW237293   0.474   4.515   1.435 -0.6515  0.8362  0.3217
 8612SOL     OW37294   3.967   1.289   4.450 -0.5345 -0.6141 -0.5674
 8612SOL    HW137295   3.878   1.258   4.467 -1.0706  0.1187 -2.0731
 8612SOL    HW237296   4.013   1.212   4.416 -2.8610 -0.8471 -3.1905
 8613SOL     OW37297   2.178   0.741   5.233 -0.6011  0.5681 -0.1515
 8613SOL    HW137298   2.165   0.829   5.199  0.7888  1.1555  0.8343
 8613SOL    HW237299   2.273   0.737   5.234 -0.5871  0.9912  0.3092
 8614SOL     OW37300   1.408   3.804   8.941 -0.3397 -0.3655 -0.2893
 8614SOL    HW137301   1.462   3.883   8.948  0.5515 -0.9612 -0.3617
 8614SOL    HW237302   1.321   3.834   8.964 -1.0491 -1.7871 -1.1307
 8615SOL     OW37303   3.387   2.733   3.141  0.4492  0.4343 -0.0976
 8615SOL    HW137304   3.431   2.803   3.092 -1.3732  2.1977  0.7929
 8615SOL    HW237305   3.379   2.665   3.073  0.1409  1.2688 -0.8980
 8616SOL     OW37306   4.621   3.869   3.901 -0.6486 -0.3061  0.0496
 8616SOL    HW137307   4.610   3.896   3.810  0.5229 -0.2802 -0.0851
 8616SOL    HW237308   4.619   3.952   3.949 -0.1880 -0.9335  1.1411
 8617SOL     OW37309   2.692   3.201   5.039 -0.6634 -0.2047 -0.2244
 8617SOL    HW137310   2.627   3.262   5.074 -0.3566 -0.4779  0.8468
 8617SOL    HW237311   2.651   3.114   5.039 -1.3447  0.1124  0.7457
 8618SOL     OW37312   2.374   2.016   6.687  0.1397 -0.0620  0.4520
 8618SOL    HW137313   2.291   1.969   6.686 -1.2903  2.4683 -0.5826
 8618SOL    HW237314   2.414   1.983   6.768  2.1847 -0.8449 -0.8765
 8619SOL     OW37315   2.065   4.313  14.721  0.2219 -0.5153 -0.0420
 8619SOL    HW137316   2.148   4.307  14.768 -1.0510 -0.1506  2.2260
 8619SOL    HW237317   2.009   4.351  14.789 -1.9095 -2.6355 -0.5847
 8620SOL     OW37318   3.745   3.079   5.989  0.0572  0.6829 -0.5062
 8620SOL    HW137319   3.707   3.101   5.904 -0.0378 -0.3342 -0.7300
 8620SOL    HW237320   3.715   2.988   5.991 -1.1006  1.1131  1.0051
 8621SOL     OW37321   1.515   1.074  13.227  0.6187 -0.2229 -0.0375
 8621SOL    HW137322   1.451   1.083  13.157  0.3784 -1.3579  0.0332
 8621SOL    HW237323   1.533   1.163  13.258 -5.0781  0.9628 -0.1103
 8622SOL     OW37324   0.247   4.421   8.128  0.0279 -0.1247  0.0886
 8622SOL    HW137325   0.341   4.432   8.114 -0.3321  0.0669 -2.1642
 8622SOL    HW237326   0.223   4.513   8.139 -0.1614 -0.1524 -0.0956
 8623SOL     OW37327   2.121   4.249   8.104 -0.0276  0.2334 -0.8070
 8623SOL    HW137328   2.122   4.212   8.016 -2.0844 -0.2623 -0.6313
 8623SOL    HW237329   2.107   4.342   8.084 -0.0224  0.6825  1.2923
 8624SOL     OW37330   2.630   2.029   3.034 -1.0165 -0.2896  0.0151
 8624SOL    HW137331   2.656   1.944   2.997 -1.5676 -0.5487  0.2236
 8624SOL    HW237332   2.552   2.002   3.082 -0.9291 -1.5960 -0.5606
 8625SOL     OW37333   0.411   1.415   2.765 -0.2321  0.3720  0.2152
 8625SOL    HW137334   0.497   1.445   2.795  1.2855 -2.7445 -1.0620
 8625SOL    HW237335   0.401   1.327   2.800  0.4834  0.6503  1.1207
 8626SOL     OW37336   3.789   1.936   2.392  0.7048  0.4947  0.2082
 8626SOL    HW137337   3.802   1.851   2.349 -0.6917  0.1217  0.5373
 8626SOL    HW237338   3.725   1.966   2.327  0.1165  2.7210  1.8327
 8627SOL     OW37339   1.314   1.110  16.692  0.1274 -0.0434  0.3037
 8627SOL    HW137340   1.336   1.018  16.680 -1.3664 -0.2293 -1.0229
 8627SOL    HW237341   1.218   1.104  16.700  0.1148  0.0490  0.2296
 8628SOL     OW37342   0.788   3.949   5.253  0.5018 -0.3487  0.1539
 8628SOL    HW137343   0.743   4.027   5.286  0.3248 -0.2170 -0.3892
 8628SOL    HW237344   0.867   3.996   5.226  1.0282 -1.9345 -1.0944
 8629SOL     OW37345   0.888   3.102   2.220 -0.2988 -0.4822 -0.1848
 8629SOL    HW137346   0.904   3.188   2.181 -1.9542  0.3869  1.0549
 8629SOL    HW237347   0.979   3.085   2.245 -1.2970 -0.7084  3.3962
 8630SOL     OW37348   0.649   0.270   6.050  0.1841  0.0709 -0.9244
 8630SOL    HW137349   0.673   0.296   5.961  2.2495  0.6484 -0.2022
 8630SOL    HW237350   0.554   0.260   6.044  0.0037  1.0952  0.0989
 8631SOL     OW37351   4.139   2.682   7.311 -0.4378  0.2119 -0.4927
 8631SOL    HW137352   4.045   2.689   7.297 -0.1465  2.2297 -1.4066
 8631SOL    HW237353   4.138   2.673   7.406  1.6091 -3.4131 -0.7810
 8632SOL     OW37354   4.594   2.588   3.251  0.3473  0.2633  0.3206
 8632SOL    HW137355   4.546   2.655   3.300 -2.7487 -0.6712 -1.4188
 8632SOL    HW237356   4.601   2.527   3.324 -3.4185 -0.8867 -0.2802
 8633SOL     OW37357   2.759   1.415   3.894 -0.1535 -0.1923 -0.0132
 8633SOL    HW137358   2.851   1.396   3.910 -0.4991 -2.0337 -0.2235
 8633SOL    HW237359   2.723   1.405   3.982  0.2387 -0.4357  0.1176
 8634SOL     OW37360   4.406   4.163   8.689  0.2012 -0.2359 -0.1307
 8634SOL    HW137361   4.339   4.140   8.754 -1.4517  2.3146 -0.8949
 8634SOL    HW237362   4.410   4.258   8.703 -1.6171 -0.0664 -0.7763
 8635SOL     OW37363   0.634   3.900  14.556  0.0147 -0.2329 -0.1244
 8635SOL    HW137364   0.607   3.856  14.476 -1.4266 -1.1187  0.8470
 8635SOL    HW237365   0.547   3.921  14.590 -0.0702 -1.4352  0.4038
 8636SOL     OW37366   2.448   2.455  17.584 -0.2000  0.4645  0.0395
 8636SOL    HW137367   2.360   2.431  17.555  0.0222 -0.7156  0.3453
 8636SOL    HW237368   2.465   2.408  17.665 -0.5406 -1.0385 -0.7587
 8637SOL     OW37369   1.593   0.928   5.543  0.2428 -0.0707  0.2081
 8637SOL    HW137370   1.578   0.861   5.477  2.3475  1.8482 -2.2366
 8637SOL    HW237371   1.538   0.901   5.616  1.0240 -0.8963  0.4921
 8638SOL     OW37372   4.571   4.473   5.464  0.8886  0.0583  0.2531
 8638SOL    HW137373   4.562   4.447   5.556 -1.8296  1.6070  0.4062
 8638SOL    HW237374   4.479   4.497   5.452  0.7013  0.0295  1.6022
 8639SOL     OW37375   4.120   1.020   1.639  0.4803  0.1913  0.3663
 8639SOL    HW137376   4.090   1.071   1.715  0.0171  0.9034 -0.3003
 8639SOL    HW237377   4.162   0.946   1.684  0.2398  0.0988  0.4423
 8640SOL     OW37378   2.511   2.445  15.934  0.1567 -0.0347  0.4769
 8640SOL    HW137379   2.438   2.436  15.872  0.6125  0.5238 -0.1434
 8640SOL    HW237380   2.520   2.360  15.978 -1.1270 -1.4212 -1.8821
 8641SOL     OW37381   1.582   2.862   6.740 -0.0249 -0.2195  0.8699
 8641SOL    HW137382   1.609   2.774   6.714 -0.8762  0.1078 -1.0850
 8641SOL    HW237383   1.492   2.839   6.762 -0.6592  1.5308  0.1117
 8642SOL     OW37384   3.506   1.609   0.704  0.3038  0.3623 -0.4512
 8642SOL    HW137385   3.421   1.653   0.696  0.1129  0.5918  2.6669
 8642SOL    HW237386   3.564   1.684   0.696  1.4357 -0.5226 -0.4525
 8643SOL     OW37387   0.103   0.850   7.303  0.3038  0.3719 -0.0398
 8643SOL    HW137388   0.116   0.890   7.218  1.8325 -1.0341 -0.4769
 8643SOL    HW237389   0.012   0.822   7.293 -0.1927  2.0927 -0.3202
 8644SOL     OW37390   2.584   4.313   5.740 -0.0295  0.1804  0.5360
 8644SOL    HW137391   2.499   4.336   5.778 -1.4790 -1.6643 -1.5507
 8644SOL    HW237392   2.554   4.255   5.670 -2.2031  1.3077  0.5263
 8645SOL     OW37393   1.304   0.603  15.020 -0.4689  0.5559  0.1810
 8645SOL    HW137394   1.294   0.509  15.038  0.9483  0.1635 -1.0341
 8645SOL    HW237395   1.222   0.628  14.978 -0.2302  1.0815  0.0359
 8646SOL     OW37396   3.329   3.909   0.466  0.3705 -0.0538 -0.0802
 8646SOL    HW137397   3.416   3.905   0.424  0.5866  2.7753  0.0775
 8646SOL    HW237398   3.348   3.962   0.543 -0.3623  1.7796 -1.1499
 8647SOL     OW37399   4.624   2.248   5.236 -0.4902 -0.5377  0.1941
 8647SOL    HW137400   4.563   2.221   5.168 -2.5713 -0.5159  2.0417
 8647SOL    HW237401   4.700   2.190   5.227 -0.8585 -1.1605  1.0997
 8648SOL     OW37402   4.432   0.045   1.798 -0.5686 -0.4158  0.0203
 8648SOL    HW137403   4.485   0.118   1.766 -1.6193  0.4971  0.3248
 8648SOL    HW237404   4.504   4.705   1.818 -1.5222 -1.2322  1.0483
 8649SOL     OW37405   2.811   3.001   9.731 -0.3366 -0.3702  0.4386
 8649SOL    HW137406   2.768   3.010   9.816 -0.4561 -0.5799  0.4011
 8649SOL    HW237407   2.752   2.936   9.693 -1.5485  0.3640  1.0506
 8650SOL     OW37408   0.647   4.034  16.713 -0.4318 -0.1966 -0.8370
 8650SOL    HW137409   0.654   4.126  16.687 -2.5755 -0.0495 -0.9309
 8650SOL    HW237410   0.661   3.986  16.631 -3.3181  0.8871 -1.9835
 8651SOL     OW37411   3.353   1.284   2.265 -0.3383 -0.0306 -0.0673
 8651SOL    HW137412   3.295   1.225   2.217 -0.4045 -0.7129  0.8586
 8651SOL    HW237413   3.439   1.257   2.232 -0.3683 -0.6906  0.3872
 8652SOL     OW37414   4.182   2.934  14.091  0.1159  0.3868 -0.1700
 8652SOL    HW137415   4.260   2.955  14.041  0.3968  0.2139  0.1898
 8652SOL    HW237416   4.211   2.849  14.126  3.8797  0.5474 -2.9808
 8653SOL     OW37417   0.017   2.937  16.714 -0.2030  0.1691 -0.0287
 8653SOL    HW137418   0.079   2.893  16.772  0.7365 -0.7959 -1.7619
 8653SOL    HW237419   4.671   2.964  16.778 -0.5851 -1.0050  0.0906
 8654SOL     OW37420   2.957   3.845   3.233  0.0335  0.4938 -0.5748
 8654SOL    HW137421   2.898   3.829   3.306  0.8626 -2.3024 -0.5054
 8654SOL    HW237422   2.893   3.846   3.162  0.1602  3.3664 -0.6526
 8655SOL     OW37423   2.024   1.607   9.653  0.0909 -0.0659  0.2046
 8655SOL    HW137424   2.050   1.529   9.701 -0.5271  0.2266  1.0095
 8655SOL    HW237425   1.929   1.607   9.667  0.1135  1.9296  0.4166
 8656SOL     OW37426   1.282   3.954  12.252 -0.2365 -0.0026 -0.5612
 8656SOL    HW137427   1.265   4.048  12.259  0.1507  0.1328 -1.4827
 8656SOL    HW237428   1.208   3.916  12.299  0.4813  0.8740  1.2666
 8657SOL     OW37429   3.772   2.123  11.543  0.6584 -0.3834  0.1518
 8657SOL    HW137430   3.780   2.165  11.628 -0.1557  1.2346 -0.5650
 8657SOL    HW237431   3.678   2.105  11.538  0.6211 -0.0168 -0.4886
 8658SOL     OW37432   3.865   3.172   9.669  0.5272  0.1773 -0.0616
 8658SOL    HW137433   3.816   3.090   9.659  0.2724  0.2001  0.9931
 8658SOL    HW237434   3.857   3.179   9.764 -2.0298 -1.1805 -0.1557
 8659SOL     OW37435   3.099   4.444  11.444 -0.2672 -0.6668  0.0531
 8659SOL    HW137436   3.193   4.438  11.424 -0.4304  1.2116 -1.3799
 8659SOL    HW237437   3.065   4.441  11.355 -2.1537 -2.0966  0.8412
 8660SOL     OW37438   0.047   0.299   0.754 -0.3702  0.6095 -0.2277
 8660SOL    HW137439   0.090   0.218   0.783 -0.1373  0.8401  0.0668
 8660SOL    HW237440   0.123   0.348   0.726  1.7897 -1.3347  2.2170
 8661SOL     OW37441   3.525   2.705   5.834  0.3227 -0.1158 -0.1378
 8661SOL    HW137442   3.500   2.796   5.820  1.5332  0.0598 -1.1303
 8661SOL    HW237443   3.590   2.703   5.764 -1.6545  0.1998 -1.9997
 8662SOL     OW37444   0.444   0.542   5.393  0.7255 -0.1425  0.1819
 8662SOL    HW137445   0.350   0.532   5.380  0.3833  0.0314  2.5639
 8662SOL    HW237446   0.441   0.630   5.431 -0.6143 -0.0766 -0.0725
 8663SOL     OW37447   2.629   3.972   9.479  0.2154 -0.2086  0.3620
 8663SOL    HW137448   2.628   3.918   9.400 -0.9693 -0.3868  0.5098
 8663SOL    HW237449   2.723   3.985   9.492  0.2066 -0.4611  0.6758
 8664SOL     OW37450   2.781   3.861   3.865  0.0614  0.1880  0.0435
 8664SOL    HW137451   2.707   3.804   3.842 -0.2617  0.1601  1.1317
 8664SOL    HW237452   2.835   3.798   3.913  0.8927 -0.1213 -1.3163
 8665SOL     OW37453   4.711   0.022  16.235  0.2039 -0.1052  0.2988
 8665SOL    HW137454   4.624   0.059  16.222  0.3693  0.4896  0.8781
 8665SOL    HW237455   4.690   4.663  16.286  0.2485 -0.3503 -0.0533
 8666SOL     OW37456   4.083   3.420   8.401  0.0554  0.2921 -0.2166
 8666SOL    HW137457   3.997   3.439   8.440 -0.6391 -0.6099 -1.2914
 8666SOL    HW237458   4.057   3.329   8.385 -1.2527  0.6469 -0.1554
 8667SOL     OW37459   3.731   1.932  15.322  0.1787 -0.1647 -0.5199
 8667SOL    HW137460   3.789   1.857  15.334  0.4983 -0.0168 -1.1376
 8667SOL    HW237461   3.779   1.986  15.259 -2.3872  2.1670 -0.4714
 8668SOL     OW37462   1.860   0.728  16.888  0.1670  0.3868 -0.3505
 8668SOL    HW137463   1.767   0.746  16.871  0.3408  1.0823 -0.5713
 8668SOL    HW237464   1.871   0.759  16.978  0.9214 -2.3762  0.4865
 8669SOL     OW37465   1.443   2.813   4.732  0.2797  0.7020  0.0143
 8669SOL    HW137466   1.414   2.895   4.692  0.0436  0.9024  0.6024
 8669SOL    HW237467   1.535   2.836   4.747  0.4724 -0.7350  1.0293
 8670SOL     OW37468   0.643   3.125  13.653 -0.0761 -0.3205  0.0181
 8670SOL    HW137469   0.673   3.200  13.602  0.9094 -0.3225  0.6030
 8670SOL    HW237470   0.730   3.105  13.687 -0.4929  0.0348  1.2942
 8671SOL     OW37471   3.748   1.708   9.983  0.0874  0.2478 -0.3191
 8671SOL    HW137472   3.707   1.774  10.040  1.1158  0.2346  0.4343
 8671SOL    HW237473   3.715   1.628  10.025  0.0925  0.6852  0.5340
 8672SOL     OW37474   0.145   1.165   8.896  0.0112 -0.4251 -0.4124
 8672SOL    HW137475   0.163   1.089   8.952  0.8390  0.8860  1.1276
 8672SOL    HW237476   0.083   1.119   8.839 -1.3483 -0.2755  0.9443
 8673SOL     OW37477   0.820   3.331   7.480 -0.3362 -0.6595 -0.0009
 8673SOL    HW137478   0.759   3.405   7.477  0.5147  0.0532  0.2497
 8673SOL    HW237479   0.765   3.253   7.486 -1.7526  0.2131 -1.7869
 8674SOL     OW37480   4.520   0.182   1.453 -0.0141  0.4923  0.1626
 8674SOL    HW137481   4.576   0.170   1.376  0.3344  0.2885  0.4521
 8674SOL    HW237482   4.458   0.109   1.453 -0.3205  0.7547  1.0184
 8675SOL     OW37483   1.389   1.724   7.433 -0.0890  0.2508  0.0370
 8675SOL    HW137484   1.450   1.775   7.486 -0.0981  1.5691 -1.2242
 8675SOL    HW237485   1.329   1.712   7.506  0.5820 -0.9388  0.3935
 8676SOL     OW37486   0.134   4.709   0.861  0.2379 -0.1546 -0.5036
 8676SOL    HW137487   0.105   0.001   0.771  1.2489 -0.6378 -0.8896
 8676SOL    HW237488   0.228   4.694   0.849 -0.1155  0.0802 -3.5096
 8677SOL     OW37489   0.584   2.312  10.104 -0.3371  0.4170 -0.2741
 8677SOL    HW137490   0.560   2.294  10.194 -0.2355 -2.7904 -0.8882
 8677SOL    HW237491   0.502   2.355  10.082  0.0897 -0.0586 -2.8786
 8678SOL     OW37492   4.643   0.168  10.811  0.1931  0.2682  0.0842
 8678SOL    HW137493   4.596   0.198  10.734  1.5270  0.2317 -0.7495
 8678SOL    HW237494   4.672   0.250  10.850 -2.9739  1.5815 -0.3928
 8679SOL     OW37495   4.285   0.424   7.051  0.0774  0.3428  0.0227
 8679SOL    HW137496   4.248   0.512   7.043 -0.4511  0.4281  3.5249
 8679SOL    HW237497   4.380   0.437   7.047  0.3991 -1.5203  1.4396
 8680SOL     OW37498   1.729   1.524   4.295  0.1834  0.4429  0.3000
 8680SOL    HW137499   1.706   1.590   4.230 -0.9882 -1.3539 -1.1316
 8680SOL    HW237500   1.652   1.466   4.292  0.4458  0.0611  1.0341
 8681SOL     OW37501   3.316   3.498  13.458 -0.2768 -0.5712  0.3422
 8681SOL    HW137502   3.391   3.439  13.467 -0.5213 -0.4733  3.0007
 8681SOL    HW237503   3.338   3.523  13.368  0.2308  2.8273  1.3784
 8682SOL     OW37504   3.398   1.685   1.969 -0.3154  0.8226  0.1366
 8682SOL    HW137505   3.429   1.674   1.879 -0.0776 -1.3073  0.4773
 8682SOL    HW237506   3.314   1.642   1.955 -0.5751  1.9074 -1.6763
 8683SOL     OW37507   0.615   0.002   5.567 -0.1545  0.2003  0.2833
 8683SOL    HW137508   0.627   0.070   5.501 -0.4520 -0.1418 -0.1264
 8683SOL    HW237509   0.681   0.027   5.632  1.2478  1.5824 -1.6955
 8684SOL     OW37510   1.265   4.479  17.652 -0.0254 -0.7941  0.3488
 8684SOL    HW137511   1.343   4.506   0.022  1.6635 -3.5931 -0.7800
 8684SOL    HW237512   1.238   4.565  17.622  0.4372 -0.0835  1.9874
 8685SOL     OW37513   0.066   1.837   4.743 -0.7933  0.0472 -0.5179
 8685SOL    HW137514   0.006   1.858   4.672 -1.5287 -1.0682 -0.2210
 8685SOL    HW237515   0.153   1.861   4.709 -0.6853  0.5240  0.1015
 8686SOL     OW37516   4.687   2.159   9.048  0.0370  0.0358  0.2258
 8686SOL    HW137517   4.675   2.239   9.099 -0.1269  0.1624 -0.0110
 8686SOL    HW237518   4.628   2.108   9.104  1.1400 -1.8472 -0.3581
 8687SOL     OW37519   1.852   0.777   7.218  0.2985 -0.2022 -0.0301
 8687SOL    HW137520   1.945   0.768   7.194  0.1800 -1.2793 -0.0741
 8687SOL    HW237521   1.856   0.844   7.285  1.2571  0.8072 -1.0868
 8688SOL     OW37522   3.656   4.218   2.710 -0.0922  0.3465  0.0287
 8688SOL    HW137523   3.685   4.148   2.769  0.5795  0.6322  0.0381
 8688SOL    HW237524   3.561   4.215   2.714 -0.0450  0.6332  1.3285
 8689SOL     OW37525   3.485   3.711  11.712 -0.2575 -0.5044 -0.6872
 8689SOL    HW137526   3.580   3.723  11.714 -0.3445  0.6131 -2.6921
 8689SOL    HW237527   3.460   3.802  11.727  0.1267 -0.2841 -1.3539
 8690SOL     OW37528   3.465   0.688  16.630  0.1248  0.2073 -0.1857
 8690SOL    HW137529   3.383   0.710  16.587  0.8000 -0.5692 -1.8701
 8690SOL    HW237530   3.507   0.773  16.644 -0.9766  0.4177  1.7875
 8691SOL     OW37531   2.940   1.537  10.641  0.9211 -0.3267 -0.3147
 8691SOL    HW137532   3.018   1.566  10.593 -0.5313 -1.0382 -3.1114
 8691SOL    HW237533   2.895   1.520  10.558  2.1370 -0.3721 -0.9629
 8692SOL     OW37534   4.192   3.162   6.044 -0.3844 -0.1946 -0.1957
 8692SOL    HW137535   4.248   3.100   6.090 -0.8278  0.6844  1.5263
 8692SOL    HW237536   4.121   3.157   6.109 -2.3905  0.6204 -2.3121
 8693SOL     OW37537   0.542   1.485   0.769  0.0503 -0.5079  0.2169
 8693SOL    HW137538   0.566   1.425   0.840 -1.1865  1.7265  2.4910
 8693SOL    HW237539   0.466   1.523   0.813  0.0815 -0.7301  0.4644
 8694SOL     OW37540   3.700   4.387   7.512  0.4955 -0.4082 -0.3376
 8694SOL    HW137541   3.748   4.376   7.595 -1.9638  0.4913  1.2125
 8694SOL    HW237542   3.610   4.385   7.544 -0.0717 -0.5207 -1.9897
 8695SOL     OW37543   2.799   1.568   5.803 -0.0868  0.3200 -0.4099
 8695SOL    HW137544   2.842   1.598   5.883 -0.8726  0.8156 -0.1718
 8695SOL    HW237545   2.796   1.658   5.769  2.4263 -0.0370 -1.5728
 8696SOL     OW37546   0.479   3.434   2.944  0.1732  0.0637 -0.1174
 8696SOL    HW137547   0.559   3.480   2.970  1.3704 -0.6846 -2.4316
 8696SOL    HW237548   0.514   3.375   2.876  0.2605 -0.3658  0.2967
 8697SOL     OW37549   1.295   2.422   5.053 -0.0176  0.2988  0.0299
 8697SOL    HW137550   1.325   2.442   5.142  0.4232 -0.0715 -0.0322
 8697SOL    HW237551   1.296   2.510   5.015  1.0115 -0.0555 -0.7665
 8698SOL     OW37552   4.091   3.286   5.274  0.1447  0.3049  0.0146
 8698SOL    HW137553   4.039   3.367   5.271  1.1571  1.0753  2.8006
 8698SOL    HW237554   4.163   3.311   5.332 -0.1891 -0.1558  0.6187
 8699SOL     OW37555   2.168   0.417   1.142  0.2840  0.0537 -0.2736
 8699SOL    HW137556   2.173   0.481   1.071 -1.4349 -1.9354 -2.1927
 8699SOL    HW237557   2.085   0.377   1.114  0.5103 -0.6294  0.0392
 8700SOL     OW37558   4.488   2.513   2.301  0.7636  0.4728  0.0016
 8700SOL    HW137559   4.475   2.495   2.208  1.1592  0.5312 -0.0652
 8700SOL    HW237560   4.491   2.419   2.314 -0.1251  0.2200 -1.6137
 8701SOL     OW37561   1.096   2.899   9.084  0.3607 -0.2752 -0.0113
 8701SOL    HW137562   1.105   2.966   9.153  1.2761 -1.2282  0.7978
 8701SOL    HW237563   1.186   2.908   9.051  0.1869  3.7750  0.5422
 8702SOL     OW37564   0.780   1.469   5.290  0.5579 -0.3460  0.1073
 8702SOL    HW137565   0.775   1.563   5.273 -1.2502 -0.3103  0.9253
 8702SOL    HW237566   0.699   1.430   5.259  1.0334  0.1006 -1.7206
 8703SOL     OW37567   3.441   3.644   6.154 -0.0681  0.1511  0.3139
 8703SOL    HW137568   3.501   3.694   6.098 -0.3217  1.2746  1.0510
 8703SOL    HW237569   3.461   3.685   6.238  2.2190 -1.1763  0.4205
 8704SOL     OW37570   3.969   0.573   7.101 -1.0616 -0.2143 -0.2889
 8704SOL    HW137571   3.920   0.643   7.059 -2.7168  0.1933  2.3797
 8704SOL    HW237572   3.966   0.504   7.034  0.4786  0.9627 -1.5638
 8705SOL     OW37573   4.101   1.898  17.565 -0.0163 -0.2112 -0.4277
 8705SOL    HW137574   4.041   1.949  17.511 -1.7607 -1.5134  0.2876
 8705SOL    HW237575   4.184   1.943  17.547  0.1555 -0.0915  0.6552
 8706SOL     OW37576   3.005   0.457   9.354 -0.1653  0.2118 -0.1456
 8706SOL    HW137577   3.026   0.365   9.375  2.2635  1.1462  1.6130
 8706SOL    HW237578   3.034   0.513   9.427 -0.2238 -0.5583  0.4761
 8707SOL     OW37579   3.223   0.678   3.386  0.6146  0.1260  0.1526
 8707SOL    HW137580   3.226   0.769   3.416  0.4280  0.2107 -0.0810
 8707SOL    HW237581   3.170   0.682   3.306  1.8639  0.9279 -0.6480
 8708SOL     OW37582   2.733   1.704   3.530 -0.1585 -0.0017  0.4693
 8708SOL    HW137583   2.722   1.640   3.600 -0.2285  0.0195  0.4779
 8708SOL    HW237584   2.687   1.771   3.580 -0.9492  0.3626 -0.7268
 8709SOL     OW37585   0.697   0.067   4.970  0.3392 -0.4234 -0.3623
 8709SOL    HW137586   0.687   4.704   5.018 -0.7281 -0.6412 -0.9582
 8709SOL    HW237587   0.625   0.121   5.002  0.4964 -1.2580  1.3645
 8710SOL     OW37588   3.005   2.849   5.658 -0.4042 -0.5498 -0.1552
 8710SOL    HW137589   2.920   2.874   5.620  0.0290  0.4237 -0.4986
 8710SOL    HW237590   2.962   2.814   5.736 -1.2883 -0.4626 -0.5924
 8711SOL     OW37591   4.365   1.101   2.113 -0.4212  0.2060  0.5612
 8711SOL    HW137592   4.381   1.180   2.165  0.8761 -0.1125  0.6356
 8711SOL    HW237593   4.451   1.063   2.095 -0.5491  0.6694 -1.0498
 8712SOL     OW37594   1.531   2.795   0.029 -0.4890 -0.4465  0.3574
 8712SOL    HW137595   1.486   2.802   0.113 -0.3913  1.4887  0.2496
 8712SOL    HW237596   1.458   2.773  17.650 -1.7975  0.9129  1.4912
 8713SOL     OW37597   1.079   2.228   4.533  0.3179 -0.2305 -0.1041
 8713SOL    HW137598   1.117   2.269   4.455 -1.8537 -1.1791 -1.6785
 8713SOL    HW237599   1.143   2.258   4.597 -1.2460  0.8212  0.9733
 8714SOL     OW37600   4.685   0.440   8.574 -0.1290  0.3486  0.1880
 8714SOL    HW137601   4.645   0.491   8.504  1.0621 -0.8565 -1.3678
 8714SOL    HW237602   4.671   0.503   8.646  0.2532  1.0415 -0.3444
 8715SOL     OW37603   0.594   3.245  16.121  0.0932 -0.4547 -0.7619
 8715SOL    HW137604   0.633   3.163  16.150  1.8907  0.6860  0.0645
 8715SOL    HW237605   0.657   3.301  16.167 -0.5683  0.3336 -0.8219
 8716SOL     OW37606   2.248   2.540   9.858 -0.7000 -0.5255  0.1918
 8716SOL    HW137607   2.331   2.506   9.890 -0.5961 -0.1210  0.3528
 8716SOL    HW237608   2.215   2.464   9.808 -2.4041 -0.0101  0.5245
 8717SOL     OW37609   3.776   3.405   0.894 -0.3708 -0.3875 -0.6050
 8717SOL    HW137610   3.765   3.349   0.817 -0.8129 -2.2665  0.8078
 8717SOL    HW237611   3.729   3.354   0.960 -0.1942 -2.3971 -2.0403
 8718SOL     OW37612   2.244   3.231   4.259  0.0435  0.1737 -0.0105
 8718SOL    HW137613   2.237   3.230   4.354  0.5909 -0.5939  0.0257
 8718SOL    HW237614   2.329   3.270   4.240  0.8761 -0.7319  1.8721
 8719SOL     OW37615   1.621   0.610   6.072 -0.1621 -0.2688 -0.5652
 8719SOL    HW137616   1.704   0.642   6.108  0.5778 -2.5854 -0.1732
 8719SOL    HW237617   1.587   0.694   6.042  0.1605  0.4968  1.2488
 8720SOL     OW37618   3.830   2.393   6.446 -0.2447  0.2231  0.0707
 8720SOL    HW137619   3.799   2.350   6.526  0.1809 -0.1666  0.0283
 8720SOL    HW237620   3.890   2.326   6.413 -0.2158  0.6099 -0.6462
 8721SOL     OW37621   0.841   1.937   8.511 -0.1923 -0.4683 -0.2638
 8721SOL    HW137622   0.747   1.930   8.495 -1.0575  2.6319  3.5369
 8721SOL    HW237623   0.880   1.865   8.461  0.0711 -0.3548 -0.2212
 8722SOL     OW37624   2.913   2.532   8.151 -0.2013  0.6456 -0.3088
 8722SOL    HW137625   2.859   2.457   8.126 -0.2141  0.8331 -0.8464
 8722SOL    HW237626   2.951   2.501   8.233 -2.0408  3.2727  1.5232
 8723SOL     OW37627   1.079   2.510   4.120 -0.2531  0.0900  0.4748
 8723SOL    HW137628   1.139   2.553   4.059 -1.8086 -1.3345 -2.0934
 8723SOL    HW237629   1.128   2.428   4.121 -1.1551 -0.4248  1.8376
 8724SOL     OW37630   1.354   2.080   0.450 -0.6673 -0.2008  0.0288
 8724SOL    HW137631   1.424   2.121   0.399  1.3074 -1.5661  1.6707
 8724SOL    HW237632   1.399   2.042   0.526 -2.2337  0.9701  1.5326
 8725SOL     OW37633   0.063   4.359   5.851 -0.3173  0.1864 -0.6490
 8725SOL    HW137634   0.076   4.370   5.946  1.6797  1.0858 -1.0362
 8725SOL    HW237635   0.152   4.384   5.828 -0.3383  0.5022 -0.3926
 8726SOL     OW37636   0.754   1.673  12.346  0.1616 -0.4037 -0.1825
 8726SOL    HW137637   0.687   1.605  12.357 -0.2023  0.5066  3.3294
 8726SOL    HW237638   0.713   1.731  12.281  0.0293 -0.3147 -0.0198
 8727SOL     OW37639   2.386   0.980  14.864 -0.2326 -0.1278  0.1512
 8727SOL    HW137640   2.409   1.065  14.901 -1.8232  1.4442 -2.5035
 8727SOL    HW237641   2.403   0.983  14.770 -1.1674 -0.8361 -0.0378
 8728SOL     OW37642   2.830   2.610   6.554  0.2126 -0.5745 -0.0665
 8728SOL    HW137643   2.773   2.604   6.477  0.3225  0.2240 -0.2068
 8728SOL    HW237644   2.807   2.526   6.594 -1.3657  1.5487  3.4518
 8729SOL     OW37645   4.360   3.153   6.593  0.5163 -0.8931  0.1140
 8729SOL    HW137646   4.276   3.114   6.571  0.6437 -0.9508 -0.2722
 8729SOL    HW237647   4.402   3.086   6.647 -0.2681  0.8702  2.9271
 8730SOL     OW37648   1.140   0.448   4.569 -0.2425 -0.1417 -0.4331
 8730SOL    HW137649   1.047   0.429   4.556 -0.1343 -1.1835  0.3532
 8730SOL    HW237650   1.184   0.372   4.529  0.6079  0.6808 -1.0564
 8731SOL     OW37651   1.133   3.104  13.401 -0.3889 -0.0968 -0.3170
 8731SOL    HW137652   1.067   3.168  13.429 -2.8941 -2.0134 -1.7940
 8731SOL    HW237653   1.158   3.143  13.317 -1.6968 -1.8375 -1.5226
 8732SOL     OW37654   0.059   3.492  11.787  0.0818  0.2501  0.7524
 8732SOL    HW137655   0.140   3.448  11.815  0.6020  1.1599  0.6682
 8732SOL    HW237656   0.001   3.432  11.835 -1.0757  2.4865  2.1585
 8733SOL     OW37657   0.204   1.188  16.193 -1.5516 -0.0724 -0.1183
 8733SOL    HW137658   0.176   1.167  16.104  0.2782  0.4800 -0.8214
 8733SOL    HW237659   0.165   1.114  16.240 -2.5157  0.0298 -0.7546
 8734SOL     OW37660   1.130   4.515   3.374 -0.1276 -0.1575 -0.6797
 8734SOL    HW137661   1.160   4.554   3.455 -3.1382  4.4347 -1.7276
 8734SOL    HW237662   1.038   4.539   3.385  0.0041  1.2425 -2.5688
 8735SOL     OW37663   1.065   4.190   6.476 -0.2514 -0.1430  0.4671
 8735SOL    HW137664   1.130   4.196   6.545 -0.1990  0.6024  0.3485
 8735SOL    HW237665   0.994   4.238   6.518 -0.6665 -1.4571  1.2806
 8736SOL     OW37666   3.750   0.504   0.630  0.3303 -0.8335 -0.8540
 8736SOL    HW137667   3.737   0.541   0.542  2.2396  0.0454 -0.7767
 8736SOL    HW237668   3.841   0.533   0.642 -0.1515 -0.6708  2.3823
 8737SOL     OW37669   0.281   3.917  13.948  0.1641  0.4546  0.7405
 8737SOL    HW137670   0.197   3.910  13.993 -0.2505  1.7931  0.1680
 8737SOL    HW237671   0.333   3.907  14.028  2.2700 -1.3741 -0.8725
 8738SOL     OW37672   2.590   3.701   4.979 -0.2357 -0.0641  0.1274
 8738SOL    HW137673   2.501   3.735   4.969 -0.8819 -1.6616  0.4634
 8738SOL    HW237674   2.607   3.722   4.887 -1.4836 -2.4195 -0.6345
 8739SOL     OW37675   3.696   2.335   9.167  0.5803  0.8880  0.4805
 8739SOL    HW137676   3.686   2.407   9.229 -1.2743  0.6309  0.4743
 8739SOL    HW237677   3.769   2.286   9.205 -0.3275 -0.2762  0.7417
 8740SOL     OW37678   4.654   1.157  16.533 -0.6486 -0.1381  0.0340
 8740SOL    HW137679   0.016   1.149  16.584 -2.0097 -1.0223  2.0791
 8740SOL    HW237680   4.594   1.180  16.604  0.4935  1.2922  0.5363
 8741SOL     OW37681   3.149   3.563  12.141 -0.3701  0.0210  0.1696
 8741SOL    HW137682   3.216   3.615  12.098 -0.2987 -0.5358 -0.3899
 8741SOL    HW237683   3.073   3.616  12.117  0.2464 -0.1875 -2.2125
 8742SOL     OW37684   0.423   2.393   7.538  0.0897 -0.3740  0.4628
 8742SOL    HW137685   0.474   2.336   7.596 -0.5102  0.0737  1.4426
 8742SOL    HW237686   0.333   2.393   7.572  0.2344  1.3877  0.8432
 8743SOL     OW37687   2.583   2.837   4.367 -0.2291  0.0463  0.1941
 8743SOL    HW137688   2.493   2.835   4.399 -0.1339 -0.1431  0.4462
 8743SOL    HW237689   2.596   2.931   4.365  0.0323  0.0417  1.4964
 8744SOL     OW37690   3.578   1.322   1.449  0.0860  0.1197  0.1305
 8744SOL    HW137691   3.611   1.312   1.360  0.6464 -3.9804  0.8003
 8744SOL    HW237692   3.556   1.416   1.453 -1.6659 -0.2133 -1.9701
 8745SOL     OW37693   0.903   0.507   8.582 -0.6493  0.0891 -0.3836
 8745SOL    HW137694   0.904   0.423   8.628  0.8103  0.0350 -0.5284
 8745SOL    HW237695   0.871   0.476   8.498  1.0986  1.7743 -1.6581
 8746SOL     OW37696   4.208   4.684  13.286  0.0919  0.0976 -0.5967
 8746SOL    HW137697   4.275   0.033  13.300 -0.3873  0.6261 -0.8591
 8746SOL    HW237698   4.205   4.650  13.375  3.0906 -0.1243 -0.5554
 8747SOL     OW37699   1.939   3.499   5.326 -0.0876  0.3538 -0.1561
 8747SOL    HW137700   1.938   3.409   5.358  1.9883  0.3168 -0.1617
 8747SOL    HW237701   1.878   3.501   5.253 -1.3028 -1.0836  0.8177
 8748SOL     OW37702   0.130   0.607   7.962 -0.5567  0.5220 -0.3354
 8748SOL    HW137703   0.211   0.566   7.933 -0.0411 -0.0440  1.8967
 8748SOL    HW237704   0.069   0.534   7.973 -0.2215  0.4202  0.8476
 8749SOL     OW37705   2.577   0.599   3.198  0.1418 -0.2529 -0.4719
 8749SOL    HW137706   2.498   0.568   3.243  0.6598 -0.1901  0.4827
 8749SOL    HW237707   2.606   0.662   3.264 -0.6828 -1.1112  0.7170
 8750SOL     OW37708   2.445   4.406   1.074  0.3178 -0.2071  0.1431
 8750SOL    HW137709   2.366   4.422   1.126 -0.1576  2.8818 -1.5339
 8750SOL    HW237710   2.480   4.334   1.126  1.2786  1.0137  1.1756
 8751SOL     OW37711   1.224   2.094   3.628  0.0765 -0.5598  0.5038
 8751SOL    HW137712   1.148   2.061   3.676  0.9922  0.3882  2.6291
 8751SOL    HW237713   1.211   2.187   3.648 -1.9088 -0.8101  0.3537
 8752SOL     OW37714   3.770   1.597  17.131 -0.7034  0.4944 -0.2001
 8752SOL    HW137715   3.730   1.615  17.045  2.5451  4.0439 -0.9408
 8752SOL    HW237716   3.701   1.631  17.187 -1.5384 -1.0044 -0.3068
 8753SOL     OW37717   1.529   1.129   3.677  0.3748  0.0815  0.3474
 8753SOL    HW137718   1.620   1.118   3.704  0.1780 -2.2498  0.0593
 8753SOL    HW237719   1.531   1.221   3.652 -1.4057 -0.2792 -1.1571
 8754SOL     OW37720   0.284   0.936   0.773  0.1144 -0.4584 -0.0594
 8754SOL    HW137721   0.203   0.986   0.785  0.9081  1.1545 -1.3556
 8754SOL    HW237722   0.333   0.996   0.717  1.7640 -1.2504  0.5615
 8755SOL     OW37723   3.237   4.514   2.416 -1.2715  0.2769 -0.1908
 8755SOL    HW137724   3.189   4.596   2.422  0.5889  1.3779 -0.3239
 8755SOL    HW237725   3.283   4.529   2.333 -0.0102  1.9460  0.8196
 8756SOL     OW37726   2.246   4.140  12.461 -0.3516 -0.0658  0.4664
 8756SOL    HW137727   2.290   4.123  12.377  1.5033  1.9670  1.0385
 8756SOL    HW237728   2.299   4.209  12.500 -0.0810  0.5367 -0.9639
 8757SOL     OW37729   1.667   0.144   7.019  0.5424  0.5957 -0.2147
 8757SOL    HW137730   1.696   0.110   7.103  2.6667  0.3352 -1.0528
 8757SOL    HW237731   1.722   0.223   7.022 -1.1237  1.7898 -0.7804
 8758SOL     OW37732   0.198   1.187   1.584 -0.5224 -0.7564  0.5132
 8758SOL    HW137733   0.242   1.209   1.666 -0.5238 -1.4419  0.6999
 8758SOL    HW237734   0.117   1.235   1.596 -0.6058 -1.1510  1.5276
 8759SOL     OW37735   1.580   3.457   2.866  0.1695  0.8383  0.3410
 8759SOL    HW137736   1.516   3.486   2.930  0.6138  0.0250  1.1560
 8759SOL    HW237737   1.634   3.399   2.920  0.8690 -0.1543 -1.4244
 8760SOL     OW37738   1.229   2.002   1.029 -0.3917  0.0933 -0.6647
 8760SOL    HW137739   1.140   1.966   1.035 -1.0051  1.8463  0.7363
 8760SOL    HW237740   1.209   2.083   0.983 -1.9281  0.4327  0.6019
 8761SOL     OW37741   2.077   1.993   5.398 -0.2753 -0.4283  0.5649
 8761SOL    HW137742   1.983   1.983   5.410 -0.1028 -1.7540  0.7626
 8761SOL    HW237743   2.102   1.924   5.336 -2.5419 -0.2353 -0.5849
 8762SOL     OW37744   4.517   3.379   2.986 -0.3302 -0.1369  0.1885
 8762SOL    HW137745   4.525   3.285   2.971 -0.5267 -0.4195  1.8526
 8762SOL    HW237746   4.488   3.409   2.900 -0.4519  0.9811  0.6204
 8763SOL     OW37747   0.806   1.841   6.812 -0.1873  0.2924 -1.0457
 8763SOL    HW137748   0.839   1.887   6.889 -1.8864 -1.7540  0.9055
 8763SOL    HW237749   0.755   1.905   6.762  0.2679 -0.0273 -1.9357
 8764SOL     OW37750   2.357   2.011   7.886 -0.4763 -0.5731 -0.2311
 8764SOL    HW137751   2.442   1.976   7.859 -0.3181 -1.6038  1.6308
 8764SOL    HW237752   2.297   1.975   7.821 -2.6493  1.1363  0.8190
 8765SOL     OW37753   2.570   1.749   6.994  0.4019 -0.1198 -0.0163
 8765SOL    HW137754   2.551   1.675   7.052  0.1988 -1.0852 -1.3252
 8765SOL    HW237755   2.645   1.794   7.034 -0.3422 -0.0594  1.2977
 8766SOL     OW37756   0.509   1.033   1.562  0.4967 -0.1428 -0.2412
 8766SOL    HW137757   0.471   0.962   1.510 -3.2818  1.9542 -0.3841
 8766SOL    HW237758   0.431   1.066   1.608 -0.0414 -0.8970 -0.6127
 8767SOL     OW37759   0.550   4.102   6.577 -0.0413 -0.0641  0.0298
 8767SOL    HW137760   0.461   4.070   6.590 -0.7916  1.9728 -0.1479
 8767SOL    HW237761   0.560   4.158   6.654 -0.4781  0.5965 -0.3961
 8768SOL     OW37762   3.451   1.857   8.423  0.1524  0.2719 -0.3178
 8768SOL    HW137763   3.490   1.839   8.508  0.1665  0.2157 -0.3361
 8768SOL    HW237764   3.438   1.767   8.391 -0.0566 -0.0235  0.5961
 8769SOL     OW37765   0.114   2.346   3.282  0.5613  0.0348 -0.2088
 8769SOL    HW137766   0.035   2.358   3.334  0.6321 -0.2920 -0.0204
 8769SOL    HW237767   0.175   2.306   3.345  0.3640  1.7256  1.0612
 8770SOL     OW37768   3.098   2.390   3.384  0.0691 -0.5140  0.0501
 8770SOL    HW137769   3.133   2.436   3.308 -0.1871  0.1959  0.3711
 8770SOL    HW237770   3.068   2.462   3.438 -0.7239 -0.9936  0.2525
 8771SOL     OW37771   0.793   2.689   3.912 -0.1274  0.4661  0.0990
 8771SOL    HW137772   0.853   2.761   3.932 -0.7065  0.6440  1.1547
 8771SOL    HW237773   0.742   2.726   3.840 -1.2685  0.9052  1.1441
 8772SOL     OW37774   2.238   1.716   5.469  0.1298 -0.1141 -0.1587
 8772SOL    HW137775   2.293   1.704   5.391  0.0164 -0.1145 -0.2380
 8772SOL    HW237776   2.161   1.748   5.422  0.1546 -0.0871 -0.1813
 8773SOL     OW37777   0.043   0.516   7.403 -0.1169  0.1034  0.2296
 8773SOL    HW137778   0.066   0.607   7.383  1.1315 -0.2944 -0.1274
 8773SOL    HW237779   0.080   0.507   7.490  0.0069  1.5887  0.3373
 8774SOL     OW37780   3.131   3.800  15.943 -0.5250  0.2756 -0.0520
 8774SOL    HW137781   3.115   3.705  15.947  0.0113  0.1902  0.2240
 8774SOL    HW237782   3.219   3.818  15.978 -0.5139  1.3484 -0.6549
 8775SOL     OW37783   2.978   1.217   6.515 -0.2218  0.1180 -0.5641
 8775SOL    HW137784   2.912   1.187   6.578  0.5806  1.5074  0.9535
 8775SOL    HW237785   2.987   1.131   6.475  0.2652 -0.1510  0.1300
 8776SOL     OW37786   4.665   1.146  17.521 -0.2053  0.5783 -0.2342
 8776SOL    HW137787   4.579   1.122  17.487  0.7511  0.6933 -2.7484
 8776SOL    HW237788   4.683   1.212  17.454 -0.3093  1.0219  0.1751
 8777SOL     OW37789   1.203   1.902   0.669  0.2052 -0.5509  0.9262
 8777SOL    HW137790   1.297   1.915   0.684  0.4983  0.1984 -1.4628
 8777SOL    HW237791   1.211   1.860   0.583 -1.4538 -0.3236  0.6567
 8778SOL     OW37792   2.795   2.835  17.189  0.1036  0.0129  0.1004
 8778SOL    HW137793   2.797   2.741  17.203 -0.0437 -0.1342 -0.8756
 8778SOL    HW237794   2.850   2.856  17.114  2.4819 -1.8319  1.3319
 8779SOL     OW37795   1.329   2.307   0.665  0.3734 -0.0849 -0.2594
 8779SOL    HW137796   1.334   2.214   0.641 -0.8603 -0.3571  0.5718
 8779SOL    HW237797   1.353   2.347   0.581 -0.3385  0.2080 -0.3237
 8780SOL     OW37798   3.741   0.997   2.526  0.3138 -0.1398 -0.4193
 8780SOL    HW137799   3.831   1.025   2.510  0.6640 -0.2592  1.3425
 8780SOL    HW237800   3.755   0.926   2.589 -0.2991  2.8637  3.0817
 8781SOL     OW37801   2.196   1.312   9.613 -0.4074 -0.1573  0.2178
 8781SOL    HW137802   2.249   1.366   9.553  0.5274 -0.6136  0.6369
 8781SOL    HW237803   2.184   1.364   9.692  0.2037  0.4907 -0.1129
 8782SOL     OW37804   0.323   3.256   7.666  0.2180  0.1474 -0.3214
 8782SOL    HW137805   0.257   3.324   7.653  1.2648  1.0856 -0.6239
 8782SOL    HW237806   0.339   3.236   7.574  1.9066 -1.3941  0.2999
 8783SOL     OW37807   1.706   0.336   9.914 -0.3312  0.1112 -0.1853
 8783SOL    HW137808   1.652   0.343   9.993 -0.1119 -0.9516  0.0525
 8783SOL    HW237809   1.731   0.425   9.891  0.2461 -0.6306 -2.3707
 8784SOL     OW37810   0.218   2.608   4.414 -0.1400 -0.1457 -0.4049
 8784SOL    HW137811   0.293   2.665   4.396  0.0362 -0.5534 -0.9520
 8784SOL    HW237812   0.242   2.570   4.499  0.0220  1.7324  0.3929
 8785SOL     OW37813   4.648   0.881  10.154 -0.4699  0.2784  0.3431
 8785SOL    HW137814   4.588   0.823  10.108 -1.7490  1.1732  0.8695
 8785SOL    HW237815   0.009   0.845  10.116 -1.0794 -1.0219  0.2812
 8786SOL     OW37816   1.741   0.287  12.963  0.3234 -0.3339 -0.6497
 8786SOL    HW137817   1.745   0.356  13.029 -0.5673  1.4487 -2.4598
 8786SOL    HW237818   1.717   0.328  12.880 -2.1320 -0.5043 -0.0321
 8787SOL     OW37819   2.013   4.394   3.361  0.4976  0.1326 -0.9570
 8787SOL    HW137820   1.941   4.425   3.305 -0.5069  1.3034  0.9959
 8787SOL    HW237821   2.094   4.420   3.317  0.0012  1.0700 -1.3350
 8788SOL     OW37822   1.174   2.055  13.169 -0.4055  0.3274  0.7356
 8788SOL    HW137823   1.128   2.077  13.250  1.2764  1.6573  1.3163
 8788SOL    HW237824   1.222   1.973  13.180  0.0863  0.5900  0.5034
 8789SOL     OW37825   1.026   2.597   7.892 -0.3610 -0.0302 -0.3226
 8789SOL    HW137826   0.966   2.587   7.818  1.1654 -2.8204 -1.2063
 8789SOL    HW237827   1.096   2.650   7.855 -1.4515  1.1426 -0.6977
 8790SOL     OW37828   4.345   1.518   8.355  0.6367  0.3590 -0.8184
 8790SOL    HW137829   4.265   1.466   8.348  0.4129  0.6069 -0.0218
 8790SOL    HW237830   4.359   1.521   8.449  1.9272 -0.6281 -0.9828
 8791SOL     OW37831   2.973   4.625   0.749  0.5156 -0.4300 -0.7018
 8791SOL    HW137832   3.068   4.622   0.737  0.5655  1.4801 -0.7822
 8791SOL    HW237833   2.969   4.642   0.843 -0.9440  1.6484 -1.1532
 8792SOL     OW37834   3.229   4.423   1.042 -0.2586  0.5243  0.5670
 8792SOL    HW137835   3.252   4.421   1.135 -0.5622  1.1095  0.6482
 8792SOL    HW237836   3.254   4.513   1.023 -0.3494 -0.1554 -2.8930
 8793SOL     OW37837   1.497   0.661   5.374  0.3834  0.1551  0.5718
 8793SOL    HW137838   1.518   0.568   5.384 -0.4513  0.1103  2.0024
 8793SOL    HW237839   1.471   0.671   5.282  1.2844  2.1432  0.5478
 8794SOL     OW37840   3.493   0.992   1.065 -0.2196  0.1282 -0.0495
 8794SOL    HW137841   3.554   1.065   1.061  0.5566 -0.4548  1.2369
 8794SOL    HW237842   3.524   0.930   0.999 -1.4902  0.1244 -0.6438
 8795SOL     OW37843   1.945   0.142   4.124  0.3397  0.3137  0.4040
 8795SOL    HW137844   1.964   0.219   4.071 -1.6325  1.7278  1.7485
 8795SOL    HW237845   1.862   0.158   4.170 -0.7402  1.0560 -1.7783
 8796SOL     OW37846   0.296   1.291  15.902  0.4136 -0.1807  0.5840
 8796SOL    HW137847   0.267   1.235  15.830 -0.0566  2.5937 -1.3710
 8796SOL    HW237848   0.386   1.292  15.868 -0.2883  0.0272 -1.2304
 8797SOL     OW37849   4.078   4.450   6.732 -0.0003  0.2611 -0.0773
 8797SOL    HW137850   4.090   4.452   6.637 -1.5781 -2.6971 -0.3378
 8797SOL    HW237851   4.048   4.362   6.754 -1.1369  0.3300 -1.3303
 8798SOL     OW37852   0.523   2.340   7.293 -0.2630 -0.4211 -0.2773
 8798SOL    HW137853   0.463   2.365   7.363 -0.1068  0.0323 -0.3126
 8798SOL    HW237854   0.467   2.355   7.217 -0.8065 -0.0117  0.2101
 8799SOL     OW37855   1.606   2.832   3.747  0.3494 -0.1829 -0.0403
 8799SOL    HW137856   1.590   2.926   3.741 -0.4503 -0.3551 -0.6189
 8799SOL    HW237857   1.533   2.821   3.808  0.9545  2.1003  1.0759
 8800SOL     OW37858   0.576   1.983   4.043  0.4755 -0.8546 -0.0363
 8800SOL    HW137859   0.660   1.953   4.007  0.8911 -1.3779  1.3834
 8800SOL    HW237860   0.562   2.067   4.000  4.1613 -0.6899 -0.9592
 8801SOL     OW37861   3.733   1.152   8.047  0.0875  0.3241  0.0273
 8801SOL    HW137862   3.708   1.225   7.991  0.1148 -0.2834 -0.7656
 8801SOL    HW237863   3.665   1.149   8.115  0.3065  2.7842  0.3458
 8802SOL     OW37864   3.543   1.239  10.484 -0.4090 -0.2577 -0.0956
 8802SOL    HW137865   3.559   1.314  10.427 -0.1605  0.8426  1.4172
 8802SOL    HW237866   3.592   1.173  10.434  1.3912  0.5988  0.5295
 8803SOL     OW37867   1.290   1.984   4.695 -0.3266  0.5656 -0.1584
 8803SOL    HW137868   1.207   1.949   4.727 -0.6355  1.4958  0.0420
 8803SOL    HW237869   1.275   2.078   4.693  1.5685  0.8491 -1.0330
 8804SOL     OW37870   0.942   3.726   3.181  0.7572  0.2094  0.2565
 8804SOL    HW137871   0.952   3.660   3.112 -0.0460 -1.7901  2.0630
 8804SOL    HW237872   1.009   3.786   3.150 -1.5491  2.6629 -0.0408
 8805SOL     OW37873   4.032   2.170   3.865  0.0589 -0.4048 -0.3168
 8805SOL    HW137874   3.941   2.158   3.839 -0.7914  0.0266  2.3872
 8805SOL    HW237875   4.048   2.107   3.936  0.6074 -0.1107 -0.1814
 8806SOL     OW37876   1.563   3.174   5.633 -0.0400  0.4812 -0.0797
 8806SOL    HW137877   1.549   3.266   5.609 -2.1717  0.7997  2.4126
 8806SOL    HW237878   1.547   3.141   5.544  2.3585 -1.7990  0.3304
 8807SOL     OW37879   4.343   1.039   3.553 -0.4432  0.2430  0.5322
 8807SOL    HW137880   4.288   1.014   3.628  1.7785 -3.5222  0.9448
 8807SOL    HW237881   4.285   1.089   3.496 -1.8491 -2.8397 -0.7291
 8808SOL     OW37882   3.472   2.730   9.671 -0.7092  0.0137  1.1040
 8808SOL    HW137883   3.494   2.658   9.729 -1.9753 -0.8086  0.5655
 8808SOL    HW237884   3.417   2.786   9.726 -0.9803  0.9614 -0.1135
 8809SOL     OW37885   4.069   2.632   9.704  0.7262  0.7532 -0.1140
 8809SOL    HW137886   4.079   2.727   9.709 -1.7017  0.9373  1.6781
 8809SOL    HW237887   4.013   2.616   9.780 -0.4253  2.2510 -0.6456
 8810SOL     OW37888   4.381   1.845   4.587  0.2860 -0.2911 -0.4488
 8810SOL    HW137889   4.307   1.791   4.615 -0.9591  1.9175  0.5387
 8810SOL    HW237890   4.452   1.785   4.563  0.8576  0.5410 -0.8360
 8811SOL     OW37891   0.902   1.682   8.421  0.3945 -0.5351  0.5308
 8811SOL    HW137892   0.923   1.589   8.414  0.4087 -0.4738 -0.2062
 8811SOL    HW237893   0.865   1.701   8.335 -0.0614 -0.5199  0.7311
 8812SOL     OW37894   1.248   0.771   0.431 -0.3683  0.6982 -0.6328
 8812SOL    HW137895   1.329   0.740   0.392 -0.8091 -1.1114 -0.1360
 8812SOL    HW237896   1.278   0.834   0.496 -0.1367 -0.7808  0.6907
 8813SOL     OW37897   1.526   0.118  15.396  0.1026  0.0335  0.6378
 8813SOL    HW137898   1.529   0.023  15.385  0.1643  0.0463  0.5410
 8813SOL    HW237899   1.481   0.156  15.321 -0.4997 -0.0915  0.9359
 8814SOL     OW37900   0.669   1.875   1.713 -0.1175  0.0056  0.2641
 8814SOL    HW137901   0.738   1.898   1.774  0.9800 -0.8715 -0.6373
 8814SOL    HW237902   0.593   1.914   1.756  1.1754  1.3000  1.3711
 8815SOL     OW37903   0.247   0.908   5.030  0.1259  0.2773  0.0296
 8815SOL    HW137904   0.284   0.958   5.103  4.6755 -1.0948 -1.3730
 8815SOL    HW237905   0.173   0.874   5.081 -0.9697  3.2381  0.3869
 8816SOL     OW37906   1.410   0.677   6.870 -0.6326 -0.2227 -0.3189
 8816SOL    HW137907   1.325   0.669   6.912 -0.9574 -0.2802 -0.9903
 8816SOL    HW237908   1.465   0.689   6.948 -1.1379  1.4912 -0.2281
 8817SOL     OW37909   0.883   1.145   2.788  0.2360  0.3781  0.1928
 8817SOL    HW137910   0.890   1.056   2.822 -2.4205  0.5051  1.0770
 8817SOL    HW237911   0.910   1.206   2.857 -0.5187  1.0795 -0.1430
 8818SOL     OW37912   2.993   2.817   2.847 -0.3436  0.7868  0.2776
 8818SOL    HW137913   3.046   2.873   2.905 -0.0720 -0.9137  1.6926
 8818SOL    HW237914   3.061   2.788   2.787 -0.3243  0.9318  0.2292
 8819SOL     OW37915   2.007   4.528   9.656 -0.2097 -0.7678  0.2465
 8819SOL    HW137916   1.958   4.465   9.710  0.0079 -1.2588 -0.1231
 8819SOL    HW237917   2.077   4.549   9.717  1.0507  0.3596 -1.5915
 8820SOL     OW37918   0.153   0.563   4.948  0.6774 -0.2065 -0.1867
 8820SOL    HW137919   0.167   0.470   4.927  0.4588 -0.9432  2.8915
 8820SOL    HW237920   0.108   0.590   4.868 -0.8251 -1.3255  0.2721
 8821SOL     OW37921   3.053   3.988   2.990 -0.0665  0.1956 -0.3619
 8821SOL    HW137922   2.973   4.032   2.961 -0.2792 -0.3648 -0.6295
 8821SOL    HW237923   3.053   3.996   3.085 -1.1961 -0.6747 -0.2940
 8822SOL     OW37924   3.720   2.213   2.739  0.5842 -0.2956 -0.5553
 8822SOL    HW137925   3.676   2.152   2.681 -0.7667  2.5139 -2.4978
 8822SOL    HW237926   3.790   2.245   2.682 -1.2032  0.1999 -2.4266
 8823SOL     OW37927   1.020   2.929   6.044  0.6058 -0.5224  0.2455
 8823SOL    HW137928   0.956   2.966   6.105  1.3039  0.0054  0.6624
 8823SOL    HW237929   0.979   2.843   6.034  0.1445 -0.4039  1.0562
 8824SOL     OW37930   4.315   4.141   4.838 -0.5421  0.0680 -0.6010
 8824SOL    HW137931   4.320   4.141   4.742  0.0930 -1.8814 -0.5687
 8824SOL    HW237932   4.257   4.066   4.849 -2.4858  1.5739 -0.6110
 8825SOL     OW37933   1.841   4.468   3.162  0.4355 -0.0317 -0.0188
 8825SOL    HW137934   1.785   4.509   3.096  0.0277 -0.3020  0.1621
 8825SOL    HW237935   1.925   4.460   3.116 -0.8395 -1.5951 -2.1064
 8826SOL     OW37936   4.369   3.356   7.293  0.5309 -0.1979 -0.7064
 8826SOL    HW137937   4.361   3.301   7.371  0.3071  1.6546  0.5824
 8826SOL    HW237938   4.291   3.334   7.243 -0.8623  0.6688  1.0969
 8827SOL     OW37939   0.072   2.697   4.781 -0.2569  0.0127  0.5873
 8827SOL    HW137940   0.160   2.677   4.813  0.2654  1.9985  0.4541
 8827SOL    HW237941   0.026   2.746   4.849 -1.7151 -0.4777 -0.0439
 8828SOL     OW37942   3.191   0.221   8.584 -0.0642  0.1826  0.6159
 8828SOL    HW137943   3.136   0.201   8.508 -1.2228 -0.3975  1.5845
 8828SOL    HW237944   3.119   0.227   8.648 -0.4206 -1.1722  0.3545
 8829SOL     OW37945   1.399   4.521   6.869 -0.1467 -0.3754 -0.2453
 8829SOL    HW137946   1.398   4.609   6.908 -0.0948 -1.6976  2.7792
 8829SOL    HW237947   1.313   4.491   6.899 -0.6143  0.3595 -0.8411
 8830SOL     OW37948   2.954   3.863   2.448 -0.0307  0.2214  0.1318
 8830SOL    HW137949   2.876   3.918   2.459  0.7545  1.1574  1.0563
 8830SOL    HW237950   2.980   3.907   2.367  0.2246  2.3718  1.3662
 8831SOL     OW37951   3.207   4.403   7.006 -0.1853 -0.0300 -0.1566
 8831SOL    HW137952   3.206   4.400   7.102  0.9456  1.1566 -0.1212
 8831SOL    HW237953   3.187   4.310   6.996 -1.1612 -0.2647  3.7299
 8832SOL     OW37954   2.163   3.793   6.134  0.3282 -0.3761 -0.0925
 8832SOL    HW137955   2.114   3.872   6.112  0.7716  0.2382  1.1361
 8832SOL    HW237956   2.112   3.723   6.092  1.7164 -0.8081 -1.0799
 8833SOL     OW37957   0.679   0.139   0.246  0.2341  0.6161 -0.5763
 8833SOL    HW137958   0.657   0.134   0.339  1.0879 -0.2057 -0.4240
 8833SOL    HW237959   0.596   0.174   0.213 -0.5719  0.7554  1.6170
 8834SOL     OW37960   2.832   3.555   5.570  0.0335  0.3907  0.1219
 8834SOL    HW137961   2.851   3.648   5.558  3.2127 -0.6347 -2.7992
 8834SOL    HW237962   2.786   3.531   5.489 -0.0844 -1.2870  0.6672
 8835SOL     OW37963   1.783   1.966  15.630 -0.4379 -0.6429 -0.6030
 8835SOL    HW137964   1.692   1.977  15.602 -1.0870  1.3038  2.2756
 8835SOL    HW237965   1.824   1.962  15.544  2.6795 -1.0662  0.8818
 8836SOL     OW37966   1.097   0.103   1.055 -0.0401  0.4457 -0.5539
 8836SOL    HW137967   1.109   0.196   1.074  0.2078  0.0055  1.4404
 8836SOL    HW237968   1.109   0.069   1.144  0.2625  1.3947 -0.2311
 8837SOL     OW37969   2.862   2.616   4.531 -0.1492  0.0677 -0.1472
 8837SOL    HW137970   2.842   2.630   4.624 -1.6958  1.3748 -0.6578
 8837SOL    HW237971   2.953   2.645   4.528 -0.3327  0.5630 -0.9157
 8838SOL     OW37972   3.411   0.825   6.228  0.1506 -0.4575  0.1372
 8838SOL    HW137973   3.492   0.875   6.242 -0.3369  1.0711 -2.5967
 8838SOL    HW237974   3.433   0.756   6.166  1.0334 -0.7144  0.7397
 8839SOL     OW37975   4.145   2.577   4.838 -0.2418  0.5013 -0.0869
 8839SOL    HW137976   4.096   2.646   4.881  2.5589  0.8795  2.4995
 8839SOL    HW237977   4.232   2.581   4.879  0.1516  0.0989 -0.8681
 8840SOL     OW37978   1.615   3.994   9.462  0.2548 -0.0079  0.0383
 8840SOL    HW137979   1.608   3.939   9.384  0.4017 -0.5249  0.3920
 8840SOL    HW237980   1.526   4.027   9.473  0.3383 -0.5181  2.1366
 8841SOL     OW37981   1.580   0.216  16.233 -0.4817  0.1251 -0.3245
 8841SOL    HW137982   1.486   0.232  16.221 -0.6905  0.2753  1.5663
 8841SOL    HW237983   1.612   0.220  16.143  0.2580  2.5199  0.0418
 8842SOL     OW37984   1.152   1.080   4.695 -0.2499 -0.5632  0.4716
 8842SOL    HW137985   1.178   0.997   4.654  1.9884 -0.3379  1.4378
 8842SOL    HW237986   1.222   1.139   4.668 -1.0670 -0.3036 -1.1107
 8843SOL     OW37987   4.082   1.309   0.610 -0.0530  0.2847 -0.1899
 8843SOL    HW137988   4.071   1.275   0.522  0.5075 -1.7558  0.5413
 8843SOL    HW237989   4.177   1.320   0.610  0.0584 -0.6617  0.5143
 8844SOL     OW37990   2.050   3.880  13.303 -0.1004 -0.4529 -0.2417
 8844SOL    HW137991   2.116   3.817  13.275  0.8669  1.1672 -1.6779
 8844SOL    HW237992   2.002   3.829  13.368  0.6877  0.4687  1.0695
 8845SOL     OW37993   0.749   4.405   2.621 -0.1671 -0.4199  0.5807
 8845SOL    HW137994   0.807   4.334   2.593 -1.6003 -1.7555  1.0194
 8845SOL    HW237995   0.684   4.355   2.669 -1.6017  1.8454  0.9897
 8846SOL     OW37996   3.685   0.638  16.093  0.1618  0.3795  0.2034
 8846SOL    HW137997   3.651   0.710  16.041 -0.1787 -1.0628 -1.6041
 8846SOL    HW237998   3.741   0.685  16.155  0.1352 -3.4405  3.1891
 8847SOL     OW37999   2.434   0.826   5.194 -0.2702 -0.3520 -0.2434
 8847SOL    HW138000   2.444   0.751   5.135 -0.2513 -0.2596 -0.3582
 8847SOL    HW238001   2.475   0.898   5.145 -4.0192 -0.1511 -3.1325
 8848SOL     OW38002   2.614   1.562   3.730 -0.0362 -0.0315 -0.6354
 8848SOL    HW138003   2.532   1.593   3.771 -2.3753 -1.6117 -4.1416
 8848SOL    HW238004   2.653   1.503   3.793 -1.4268 -0.3241 -0.0499
 8849SOL     OW38005   4.567   0.791   7.261 -0.4391  0.0053 -0.3886
 8849SOL    HW138006   4.521   0.825   7.185 -2.8270 -0.9327  0.6111
 8849SOL    HW238007   4.528   0.704   7.262  0.7326 -0.5158 -0.1621
 8850SOL     OW38008   4.298   2.551  12.674  0.4519 -0.4735 -0.1887
 8850SOL    HW138009   4.260   2.588  12.595  0.2136 -1.2993 -0.4566
 8850SOL    HW238010   4.351   2.624  12.708 -0.1352  0.0718 -0.4628
 8851SOL     OW38011   0.701   2.537  12.411 -0.0020 -0.0989  0.3976
 8851SOL    HW138012   0.730   2.465  12.467  0.0626  0.8772  1.6298
 8851SOL    HW238013   0.778   2.548  12.356  1.2309  0.4377  2.2231
 8852SOL     OW38014   4.349   0.003  13.532 -0.0835  0.1658 -0.2420
 8852SOL    HW138015   4.388   0.044  13.455  0.5682  0.6673  0.3460
 8852SOL    HW238016   4.431   4.709  13.580  0.0637  1.9425  0.0008
 8853SOL     OW38017   0.764   0.415  15.673 -0.1803  0.0755  0.1530
 8853SOL    HW138018   0.823   0.427  15.748  0.7117 -0.2927 -0.4909
 8853SOL    HW238019   0.813   0.357  15.614  0.3216  0.4509  0.2037
 8854SOL     OW38020   0.573   2.439   3.196 -0.5890 -0.2146 -0.5841
 8854SOL    HW138021   0.646   2.379   3.214 -1.0279 -0.5081  0.2641
 8854SOL    HW238022   0.518   2.369   3.162 -0.4689 -0.6307  0.0658
 8855SOL     OW38023   1.781   3.821   3.006 -0.1833 -0.0923  0.3438
 8855SOL    HW138024   1.813   3.908   3.032  0.0843  0.1264 -0.6984
 8855SOL    HW238025   1.725   3.851   2.934  1.2696  3.2954  0.6056
 8856SOL     OW38026   3.913   4.009  11.072 -0.1147 -0.1542 -0.0854
 8856SOL    HW138027   3.855   4.064  11.125 -0.3582 -2.0649  1.6233
 8856SOL    HW238028   3.889   4.037  10.984  1.8374 -0.4027 -0.7009
 8857SOL     OW38029   2.773   4.571   8.413  0.0554 -0.0540  0.0148
 8857SOL    HW138030   2.725   4.509   8.359  0.7566 -1.8606  1.4433
 8857SOL    HW238031   2.857   4.550   8.371 -0.9262 -3.0902 -0.4157
 8858SOL     OW38032   4.286   0.146   2.522 -0.1269  0.0604  0.2688
 8858SOL    HW138033   4.285   0.239   2.498  0.8405 -0.4834 -1.8850
 8858SOL    HW238034   4.340   0.154   2.601  1.1679 -1.7539 -0.4487
 8859SOL     OW38035   3.853   1.254   3.426 -0.0383  0.6012  0.4120
 8859SOL    HW138036   3.802   1.284   3.351  0.2595 -0.3122 -0.1622
 8859SOL    HW238037   3.786   1.225   3.488  0.4746 -1.2288  0.1194
 8860SOL     OW38038   4.107   3.165  13.590 -0.3117 -0.6458  0.5311
 8860SOL    HW138039   4.134   3.186  13.501  0.2244  0.3454  0.9238
 8860SOL    HW238040   4.119   3.070  13.597  0.2171 -0.5959  0.2863
 8861SOL     OW38041   1.189   3.425  17.071  0.4652 -0.0386 -0.0083
 8861SOL    HW138042   1.152   3.338  17.087  2.5940 -1.1470 -1.2443
 8861SOL    HW238043   1.277   3.411  17.105 -0.5402  0.0536  2.6007
 8862SOL     OW38044   1.175   4.069   3.886  0.2109  0.1044 -0.1605
 8862SOL    HW138045   1.158   3.977   3.867 -1.7665  0.3392  0.4148
 8862SOL    HW238046   1.260   4.063   3.929  0.0654 -0.4955  0.0392
 8863SOL     OW38047   4.710   2.949   1.137 -0.0854  0.2374  0.3508
 8863SOL    HW138048   0.026   3.033   1.104  1.3176  0.2542  1.8729
 8863SOL    HW238049   0.030   2.960   1.224 -2.6670 -0.1067  1.5378
 8864SOL     OW38050   2.448   3.136   1.769  0.1671 -0.2549  0.0797
 8864SOL    HW138051   2.408   3.220   1.790  2.2028  0.4955  1.0477
 8864SOL    HW238052   2.537   3.165   1.750 -0.4405  2.2230  1.1079
 8865SOL     OW38053   0.245   2.926   6.385  0.2916  0.1118  0.0473
 8865SOL    HW138054   0.193   2.862   6.338 -0.1260  0.9474 -0.6435
 8865SOL    HW238055   0.195   3.007   6.381 -0.6886 -0.3943  1.9953
 8866SOL     OW38056   1.591   1.078   6.769 -0.1315 -0.3031 -0.4265
 8866SOL    HW138057   1.637   1.012   6.820  3.9153  0.7700 -2.6510
 8866SOL    HW238058   1.510   1.028   6.758 -0.7066  1.1165 -2.6617
 8867SOL     OW38059   1.411   1.339  17.329  0.6238  0.5656 -0.2081
 8867SOL    HW138060   1.338   1.342  17.267 -0.9367  0.7244  1.6623
 8867SOL    HW238061   1.451   1.252  17.321 -2.1809 -0.6853 -0.6731
 8868SOL     OW38062   0.532   1.620   3.073  0.2080  0.3687  0.5538
 8868SOL    HW138063   0.494   1.660   2.995  0.8486 -0.6169 -0.2725
 8868SOL    HW238064   0.478   1.542   3.088  0.3617 -0.2618 -2.2540
 8869SOL     OW38065   0.184   1.524   6.485  0.1880  0.1499  0.4110
 8869SOL    HW138066   0.159   1.432   6.479 -0.6730  0.5433 -2.2645
 8869SOL    HW238067   0.141   1.559   6.407 -0.1656  0.2625  0.6599
 8870SOL     OW38068   1.344   3.655   9.598  0.5227  0.1362 -0.0757
 8870SOL    HW138069   1.395   3.620   9.670  1.6971  0.9508 -0.5030
 8870SOL    HW238070   1.298   3.575   9.572  0.3762 -0.7808  3.0891
 8871SOL     OW38071   3.155   0.073   2.515 -0.1306 -0.1915 -0.0591
 8871SOL    HW138072   3.229   0.133   2.505 -0.6633  0.4540 -0.1734
 8871SOL    HW238073   3.096   0.117   2.577 -0.3948 -1.7059  0.7649
 8872SOL     OW38074   4.517   1.751   9.896 -0.7644 -0.2422  0.2031
 8872SOL    HW138075   4.583   1.751   9.965  0.6215 -1.0856 -1.1467
 8872SOL    HW238076   4.446   1.805   9.933 -0.0845 -0.3506  1.6639
 8873SOL     OW38077   0.232   0.774  16.052  0.4575  0.3225  0.8261
 8873SOL    HW138078   0.216   0.821  16.134 -0.3349  0.9081  0.3423
 8873SOL    HW238079   0.173   0.701  16.070 -0.6047  0.7707 -0.8325
 8874SOL     OW38080   2.783   0.053  11.187  0.2742 -0.3775 -0.1802
 8874SOL    HW138081   2.810   0.137  11.224  1.3984 -0.1468 -1.5006
 8874SOL    HW238082   2.704   0.093  11.151 -0.6190 -0.3149  1.8721
 8875SOL     OW38083   1.870   0.971   7.403 -0.1601  0.4916 -0.1502
 8875SOL    HW138084   1.909   1.044   7.451 -3.3037  2.2262 -0.2214
 8875SOL    HW238085   1.814   0.937   7.472  1.3181  1.7776  1.6787
 8876SOL     OW38086   1.178   3.104   3.028 -0.1955  0.0791 -0.6169
 8876SOL    HW138087   1.160   3.018   3.067  2.0218 -1.2382 -2.5455
 8876SOL    HW238088   1.146   3.167   3.093  2.5161  0.6537  0.1470
 8877SOL     OW38089   1.537   4.210   5.943  0.7218 -0.3379  1.1668
 8877SOL    HW138090   1.626   4.225   5.975  0.9553  1.4211 -0.3262
 8877SOL    HW238091   1.534   4.288   5.888  1.0357  0.8230  2.7779
 8878SOL     OW38092   3.139   0.526   3.613 -0.2238 -0.2818 -0.2548
 8878SOL    HW138093   3.054   0.490   3.586 -0.7058  0.1609  0.6661
 8878SOL    HW238094   3.144   0.597   3.549 -1.9076  0.7893  0.7794
 8879SOL     OW38095   4.440   2.098   4.293 -0.1053  0.2864 -0.5140
 8879SOL    HW138096   4.455   2.046   4.214  0.3489 -1.6783  0.8495
 8879SOL    HW238097   4.520   2.080   4.343 -1.2483 -0.0160  1.2153
 8880SOL     OW38098   2.351   1.182  11.836 -0.3502 -0.4945 -0.2539
 8880SOL    HW138099   2.387   1.263  11.871 -1.0158 -1.0187  1.6510
 8880SOL    HW238100   2.322   1.142  11.917  0.7936 -0.1113  0.3458
 8881SOL     OW38101   0.402   3.449   4.496 -0.2092  0.4430  0.1966
 8881SOL    HW138102   0.451   3.455   4.578  1.7815  1.7688 -1.0992
 8881SOL    HW238103   0.320   3.420   4.535  1.0674 -1.9642  1.1269
 8882SOL     OW38104   0.176   4.464  13.507  0.5170  0.0357  0.1749
 8882SOL    HW138105   0.242   4.446  13.574 -0.8105 -0.3293  1.3831
 8882SOL    HW238106   0.089   4.448  13.545  0.5937  0.3770  0.5024
 8883SOL     OW38107   0.355   3.827   8.565 -0.2550  0.2991 -0.0191
 8883SOL    HW138108   0.307   3.746   8.583 -0.9999  1.2910  2.4375
 8883SOL    HW238109   0.344   3.865   8.652 -0.5954  0.6196 -0.2017
 8884SOL     OW38110   2.807   0.401  14.024 -0.4607  0.2860 -0.2161
 8884SOL    HW138111   2.799   0.316  14.068  1.7726 -0.3840 -1.1236
 8884SOL    HW238112   2.737   0.446  14.070 -0.2174  3.0676 -2.5919
 8885SOL     OW38113   2.744   1.752   5.560  0.0234 -0.7156 -0.2107
 8885SOL    HW138114   2.732   1.837   5.517  1.6829 -0.2985  0.1414
 8885SOL    HW238115   2.656   1.716   5.560  0.3897 -1.6205  0.9797
 8886SOL     OW38116   1.750   2.825   8.968  0.1500  0.2453 -0.3832
 8886SOL    HW138117   1.718   2.908   9.002  1.5716  0.5393  0.2206
 8886SOL    HW238118   1.837   2.818   9.007 -0.1907 -2.0470 -0.0296
 8887SOL     OW38119   0.078   3.181  13.967 -0.0501 -0.3742 -0.1922
 8887SOL    HW138120   0.110   3.233  13.893 -2.2175  0.9072 -0.2492
 8887SOL    HW238121   0.051   3.254  14.023 -2.1170  0.2759 -2.0118
 8888SOL     OW38122   4.222   3.775  16.414 -0.0705 -0.2209 -0.2287
 8888SOL    HW138123   4.296   3.833  16.433 -2.2833  1.8803  1.8840
 8888SOL    HW238124   4.229   3.708  16.481 -0.5249 -1.5444 -1.4984
 8889SOL     OW38125   4.324   2.694   0.800 -1.0310  0.1142  0.6791
 8889SOL    HW138126   4.282   2.650   0.727  0.5638  1.7983 -1.2679
 8889SOL    HW238127   4.322   2.631   0.872 -1.3690 -0.6115  0.0351
 8890SOL     OW38128   3.457   4.280   3.194 -0.1363 -0.4916  0.5106
 8890SOL    HW138129   3.536   4.280   3.140 -0.1813 -0.4286  0.4444
 8890SOL    HW238130   3.484   4.251   3.281  0.9299  0.7421  0.5733
 8891SOL     OW38131   3.324   1.152  14.381  0.5008 -0.0604 -1.0439
 8891SOL    HW138132   3.408   1.196  14.376  1.0874 -1.0675 -0.1565
 8891SOL    HW238133   3.328   1.110  14.295 -2.4286  0.1932 -1.2908
 8892SOL     OW38134   1.770   4.579   6.164  0.1379  0.0271 -0.1164
 8892SOL    HW138135   1.789   4.543   6.251 -2.1080 -1.8449 -0.4175
 8892SOL    HW238136   1.854   4.625   6.161 -0.5706  1.3178 -0.1860
 8893SOL     OW38137   1.126   0.831   1.352  0.2676 -0.0820 -0.1122
 8893SOL    HW138138   1.147   0.924   1.357 -0.8932  0.3468 -3.2052
 8893SOL    HW238139   1.182   0.788   1.416  2.4307  1.0810 -1.2261
 8894SOL     OW38140   0.590   0.361   1.115  0.1717 -0.5286  0.2193
 8894SOL    HW138141   0.567   0.287   1.171  0.1095  0.9146  2.1139
 8894SOL    HW238142   0.685   0.351   1.117  0.0172 -1.6334  1.5999
 8895SOL     OW38143   1.026   1.829   6.267 -0.3529  0.1979  0.0092
 8895SOL    HW138144   0.953   1.890   6.280 -0.2599  0.2995  0.0512
 8895SOL    HW238145   0.970   1.751   6.269 -0.4473  0.2711  0.2628
 8896SOL     OW38146   1.395   2.531   1.684  0.0723  0.2410 -0.5774
 8896SOL    HW138147   1.327   2.487   1.736  2.1976 -0.6773  1.3993
 8896SOL    HW238148   1.441   2.577   1.754 -0.6350 -0.1752  0.1613
 8897SOL     OW38149   4.448   4.110  12.165 -0.4909  0.1992  0.2006
 8897SOL    HW138150   4.427   4.096  12.257 -1.4272 -1.4303 -0.2544
 8897SOL    HW238151   4.541   4.095  12.179 -0.6049  0.9136  1.7463
 8898SOL     OW38152   2.582   0.060   6.241  0.6724 -0.5653 -0.2165
 8898SOL    HW138153   2.638   0.133   6.268 -0.7072  0.2821  0.3601
 8898SOL    HW238154   2.648   4.711   6.231  2.2858  0.9597  0.0942
 8899SOL     OW38155   3.737   3.854  11.699  0.5345  0.9789 -0.1936
 8899SOL    HW138156   3.749   3.896  11.785 -2.5279  1.6524 -0.1054
 8899SOL    HW238157   3.765   3.927  11.643  1.4060  0.0974 -0.9036
 8900SOL     OW38158   3.640   1.537  14.325 -0.2752 -0.5198 -0.1570
 8900SOL    HW138159   3.578   1.498  14.263 -0.8856 -1.6922  1.1939
 8900SOL    HW238160   3.720   1.484  14.317  1.2546  2.2298 -3.1196
 8901SOL     OW38161   4.214   0.784  16.904  0.0417  0.0451 -0.0363
 8901SOL    HW138162   4.158   0.861  16.890  0.0123  0.1946  0.9157
 8901SOL    HW238163   4.286   0.801  16.844 -0.0866 -1.6736 -0.6745
 8902SOL     OW38164   0.842   3.494   6.158 -0.4856 -0.1359  0.1678
 8902SOL    HW138165   0.886   3.578   6.170  2.2500 -1.5452 -0.0817
 8902SOL    HW238166   0.901   3.443   6.103 -1.7296  0.3064 -1.6085
 8903SOL     OW38167   4.476   3.432   5.144 -0.2935  0.6657 -0.2365
 8903SOL    HW138168   4.544   3.368   5.122 -1.8745 -1.8151  2.0732
 8903SOL    HW238169   4.472   3.419   5.238  0.7488 -1.9572 -0.5514
 8904SOL     OW38170   1.527   1.782  10.997 -0.5717  0.2068 -0.5662
 8904SOL    HW138171   1.492   1.694  11.014 -0.0183  0.0537 -0.2216
 8904SOL    HW238172   1.454   1.818  10.948 -0.9378  0.2521  0.0092
 8905SOL     OW38173   1.775   1.844   4.773  0.3713 -0.4525 -0.6494
 8905SOL    HW138174   1.736   1.800   4.697  0.1522 -0.8923 -0.2826
 8905SOL    HW238175   1.704   1.905   4.792 -0.1143 -1.1239 -0.2721
 8906SOL     OW38176   3.124   0.417   0.921  0.5026 -0.5264 -0.3409
 8906SOL    HW138177   3.079   0.452   0.845  2.9704  1.5795 -0.8383
 8906SOL    HW238178   3.055   0.374   0.972  0.3910  0.7231  0.5601
 8907SOL     OW38179   2.428   4.110   7.672 -0.1036  0.1114 -0.0034
 8907SOL    HW138180   2.440   4.205   7.668  1.3713 -0.0774  0.1546
 8907SOL    HW238181   2.397   4.104   7.763  0.1580  0.0665  0.0826
 8908SOL     OW38182   4.141   0.504   1.881 -0.2397  0.5402 -0.0548
 8908SOL    HW138183   4.089   0.426   1.859 -0.1349  0.3947  0.2143
 8908SOL    HW238184   4.085   0.581   1.879  0.0275  0.7609  1.0302
 8909SOL     OW38185   3.665   2.879  15.088  0.3573  0.2863  0.1983
 8909SOL    HW138186   3.716   2.952  15.053  1.5400 -0.9196 -0.6044
 8909SOL    HW238187   3.741   2.832  15.122  0.6335  1.4836  1.1998
 8910SOL     OW38188   1.681   0.817   4.928 -0.0831  0.5701 -0.9742
 8910SOL    HW138189   1.759   0.781   4.971 -0.9254 -0.6717 -0.4922
 8910SOL    HW238190   1.709   0.846   4.841 -0.1798 -2.2558 -1.9582
 8911SOL     OW38191   3.272   0.217  17.173 -0.1091  0.3144 -0.1874
 8911SOL    HW138192   3.327   0.145  17.202 -0.7854 -0.2630 -0.3203
 8911SOL    HW238193   3.330   0.273  17.122  1.2969 -0.0585  1.0085
 8912SOL     OW38194   0.606   3.249   4.078  0.4366 -0.8951 -0.1266
 8912SOL    HW138195   0.535   3.194   4.043 -0.2796 -0.2462  0.2975
 8912SOL    HW238196   0.575   3.294   4.156  0.5616  0.4200 -0.8327
 8913SOL     OW38197   3.705   4.676   7.108  0.1971 -0.5880  0.0285
 8913SOL    HW138198   3.609   4.678   7.107  0.1951 -0.2640  0.6617
 8913SOL    HW238199   3.714   4.663   7.203 -1.4670  0.6068  0.3645
 8914SOL     OW38200   0.292   4.108   5.991  0.1768  0.6326  0.2218
 8914SOL    HW138201   0.359   4.176   5.984 -1.5771  2.4277  0.5933
 8914SOL    HW238202   0.334   4.034   5.948 -0.7501  0.6106 -0.6489
 8915SOL     OW38203   1.229   4.466   0.446  0.3478  0.5624 -0.2734
 8915SOL    HW138204   1.185   4.540   0.488  1.8367  0.7471  0.9610
 8915SOL    HW238205   1.295   4.514   0.397  3.6535 -1.0291  2.6429
 8916SOL     OW38206   1.453   0.471   9.842 -0.1470  0.0023 -0.2625
 8916SOL    HW138207   1.456   0.385   9.800 -3.7052 -0.4111  0.2437
 8916SOL    HW238208   1.541   0.489   9.875  0.7127  0.1374 -2.6495
 8917SOL     OW38209   0.132   0.096   5.003 -0.7270 -0.1783 -0.1386
 8917SOL    HW138210   0.063   0.124   5.063 -0.4565  1.3140 -0.5280
 8917SOL    HW238211   0.186   0.032   5.050 -0.1676 -0.0109 -0.5545
 8918SOL     OW38212   0.311   1.910  13.221 -0.5490  0.1757  0.4398
 8918SOL    HW138213   0.387   1.946  13.176 -0.7699  1.6678  1.2402
 8918SOL    HW238214   0.355   1.860  13.291  0.6833 -2.1015 -1.9647
 8919SOL     OW38215   2.547   3.158   3.905  0.4161 -0.2577 -0.6639
 8919SOL    HW138216   2.515   3.238   3.947  2.6334  0.5489 -0.5581
 8919SOL    HW238217   2.491   3.094   3.949 -1.5772  2.8490  1.3324
 8920SOL     OW38218   2.025   0.356   3.348  0.3874  0.2802  0.1336
 8920SOL    HW138219   2.005   0.446   3.324 -0.9890 -0.1102 -0.1942
 8920SOL    HW238220   2.070   0.336   3.265 -2.3267  0.8610 -1.4826
 8921SOL     OW38221   1.298   2.443  15.615 -0.3566  0.3075  0.2301
 8921SOL    HW138222   1.213   2.455  15.572 -0.2273 -2.2729 -0.6914
 8921SOL    HW238223   1.292   2.517  15.676  0.8663  1.2203 -0.7785
 8922SOL     OW38224   3.102   3.428   4.034 -0.6767  0.3517 -0.1536
 8922SOL    HW138225   3.153   3.360   3.990 -1.5609 -0.5709  0.2602
 8922SOL    HW238226   3.028   3.411   3.975  0.4818  0.2074 -1.5843
 8923SOL     OW38227   3.666   0.727   0.784 -0.5833 -0.3209  0.1066
 8923SOL    HW138228   3.697   0.653   0.732 -0.2633 -0.2222  0.1539
 8923SOL    HW238229   3.747   0.767   0.817 -0.6976 -0.6424  0.7921
 8924SOL     OW38230   0.360   0.079   1.193  0.3936 -0.4407 -0.0734
 8924SOL    HW138231   0.420   0.009   1.219 -1.4580 -0.5095  4.0703
 8924SOL    HW238232   0.281   0.029   1.172 -0.6196  1.4011 -0.5835
 8925SOL     OW38233   2.502   2.621  16.537 -0.0424 -0.6232  0.6029
 8925SOL    HW138234   2.559   2.681  16.585 -1.4308  2.0547 -1.0644
 8925SOL    HW238235   2.529   2.537  16.575  0.6312 -1.2346 -1.2280
 8926SOL     OW38236   0.515   0.019  14.424 -0.0840 -0.2404 -0.3225
 8926SOL    HW138237   0.576   4.668  14.400 -0.8362 -0.8964 -0.3108
 8926SOL    HW238238   0.431   4.703  14.395 -0.1236 -0.7670  0.4204
 8927SOL     OW38239   2.918   3.709  12.851  0.5493 -0.5652  0.4504
 8927SOL    HW138240   2.890   3.800  12.840  2.3726 -0.6043 -4.5700
 8927SOL    HW238241   2.997   3.721  12.904 -0.9364  2.9689  1.8697
 8928SOL     OW38242   1.378   4.339   6.362 -0.8894 -0.3802 -0.5108
 8928SOL    HW138243   1.345   4.282   6.431 -0.7073 -0.2594 -0.3254
 8928SOL    HW238244   1.349   4.282   6.290 -0.2783 -0.5477 -0.6295
 8929SOL     OW38245   1.327   3.590   3.724  0.3536  0.0118  0.0369
 8929SOL    HW138246   1.381   3.646   3.669 -1.1218  1.0193 -0.3812
 8929SOL    HW238247   1.274   3.546   3.658 -0.0284  1.3689 -0.5698
 8930SOL     OW38248   4.411   2.792  15.851  0.4161  0.3506 -0.1211
 8930SOL    HW138249   4.503   2.772  15.871 -0.1968 -0.9846  1.4106
 8930SOL    HW238250   4.389   2.822  15.940  1.0907 -0.2363  0.2437
 8931SOL     OW38251   3.816   1.847   8.606  0.5892 -0.0651  0.4896
 8931SOL    HW138252   3.839   1.850   8.513 -1.3022  0.4565  0.0324
 8931SOL    HW238253   3.846   1.937   8.621 -0.8654  0.9971 -2.8726
 8932SOL     OW38254   1.691   2.804   8.405 -0.0721 -0.2163  0.0787
 8932SOL    HW138255   1.692   2.872   8.472  0.6867 -0.5182  0.3779
 8932SOL    HW238256   1.749   2.837   8.336  1.2508 -3.8609 -0.5557
 8933SOL     OW38257   3.384   2.938   3.712 -0.5102 -0.5159 -0.0589
 8933SOL    HW138258   3.414   2.876   3.645 -0.8899 -0.9855  0.2162
 8933SOL    HW238259   3.431   3.018   3.687 -0.7116 -0.2918  0.2948
 8934SOL     OW38260   4.570   3.296   7.133  0.1488  0.5540  0.3077
 8934SOL    HW138261   4.501   3.338   7.185 -0.2175  0.6498 -0.2467
 8934SOL    HW238262   4.527   3.217   7.100 -1.5738  2.3453 -1.7817
 8935SOL     OW38263   1.030   4.565   6.457 -0.5884  0.5688 -0.0725
 8935SOL    HW138264   0.959   4.626   6.477 -0.6303  1.4931 -3.0405
 8935SOL    HW238265   0.986   4.482   6.473 -1.3819  0.6459 -1.8175
 8936SOL     OW38266   2.452   0.330   5.682  0.0224 -0.5651  0.3909
 8936SOL    HW138267   2.450   0.371   5.768  3.7009  0.7009 -0.1515
 8936SOL    HW238268   2.471   0.237   5.695 -2.3363 -0.9548  1.2015
 8937SOL     OW38269   3.521   0.274   5.981 -0.2056  0.3858  0.2369
 8937SOL    HW138270   3.446   0.272   5.922 -0.5001 -1.1484  0.6486
 8937SOL    HW238271   3.474   0.289   6.063  0.1929  3.4356 -0.1044
 8938SOL     OW38272   2.410   4.138   2.076 -0.2048  0.2043  0.3495
 8938SOL    HW138273   2.420   4.139   1.981  0.9217 -2.3543  0.4291
 8938SOL    HW238274   2.318   4.116   2.067  0.1874 -0.7957 -1.2858
 8939SOL     OW38275   3.949   1.411   1.717  0.7907 -0.8142 -0.1189
 8939SOL    HW138276   3.927   1.399   1.625  1.9216 -0.0660 -0.4895
 8939SOL    HW238277   4.017   1.477   1.704 -2.7416  2.3301 -2.9558
 8940SOL     OW38278   4.473   4.511   9.680  0.8505 -0.2503  0.2826
 8940SOL    HW138279   4.478   4.426   9.724  0.8075  0.1342  1.0443
 8940SOL    HW238280   4.389   4.541   9.717  1.6984  2.3687  0.0859
 8941SOL     OW38281   3.840   0.235   5.796  0.3412  0.3031  0.2296
 8941SOL    HW138282   3.898   0.166   5.763 -0.3273 -0.0359 -0.2214
 8941SOL    HW238283   3.823   0.287   5.718  0.9757 -0.5322 -0.4644
 8942SOL     OW38284   4.559   0.695   7.894  0.4679  0.1550  0.5420
 8942SOL    HW138285   4.654   0.689   7.881  0.6263 -2.8040  2.8870
 8942SOL    HW238286   4.550   0.774   7.946  2.5044  1.7603 -1.5229
 8943SOL     OW38287   3.667   0.131   4.189  0.5468  0.0102 -0.2596
 8943SOL    HW138288   3.734   0.084   4.239  0.5008 -0.0873 -0.2885
 8943SOL    HW238289   3.609   0.177   4.250  0.5399 -0.5560  0.1598
 8944SOL     OW38290   1.928   0.075   5.369 -0.6777  0.0667  0.0087
 8944SOL    HW138291   2.009   0.107   5.330 -0.3634 -1.2234 -0.3917
 8944SOL    HW238292   1.864   0.128   5.320 -1.1790 -1.1718 -0.6853
 8945SOL     OW38293   4.591   0.936   8.107  0.4575 -0.8033 -0.0514
 8945SOL    HW138294   4.612   0.891   8.189 -1.8400  1.0566  1.5777
 8945SOL    HW238295   4.508   0.891   8.091 -0.5209  0.9376  0.1637
 8946SOL     OW38296   0.165   0.374  12.643 -0.2303  0.1969 -0.3271
 8946SOL    HW138297   0.249   0.408  12.675  0.5508 -1.1092 -0.9751
 8946SOL    HW238298   0.179   0.365  12.549  0.4847  0.9538 -0.2950
 8947SOL     OW38299   2.540   3.877   3.150 -0.6357 -0.8817  0.4682
 8947SOL    HW138300   2.538   3.954   3.206  0.8292 -0.5945  0.1172
 8947SOL    HW238301   2.477   3.823   3.199  0.1752 -2.3576 -0.1134
 8948SOL     OW38302   2.207   1.424  14.545  0.5999 -0.4418  0.1244
 8948SOL    HW138303   2.237   1.395  14.631  0.1844 -0.0165  0.4109
 8948SOL    HW238304   2.268   1.378  14.487  1.3710  2.3194 -1.2342
 8949SOL     OW38305   1.542   3.438  10.558  0.1830 -0.8120 -0.4491
 8949SOL    HW138306   1.547   3.528  10.589 -0.9921 -0.5168 -1.1281
 8949SOL    HW238307   1.450   3.422  10.540  0.2559 -1.2233 -0.4591
 8950SOL     OW38308   3.249   2.534   9.748  0.6472  0.4553 -0.4644
 8950SOL    HW138309   3.190   2.537   9.673 -0.3050  0.5431  0.2928
 8950SOL    HW238310   3.207   2.605   9.796  2.4283  1.3403 -0.2242
 8951SOL     OW38311   3.802   3.179  12.173 -0.0141 -0.6736  0.3768
 8951SOL    HW138312   3.873   3.242  12.191 -0.3157 -0.1822 -0.1543
 8951SOL    HW238313   3.731   3.220  12.222 -0.7790 -1.5271 -0.0256
 8952SOL     OW38314   0.193   3.199  16.905  0.0196 -0.4554 -0.0281
 8952SOL    HW138315   0.218   3.215  16.815  0.1672  0.2309  0.1349
 8952SOL    HW238316   0.268   3.226  16.957  0.2801 -0.1027 -0.5928
 8953SOL     OW38317   0.167   4.640   3.225  0.3177 -0.2454 -0.0392
 8953SOL    HW138318   0.214   4.704   3.279  1.2003 -0.0517 -1.0350
 8953SOL    HW238319   0.146   4.572   3.290 -2.7548 -0.6747 -1.4757
 8954SOL     OW38320   2.811   2.316  15.064 -0.0861  0.3305 -0.0803
 8954SOL    HW138321   2.889   2.352  15.021 -0.3211  0.6301 -0.2555
 8954SOL    HW238322   2.804   2.229  15.025  0.0590  0.7726 -1.1090
 8955SOL     OW38323   1.287   4.424  17.376  0.1972 -0.0659 -0.0561
 8955SOL    HW138324   1.220   4.492  17.371 -2.7938 -3.1509 -1.9844
 8955SOL    HW238325   1.330   4.446  17.293 -0.8593  1.2651 -0.2490
 8956SOL     OW38326   1.034   4.571   7.693 -0.0427 -0.1613 -0.4040
 8956SOL    HW138327   1.028   4.477   7.677 -0.2463  0.0870 -1.8148
 8956SOL    HW238328   1.121   4.562   7.731 -0.1102 -0.9288 -0.4388
 8957SOL     OW38329   2.554   3.863  17.664  0.1758 -0.2537 -0.1051
 8957SOL    HW138330   2.531   3.953  17.642 -0.1649 -0.1859  0.5251
 8957SOL    HW238331   2.539   3.828  17.577  0.8567  0.9077 -0.6908
 8958SOL     OW38332   1.132   3.584   2.182  0.3151 -0.0693 -0.7264
 8958SOL    HW138333   1.045   3.545   2.189  0.2727  0.4458  1.5561
 8958SOL    HW238334   1.115   3.653   2.119 -0.3470  0.3609 -0.0719
 8959SOL     OW38335   4.218   2.368   3.884 -0.2093 -0.6344 -0.1911
 8959SOL    HW138336   4.233   2.397   3.794  1.7119 -1.2516 -0.0803
 8959SOL    HW238337   4.142   2.310   3.886  0.4974 -1.5517  0.9342
 8960SOL     OW38338   2.147   1.377   6.256  0.2010  0.4090  0.0854
 8960SOL    HW138339   2.184   1.440   6.319 -0.3528 -0.2203  1.0377
 8960SOL    HW238340   2.085   1.436   6.214  0.5322  0.2728 -0.5949
 8961SOL     OW38341   0.061   3.825  11.568 -0.2839  0.2317 -0.6712
 8961SOL    HW138342   0.135   3.884  11.582 -0.5384  0.3281  0.2783
 8961SOL    HW238343   4.717   3.890  11.538  0.1929  0.6929 -0.6625
 8962SOL     OW38344   0.957   1.954   3.197 -0.0520 -0.0594 -0.8503
 8962SOL    HW138345   0.999   2.027   3.152 -0.6445  0.4291 -0.6050
 8962SOL    HW238346   0.959   1.891   3.124 -0.3382 -0.4146 -0.5522
 8963SOL     OW38347   1.145   0.917  13.938  0.1930  0.3935 -0.1851
 8963SOL    HW138348   1.221   0.861  13.925 -1.5465 -2.8018  3.2405
 8963SOL    HW238349   1.084   0.893  13.868 -0.7071 -0.4564  0.8918
 8964SOL     OW38350   1.029   4.273  16.611 -0.7300 -0.4801  0.2558
 8964SOL    HW138351   1.060   4.209  16.674  1.4707  1.2844  0.9583
 8964SOL    HW238352   0.945   4.295  16.650  0.4579  0.3295  2.3361
 8965SOL     OW38353   0.510   3.674   3.593  0.5498 -0.1261  0.2733
 8965SOL    HW138354   0.421   3.707   3.590  0.7703  0.3879 -0.7529
 8965SOL    HW238355   0.562   3.754   3.590 -0.1249  0.2699 -0.6858
 8966SOL     OW38356   2.255   2.800  14.287  0.2226 -0.1378 -0.1361
 8966SOL    HW138357   2.176   2.759  14.250  0.2165  0.8199 -1.1891
 8966SOL    HW238358   2.225   2.793  14.378  1.7463 -2.6827  0.1588
 8967SOL     OW38359   2.766   2.177   4.935  0.0596 -0.1580  0.0452
 8967SOL    HW138360   2.740   2.087   4.954 -1.3994 -0.0514 -1.4417
 8967SOL    HW238361   2.716   2.227   4.999 -0.7689 -1.3985  0.3637
 8968SOL     OW38362   1.246   1.674   5.190  0.4830 -0.6639  0.3482
 8968SOL    HW138363   1.171   1.618   5.171 -0.3357  1.2213 -1.9694
 8968SOL    HW238364   1.320   1.615   5.180 -0.3406 -1.8022  1.0035
 8969SOL     OW38365   4.694   1.369   0.872  0.3558  0.3654  0.4528
 8969SOL    HW138366   0.011   1.458   0.870 -0.0939  0.5340 -0.0943
 8969SOL    HW238367   4.626   1.368   0.804 -0.9601 -0.9064  1.7914
 8970SOL     OW38368   4.372   1.324   0.049  0.1384  0.3215 -0.1246
 8970SOL    HW138369   4.312   1.254   0.025  0.2239  0.1841  0.0623
 8970SOL    HW238370   4.322   1.387   0.101  1.5783  2.0936 -0.8662
 8971SOL     OW38371   0.084   0.409  13.855  0.5611 -0.4326  0.6549
 8971SOL    HW138372   0.080   0.393  13.950 -2.0930  0.0666  0.6252
 8971SOL    HW238373   0.147   0.479  13.837 -1.1220  0.3107 -2.2809
 8972SOL     OW38374   0.872   4.211  17.086  0.1735  0.4928 -0.5827
 8972SOL    HW138375   0.957   4.168  17.087 -0.5942 -1.0377 -1.4969
 8972SOL    HW238376   0.896   4.302  17.104  1.6893 -0.2640  1.2492
 8973SOL     OW38377   0.510   3.471   0.717 -0.3374  0.4825 -0.5961
 8973SOL    HW138378   0.538   3.449   0.806  0.5295  0.7411 -0.8127
 8973SOL    HW238379   0.484   3.563   0.722  1.7511  0.9530  1.4777
 8974SOL     OW38380   0.430   4.212   2.986 -0.8079  0.7138 -0.4445
 8974SOL    HW138381   0.359   4.235   3.046 -0.0749  2.1477 -0.1220
 8974SOL    HW238382   0.503   4.249   3.036 -2.0788  2.2926  0.2601
 8975SOL     OW38383   0.116   0.712   1.375 -0.7009 -0.4647 -1.0574
 8975SOL    HW138384   0.141   0.714   1.468  0.5143 -2.4636 -1.3425
 8975SOL    HW238385   0.110   0.807   1.371  0.6055 -0.3153  0.3486
 8976SOL     OW38386   2.215   3.217   5.130 -0.0311 -0.1167 -0.3952
 8976SOL    HW138387   2.153   3.251   5.066  0.8460  1.9400 -0.1369
 8976SOL    HW238388   2.217   3.127   5.095 -0.4707 -0.4150  0.3513
 8977SOL     OW38389   1.848   0.222   2.114 -0.1591  0.1561  0.0349
 8977SOL    HW138390   1.831   0.260   2.028 -0.0350 -1.1294 -0.5619
 8977SOL    HW238391   1.820   0.286   2.179 -0.8648 -1.2919  1.1580
 8978SOL     OW38392   4.116   2.839  16.461  0.1384 -0.2710 -0.1028
 8978SOL    HW138393   4.196   2.890  16.450 -0.0482  0.3784  1.5431
 8978SOL    HW238394   4.078   2.866  16.545 -1.1436  0.9447 -1.0684
 8979SOL     OW38395   0.295   2.563   4.836 -0.0575 -0.3042  0.8321
 8979SOL    HW138396   0.291   2.504   4.760 -2.5154 -2.0488  2.3098
 8979SOL    HW238397   0.339   2.498   4.891  2.4953  1.3728  0.7544
 8980SOL     OW38398   3.185   1.331   8.116 -0.2802 -0.9488 -0.5680
 8980SOL    HW138399   3.127   1.270   8.072  0.1001  1.0289 -3.7802
 8980SOL    HW238400   3.141   1.336   8.201 -0.4273 -1.0918 -0.6352
 8981SOL     OW38401   3.906   2.466   5.812  0.6399 -0.0585 -0.0737
 8981SOL    HW138402   3.933   2.394   5.869 -3.4420 -1.7652 -0.2900
 8981SOL    HW238403   3.830   2.484   5.867 -0.9972 -2.9146 -1.3537
 8982SOL     OW38404   4.223   4.312  16.551  0.0471  0.5446 -0.5369
 8982SOL    HW138405   4.170   4.377  16.504 -1.3416  0.2466  0.6171
 8982SOL    HW238406   4.218   4.244  16.484 -0.7656  1.1318 -1.0794
 8983SOL     OW38407   0.108   1.297   8.620 -0.2614  0.3074  0.0191
 8983SOL    HW138408   0.186   1.345   8.594 -0.5497  0.3568 -0.7527
 8983SOL    HW238409   0.091   1.234   8.550 -0.9732  1.5471 -0.9267
 8984SOL     OW38410   2.015   0.089   1.661  0.4783 -0.5559 -0.6089
 8984SOL    HW138411   2.067   0.072   1.740  0.6904 -1.1995 -0.8909
 8984SOL    HW238412   2.083   0.119   1.601  1.4954 -0.2065  0.7101
 8985SOL     OW38413   1.112   2.576   8.369 -0.0221 -0.1151  0.4838
 8985SOL    HW138414   1.051   2.570   8.443  1.6948  1.2138  2.0088
 8985SOL    HW238415   1.167   2.650   8.396 -0.3444 -0.2583  1.5324
 8986SOL     OW38416   1.367   4.715  13.127  0.5560 -0.4941  0.3410
 8986SOL    HW138417   1.322   0.064  13.076  1.5774  1.1183  1.5856
 8986SOL    HW238418   1.335   4.634  13.088 -0.3951  0.2312 -0.3875
 8987SOL     OW38419   0.530   2.994  16.249  0.8855 -0.0465 -0.3267
 8987SOL    HW138420   0.551   3.071  16.302 -3.0544  1.7668 -1.4163
 8987SOL    HW238421   0.533   2.929  16.319 -0.3356 -0.5497 -0.7423
 8988SOL     OW38422   1.939   0.182   0.245 -0.1074  0.1528 -0.3593
 8988SOL    HW138423   1.922   0.113   0.181 -2.1553  0.4481 -0.1360
 8988SOL    HW238424   1.852   0.190   0.283 -0.0647 -1.0787 -0.0005
 8989SOL     OW38425   1.332   3.493  15.282  0.2754  0.1637  0.4525
 8989SOL    HW138426   1.313   3.587  15.273 -1.0547 -0.3563 -2.1247
 8989SOL    HW238427   1.357   3.491  15.375  0.1161  1.7436  0.5429
 8990SOL     OW38428   0.273   4.368  14.646 -0.2057  0.6692  0.2631
 8990SOL    HW138429   0.301   4.458  14.660 -0.4049  0.4554  2.0956
 8990SOL    HW238430   0.250   4.354  14.738 -1.7256 -1.7893 -0.4712
 8991SOL     OW38431   4.342   2.160   3.358 -0.1849 -0.0785 -0.0611
 8991SOL    HW138432   4.326   2.226   3.291  0.4546 -0.4656 -0.5976
 8991SOL    HW238433   4.289   2.088   3.325  1.1813 -1.2225  0.2049
 8992SOL     OW38434   4.584   0.936   0.983 -0.2676  0.4565  0.0792
 8992SOL    HW138435   4.581   0.892   1.068 -1.3489  0.1023 -0.1397
 8992SOL    HW238436   4.593   0.868   0.916 -2.1402 -1.4758  1.8067
 8993SOL     OW38437   3.975   0.246   0.574  0.5594 -0.1468 -0.2477
 8993SOL    HW138438   4.004   0.192   0.647 -0.3161  1.7146  1.4648
 8993SOL    HW238439   3.899   0.201   0.536 -1.6543  2.7205  0.8756
 8994SOL     OW38440   2.047   2.103  11.203 -0.0685  0.4731  0.3556
 8994SOL    HW138441   2.062   2.016  11.239  1.9594  0.7880  0.2589
 8994SOL    HW238442   1.989   2.090  11.127 -1.5786  0.3470  1.5355
 8995SOL     OW38443   3.174   2.718   2.129  0.1537 -0.3122 -0.4794
 8995SOL    HW138444   3.172   2.625   2.106  1.6758 -0.6068  0.5647
 8995SOL    HW238445   3.102   2.751   2.075  0.7421  1.4228 -0.2043
 8996SOL     OW38446   3.519   0.863   8.451  0.1381 -0.1658  0.5102
 8996SOL    HW138447   3.504   0.929   8.519 -0.2364  0.1414  0.1257
 8996SOL    HW238448   3.514   0.926   8.379 -0.4247  2.3269  2.7022
 8997SOL     OW38449   0.701   0.355  17.632  0.5784 -0.5254 -0.7210
 8997SOL    HW138450   0.768   0.397  17.578  1.1528  0.1785  0.5451
 8997SOL    HW238451   0.717   0.402   0.034  0.6120 -2.9522  0.6872
 8998SOL     OW38452   2.645   3.614  15.236 -0.6029  0.1800 -0.1909
 8998SOL    HW138453   2.673   3.701  15.264 -0.2750 -0.3881  1.2741
 8998SOL    HW238454   2.550   3.627  15.244 -0.7083 -2.2097  2.6726
 8999SOL     OW38455   0.687   4.313   5.362 -0.3430 -0.3134  0.4186
 8999SOL    HW138456   0.759   4.360   5.322 -2.1641 -0.3703 -2.9807
 8999SOL    HW238457   0.682   4.362   5.444  1.6661  1.5775 -0.6149
 9000SOL     OW38458   2.074   4.214   8.695 -0.0864 -0.3034 -0.8966
 9000SOL    HW138459   1.998   4.252   8.739 -0.5201 -2.8155  0.5290
 9000SOL    HW238460   2.075   4.138   8.753 -2.8676 -0.1121 -0.5806
 9001SOL     OW38461   1.601   1.797   5.733 -0.0765 -0.1514 -0.0056
 9001SOL    HW138462   1.580   1.792   5.826 -0.7813 -0.8102 -0.1968
 9001SOL    HW238463   1.577   1.707   5.710 -0.2262 -0.6431  2.0586
 9002SOL     OW38464   0.071   3.198  13.038  0.5393  0.4590 -0.5251
 9002SOL    HW138465   0.078   3.152  13.122 -0.5567  1.0325 -0.1180
 9002SOL    HW238466   0.044   3.284  13.071 -0.7214 -0.0817 -0.1305
 9003SOL     OW38467   2.592   2.886   6.476  0.2504  0.0070 -0.3514
 9003SOL    HW138468   2.588   2.981   6.462  2.2294 -0.2877 -2.9036
 9003SOL    HW238469   2.570   2.881   6.569  0.6243 -1.8691 -0.3627
 9004SOL     OW38470   2.754   0.551   5.171 -0.2622 -0.3114  0.0706
 9004SOL    HW138471   2.768   0.458   5.153  2.6396 -0.0677  1.0484
 9004SOL    HW238472   2.677   0.578   5.122 -0.5066 -0.9158  0.1193
 9005SOL     OW38473   3.791   1.836   4.094  0.1081 -0.0889  0.5344
 9005SOL    HW138474   3.733   1.847   4.019  1.1621  0.9237 -0.1261
 9005SOL    HW238475   3.779   1.916   4.144  0.3992 -0.9299  1.9391
 9006SOL     OW38476   2.684   3.476  14.964  0.0121 -0.1179 -0.2969
 9006SOL    HW138477   2.678   3.511  15.053  0.2131 -0.2967 -0.2107
 9006SOL    HW238478   2.642   3.546  14.915 -0.3709  0.7494  1.2739
 9007SOL     OW38479   3.995   1.553   4.456 -0.5873 -0.4847  0.3419
 9007SOL    HW138480   3.987   1.459   4.470 -2.9415 -0.1868  0.9656
 9007SOL    HW238481   3.929   1.593   4.511  0.0658 -1.0658  1.5405
 9008SOL     OW38482   3.075   2.561   8.525  0.3695 -0.1810 -0.2706
 9008SOL    HW138483   3.071   2.646   8.480  1.3269 -1.0038 -1.8999
 9008SOL    HW238484   3.140   2.521   8.467  0.5654 -0.0511 -0.1385
 9009SOL     OW38485   0.040   3.306  11.195 -0.4745  0.2615  0.2385
 9009SOL    HW138486   0.058   3.368  11.123  3.5956 -0.8571  0.2668
 9009SOL    HW238487   4.680   3.268  11.158  0.1742 -0.1061 -0.7520
 9010SOL     OW38488   3.763   0.469  13.764 -0.4288  0.1479  0.3872
 9010SOL    HW138489   3.848   0.486  13.804  0.6665 -2.6298 -0.7726
 9010SOL    HW238490   3.786   0.389  13.717  1.3380 -0.0171  1.5609
 9011SOL     OW38491   1.106   1.177   6.678 -0.4097  0.3692 -0.3158
 9011SOL    HW138492   1.094   1.156   6.771 -0.1958 -0.6727 -0.5241
 9011SOL    HW238493   1.173   1.244   6.681 -0.8406  0.9044 -2.5528
 9012SOL     OW38494   1.796   1.930  11.631  0.4753  0.3912  0.3364
 9012SOL    HW138495   1.732   1.991  11.593 -0.3949  0.9534  2.7106
 9012SOL    HW238496   1.861   1.915  11.563 -0.9966 -0.1654 -0.9488
 9013SOL     OW38497   4.225   1.931   2.329 -0.4137 -0.0192 -0.1256
 9013SOL    HW138498   4.215   1.912   2.422  0.6248 -0.5736 -0.1237
 9013SOL    HW238499   4.184   1.849   2.301 -0.3052  0.0678 -0.5435
 9014SOL     OW38500   0.628   4.270   2.803 -0.9593  0.4164 -0.4886
 9014SOL    HW138501   0.547   4.230   2.834 -1.1646  2.6384  1.8214
 9014SOL    HW238502   0.670   4.285   2.888  1.6495 -3.3467 -1.1349
 9015SOL     OW38503   3.057   0.444   4.838 -0.2692  0.3242 -0.1924
 9015SOL    HW138504   3.105   0.442   4.921 -1.1132 -3.1803  0.2024
 9015SOL    HW238505   3.110   0.390   4.779 -1.7138 -0.9423 -0.3100
 9016SOL     OW38506   1.520   2.712   5.863 -0.4541  0.0555  0.3892
 9016SOL    HW138507   1.528   2.807   5.853 -1.6094  0.3861  2.5052
 9016SOL    HW238508   1.591   2.695   5.925 -0.6470 -1.3066  0.2466
 9017SOL     OW38509   3.381   0.929  14.576 -0.0253 -0.1491 -0.3997
 9017SOL    HW138510   3.321   0.870  14.529 -0.1703 -1.4152  1.3967
 9017SOL    HW238511   3.371   1.003  14.515 -0.2165 -2.6309 -3.4130
 9018SOL     OW38512   2.734   1.038   4.044 -0.3273  0.4404 -0.3834
 9018SOL    HW138513   2.648   1.019   4.082 -0.1561 -2.2928 -1.3217
 9018SOL    HW238514   2.724   1.030   3.949 -0.9256 -0.9370 -0.2144
 9019SOL     OW38515   3.102   0.741   2.875  0.1484 -0.2068 -0.1221
 9019SOL    HW138516   3.070   0.738   2.785  2.7040 -0.0173 -1.0344
 9019SOL    HW238517   3.132   0.830   2.890  0.5676 -0.2444 -0.7365
 9020SOL     OW38518   2.022   2.493   2.838  0.5423  0.1799  0.4407
 9020SOL    HW138519   2.106   2.531   2.863  0.7647 -0.9061  1.3328
 9020SOL    HW238520   2.019   2.433   2.912 -0.4784  2.4941  2.2539
 9021SOL     OW38521   3.565   3.259   5.813  0.3346  0.3938 -0.2345
 9021SOL    HW138522   3.566   3.269   5.908 -0.3297 -0.4408 -0.1459
 9021SOL    HW238523   3.472   3.275   5.796  0.2340  0.1766  0.1092
 9022SOL     OW38524   0.288   0.882  10.699 -0.6646 -0.0878  0.0295
 9022SOL    HW138525   0.193   0.891  10.691 -1.0696 -2.8232  2.0036
 9022SOL    HW238526   0.330   0.954  10.652  0.1285  0.7713  2.0475
 9023SOL     OW38527   4.209   3.602   3.029 -0.0321  0.5643  0.2005
 9023SOL    HW138528   4.134   3.613   2.971 -0.0942  0.9913  0.3642
 9023SOL    HW238529   4.264   3.674   2.997  0.6832 -0.3522 -0.6254
 9024SOL     OW38530   2.203   3.930  10.640 -0.8696  0.2406  0.0045
 9024SOL    HW138531   2.155   3.918  10.558  0.5896 -0.6806 -0.7161
 9024SOL    HW238532   2.272   3.865  10.628 -0.3631  0.3166  2.5098
 9025SOL     OW38533   2.086   3.041   0.183  0.3816 -0.4149  0.0182
 9025SOL    HW138534   2.002   3.062   0.141  0.7644 -0.9127 -0.9917
 9025SOL    HW238535   2.150   3.102   0.145  0.1909  0.3649  0.9451
 9026SOL     OW38536   3.184   1.548   9.209 -0.2393 -0.5267 -0.3437
 9026SOL    HW138537   3.208   1.471   9.158 -1.1242  0.1812 -1.8473
 9026SOL    HW238538   3.165   1.617   9.145  1.3403 -0.0840 -0.3187
 9027SOL     OW38539   2.897   0.436   6.811 -0.3703 -0.3124  0.1650
 9027SOL    HW138540   2.961   0.500   6.842 -0.9683  0.3419  0.0325
 9027SOL    HW238541   2.935   0.359   6.855  1.8246  0.5834 -0.1758
 9028SOL     OW38542   3.557   3.700  12.788  0.3185 -0.1546 -0.1758
 9028SOL    HW138543   3.617   3.737  12.723  0.9537  2.2507  1.7951
 9028SOL    HW238544   3.468   3.722  12.760  0.1191  1.1532  1.4792
 9029SOL     OW38545   1.512   3.577   3.434  0.0731  0.0143 -0.0892
 9029SOL    HW138546   1.554   3.575   3.348 -3.7122  0.5306 -1.9377
 9029SOL    HW238547   1.565   3.641   3.483 -0.7647  1.0659 -0.5716
 9030SOL     OW38548   3.877   0.539   3.614  0.5697  0.4886 -0.1662
 9030SOL    HW138549   3.863   0.457   3.662  0.0634  1.3238  1.1134
 9030SOL    HW238550   3.785   0.557   3.597 -0.0806 -3.0294 -0.2803
 9031SOL     OW38551   4.472   3.279   5.702 -0.0482  0.4824 -0.1950
 9031SOL    HW138552   4.511   3.208   5.754 -4.2490 -2.1354 -0.5813
 9031SOL    HW238553   4.461   3.343   5.772 -0.9587  0.9306 -0.7472
 9032SOL     OW38554   0.477   3.195   2.076  0.7672 -0.4767  0.2331
 9032SOL    HW138555   0.523   3.229   2.152 -1.5824 -0.0346  1.4471
 9032SOL    HW238556   0.395   3.244   2.076  1.1334  0.1273  0.1753
 9033SOL     OW38557   3.315   1.663   7.908 -0.1571 -0.0015  0.1051
 9033SOL    HW138558   3.286   1.734   7.966  0.4362 -0.0055  0.4093
 9033SOL    HW238559   3.330   1.721   7.833  1.3867 -1.5409 -0.7787
 9034SOL     OW38560   2.141   0.944   2.358  0.3419  0.0170  0.3769
 9034SOL    HW138561   2.178   1.030   2.337 -2.1017  0.9474 -0.1497
 9034SOL    HW238562   2.216   0.907   2.403  0.1506  1.1804  1.6556
 9035SOL     OW38563   4.243   3.983  16.107 -0.3102 -0.2865 -0.8589
 9035SOL    HW138564   4.294   4.024  16.037 -0.9534  1.3894 -0.3506
 9035SOL    HW238565   4.237   3.897  16.066 -1.0297  0.0592 -1.4810
 9036SOL     OW38566   4.526   3.246  11.467  0.3481 -0.1222 -0.4551
 9036SOL    HW138567   4.491   3.174  11.519 -0.6775  2.2755  2.1695
 9036SOL    HW238568   4.615   3.213  11.453 -0.6419 -2.7027 -0.6325
 9037SOL     OW38569   4.251   4.268   3.152 -0.3212  0.4246  0.1755
 9037SOL    HW138570   4.296   4.340   3.108 -0.8151  0.7887  0.2631
 9037SOL    HW238571   4.320   4.215   3.193 -1.4926 -1.5597 -0.4093
 9038SOL     OW38572   2.746   3.492   7.644  0.6912 -0.2745 -0.1755
 9038SOL    HW138573   2.711   3.530   7.725 -0.5312 -2.3596  0.3024
 9038SOL    HW238574   2.667   3.454   7.605  0.1807  0.9769 -0.3586
 9039SOL     OW38575   4.038   0.490  13.800  0.2790  0.2100  0.0848
 9039SOL    HW138576   4.102   0.560  13.813 -0.5501  1.4180 -2.1469
 9039SOL    HW238577   4.049   0.448  13.885  1.2908 -0.3768 -0.3279
 9040SOL     OW38578   2.896   1.521   6.697  0.6216 -0.3620  0.6078
 9040SOL    HW138579   2.877   1.433   6.731 -1.7575 -0.2775 -0.5492
 9040SOL    HW238580   2.875   1.507   6.605  0.9721  2.1060  0.1614
 9041SOL     OW38581   3.086   4.615   3.574 -0.1461  0.4861  0.0106
 9041SOL    HW138582   3.120   4.697   3.541  0.5146  0.3354  0.3208
 9041SOL    HW238583   3.067   4.571   3.491 -0.2858  2.2271 -0.8643
 9042SOL     OW38584   3.964   1.365  10.755 -0.3009 -0.2006  0.0297
 9042SOL    HW138585   3.973   1.272  10.735 -1.7386  0.0503 -1.7705
 9042SOL    HW238586   4.012   1.364  10.838  2.6998  1.1599 -1.6687
 9043SOL     OW38587   0.186   3.775  15.126  0.1498 -0.3549 -0.2225
 9043SOL    HW138588   0.225   3.712  15.065  0.1378  1.4865 -2.1337
 9043SOL    HW238589   0.101   3.743  15.155  1.0026  0.1171  2.7541
 9044SOL     OW38590   1.115   2.175   0.807  0.1083 -0.4542 -0.2423
 9044SOL    HW138591   1.096   2.240   0.739  1.1841 -0.7405 -0.8080
 9044SOL    HW238592   1.115   2.092   0.759  1.7331  0.0385 -1.0842
 9045SOL     OW38593   1.957   0.011  16.526 -0.2364 -0.2292  0.6899
 9045SOL    HW138594   1.883   4.701  16.581 -0.4039 -1.7888 -0.3555
 9045SOL    HW238595   1.909   0.066  16.465 -0.2013 -2.2543 -1.1609
 9046SOL     OW38596   2.996   2.403   6.084  0.2064  0.0264  0.9291
 9046SOL    HW138597   3.062   2.467   6.109  0.9608 -1.0501  1.6924
 9046SOL    HW238598   3.009   2.335   6.150 -0.3592 -1.5824 -0.6164
 9047SOL     OW38599   0.096   2.353  10.213  0.2306 -0.4973 -0.0756
 9047SOL    HW138600   0.102   2.301  10.294 -1.4463  1.2808  1.2031
 9047SOL    HW238601   0.151   2.425  10.243 -0.3012  0.3651 -1.1825
 9048SOL     OW38602   3.404   4.388  10.104  0.3220  0.1402  0.4062
 9048SOL    HW138603   3.446   4.369  10.187  1.6623  0.8658 -0.1073
 9048SOL    HW238604   3.332   4.447  10.124 -0.0695 -0.6982  1.4213
 9049SOL     OW38605   0.433   1.468   6.766  0.5968 -0.5562 -0.4472
 9049SOL    HW138606   0.356   1.512   6.802  1.3977  1.1073 -0.7892
 9049SOL    HW238607   0.446   1.517   6.685 -0.2559  0.7257  0.2046
 9050SOL     OW38608   3.450   4.072  15.187 -0.0329  0.4355 -0.6137
 9050SOL    HW138609   3.376   4.037  15.137 -1.2033 -2.0745  2.8669
 9050SOL    HW238610   3.433   4.166  15.177  3.8406  0.9758 -2.2456
 9051SOL     OW38611   3.460   2.898   7.876 -0.1016  1.1404  0.2792
 9051SOL    HW138612   3.523   2.950   7.826 -0.3696  1.1042 -0.0959
 9051SOL    HW238613   3.445   2.821   7.822  0.4293  0.8056  0.6082
 9052SOL     OW38614   4.580   0.266   6.933  0.3849 -0.4809  0.2169
 9052SOL    HW138615   4.499   0.264   6.882  0.4423 -1.5855  0.1609
 9052SOL    HW238616   4.556   0.207   7.004  0.4857  0.3055  0.8945
 9053SOL     OW38617   2.311   4.640   4.602  0.4301  0.2738  0.8443
 9053SOL    HW138618   2.331   0.014   4.596  0.7597  0.3070  2.5339
 9053SOL    HW238619   2.218   4.648   4.583  0.5125  1.3564  0.9285
 9054SOL     OW38620   0.601   1.152   6.827 -0.5118  0.1585 -0.5789
 9054SOL    HW138621   0.661   1.226   6.839 -0.4931  0.1766 -0.7785
 9054SOL    HW238622   0.639   1.087   6.886 -0.6380  0.1913 -0.4620
 9055SOL     OW38623   1.619   2.692   8.126 -0.0501 -0.4424  0.3640
 9055SOL    HW138624   1.699   2.710   8.174  0.6377 -0.3457 -0.8403
 9055SOL    HW238625   1.596   2.602   8.151 -0.1360 -0.0170  1.8277
 9056SOL     OW38626   3.425   1.031   5.891 -0.0937 -0.5586  0.4715
 9056SOL    HW138627   3.388   0.943   5.894  1.7271 -1.3009  1.1403
 9056SOL    HW238628   3.438   1.052   5.983  2.4937 -2.2685  0.4818
 9057SOL     OW38629   4.302   4.071   4.547 -0.3272  0.0969 -0.7038
 9057SOL    HW138630   4.279   3.978   4.546 -1.1338  0.3110 -2.5739
 9057SOL    HW238631   4.333   4.081   4.457 -0.0927 -2.1978 -0.8759
 9058SOL     OW38632   4.333   3.023  11.595 -0.3250  0.3354 -0.2794
 9058SOL    HW138633   4.256   2.990  11.550  1.3414 -0.1670 -2.7613
 9058SOL    HW238634   4.408   2.963  11.600  0.1927  0.7962 -2.5002
 9059SOL     OW38635   4.090   2.643   5.644  0.1698 -0.3595  0.1854
 9059SOL    HW138636   4.159   2.576   5.642  1.3816  0.8679  0.4000
 9059SOL    HW238637   4.041   2.616   5.722  3.3669 -0.6282  2.1076
 9060SOL     OW38638   2.636   1.594   8.624 -0.0459 -0.1871 -0.0766
 9060SOL    HW138639   2.656   1.569   8.534  0.1979  2.4865 -0.7584
 9060SOL    HW238640   2.588   1.676   8.613  2.1343  0.5937 -3.5307
 9061SOL     OW38641   2.656   4.049   3.976 -0.3614  0.2453 -0.1899
 9061SOL    HW138642   2.717   3.986   3.937 -1.4919  0.0218 -1.5717
 9061SOL    HW238643   2.696   4.045   4.063  0.0424 -1.3262 -0.4500
 9062SOL     OW38644   2.845   0.627   3.620 -0.1063 -0.1922  0.0823
 9062SOL    HW138645   2.781   0.668   3.563  0.4154  0.4887 -0.0185
 9062SOL    HW238646   2.915   0.692   3.614 -0.7560  0.2976 -2.2391
 9063SOL     OW38647   1.708   1.525   4.815  0.4919  0.1969 -0.5720
 9063SOL    HW138648   1.697   1.585   4.741 -0.7524  0.4002 -0.2349
 9063SOL    HW238649   1.802   1.510   4.821  0.4649 -0.1992 -1.1192
 9064SOL     OW38650   2.764   1.963   8.343  0.1854  0.2920  0.2743
 9064SOL    HW138651   2.846   1.948   8.296 -0.2572  0.3810 -0.5298
 9064SOL    HW238652   2.787   2.012   8.421 -1.0350  0.1141  0.7443
 9065SOL     OW38653   4.423   3.870   5.998 -0.2065  0.1806 -0.0524
 9065SOL    HW138654   4.440   3.933   6.067 -1.6368 -0.6975  1.1049
 9065SOL    HW238655   4.491   3.807   6.021 -0.5373  0.5352  1.8405
 9066SOL     OW38656   3.328   4.512   1.547  0.4191 -0.5590  0.5645
 9066SOL    HW138657   3.290   4.595   1.517  0.0301 -0.9899 -0.1537
 9066SOL    HW238658   3.261   4.481   1.608 -1.3699  0.2490 -0.9796
 9067SOL     OW38659   0.890   4.603   3.403 -0.1542 -0.3669  0.3678
 9067SOL    HW138660   0.817   4.627   3.459  0.8587  1.1164  1.0430
 9067SOL    HW238661   0.876   4.677   3.344 -1.5065 -1.1580 -0.3068
 9068SOL     OW38662   3.787   3.272   0.670 -0.0158 -0.3612 -0.4040
 9068SOL    HW138663   3.866   3.225   0.645 -0.2574 -1.2480  0.4562
 9068SOL    HW238664   3.767   3.332   0.599  0.3694  0.6594  0.3558
 9069SOL     OW38665   0.167   0.350   5.220 -0.7086 -0.5678  0.4442
 9069SOL    HW138666   0.174   0.443   5.241 -0.2243 -0.4407 -0.2954
 9069SOL    HW238667   0.072   0.345   5.233 -0.9240 -1.7447 -1.4573
 9070SOL     OW38668   2.079   2.299  16.101 -0.1298  0.1941 -0.4921
 9070SOL    HW138669   2.014   2.321  16.034  0.2458  1.2263 -0.5201
 9070SOL    HW238670   2.089   2.208  16.072  5.1902  0.4798  0.4255
 9071SOL     OW38671   0.571   3.495   5.997 -0.1105  0.6089 -0.2398
 9071SOL    HW138672   0.502   3.434   5.971  1.5207 -1.2607 -0.1593
 9071SOL    HW238673   0.564   3.490   6.093  0.1351 -0.4126 -0.2763
 9072SOL     OW38674   0.029   0.916   1.655 -1.0932  0.1083 -0.6223
 9072SOL    HW138675   4.719   0.952   1.739 -0.8950 -2.8502  0.6876
 9072SOL    HW238676   0.123   0.929   1.648 -0.7441 -1.2568  1.5518
 9073SOL     OW38677   2.000   0.891   4.197 -0.2312  0.3778  0.1025
 9073SOL    HW138678   2.064   0.954   4.230  0.0439  0.7798 -1.1744
 9073SOL    HW238679   1.974   0.859   4.283  1.3319 -2.2895 -0.3991
 9074SOL     OW38680   2.176   1.205   2.289 -0.1696 -0.3130 -0.2464
 9074SOL    HW138681   2.148   1.296   2.293 -2.6612 -1.0783 -0.2215
 9074SOL    HW238682   2.154   1.190   2.197  0.8844 -3.3555 -0.0133
 9075SOL     OW38683   3.923   3.006   3.896  0.2793 -0.4283  0.2520
 9075SOL    HW138684   3.997   3.021   3.837 -1.9280  0.7629 -2.2144
 9075SOL    HW238685   3.972   2.990   3.976  2.3199  1.1976 -0.6835
 9076SOL     OW38686   1.072   2.334  10.668  0.1468 -0.2728  0.2541
 9076SOL    HW138687   1.077   2.332  10.763 -2.3051  1.5623  0.4155
 9076SOL    HW238688   1.137   2.388  10.623  1.1125 -0.7854  1.0285
 9077SOL     OW38689   0.507   2.607   4.546  0.3713  0.2039 -0.1474
 9077SOL    HW138690   0.552   2.637   4.467  0.7591  1.0930  0.4134
 9077SOL    HW238691   0.512   2.512   4.534 -2.0305 -0.2864  2.9196
 9078SOL     OW38692   2.546   0.850   5.958 -0.4441 -0.2314 -0.0451
 9078SOL    HW138693   2.625   0.902   5.943  0.3806 -1.4370  0.1230
 9078SOL    HW238694   2.504   0.884   6.037 -0.8877 -1.4725  0.2682
 9079SOL     OW38695   2.916   1.482  12.474  0.2298 -0.2473 -0.0366
 9079SOL    HW138696   3.009   1.481  12.497 -0.5531  0.9376  3.1329
 9079SOL    HW238697   2.906   1.571  12.509  1.3950 -0.1999  0.1910
 9080SOL     OW38698   0.673   4.029   7.996  0.2104 -0.0185  0.0640
 9080SOL    HW138699   0.651   4.116   7.962 -0.0006 -0.0479  0.1293
 9080SOL    HW238700   0.643   3.971   7.926 -0.2831  2.2656 -1.6081
 9081SOL     OW38701   3.418   2.498  11.361  0.1924 -0.3260 -0.3817
 9081SOL    HW138702   3.417   2.589  11.330  1.3031 -0.2471 -0.1713
 9081SOL    HW238703   3.511   2.478  11.354  0.1308 -0.6239 -0.3435
 9082SOL     OW38704   1.819   2.169  11.374 -0.0235 -0.1439  0.2076
 9082SOL    HW138705   1.793   2.212  11.293  1.4363  0.2101 -0.0701
 9082SOL    HW238706   1.897   2.120  11.348 -0.6620 -0.9838 -0.1632
 9083SOL     OW38707   1.423   0.219   4.791  0.5110  0.7295 -0.3639
 9083SOL    HW138708   1.358   0.148   4.783  1.4174 -0.2846  1.3597
 9083SOL    HW238709   1.438   0.223   4.885  1.5068 -2.8708 -0.3634
 9084SOL     OW38710   3.143   3.214   5.010  0.5975 -0.4433  0.0899
 9084SOL    HW138711   3.221   3.245   4.964 -0.1123 -0.5083 -1.1383
 9084SOL    HW238712   3.067   3.242   4.960  0.2760  0.7763  1.2665
 9085SOL     OW38713   3.534   1.607  10.132  0.2003  0.2509 -0.1560
 9085SOL    HW138714   3.586   1.680  10.168 -0.1489  0.3968  0.0575
 9085SOL    HW238715   3.449   1.632  10.168 -0.2969 -0.4781 -0.8195
 9086SOL     OW38716   4.272   1.865  17.271 -0.1033 -0.2114 -0.1537
 9086SOL    HW138717   4.327   1.788  17.286 -1.7721 -1.8714 -2.5535
 9086SOL    HW238718   4.184   1.827  17.277  0.0688 -0.5653  0.1891
 9087SOL     OW38719   4.185   1.669  13.773  0.4555 -0.5988  0.2068
 9087SOL    HW138720   4.276   1.675  13.745 -0.0606 -0.3832 -1.4685
 9087SOL    HW238721   4.149   1.612  13.704  2.5594  0.8353 -2.0988
 9088SOL     OW38722   0.047   0.090   2.296  0.7272  0.0535  0.2744
 9088SOL    HW138723   4.673   0.067   2.305  0.8404 -0.5342 -0.0549
 9088SOL    HW238724   0.083   0.005   2.271  0.3059 -0.6913  2.2080
 9089SOL     OW38725   3.310   4.075   4.314 -0.0259  0.1503 -0.0818
 9089SOL    HW138726   3.217   4.056   4.306  0.1819 -0.6712 -0.5653
 9089SOL    HW238727   3.324   4.138   4.243  0.8834  1.2862  1.1184
 9090SOL     OW38728   0.282   1.202   1.224 -0.4783 -0.2579 -0.0290
 9090SOL    HW138729   0.319   1.146   1.155  1.8877 -3.4421  3.8788
 9090SOL    HW238730   0.211   1.147   1.258 -0.7604  0.1414  0.0223
 9091SOL     OW38731   3.761   2.292   4.441  0.2463 -0.4283  0.3217
 9091SOL    HW138732   3.702   2.261   4.372  0.2896  3.4229 -1.4540
 9091SOL    HW238733   3.729   2.241   4.515 -1.1043  1.2845  0.9266
 9092SOL     OW38734   4.663   0.781  15.428  0.0160 -0.1380  0.0814
 9092SOL    HW138735   4.580   0.813  15.465 -0.7152 -2.8672  0.7649
 9092SOL    HW238736   4.661   0.833  15.348 -2.2120 -1.2750 -0.6138
 9093SOL     OW38737   1.339   2.487   0.437 -0.0231  0.1627  0.2065
 9093SOL    HW138738   1.262   2.509   0.489 -1.4683 -0.2541 -1.7649
 9093SOL    HW238739   1.407   2.546   0.468  1.0788 -0.8227 -0.3166
 9094SOL     OW38740   3.137   1.651   9.710 -0.2483 -0.2015  0.1721
 9094SOL    HW138741   3.152   1.584   9.643 -1.0494 -0.4992  0.2865
 9094SOL    HW238742   3.101   1.594   9.778  1.7196 -2.4013 -0.6409
 9095SOL     OW38743   1.319   2.762   6.785  0.4075 -0.0696  0.4358
 9095SOL    HW138744   1.295   2.670   6.787 -1.4133  0.4146  0.2360
 9095SOL    HW238745   1.326   2.778   6.879  0.2684 -0.2959  0.4832
 9096SOL     OW38746   4.401   2.630   4.637 -0.2090  0.4554 -0.4135
 9096SOL    HW138747   4.474   2.582   4.678 -1.6337 -0.1681  1.4080
 9096SOL    HW238748   4.426   2.619   4.545  1.1536  1.1567 -0.1280
 9097SOL     OW38749   0.566   2.739   0.677 -0.3652 -0.4915  0.2052
 9097SOL    HW138750   0.477   2.742   0.710 -0.5971  2.7328 -0.7035
 9097SOL    HW238751   0.602   2.783   0.755 -2.4811  1.9915 -0.2324
 9098SOL     OW38752   1.499   4.711  10.005 -0.1316  0.3005 -0.0261
 9098SOL    HW138753   1.446   4.713   9.925  2.4877 -3.0371 -1.8386
 9098SOL    HW238754   1.568   4.651   9.978  0.3638  0.0567  1.7968
 9099SOL     OW38755   4.498   4.187   7.204 -0.7021 -0.0258  0.0682
 9099SOL    HW138756   4.588   4.163   7.229 -0.5341 -0.3315 -0.8539
 9099SOL    HW238757   4.448   4.190   7.286  1.0860  1.2794  1.1077
 9100SOL     OW38758   1.965   4.268   6.364 -0.0533  0.3372  0.1657
 9100SOL    HW138759   2.047   4.222   6.347 -0.0503  0.6303 -0.6369
 9100SOL    HW238760   1.921   4.190   6.396 -1.9356  0.6314 -1.7082
 9101SOL     OW38761   1.935   1.905   7.024 -0.9082 -0.0611  0.1475
 9101SOL    HW138762   1.930   1.979   6.964  0.7694 -0.0348  0.0582
 9101SOL    HW238763   1.983   1.948   7.095  2.1151  0.0587 -2.0025
 9102SOL     OW38764   0.184   4.231  14.936  0.3950 -0.0707 -0.3961
 9102SOL    HW138765   0.091   4.225  14.916  0.4806 -1.0757 -0.5271
 9102SOL    HW238766   0.196   4.182  15.017  1.6959  0.8608 -0.0185
 9103SOL     OW38767   1.404   2.478   2.504  0.1205 -0.8757  0.4942
 9103SOL    HW138768   1.379   2.569   2.488  1.5083 -0.5559  0.1395
 9103SOL    HW238769   1.493   2.495   2.534 -0.1828 -0.1156  0.9814
 9104SOL     OW38770   2.620   1.022   5.106 -0.1842 -0.1348  0.4435
 9104SOL    HW138771   2.678   1.008   5.032  0.8935  0.7013  1.1371
 9104SOL    HW238772   2.627   1.117   5.114 -1.4421 -0.0064 -0.0727
 9105SOL     OW38773   1.782   4.074   6.891  0.1075 -0.0445 -0.0574
 9105SOL    HW138774   1.766   3.980   6.884 -1.5223  0.1336  1.4214
 9105SOL    HW238775   1.868   4.075   6.933  0.1618  0.5904 -0.1788
 9106SOL     OW38776   3.812   1.470   5.725 -0.2674 -0.0243  0.5519
 9106SOL    HW138777   3.787   1.378   5.712  0.5749  0.1458 -2.1941
 9106SOL    HW238778   3.826   1.470   5.820 -2.7321 -3.6644  0.9127
 9107SOL     OW38779   0.791   2.869   6.894  0.0939 -0.0007  0.2216
 9107SOL    HW138780   0.874   2.890   6.850  0.4218  0.6924  1.1655
 9107SOL    HW238781   0.743   2.823   6.825 -0.5657 -1.2300  1.5262
 9108SOL     OW38782   1.115   1.707   0.848  0.1207  0.2846 -0.3328
 9108SOL    HW138783   1.150   1.781   0.799 -0.1950  1.0167  0.5353
 9108SOL    HW238784   1.103   1.646   0.776 -1.9533 -0.6170  0.7947
 9109SOL     OW38785   2.192   0.462   0.152 -0.2245 -0.1394  0.6900
 9109SOL    HW138786   2.155   0.421   0.230 -0.9382  0.6129  0.7410
 9109SOL    HW238787   2.149   0.412   0.082 -1.5067  1.3393  0.4249
 9110SOL     OW38788   2.001   1.382   5.069  0.4809 -0.9093 -0.0531
 9110SOL    HW138789   1.968   1.472   5.059  1.9349 -0.3624  0.0961
 9110SOL    HW238790   2.025   1.360   4.979  2.5173 -1.9434  0.7525
 9111SOL     OW38791   0.683   3.944   6.405 -0.3340 -0.3161 -0.0379
 9111SOL    HW138792   0.738   4.003   6.354  0.4602 -0.4920  0.6138
 9111SOL    HW238793   0.639   4.009   6.461  0.2958 -0.0923  0.2026
 9112SOL     OW38794   2.276   4.699   7.908 -0.3870 -0.0659 -0.0328
 9112SOL    HW138795   2.341   4.678   7.842  1.0035  0.5389  1.1537
 9112SOL    HW238796   2.254   0.069   7.880 -0.5956  0.0960  0.6283
 9113SOL     OW38797   0.718   3.152   6.832  0.2070 -0.0227 -0.0993
 9113SOL    HW138798   0.712   3.061   6.859 -0.4180 -0.0193 -0.2235
 9113SOL    HW238799   0.763   3.135   6.749  0.2831  2.5646 -0.5978
 9114SOL     OW38800   0.942   0.810   5.577  0.0006  0.4525 -0.0594
 9114SOL    HW138801   0.949   0.780   5.487 -0.5041  0.6557 -0.1623
 9114SOL    HW238802   0.988   0.738   5.621 -1.0819 -0.4794 -0.4568
 9115SOL     OW38803   3.913   2.682   3.081 -0.0495 -0.4271 -0.1914
 9115SOL    HW138804   3.878   2.770   3.093  0.3028 -0.1370 -1.2975
 9115SOL    HW238805   3.919   2.685   2.985  0.9142 -0.7266 -0.1475
 9116SOL     OW38806   0.997   4.500   1.319 -0.3553 -0.0617 -0.0178
 9116SOL    HW138807   0.983   4.412   1.352  2.2837  0.0293  1.3643
 9116SOL    HW238808   0.908   4.535   1.319 -0.7510 -1.0905 -0.3683
 9117SOL     OW38809   0.572   2.159  10.712  0.1084 -0.4342 -0.4921
 9117SOL    HW138810   0.564   2.069  10.681  0.6618 -0.7898  0.4242
 9117SOL    HW238811   0.647   2.189  10.660 -1.0029 -0.1277 -1.9427
 9118SOL     OW38812   4.312   2.418   5.912 -0.4903 -0.3234  0.3596
 9118SOL    HW138813   4.363   2.479   5.963 -1.8458  1.9655 -1.0223
 9118SOL    HW238814   4.224   2.435   5.946  0.8945  0.2355  3.5814
 9119SOL     OW38815   3.196   2.236   9.760  0.4988 -0.4520  0.5835
 9119SOL    HW138816   3.180   2.330   9.774  1.3028  0.1283 -2.4226
 9119SOL    HW238817   3.130   2.191   9.813  0.6326  1.4568  2.3917
 9120SOL     OW38818   3.097   1.987   6.114 -0.1282  0.3400 -0.7595
 9120SOL    HW138819   3.065   1.985   6.024 -3.4210 -1.6124  0.4316
 9120SOL    HW238820   3.184   2.021   6.094  0.1469  0.1242  0.0315
 9121SOL     OW38821   1.767   3.381   3.079 -0.3724 -0.1901 -0.1243
 9121SOL    HW138822   1.765   3.358   3.172  1.8253  2.0457  0.5009
 9121SOL    HW238823   1.820   3.311   3.042  0.7819  1.1799 -1.1082
 9122SOL     OW38824   4.618   0.154   6.056 -0.0411 -0.5923  0.0642
 9122SOL    HW138825   4.526   0.180   6.056  0.2335  0.3659  1.7814
 9122SOL    HW238826   4.622   0.101   5.976 -4.1058  0.3981 -0.7760
 9123SOL     OW38827   1.926   0.068   6.388  0.0897  0.5654  0.2654
 9123SOL    HW138828   1.904   4.703   6.347 -0.0601  1.4513 -1.4834
 9123SOL    HW238829   1.880   0.071   6.472  1.2234  1.4142  0.8566
 9124SOL     OW38830   1.241   1.479  17.138 -0.1449  0.3788  0.3775
 9124SOL    HW138831   1.331   1.506  17.156 -0.0131  1.3003 -1.7275
 9124SOL    HW238832   1.196   1.559  17.162  1.1488  1.3579 -0.4598
 9125SOL     OW38833   2.478   2.148   8.661  0.0870  0.5056 -0.2459
 9125SOL    HW138834   2.447   2.220   8.606  0.2731  1.0283  0.3345
 9125SOL    HW238835   2.395   2.120   8.701  0.5442  0.0893  0.4243
 9126SOL     OW38836   2.575   1.909   4.747  0.5876  0.5606 -0.1803
 9126SOL    HW138837   2.488   1.871   4.736  0.9242  0.1712 -1.5670
 9126SOL    HW238838   2.542   1.994   4.777  0.6935  0.5090  0.0828
 9127SOL     OW38839   2.899   4.190   9.341 -0.2747  0.0496 -0.2676
 9127SOL    HW138840   2.834   4.261   9.336 -0.0616  0.3181  0.7014
 9127SOL    HW238841   2.870   4.160   9.427 -1.1508  1.3502 -0.1156
 9128SOL     OW38842   0.692   3.036   5.103 -0.0729  0.3845  0.1848
 9128SOL    HW138843   0.619   3.069   5.051 -0.6918 -0.4248  0.5452
 9128SOL    HW238844   0.715   2.958   5.052  1.3036  0.0566  1.3136
 9129SOL     OW38845   4.270   1.778  11.796 -0.1025  0.0830 -1.0896
 9129SOL    HW138846   4.337   1.726  11.753  0.0533 -0.1985 -0.5022
 9129SOL    HW238847   4.283   1.740  11.883 -1.3642  0.7603 -0.5937
 9130SOL     OW38848   1.852   2.350  14.657  0.3750 -0.7581  0.1398
 9130SOL    HW138849   1.814   2.286  14.598 -0.1652 -1.4603  1.2491
 9130SOL    HW238850   1.769   2.389  14.685  1.5285  1.1411  0.9366
 9131SOL     OW38851   0.563   4.058   9.295 -0.2257  0.2067  0.3873
 9131SOL    HW138852   0.648   4.071   9.337  0.5003 -2.0934 -0.3488
 9131SOL    HW238853   0.522   3.990   9.349 -0.6894 -0.5664 -0.9267
 9132SOL     OW38854   0.603   3.503   3.425 -0.0959 -0.0833  0.0511
 9132SOL    HW138855   0.578   3.547   3.344  1.2342 -0.4497 -0.5543
 9132SOL    HW238856   0.568   3.566   3.488  0.0278 -1.0876  1.1444
 9133SOL     OW38857   1.305   4.564   1.682  0.0538  0.1482 -0.8858
 9133SOL    HW138858   1.330   4.654   1.706 -0.6985  0.1009  0.0573
 9133SOL    HW238859   1.340   4.521   1.760  2.3323  2.1270 -0.8315
 9134SOL     OW38860   1.269   3.581  15.549 -0.0859  0.5897 -0.1453
 9134SOL    HW138861   1.318   3.547  15.624  0.8088  1.9440 -0.1189
 9134SOL    HW238862   1.179   3.566  15.579  0.3712 -0.9176  0.4644
 9135SOL     OW38863   1.509   2.443   5.513  0.2824 -0.0635  0.2194
 9135SOL    HW138864   1.586   2.435   5.568  1.3742 -0.8993 -1.4530
 9135SOL    HW238865   1.456   2.366   5.535  1.1396 -0.7527 -0.1520
 9136SOL     OW38866   4.260   2.598   3.371 -0.1366  0.3036  0.4615
 9136SOL    HW138867   4.324   2.644   3.317  2.0859 -2.4373  0.7304
 9136SOL    HW238868   4.212   2.674   3.403 -0.2119  0.4793 -0.0675
 9137SOL     OW38869   3.720   3.535   8.192  0.1636  0.1387 -0.1513
 9137SOL    HW138870   3.746   3.443   8.191 -1.1824 -0.2300 -1.0141
 9137SOL    HW238871   3.740   3.557   8.101 -0.5032 -1.3119 -0.6460
 9138SOL     OW38872   4.578   4.112   4.910  0.6864  0.0045 -0.0749
 9138SOL    HW138873   4.586   4.152   4.996  1.5912  0.3852 -0.3399
 9138SOL    HW238874   4.490   4.140   4.882  1.0641 -0.2418 -1.5156
 9139SOL     OW38875   3.596   1.227   5.176 -0.1598 -0.1111 -1.0064
 9139SOL    HW138876   3.583   1.162   5.107  0.3420  0.2270 -1.4167
 9139SOL    HW238877   3.542   1.294   5.134  0.8100  1.6250  0.4993
 9140SOL     OW38878   0.813   0.523   3.358  0.2976 -0.0507  0.1210
 9140SOL    HW138879   0.723   0.549   3.375 -0.6308 -3.3049  0.1916
 9140SOL    HW238880   0.856   0.588   3.413 -0.5984 -0.0652  0.8292
 9141SOL     OW38881   1.130   0.161   8.659 -0.9807  0.4155 -0.4657
 9141SOL    HW138882   1.072   0.209   8.718 -0.4229 -0.3853  0.7456
 9141SOL    HW238883   1.081   0.080   8.651 -0.8226  0.3068 -0.3380
 9142SOL     OW38884   0.321   1.018   6.006 -0.5460 -0.3369 -0.4877
 9142SOL    HW138885   0.302   1.085   5.940 -1.9321  0.6104  0.8705
 9142SOL    HW238886   0.333   0.942   5.949  0.2687 -0.8152  0.3304
 9143SOL     OW38887   0.267   4.220  11.160  0.1486  0.4149  0.5666
 9143SOL    HW138888   0.268   4.163  11.084 -0.7984  0.6756  0.3718
 9143SOL    HW238889   0.342   4.269  11.126 -0.2159 -1.3382 -2.7476
 9144SOL     OW38890   3.228   4.336   5.924 -0.0804  0.6971 -0.0514
 9144SOL    HW138891   3.307   4.290   5.897 -0.9070 -0.2429 -0.8461
 9144SOL    HW238892   3.237   4.401   5.854 -0.6109  1.1937  0.3404
 9145SOL     OW38893   4.691   0.374   1.006  0.4837 -0.1995 -0.5086
 9145SOL    HW138894   0.059   0.342   1.032  0.6286  0.9301  0.3782
 9145SOL    HW238895   4.685   0.341   0.916 -0.2785  1.7780 -1.1760
 9146SOL     OW38896   1.801   0.694  12.839  0.0886 -0.3869 -0.5727
 9146SOL    HW138897   1.868   0.633  12.870  0.5199  0.6397  0.5171
 9146SOL    HW238898   1.725   0.666  12.891 -0.7423 -0.4290 -1.8195
 9147SOL     OW38899   4.674   1.202  16.833 -0.2225 -0.3873  0.6703
 9147SOL    HW138900   4.686   1.177  16.924 -1.7732 -0.5447  0.8354
 9147SOL    HW238901   4.629   1.286  16.831 -2.7431 -1.7709 -1.2870
 9148SOL     OW38902   2.684   1.062   6.298 -0.6191  0.3732 -0.3314
 9148SOL    HW138903   2.732   1.094   6.221  2.6461  0.7516  1.8554
 9148SOL    HW238904   2.594   1.064   6.267  0.0277  1.4771 -2.1277
 9149SOL     OW38905   3.313   4.486   3.084 -0.1638  0.1188  0.3708
 9149SOL    HW138906   3.336   4.541   3.158  1.2981 -1.7887  1.3050
 9149SOL    HW238907   3.351   4.406   3.119  0.0721 -0.9296 -2.2404
 9150SOL     OW38908   4.158   4.590   5.063  0.0461  0.9108  0.1857
 9150SOL    HW138909   4.087   4.532   5.092  1.8393 -0.4716  1.8387
 9150SOL    HW238910   4.214   4.527   5.018  0.8242 -0.0023  2.4257
 9151SOL     OW38911   1.413   2.126  11.319  0.1222  0.0944 -0.2896
 9151SOL    HW138912   1.463   2.129  11.237  2.4791 -0.8369  1.1015
 9151SOL    HW238913   1.370   2.211  11.329 -1.0260 -0.6226  0.8013
 9152SOL     OW38914   4.697   1.395   4.918 -0.7378 -0.2687 -0.1038
 9152SOL    HW138915   4.628   1.459   4.940 -1.4682 -0.4668 -1.7690
 9152SOL    HW238916   0.060   1.442   4.903  0.5053 -2.2212  0.7416
 9153SOL     OW38917   3.964   1.303   2.841  0.2757  0.3280  0.2269
 9153SOL    HW138918   3.991   1.394   2.852 -0.0909  0.1800  2.3845
 9153SOL    HW238919   3.908   1.308   2.764 -2.0108  0.5536  1.8948
 9154SOL     OW38920   3.611   1.695   6.201  0.1742 -0.3427  0.1660
 9154SOL    HW138921   3.533   1.641   6.214 -0.8368  1.1562  0.4195
 9154SOL    HW238922   3.644   1.727   6.285  2.2108 -1.1942 -0.3169
 9155SOL     OW38923   0.753   1.568  14.994 -0.2572 -0.0264 -0.5024
 9155SOL    HW138924   0.741   1.488  15.045 -3.1334  0.4779 -0.3376
 9155SOL    HW238925   0.833   1.604  15.030 -1.1280  1.3632  0.0597
 9156SOL     OW38926   2.988   2.916   4.723  0.4871 -0.1860 -0.3322
 9156SOL    HW138927   2.988   2.836   4.671 -2.1990  0.6772 -1.6904
 9156SOL    HW238928   3.036   2.979   4.669 -1.7567  0.9024 -1.0952
 9157SOL     OW38929   0.491   4.288   7.630  0.3337 -0.6928  0.5812
 9157SOL    HW138930   0.430   4.222   7.599 -0.7924  0.9511 -0.7252
 9157SOL    HW238931   0.436   4.331   7.695 -3.3492  0.8110 -3.5417
 9158SOL     OW38932   2.193   2.624   1.538  0.1788  0.1294  0.5532
 9158SOL    HW138933   2.288   2.612   1.543  0.0476 -0.5094  1.7271
 9158SOL    HW238934   2.185   2.715   1.511 -0.0649 -0.4660 -1.3626
 9159SOL     OW38935   2.657   3.356  10.876 -0.1667 -0.0073 -0.1841
 9159SOL    HW138936   2.624   3.309  10.799  3.2481  0.5460 -2.0339
 9159SOL    HW238937   2.743   3.374  10.838 -0.1781  1.5419  0.5343
 9160SOL     OW38938   3.383   1.115   6.150 -0.0311  0.0374 -0.1787
 9160SOL    HW138939   3.332   1.047   6.195  0.9466 -1.3067 -1.1140
 9160SOL    HW238940   3.391   1.188   6.211 -2.8600  0.2738 -0.0734
 9161SOL     OW38941   3.779   0.066   8.182 -0.8135 -0.1013 -0.1063
 9161SOL    HW138942   3.848   0.131   8.186 -2.1141  1.2893 -0.2015
 9161SOL    HW238943   3.802   4.712   8.240  1.1327  1.8970  1.6466
 9162SOL     OW38944   2.891   0.835   7.040  0.6450  0.4538  0.1120
 9162SOL    HW138945   2.934   0.751   7.022  0.2741  0.8901 -2.7939
 9162SOL    HW238946   2.854   0.819   7.127 -2.2282  2.0151 -0.8234
 9163SOL     OW38947   3.761   0.682   9.233 -0.4490  0.2390 -0.6803
 9163SOL    HW138948   3.693   0.746   9.256  0.0215  0.6643 -0.4643
 9163SOL    HW238949   3.713   0.612   9.188 -1.5976  1.1379 -0.8759
 9164SOL     OW38950   4.103   0.582   3.976 -0.4772  0.1621 -0.2333
 9164SOL    HW138951   4.134   0.496   3.946  0.8896  0.8824 -0.9067
 9164SOL    HW238952   4.095   0.626   3.892 -0.1031  1.2420  0.2940
 9165SOL     OW38953   2.447   1.851   1.847  0.0047  1.0704  0.6002
 9165SOL    HW138954   2.436   1.769   1.798  0.7895  0.0525  2.1179
 9165SOL    HW238955   2.517   1.894   1.799  0.0632  2.4028  1.8818
 9166SOL     OW38956   1.419   4.455   7.167 -0.1441 -0.2848 -0.8640
 9166SOL    HW138957   1.422   4.550   7.166 -2.6657 -0.1898  0.4665
 9166SOL    HW238958   1.488   4.431   7.105  0.9199 -0.6731  0.4621
 9167SOL     OW38959   4.584   2.936   4.479 -0.5198 -0.5362  0.0190
 9167SOL    HW138960   4.494   2.938   4.511 -0.7151 -1.9790 -0.4338
 9167SOL    HW238961   4.572   2.891   4.395  0.1127 -0.1737 -0.2580
 9168SOL     OW38962   0.928   4.331   9.429  0.2587  0.0502 -0.0541
 9168SOL    HW138963   0.941   4.268   9.358  3.0153 -0.5664  1.0054
 9168SOL    HW238964   1.017   4.342   9.463 -1.6665  0.8244  4.6608
 9169SOL     OW38965   2.858   2.760   3.111  0.2654 -0.2610  0.1289
 9169SOL    HW138966   2.865   2.665   3.104 -0.0301 -0.2783  0.0715
 9169SOL    HW238967   2.901   2.791   3.031 -0.6222 -2.8189 -1.3255
 9170SOL     OW38968   1.994   0.137  17.385  0.1520  0.2702 -0.4722
 9170SOL    HW138969   1.931   0.124  17.314  0.3023  3.0064 -1.0982
 9170SOL    HW238970   1.952   0.111  17.468  1.0332  1.0794  0.2272
 9171SOL     OW38971   3.360   2.033   6.082  0.2673 -0.1854  0.4943
 9171SOL    HW138972   3.386   2.119   6.048 -0.2620 -0.0821  0.3615
 9171SOL    HW238973   3.388   2.045   6.173  2.2292  0.1376 -0.1445
 9172SOL     OW38974   2.879   1.268  12.100 -0.5987  0.6068 -0.0730
 9172SOL    HW138975   2.921   1.238  12.181 -0.4482 -1.8322 -1.0765
 9172SOL    HW238976   2.948   1.239  12.040 -2.7392 -3.7489 -0.3783
 9173SOL     OW38977   1.834   3.587   3.905 -0.1186  0.0434  0.0899
 9173SOL    HW138978   1.865   3.501   3.934 -3.2188 -0.7432  1.1218
 9173SOL    HW238979   1.757   3.601   3.960  1.2436  1.7643  1.5224
 9174SOL     OW38980   3.059   1.083  17.281 -0.2185 -0.4572  0.3329
 9174SOL    HW138981   3.028   0.995  17.258  1.2271 -1.0175  0.4993
 9174SOL    HW238982   3.153   1.075  17.263 -0.3166  1.1996 -0.9360
 9175SOL     OW38983   0.050   3.619  11.166  0.0988 -0.0306  0.5755
 9175SOL    HW138984   4.674   3.616  11.155 -0.0150 -0.8457  1.7069
 9175SOL    HW238985   0.080   3.594  11.079 -0.1703  1.3962  0.0684
 9176SOL     OW38986   1.580   2.547   4.467  0.3714 -0.6943  0.0477
 9176SOL    HW138987   1.585   2.534   4.372 -1.7160 -0.0696 -0.1534
 9176SOL    HW238988   1.656   2.605   4.478 -1.0016  1.8595 -3.7142
 9177SOL     OW38989   3.602   1.488   2.773 -0.4440 -0.6818 -0.2054
 9177SOL    HW138990   3.515   1.454   2.795  0.0847  0.2660  3.1876
 9177SOL    HW238991   3.636   1.514   2.858 -1.5071 -0.4609  0.1576
 9178SOL     OW38992   2.081   3.450   6.595 -0.4068  0.2639 -0.3291
 9178SOL    HW138993   2.018   3.475   6.527 -0.3725  0.7584 -0.1832
 9178SOL    HW238994   2.168   3.477   6.564 -0.5336 -1.1944 -1.9715
 9179SOL     OW38995   1.150   0.906   9.383 -0.0756 -0.1968  0.0748
 9179SOL    HW138996   1.055   0.899   9.379 -0.1719  0.6825  0.8421
 9179SOL    HW238997   1.180   0.821   9.350  1.6934  1.1082 -1.6765
 9180SOL     OW38998   2.063   2.729  12.136 -0.1089 -0.2319 -0.1649
 9180SOL    HW138999   2.004   2.660  12.164 -0.9516  0.5322 -0.0440
 9180SOL    HW239000   2.058   2.792  12.208 -1.8353  0.6113 -1.0264
 9181SOL     OW39001   0.858   0.519   5.392 -0.0990  0.3694  0.5613
 9181SOL    HW139002   0.795   0.528   5.321  2.3164  1.3022 -1.4494
 9181SOL    HW239003   0.911   0.598   5.383  0.6274 -0.0456  1.2476
 9182SOL     OW39004   1.649   2.168   1.109  0.0494 -0.3868  0.6459
 9182SOL    HW139005   1.656   2.077   1.139  0.7712 -0.6845 -0.4182
 9182SOL    HW239006   1.571   2.164   1.054  0.6634 -1.1944 -0.1842
 9183SOL     OW39007   3.417   2.485   9.019 -0.4838 -0.1111  0.2940
 9183SOL    HW139008   3.500   2.530   9.036  0.5286 -1.5371 -0.8450
 9183SOL    HW239009   3.425   2.492   8.924  0.2553  0.6498  0.4094
 9184SOL     OW39010   2.235   2.206   5.312 -0.2784 -0.1646 -0.2843
 9184SOL    HW139011   2.198   2.153   5.383  2.4027 -0.6149  0.7555
 9184SOL    HW239012   2.156   2.242   5.272 -0.1962  0.4651  0.1090
 9185SOL     OW39013   0.774   4.109   9.712 -0.0639 -0.5085  0.4394
 9185SOL    HW139014   0.774   4.090   9.618  0.7443 -0.4571  0.4297
 9185SOL    HW239015   0.720   4.189   9.713 -1.3581 -1.3584 -0.8994
 9186SOL     OW39016   4.204   2.251   6.218 -0.3301  0.1576 -0.7321
 9186SOL    HW139017   4.244   2.244   6.305  1.3644  1.4275 -1.4082
 9186SOL    HW239018   4.120   2.209   6.235 -0.8637  1.3683 -0.4054
 9187SOL     OW39019   0.747   4.620  15.153  0.7415 -0.4681 -0.6909
 9187SOL    HW139020   0.686   4.693  15.139 -0.6824 -1.8258 -1.5370
 9187SOL    HW239021   0.724   4.572  15.073  4.2825  0.0435 -2.0406
 9188SOL     OW39022   1.762   1.449  12.440  0.1345  0.5186 -0.3288
 9188SOL    HW139023   1.819   1.446  12.518  0.6178  2.6183 -0.5953
 9188SOL    HW239024   1.838   1.473  12.388  1.2203  2.0836  1.9642
 9189SOL     OW39025   2.299   0.027  13.532  0.0115  0.3167 -0.2330
 9189SOL    HW139026   2.392   0.049  13.536 -0.3101  1.2891  1.7707
 9189SOL    HW239027   2.307   4.668  13.477 -0.5393  0.6410 -0.7777
 9190SOL     OW39028   3.293   2.240   7.510  0.0884  0.0109 -0.2066
 9190SOL    HW139029   3.203   2.229   7.478 -0.0596 -2.3521  1.0098
 9190SOL    HW239030   3.321   2.303   7.443 -1.8769 -2.2622 -3.1712
 9191SOL     OW39031   3.511   0.572  13.832  0.1270  0.3586  0.2691
 9191SOL    HW139032   3.494   0.627  13.756 -1.1042  0.5825  0.7070
 9191SOL    HW239033   3.594   0.530  13.808 -0.4988  0.1797 -1.5488
 9192SOL     OW39034   0.227   2.194  15.897  0.0542 -0.5845  0.0013
 9192SOL    HW139035   0.220   2.103  15.868 -1.3564 -0.4936  0.0421
 9192SOL    HW239036   0.158   2.183  15.963 -1.1206  1.0691 -0.9651
 9193SOL     OW39037   0.156   0.867   7.886  0.3504 -0.4221 -0.4020
 9193SOL    HW139038   0.160   0.787   7.938  2.7246 -0.8195 -1.2325
 9193SOL    HW239039   0.153   0.835   7.796 -0.6940  0.2598 -0.6138
 9194SOL     OW39040   4.056   0.808   0.570 -0.7044 -0.4529 -0.1664
 9194SOL    HW139041   4.051   0.890   0.521 -0.9852 -1.1355 -1.2658
 9194SOL    HW239042   4.053   0.745   0.499  0.9447 -0.4040 -0.2697
 9195SOL     OW39043   3.084   3.972   4.604  0.2690  0.7358 -0.1040
 9195SOL    HW139044   3.070   3.902   4.541  2.0955  0.1708  0.1398
 9195SOL    HW239045   3.178   3.990   4.608  0.7759 -2.0491  0.4768
 9196SOL     OW39046   0.802   3.334   3.363  0.1211  0.2424 -0.4539
 9196SOL    HW139047   0.873   3.367   3.417  1.8247 -0.2580 -2.4078
 9196SOL    HW239048   0.730   3.396   3.377 -0.4145 -0.5270  0.1595
 9197SOL     OW39049   4.684   4.610  10.872  0.4483 -0.4607 -0.7555
 9197SOL    HW139050   4.667   4.703  10.859 -1.9112 -0.8580 -0.4455
 9197SOL    HW239051   4.655   4.571  10.790  0.4909 -0.3125 -0.8391
 9198SOL     OW39052   0.648   0.664   7.255  0.5730 -0.3975  0.0099
 9198SOL    HW139053   0.568   0.714   7.238  1.4495  0.9583 -0.1331
 9198SOL    HW239054   0.699   0.675   7.175  1.1253  0.7096  0.5161
 9199SOL     OW39055   1.350   0.831   2.002  0.0471  0.2473 -0.7004
 9199SOL    HW139056   1.399   0.852   2.082  2.5201 -2.4533 -1.5334
 9199SOL    HW239057   1.301   0.912   1.984  1.0036  1.1227  0.6498
 9200SOL     OW39058   3.699   1.278   3.170 -0.6990 -0.0275  0.3604
 9200SOL    HW139059   3.620   1.225   3.179 -1.9688  1.3700 -2.7615
 9200SOL    HW239060   3.668   1.358   3.128  1.1185  0.5751  0.1465
 9201SOL     OW39061   3.878   3.106   7.910 -0.9400  0.5387  0.1664
 9201SOL    HW139062   3.964   3.076   7.880 -1.7627 -0.1081 -1.5898
 9201SOL    HW239063   3.831   3.129   7.829  0.3795  2.4412 -0.0490
 9202SOL     OW39064   0.836   0.285   6.805 -0.5673  0.3291  0.5828
 9202SOL    HW139065   0.888   0.204   6.807 -0.9758  0.0427 -0.3646
 9202SOL    HW239066   0.769   0.258   6.868 -0.2401  1.9208  1.5991
 9203SOL     OW39067   0.987   2.561  12.346  0.2461 -0.2813  0.6144
 9203SOL    HW139068   0.991   2.591  12.437  0.7434 -0.5581  0.6843
 9203SOL    HW239069   1.027   2.638  12.306 -0.7107  0.8194  1.7729
 9204SOL     OW39070   1.483   0.452   4.967 -0.3746 -0.3488  0.0664
 9204SOL    HW139071   1.563   0.401   4.970 -0.6054 -0.5568  2.5953
 9204SOL    HW239072   1.438   0.440   4.883  3.0645 -2.0704 -1.5100
 9205SOL     OW39073   4.481   3.457   9.801 -0.5383 -0.0714 -0.0430
 9205SOL    HW139074   4.499   3.411   9.883  1.9725  1.7885  0.4439
 9205SOL    HW239075   4.457   3.374   9.759  1.9677 -1.5129  1.3874
 9206SOL     OW39076   4.403   0.469  13.200  0.7737 -0.4705 -0.0995
 9206SOL    HW139077   4.419   0.562  13.183 -3.9654  0.4053  0.1207
 9206SOL    HW239078   4.379   0.466  13.293  1.0371 -2.2418 -0.0907
 9207SOL     OW39079   4.090   3.912   3.202  0.3739  0.0610 -0.4013
 9207SOL    HW139080   4.176   3.947   3.178 -0.1038  0.6448 -1.2470
 9207SOL    HW239081   4.041   3.951   3.130  1.0175 -2.0504 -1.9654
 9208SOL     OW39082   3.668   3.387  12.322  0.6586  0.1701 -0.1827
 9208SOL    HW139083   3.734   3.455  12.336 -0.1218  0.5350  1.6375
 9208SOL    HW239084   3.614   3.406  12.398 -0.1476 -0.2707 -0.6425
 9209SOL     OW39085   0.750   1.043   9.434  0.1685  0.1811  0.2942
 9209SOL    HW139086   0.822   0.980   9.436  0.2684  0.2628 -0.7329
 9209SOL    HW239087   0.695   1.021   9.510 -0.4356  0.2451 -0.1235
 9210SOL     OW39088   3.106   3.209   9.761 -0.0609 -0.2323  0.9261
 9210SOL    HW139089   3.038   3.261   9.805  0.8981  0.4092  1.6454
 9210SOL    HW239090   3.088   3.121   9.792  4.3239 -1.3026  0.4075
 9211SOL     OW39091   1.682   3.764  15.970 -0.0739 -0.1336  0.6503
 9211SOL    HW139092   1.767   3.730  15.998  0.4755  0.6778 -0.0551
 9211SOL    HW239093   1.692   3.773  15.875  1.4048  1.7569  1.0061
 9212SOL     OW39094   4.246   3.547   8.620  0.2704 -0.2065  0.1386
 9212SOL    HW139095   4.315   3.606   8.589  1.1561 -0.6600  1.2779
 9212SOL    HW239096   4.203   3.521   8.538  2.0489  2.1927 -1.5550
 9213SOL     OW39097   4.414   1.761   6.237 -0.5706 -0.0669  0.5434
 9213SOL    HW139098   4.492   1.723   6.196 -0.9439 -0.1452 -0.1000
 9213SOL    HW239099   4.399   1.691   6.300  0.6952  0.6101  1.5916
 9214SOL     OW39100   2.603   4.568   9.191 -0.2881  0.0120  0.5911
 9214SOL    HW139101   2.519   4.557   9.235  0.0145  0.4157  1.2719
 9214SOL    HW239102   2.566   4.580   9.104 -0.4116 -0.0521  0.6342
 9215SOL     OW39103   1.739   1.537   3.881 -0.4851 -0.3706  0.4288
 9215SOL    HW139104   1.784   1.494   3.808 -1.7990 -2.6002  0.9107
 9215SOL    HW239105   1.700   1.614   3.839  0.1525  0.8021  2.0095
 9216SOL     OW39106   3.092   3.565  12.705 -0.0891 -0.2551  0.0648
 9216SOL    HW139107   3.022   3.625  12.731  0.9225 -0.2311  2.7000
 9216SOL    HW239108   3.072   3.542  12.615 -0.8362 -1.2971  0.4990
 9217SOL     OW39109   2.977   0.803  15.537 -0.2523 -0.1194 -0.3570
 9217SOL    HW139110   2.967   0.758  15.453  0.9686  0.2934 -0.7227
 9217SOL    HW239111   3.068   0.789  15.562 -0.0958  1.5034  0.0238
 9218SOL     OW39112   4.427   3.025   7.694 -1.1137  0.1859  0.3632
 9218SOL    HW139113   4.479   2.946   7.712 -0.9288  0.5499  1.4270
 9218SOL    HW239114   4.353   3.010   7.752 -0.0557  0.0509  1.6801
 9219SOL     OW39115   1.507   2.631  17.423  0.1579  0.0565  0.7325
 9219SOL    HW139116   1.447   2.629  17.498  1.3835 -1.2958  1.6923
 9219SOL    HW239117   1.499   2.724  17.401 -0.5679 -0.5842 -1.6764
 9220SOL     OW39118   0.084   2.380   0.117  0.1443  0.0249  0.3218
 9220SOL    HW139119   0.025   2.408   0.187 -0.7235 -0.0083 -0.3907
 9220SOL    HW239120   0.055   2.428   0.039  1.3978 -0.3022 -0.3472
 9221SOL     OW39121   3.997   4.241   8.348  0.0494  0.2669 -0.5390
 9221SOL    HW139122   4.084   4.253   8.388  1.0900 -4.3001 -1.3783
 9221SOL    HW239123   4.008   4.157   8.304 -0.7767 -1.3936  2.4762
 9222SOL     OW39124   0.959   0.248   9.805 -0.4221 -0.2482  0.1072
 9222SOL    HW139125   0.889   0.241   9.869  0.4171 -1.4892  0.8782
 9222SOL    HW239126   0.905   0.256   9.726 -1.9806 -0.1305  1.1912
 9223SOL     OW39127   0.165   2.954   3.924 -0.4575  0.3332 -0.3782
 9223SOL    HW139128   0.081   2.946   3.879 -0.2192 -0.8937 -0.5940
 9223SOL    HW239129   0.167   3.043   3.959  1.1466  0.7072 -1.4286
 9224SOL     OW39130   2.816   0.163   8.365  0.1565  0.0157  0.5873
 9224SOL    HW139131   2.728   0.199   8.376  0.6029  1.1361  0.4670
 9224SOL    HW239132   2.797   0.084   8.315  1.5487  1.2711 -1.9481
 9225SOL     OW39133   0.737   2.310   4.071  0.0066  0.6014  0.3806
 9225SOL    HW139134   0.669   2.301   4.004 -0.6474  2.5593  0.7773
 9225SOL    HW239135   0.815   2.260   4.046 -1.6749 -2.4420  1.1164
 9226SOL     OW39136   3.318   3.518   5.948  0.3706 -0.3675  0.4297
 9226SOL    HW139137   3.357   3.436   5.980 -1.1746 -1.5938 -0.8787
 9226SOL    HW239138   3.344   3.573   6.022  0.1952  0.4736 -0.1362
 9227SOL     OW39139   1.768   4.666  11.373 -0.5173  0.2436  0.1678
 9227SOL    HW139140   1.739   4.669  11.282 -2.2176 -0.4866  0.6850
 9227SOL    HW239141   1.828   4.591  11.376  0.9296  1.3112 -1.7074
 9228SOL     OW39142   4.491   1.974  17.530 -0.4897 -0.4398  0.0473
 9228SOL    HW139143   4.407   2.021  17.527  0.5067  1.4396  1.6114
 9228SOL    HW239144   4.523   1.994  17.442 -1.5724 -1.9231 -0.6768
 9229SOL     OW39145   0.412   0.882  14.044  0.0389 -0.5538 -0.8641
 9229SOL    HW139146   0.378   0.794  14.061 -0.6613 -0.1916 -0.4130
 9229SOL    HW239147   0.461   0.869  13.963  0.4199 -2.3367 -0.3523
 9230SOL     OW39148   3.931   4.459  12.333  0.2666  0.1522  0.0712
 9230SOL    HW139149   3.925   4.386  12.395  1.1630  2.9098  3.3550
 9230SOL    HW239150   4.011   4.502  12.364 -0.6947  2.4170 -0.5989
 9231SOL     OW39151   0.069   0.574  10.698 -0.2025 -0.1049 -0.2200
 9231SOL    HW139152   0.061   0.624  10.780  0.1347 -1.3742  0.5919
 9231SOL    HW239153   0.060   0.484  10.731 -1.7070  0.7295  1.6800
 9232SOL     OW39154   0.499   2.510   5.696  0.2012 -0.1074  0.6410
 9232SOL    HW139155   0.510   2.422   5.733 -0.8638 -0.7101 -0.4563
 9232SOL    HW239156   0.519   2.496   5.604 -2.8614 -1.4764  0.1761
 9233SOL     OW39157   2.192   3.075   1.681  0.1215  1.0810 -0.1194
 9233SOL    HW139158   2.158   3.160   1.650  0.2103  1.3888  0.6431
 9233SOL    HW239159   2.285   3.091   1.691  0.3591 -0.9323  0.7373
 9234SOL     OW39160   0.355   3.597   5.129  0.0501 -1.2329  0.3044
 9234SOL    HW139161   0.408   3.541   5.071  0.9786  1.2179 -1.2080
 9234SOL    HW239162   0.348   3.674   5.072  1.0670  0.3880  2.4260
 9235SOL     OW39163   2.497   0.202   7.750 -0.0981  0.6314 -0.5174
 9235SOL    HW139164   2.485   0.251   7.831 -3.7707 -1.4774  0.1983
 9235SOL    HW239165   2.424   0.240   7.701 -0.3811 -0.4131 -0.9194
 9236SOL     OW39166   3.041   1.857   4.956  0.3684  0.0269  0.1529
 9236SOL    HW139167   3.101   1.914   5.004 -1.3981  1.1996  0.9462
 9236SOL    HW239168   2.965   1.863   5.013  1.2188  1.5206  1.1354
 9237SOL     OW39169   4.409   3.977   8.059 -0.3815 -0.0636  0.1440
 9237SOL    HW139170   4.419   3.919   7.984 -2.1536  0.4750 -0.5024
 9237SOL    HW239171   4.441   4.055   8.014 -1.3855 -0.3800 -1.1171
 9238SOL     OW39172   3.340   3.253  16.727 -1.0056 -0.0641 -0.3067
 9238SOL    HW139173   3.306   3.168  16.701  0.6765 -1.2820  1.4870
 9238SOL    HW239174   3.262   3.306  16.711  0.7641  2.3734 -0.8805
 9239SOL     OW39175   1.958   0.217  12.809 -0.5305  0.1921  0.7482
 9239SOL    HW139176   1.887   0.208  12.873 -0.1295  0.1360  1.1844
 9239SOL    HW239177   1.935   0.133  12.769 -1.2596  0.9955 -0.5234
 9240SOL     OW39178   4.036   1.419   6.846 -0.3267  0.0672  0.5385
 9240SOL    HW139179   4.097   1.350   6.872 -0.7925 -1.7848 -3.3543
 9240SOL    HW239180   4.001   1.383   6.765 -0.5039  1.1847  0.1133
 9241SOL     OW39181   1.266   1.743  12.051  0.0012 -0.0447  0.6018
 9241SOL    HW139182   1.324   1.817  12.068 -1.5828  1.1358  0.9570
 9241SOL    HW239183   1.222   1.743  12.136  0.5076 -1.8684  0.8710
 9242SOL     OW39184   4.414   1.776  10.635  0.6647 -0.0700 -0.3311
 9242SOL    HW139185   4.447   1.855  10.593 -1.9799  2.4452  2.3362
 9242SOL    HW239186   4.434   1.701  10.579  1.5527 -0.6460  0.7489
 9243SOL     OW39187   4.634   0.986  15.229  0.0950  0.3653 -0.0508
 9243SOL    HW139188   4.681   1.002  15.147 -1.2036 -2.2631 -1.3234
 9243SOL    HW239189   4.645   1.077  15.256 -0.4016  0.8449 -1.4548
 9244SOL     OW39190   3.895   4.386  16.142 -0.2780  0.1659  0.9182
 9244SOL    HW139191   3.850   4.467  16.165 -1.0515  1.1498 -4.0345
 9244SOL    HW239192   3.877   4.341  16.224 -2.6230 -2.1623 -0.8335
 9245SOL     OW39193   3.409   1.065   1.329 -0.7456  0.4053 -0.2104
 9245SOL    HW139194   3.361   0.986   1.352  1.0566 -0.4325  0.6261
 9245SOL    HW239195   3.437   1.045   1.240  1.2238 -3.8218  1.4016
 9246SOL     OW39196   2.010   3.817   2.062 -0.4831 -0.3771  0.4770
 9246SOL    HW139197   1.951   3.890   2.044 -1.2298 -1.2452 -0.5920
 9246SOL    HW239198   2.044   3.817   1.972 -1.4484  0.4648  0.1131
 9247SOL     OW39199   3.793   2.684   9.538 -0.4878 -0.2356  0.2194
 9247SOL    HW139200   3.869   2.707   9.484 -0.3367 -0.6148  0.2747
 9247SOL    HW239201   3.736   2.625   9.489  0.6253 -1.7613  0.7627
 9248SOL     OW39202   1.311   3.621  17.676 -0.4368 -0.3557  0.2617
 9248SOL    HW139203   1.292   3.714   0.012 -1.4236 -0.2480 -1.5779
 9248SOL    HW239204   1.336   3.588   0.083 -1.2975 -0.9320  0.2958
 9249SOL     OW39205   4.572   0.949   1.998 -0.4310 -0.2774  0.7328
 9249SOL    HW139206   4.556   0.857   2.021  1.0265 -0.8340 -0.4928
 9249SOL    HW239207   4.662   0.965   2.024 -0.3136 -1.4298  1.0454
 9250SOL     OW39208   1.788   2.698   4.508  0.3441 -0.0485 -0.2574
 9250SOL    HW139209   1.881   2.682   4.525  0.8825  0.4270 -2.6497
 9250SOL    HW239210   1.789   2.793   4.509 -0.0191 -0.0571  1.1902
 9251SOL     OW39211   4.513   4.675   6.542 -0.0684 -0.0156  0.1861
 9251SOL    HW139212   4.461   4.622   6.602 -0.4174  0.3494  0.2044
 9251SOL    HW239213   4.575   4.716   6.602  0.9508 -0.5791 -0.4607
 9252SOL     OW39214   2.006   4.026   7.041 -0.0353  0.6898  0.5790
 9252SOL    HW139215   1.956   4.062   7.115  1.3055  1.2755  1.2079
 9252SOL    HW239216   2.094   4.063   7.052  1.3479 -2.1627 -1.0044
 9253SOL     OW39217   0.120   4.598   1.685 -0.0495 -0.2049  0.2291
 9253SOL    HW139218   0.064   4.633   1.617  0.4418  0.9048  0.4026
 9253SOL    HW239219   0.181   4.546   1.632 -2.6492  0.7243 -3.6068
 9254SOL     OW39220   2.971   2.337   7.151  0.0943 -0.2852 -0.1845
 9254SOL    HW139221   2.985   2.244   7.168  0.9242  0.3634  2.5638
 9254SOL    HW239222   2.878   2.334   7.132 -0.3108 -0.0104  1.7781
 9255SOL     OW39223   3.399   0.445   3.690  0.0506 -0.4290  0.2379
 9255SOL    HW139224   3.389   0.350   3.689 -0.8724 -0.3217 -0.3805
 9255SOL    HW239225   3.310   0.465   3.663 -0.0098 -1.5890 -0.3790
 9256SOL     OW39226   4.679   4.300   2.775 -0.0290 -0.0655 -0.1468
 9256SOL    HW139227   4.666   4.383   2.728 -0.7082 -0.1756 -0.1481
 9256SOL    HW239228   0.045   4.274   2.740 -0.5228 -1.1355 -0.5446
 9257SOL     OW39229   3.661   0.532   1.865 -0.5383  0.1896  0.5547
 9257SOL    HW139230   3.743   0.579   1.851 -2.0691  2.7206  0.1644
 9257SOL    HW239231   3.685   0.466   1.930 -1.0324 -2.1841 -1.6525
 9258SOL     OW39232   0.639   0.834   4.524  0.1692  0.9335  0.1369
 9258SOL    HW139233   0.605   0.794   4.604 -0.3526  1.4712  0.1832
 9258SOL    HW239234   0.675   0.752   4.489  0.1720  1.7504 -1.7802
 9259SOL     OW39235   1.638   0.325  13.244 -0.9560 -0.3989  0.0898
 9259SOL    HW139236   1.662   0.272  13.320  1.3912  0.2681 -0.1796
 9259SOL    HW239237   1.631   0.252  13.183  3.1652 -1.5093  0.8989
 9260SOL     OW39238   3.419   1.554   3.786  0.3308 -0.2196  0.4078
 9260SOL    HW139239   3.440   1.619   3.719 -0.3543  1.0478  1.4282
 9260SOL    HW239240   3.328   1.572   3.812 -0.7377 -1.4596 -2.4422
 9261SOL     OW39241   2.888   4.673   6.004 -0.6399 -0.4043  0.0488
 9261SOL    HW139242   2.881   4.646   6.096  0.4698  1.5221  0.6883
 9261SOL    HW239243   2.869   4.587   5.967  0.4853 -0.1118 -1.1716
 9262SOL     OW39244   1.851   1.810   6.371 -0.4251 -0.0069 -0.1069
 9262SOL    HW139245   1.850   1.891   6.320  0.4164  0.3849  0.5105
 9262SOL    HW239246   1.760   1.785   6.381 -0.2835 -0.9574 -1.1454
 9263SOL     OW39247   1.552   3.187   3.415 -0.3937 -0.3712 -0.0030
 9263SOL    HW139248   1.636   3.231   3.403 -0.2173 -0.6685  0.1162
 9263SOL    HW239249   1.568   3.100   3.377 -0.8038 -0.7877  0.7547
 9264SOL     OW39250   0.059   1.511  17.117  0.2184  0.1284  0.1877
 9264SOL    HW139251   0.080   1.509  17.024 -2.0687  0.8990 -0.3655
 9264SOL    HW239252   0.026   1.601  17.123  0.3671  0.2239 -0.4852
 9265SOL     OW39253   3.807   3.301   9.098  0.0382 -0.2829 -0.0929
 9265SOL    HW139254   3.753   3.357   9.042  0.1156  0.1860  0.3037
 9265SOL    HW239255   3.878   3.365   9.101  1.2153 -1.5369 -1.2950
 9266SOL     OW39256   0.846   3.491  12.300 -0.2091 -0.1643  0.6473
 9266SOL    HW139257   0.887   3.576  12.283 -1.6428  0.4179  0.0957
 9266SOL    HW239258   0.845   3.456  12.211  1.7569 -0.8031  0.8650
 9267SOL     OW39259   3.217   0.309   7.875  0.4479 -0.0611 -0.4932
 9267SOL    HW139260   3.291   0.369   7.884  2.0222 -1.9612 -0.6905
 9267SOL    HW239261   3.233   0.271   7.788 -1.7671 -0.3752 -0.7721
 9268SOL     OW39262   4.466   0.042   2.340 -0.8317  0.1023  0.3008
 9268SOL    HW139263   4.458   0.013   2.249  1.2607  2.2015 -0.5320
 9268SOL    HW239264   4.379   0.069   2.371  0.8119  0.6785  4.3224
 9269SOL     OW39265   4.114   1.638   4.122  0.0401  0.1240 -0.3056
 9269SOL    HW139266   4.160   1.713   4.160  1.1823 -2.0457  2.5430
 9269SOL    HW239267   4.048   1.689   4.076 -0.9067 -1.7857 -1.0641
 9270SOL     OW39268   3.005   1.555   5.039  0.6233 -0.0525 -0.4599
 9270SOL    HW139269   3.054   1.628   5.077  0.5113  0.5670 -1.5180
 9270SOL    HW239270   2.948   1.526   5.110  1.7782 -0.1592  0.4252
 9271SOL     OW39271   0.481   0.838   5.362  0.3076 -0.7233 -0.1006
 9271SOL    HW139272   0.477   0.898   5.437 -1.2201 -0.4155 -0.4155
 9271SOL    HW239273   0.389   0.840   5.336  0.6047  0.4416 -1.0835
 9272SOL     OW39274   0.285   4.436   5.445  0.3937  0.5728  0.0949
 9272SOL    HW139275   0.326   4.392   5.520 -2.9529 -1.3985  0.7259
 9272SOL    HW239276   0.343   4.510   5.429  2.1084 -0.8472 -0.2776
 9273SOL     OW39277   3.544   3.066  10.031 -0.3151  0.6198  0.2118
 9273SOL    HW139278   3.634   3.034  10.028 -0.8546 -0.9635  0.7300
 9273SOL    HW239279   3.546   3.130   9.960 -1.9895  0.3024 -0.1203
 9274SOL     OW39280   0.548   2.250   3.899 -0.0695  0.4184 -0.1203
 9274SOL    HW139281   0.471   2.305   3.914 -0.3420 -0.0484  0.1866
 9274SOL    HW239282   0.567   2.242   3.805 -0.4327  1.2254 -0.2625
 9275SOL     OW39283   3.988   1.253  12.446  0.0927 -0.7225  0.1757
 9275SOL    HW139284   4.055   1.186  12.431 -0.0990 -0.6418 -0.9801
 9275SOL    HW239285   3.911   1.199  12.430 -1.2451  0.2595  3.2614
 9276SOL     OW39286   3.441   4.411   7.692  0.0180 -0.1477 -0.0257
 9276SOL    HW139287   3.443   4.499   7.731  1.5297 -0.1363 -0.1334
 9276SOL    HW239288   3.425   4.431   7.600 -3.3688 -1.3376  0.2770
 9277SOL     OW39289   4.581   3.530  17.072  0.2827  0.3231  0.9096
 9277SOL    HW139290   4.587   3.510  17.165  0.9724 -1.0490  0.5740
 9277SOL    HW239291   4.552   3.621  17.065  1.1598  0.4811 -0.6635
 9278SOL     OW39292   0.037   2.036  12.408  0.3478 -0.2238 -0.2370
 9278SOL    HW139293   0.129   2.032  12.436  0.3073 -0.0593 -0.0773
 9278SOL    HW239294   0.036   1.941  12.397 -1.4243 -0.1070 -1.0250
 9279SOL     OW39295   0.528   1.931   6.018 -0.1073 -0.1034 -0.5052
 9279SOL    HW139296   0.590   1.864   5.990 -1.0804 -0.3946 -1.9447
 9279SOL    HW239297   0.457   1.868   6.034 -0.9681  1.0787  0.3224
 9280SOL     OW39298   1.259   1.806  13.613  0.3759 -0.4097  0.6632
 9280SOL    HW139299   1.321   1.749  13.567  1.4126  1.1539  0.1376
 9280SOL    HW239300   1.312   1.851  13.678  0.4758 -0.6964  0.7807
 9281SOL     OW39301   2.373   4.661   2.509 -0.2371 -0.0275 -0.2543
 9281SOL    HW139302   2.305   4.620   2.455  0.8851  0.1836 -1.8400
 9281SOL    HW239303   2.420   4.701   2.436 -0.9006 -0.5440 -0.9638
 9282SOL     OW39304   4.577   0.554   4.115 -0.6802  0.7479  0.0962
 9282SOL    HW139305   4.492   0.515   4.131 -0.0570 -0.8298 -0.4811
 9282SOL    HW239306   4.636   0.491   4.156  0.6741  2.3593  0.6312
 9283SOL     OW39307   3.929   3.750   6.490  0.1555  0.0636  0.7645
 9283SOL    HW139308   3.976   3.811   6.547  3.2818 -0.5238 -1.2003
 9283SOL    HW239309   4.006   3.717   6.444 -0.9592 -1.5079  0.0345
 9284SOL     OW39310   3.484   2.129   9.962 -0.3666  0.0287  0.3442
 9284SOL    HW139311   3.509   2.168  10.046  3.9582 -0.7570 -0.5925
 9284SOL    HW239312   3.428   2.055   9.986 -0.1017 -0.5800 -0.9137
 9285SOL     OW39313   2.483   2.957   9.092  0.4712 -0.0619  0.0490
 9285SOL    HW139314   2.464   3.011   9.016 -1.7888 -1.3002 -0.2650
 9285SOL    HW239315   2.574   2.981   9.112 -0.8507  1.8607  3.7053
 9286SOL     OW39316   1.420   0.029   6.994  0.1021 -0.6346 -0.5546
 9286SOL    HW139317   1.501   0.074   7.018  0.1498 -1.0267  0.0296
 9286SOL    HW239318   1.377   0.101   6.949 -0.2453 -0.4400  0.0785
 9287SOL     OW39319   0.035   2.946   3.328  0.1813 -0.8671 -0.2634
 9287SOL    HW139320   0.082   2.869   3.359 -0.1409 -0.5542  0.9819
 9287SOL    HW239321   0.088   2.970   3.252  2.1450 -1.1411  1.0293
 9288SOL     OW39322   4.477   0.794  11.344  0.3020 -0.4284 -0.2490
 9288SOL    HW139323   4.546   0.860  11.349 -0.7610  0.6370  0.1719
 9288SOL    HW239324   4.396   0.842  11.362  0.4521 -0.2728 -0.0014
 9289SOL     OW39325   2.191   1.679  14.584  0.4204  0.2463  0.2827
 9289SOL    HW139326   2.213   1.666  14.676  0.3815 -0.3476  0.2120
 9289SOL    HW239327   2.198   1.589  14.552 -2.2157 -0.3451  1.3863
 9290SOL     OW39328   2.096   2.187   8.126  0.2778  0.1253  0.3823
 9290SOL    HW139329   2.150   2.144   8.193  1.4720 -0.9428 -1.2799
 9290SOL    HW239330   2.028   2.227   8.180  1.5253  0.1249  1.9899
 9291SOL     OW39331   3.004   2.032  14.402  0.5966 -0.3893 -0.0212
 9291SOL    HW139332   2.940   1.997  14.464  1.3177 -2.7407 -0.6173
 9291SOL    HW239333   2.975   2.003  14.315 -0.2770  2.3002 -0.6364
 9292SOL     OW39334   2.128   3.223  17.267  0.1714  0.3070 -0.1274
 9292SOL    HW139335   2.216   3.243  17.235  0.3933 -0.9780 -0.3167
 9292SOL    HW239336   2.109   3.315  17.283  2.7608  0.5237  1.7308
 9293SOL     OW39337   2.675   4.350   9.367  0.1263 -0.1254 -0.1489
 9293SOL    HW139338   2.655   4.421   9.306 -0.4994 -1.4586 -1.4748
 9293SOL    HW239339   2.682   4.400   9.449 -0.0255  1.0052 -0.8371
 9294SOL     OW39340   2.476   0.547   6.363  0.5400  0.4287 -0.5737
 9294SOL    HW139341   2.459   0.634   6.326 -1.3109 -0.6563 -2.2489
 9294SOL    HW239342   2.389   0.539   6.403  0.4092 -0.8547 -1.1432
 9295SOL     OW39343   1.536   0.036   2.160 -0.1523 -0.1238 -0.0280
 9295SOL    HW139344   1.539   0.101   2.230  0.6419  0.9461 -1.0707
 9295SOL    HW239345   1.444   0.012   2.149  0.1611 -1.0878 -0.5953
 9296SOL     OW39346   3.290   0.660   0.648  0.7733 -0.1657 -0.0597
 9296SOL    HW139347   3.322   0.650   0.558  1.1729 -1.9572  0.2763
 9296SOL    HW239348   3.216   0.718   0.636 -0.6976 -2.2828 -1.1982
 9297SOL     OW39349   4.224   0.547   8.954  0.2553  0.5237 -0.5384
 9297SOL    HW139350   4.185   0.627   8.920  1.6547  0.5717 -2.0532
 9297SOL    HW239351   4.222   0.558   9.049  0.8700 -4.2180  0.0217
 9298SOL     OW39352   2.029   4.440   4.110 -0.7470  0.0378 -0.4594
 9298SOL    HW139353   2.057   4.457   4.020  1.3467 -1.3047 -0.0689
 9298SOL    HW239354   2.013   4.345   4.107 -1.2021  0.1606 -1.8074
 9299SOL     OW39355   3.342   1.990   1.874 -0.0172  0.0987  0.5972
 9299SOL    HW139356   3.374   1.903   1.898  1.7750  0.1538 -1.5109
 9299SOL    HW239357   3.422   2.040   1.889 -0.3604  1.4082 -1.9030
 9300SOL     OW39358   3.546   3.935  17.051  0.0907 -0.0014 -0.4170
 9300SOL    HW139359   3.636   3.913  17.076  0.4271  2.4216  0.4631
 9300SOL    HW239360   3.487   3.909  17.122 -1.6345  0.0214 -1.8431
 9301SOL     OW39361   1.441   2.719   0.296  1.6214 -0.7725 -0.0843
 9301SOL    HW139362   1.512   2.702   0.358  1.2709  1.7555  1.0268
 9301SOL    HW239363   1.367   2.684   0.345  1.0035  1.9885  0.9568
 9302SOL     OW39364   4.272   0.305  17.134  0.0231  0.1801 -0.0040
 9302SOL    HW139365   4.212   0.285  17.062  0.0846  0.9045 -0.2637
 9302SOL    HW239366   4.276   0.399  17.117  2.8809  0.1195  0.3527
 9303SOL     OW39367   0.052   0.744  10.942  0.3757 -0.1864  0.3856
 9303SOL    HW139368   0.036   0.807  10.871 -1.6072 -1.3292 -0.1639
 9303SOL    HW239369   0.135   0.770  10.984  1.1534  0.0054 -1.2580
 9304SOL     OW39370   3.838   0.625   2.095 -0.3029  0.2050 -0.3481
 9304SOL    HW139371   3.824   0.536   2.063  0.9868  0.4172 -1.4737
 9304SOL    HW239372   3.748   0.641   2.126 -0.3771 -0.4354 -0.2213
 9305SOL     OW39373   2.233   0.674   2.706 -0.2326 -0.2211 -0.0747
 9305SOL    HW139374   2.322   0.638   2.702 -0.2125 -0.0544 -1.0988
 9305SOL    HW239375   2.234   0.712   2.794 -0.6480  0.6335 -0.4373
 9306SOL     OW39376   3.371   2.085   8.645 -0.0088 -0.3942 -0.1357
 9306SOL    HW139377   3.429   2.103   8.719 -0.7450 -1.9138  0.8041
 9306SOL    HW239378   3.410   2.013   8.595 -0.5408  0.1974 -1.3932
 9307SOL     OW39379   3.650   4.395   8.966 -0.1078  0.3547 -0.0832
 9307SOL    HW139380   3.605   4.312   8.984 -0.7379  1.1079  1.7605
 9307SOL    HW239381   3.718   4.394   9.032  0.4388 -0.6881 -0.6530
 9308SOL     OW39382   4.110   0.734   4.436  0.1206 -0.3144 -0.1759
 9308SOL    HW139383   4.098   0.751   4.343 -0.3192 -4.5484 -0.8770
 9308SOL    HW239384   4.176   0.665   4.432  0.5149  0.0692 -0.2935
 9309SOL     OW39385   3.736   1.945   7.782  0.0275 -0.3252  0.7764
 9309SOL    HW139386   3.818   1.978   7.745 -0.0354 -1.2341 -0.1580
 9309SOL    HW239387   3.741   1.854   7.754 -2.0334  0.0543 -0.8149
 9310SOL     OW39388   3.024   0.204   6.905 -0.1539  0.0124  0.0337
 9310SOL    HW139389   3.025   0.111   6.926 -2.4322  0.3113  1.4983
 9310SOL    HW239390   3.104   0.237   6.946  0.0803 -0.6347  0.0882
 9311SOL     OW39391   3.754   3.121  10.306  0.4793 -0.6568  0.0487
 9311SOL    HW139392   3.749   3.033  10.269 -0.7886 -0.4072 -0.3652
 9311SOL    HW239393   3.838   3.105  10.349  1.1830  1.2520 -0.6275
 9312SOL     OW39394   3.381   3.416   6.763 -0.5411 -0.2292  0.0497
 9312SOL    HW139395   3.306   3.460   6.722 -1.3434  1.6771  3.5452
 9312SOL    HW239396   3.416   3.486   6.818  1.6380 -0.1329 -1.4832
 9313SOL     OW39397   3.431   4.098  10.092  0.1320  0.0468  0.0269
 9313SOL    HW139398   3.490   4.137  10.027  3.6899  0.3394  3.4536
 9313SOL    HW239399   3.398   4.028  10.035 -0.8497  0.0218  0.6273
 9314SOL     OW39400   3.080   3.295  10.182  0.5919  0.2645 -0.0669
 9314SOL    HW139401   3.060   3.234  10.253  0.8988  0.7025  0.4002
 9314SOL    HW239402   3.124   3.240  10.118  1.0816  1.1956 -0.5346
 9315SOL     OW39403   2.781   0.611   5.430 -0.6317  0.2404  0.0882
 9315SOL    HW139404   2.773   0.593   5.336  0.0313  0.4165 -0.0094
 9315SOL    HW239405   2.720   0.542   5.455 -0.0502  0.3928  1.9694
 9316SOL     OW39406   4.043   0.696   5.600  0.0687  0.1907  0.4556
 9316SOL    HW139407   3.980   0.643   5.551  1.2246  0.3171 -1.1495
 9316SOL    HW239408   4.058   0.773   5.544  1.6853  1.1046  2.1359
 9317SOL     OW39409   2.991   3.798   8.714 -0.4728 -0.2465  0.1461
 9317SOL    HW139410   2.925   3.766   8.776 -0.8094 -0.7065 -0.4523
 9317SOL    HW239411   3.070   3.799   8.769 -1.0719  0.1477  0.9974
 9318SOL     OW39412   3.132   2.158   2.035  0.5764  0.1365 -0.0825
 9318SOL    HW139413   3.197   2.127   1.972 -0.0583 -1.9131  0.2931
 9318SOL    HW239414   3.184   2.146   2.114 -0.6013  0.7024  0.7800
 9319SOL     OW39415   3.382   4.005   2.878  0.0276  0.4582  0.1063
 9319SOL    HW139416   3.429   4.081   2.843  0.4923  0.5210  0.8522
 9319SOL    HW239417   3.427   3.999   2.963  0.5425 -0.5267 -0.2451
 9320SOL     OW39418   3.784   1.012  15.853  0.3059  0.6313  0.1950
 9320SOL    HW139419   3.759   1.102  15.874  0.2831  0.7201 -0.2186
 9320SOL    HW239420   3.864   1.035  15.805  0.9428 -0.3967  0.7652
 9321SOL     OW39421   1.619   1.484   7.340 -0.0171 -0.1149 -0.1437
 9321SOL    HW139422   1.680   1.447   7.277  1.9534 -0.1083  1.7686
 9321SOL    HW239423   1.664   1.562   7.373  0.6396 -1.6329  2.5247
 9322SOL     OW39424   0.005   2.801   8.286 -0.6106  0.3052  0.1058
 9322SOL    HW139425   4.651   2.861   8.303 -1.4895 -1.0761  1.1349
 9322SOL    HW239426   4.717   2.796   8.190  1.6208  0.0929 -0.0496
 9323SOL     OW39427   2.800   2.909   2.690  0.5844  0.6350 -0.1639
 9323SOL    HW139428   2.858   2.866   2.753  0.7402  0.0503 -0.7081
 9323SOL    HW239429   2.800   2.845   2.618  1.3707  0.7174 -0.2297
 9324SOL     OW39430   2.624   3.145   2.780 -0.4302  0.0222 -0.1859
 9324SOL    HW139431   2.680   3.073   2.752 -1.9740 -1.0374 -0.5300
 9324SOL    HW239432   2.680   3.222   2.764 -1.8680  1.2359  0.5611
 9325SOL     OW39433   4.192   3.002   2.864 -0.3608 -0.4533  0.4952
 9325SOL    HW139434   4.101   3.000   2.895 -0.2038  0.4044  1.0101
 9325SOL    HW239435   4.241   3.027   2.943 -1.7237  0.0881  1.1752
 9326SOL     OW39436   1.841   2.601   3.962  0.2862  0.6612  0.3416
 9326SOL    HW139437   1.866   2.685   3.924  1.1184  0.3895  0.2767
 9326SOL    HW239438   1.922   2.574   4.006 -0.5802 -0.0526  1.4960
 9327SOL     OW39439   2.633   3.841  16.013  0.0074 -0.0714 -0.0826
 9327SOL    HW139440   2.575   3.878  15.946  0.6384 -1.5304 -1.4273
 9327SOL    HW239441   2.715   3.829  15.966  0.2383  1.2321  0.0019
 9328SOL     OW39442   4.203   2.248   9.675 -0.4781  0.1432  0.3577
 9328SOL    HW139443   4.255   2.312   9.722 -0.2052  2.1582 -2.6623
 9328SOL    HW239444   4.176   2.196   9.751  2.1660  1.4524  2.1747
 9329SOL     OW39445   1.980   4.505   9.395 -0.1670 -0.1075 -0.0791
 9329SOL    HW139446   1.989   4.506   9.491 -1.1701 -1.6780  0.0411
 9329SOL    HW239447   2.058   4.453   9.376  0.1238  0.3097 -0.0370
 9330SOL     OW39448   4.638   3.284  11.863  0.1366 -0.1151  0.5204
 9330SOL    HW139449   4.651   3.191  11.845  1.8715  0.1496  0.4120
 9330SOL    HW239450   4.544   3.292  11.842 -0.4813 -0.8209  3.0903
 9331SOL     OW39451   2.380   3.764   6.832  0.3239  0.5762  0.5920
 9331SOL    HW139452   2.423   3.713   6.764 -0.4183  1.3395 -0.4332
 9331SOL    HW239453   2.328   3.825   6.780 -0.7926 -1.3495 -0.5511
 9332SOL     OW39454   3.674   1.163   3.616  0.0548  0.1639  0.2555
 9332SOL    HW139455   3.716   1.192   3.697 -1.8825  0.8159  1.0179
 9332SOL    HW239456   3.610   1.104   3.655 -0.5125 -0.7258 -1.9851
 9333SOL     OW39457   2.635   2.823   9.557  0.1860 -0.0830 -0.2979
 9333SOL    HW139458   2.585   2.782   9.487  0.2420 -0.1575 -0.2935
 9333SOL    HW239459   2.695   2.750   9.573  0.1044 -0.2161 -0.5947
 9334SOL     OW39460   4.025   3.862   8.980  0.4532 -0.3129  0.4856
 9334SOL    HW139461   4.017   3.920   8.905 -1.1472  0.1778  1.0386
 9334SOL    HW239462   4.075   3.921   9.037  0.1333 -0.6249  1.0880
 9335SOL     OW39463   3.631   1.483   4.986 -0.1596 -0.7514  0.0705
 9335SOL    HW139464   3.678   1.566   4.990 -3.2318  0.9949 -0.2030
 9335SOL    HW239465   3.568   1.502   5.055 -0.8916 -2.2506 -0.1814
 9336SOL     OW39466   1.719   3.467  12.454  0.1439  1.3385  0.5751
 9336SOL    HW139467   1.665   3.523  12.398 -0.3639  0.2449 -0.0095
 9336SOL    HW239468   1.808   3.497  12.432  0.6753  0.4378  1.5086
 9337SOL     OW39469   1.062   4.042   2.835  0.0473 -0.0762 -0.2019
 9337SOL    HW139470   1.020   4.041   2.749  1.5125 -1.1731 -0.9097
 9337SOL    HW239471   1.149   4.004   2.822 -0.1899 -0.5745 -0.3258
 9338SOL     OW39472   0.056   3.302  15.096 -0.2020  0.6418 -0.4910
 9338SOL    HW139473   0.049   3.340  15.009  2.8525  1.7876 -0.2131
 9338SOL    HW239474   4.687   3.287  15.131 -0.3635 -1.8929 -2.0765
 9339SOL     OW39475   4.101   1.389   5.087  0.6969 -0.4330  0.2348
 9339SOL    HW139476   4.050   1.358   5.012  2.4791 -1.2647 -0.6315
 9339SOL    HW239477   4.067   1.476   5.109 -0.4614 -0.8161 -0.0540
 9340SOL     OW39478   1.066   4.018   3.300  0.2620  0.5010 -0.2772
 9340SOL    HW139479   1.113   3.938   3.279 -0.4123  0.4375 -1.5467
 9340SOL    HW239480   0.980   3.989   3.330  0.9811 -1.8589 -0.5243
 9341SOL     OW39481   0.915   4.159   4.100 -0.5107 -0.2873 -0.0609
 9341SOL    HW139482   0.925   4.166   4.005 -1.5804 -0.6584 -0.1980
 9341SOL    HW239483   0.866   4.077   4.107 -1.8613  0.6287  1.0809
 9342SOL     OW39484   4.025   4.661   2.221  0.2597  0.0126 -0.1898
 9342SOL    HW139485   4.019   4.567   2.233 -0.8064  0.1221  0.1617
 9342SOL    HW239486   4.112   4.658   2.180  0.4718 -1.0486  0.3402
 9343SOL     OW39487   3.687   3.155  15.758 -0.1280  0.3287 -0.0399
 9343SOL    HW139488   3.759   3.132  15.699 -0.9610  0.7650 -1.2372
 9343SOL    HW239489   3.711   3.107  15.836 -2.5377  0.2698  0.6851
 9344SOL     OW39490   2.335   0.282   7.536  0.6598  0.1017 -0.0082
 9344SOL    HW139491   2.376   0.347   7.478 -0.8176  1.7976  0.8654
 9344SOL    HW239492   2.269   0.329   7.585  1.3031 -0.3229  1.2688
 9345SOL     OW39493   3.434   1.713   1.701  0.1155 -1.0127  0.2011
 9345SOL    HW139494   3.348   1.746   1.676  0.8900 -0.1313 -1.3258
 9345SOL    HW239495   3.493   1.766   1.647  0.8016  1.0426  2.9322
 9346SOL     OW39496   4.408   1.280   5.326 -0.3095 -0.5024 -0.2514
 9346SOL    HW139497   4.408   1.286   5.230 -2.0822 -1.3944 -0.3129
 9346SOL    HW239498   4.392   1.368   5.361 -1.4330 -0.3517 -1.1528
 9347SOL     OW39499   4.065   3.662   9.991  0.6572  0.0511  0.4991
 9347SOL    HW139500   4.129   3.591   9.995 -0.2224 -0.8378 -1.5308
 9347SOL    HW239501   3.982   3.623  10.017  1.4587 -1.1379  1.2743
 9348SOL     OW39502   3.158   2.277   5.589  0.4319 -0.1303  0.0838
 9348SOL    HW139503   3.185   2.212   5.524  1.6643 -1.3965  1.8823
 9348SOL    HW239504   3.203   2.243   5.666 -0.8151  1.4145  1.4809
 9349SOL     OW39505   1.762   1.912   5.287 -0.1899 -0.3714  0.1875
 9349SOL    HW139506   1.724   1.901   5.374  0.3466 -1.5731  0.2701
 9349SOL    HW239507   1.687   1.897   5.229 -1.2220  1.4235  1.0564
 9350SOL     OW39508   1.522   4.143   8.384  0.0414  0.2030 -0.4505
 9350SOL    HW139509   1.547   4.225   8.341 -1.3601  0.4139 -0.8848
 9350SOL    HW239510   1.427   4.147   8.372 -0.1747 -0.5385  1.0360
 9351SOL     OW39511   0.543   2.714   2.454  0.5746  0.3665 -0.1563
 9351SOL    HW139512   0.627   2.755   2.436 -0.2996  1.4998 -1.6328
 9351SOL    HW239513   0.479   2.782   2.430  0.6101  0.2366 -0.6230
 9352SOL     OW39514   4.247   0.910   3.795  0.2164 -0.0026  0.4280
 9352SOL    HW139515   4.208   0.961   3.867  1.7961  1.8790 -0.0265
 9352SOL    HW239516   4.168   0.874   3.756  0.4158 -1.5849  1.4924
 9353SOL     OW39517   3.990   1.353  13.060  0.7291 -0.3484  0.0978
 9353SOL    HW139518   3.900   1.319  13.061 -0.5020  2.8747  0.2469
 9353SOL    HW239519   3.981   1.403  12.979  2.0655 -0.0584  0.1354
 9354SOL     OW39520   1.455   0.532   7.215 -0.3517  0.2092  0.3316
 9354SOL    HW139521   1.537   0.583   7.217 -0.5454  0.5579 -0.5562
 9354SOL    HW239522   1.454   0.498   7.305  0.4546  2.7374  1.3262
 9355SOL     OW39523   3.131   2.657   3.534  0.0176 -0.7600  0.0001
 9355SOL    HW139524   3.196   2.708   3.582  2.4934 -4.1533  0.2392
 9355SOL    HW239525   3.134   2.698   3.447  1.7869  1.6185  1.1693
 9356SOL     OW39526   2.196   0.577   6.837  0.1095 -0.1699 -0.0128
 9356SOL    HW139527   2.178   0.643   6.770 -1.6540  0.8187  1.4660
 9356SOL    HW239528   2.291   0.574   6.825  0.1262  0.7508 -0.0540
 9357SOL     OW39529   0.798   0.096  17.551  0.2026 -0.4052 -0.1528
 9357SOL    HW139530   0.887   0.106  17.585  0.2785 -2.7441  0.3489
 9357SOL    HW239531   0.748   0.153  17.609  0.1116  0.4400 -1.0699
 9358SOL     OW39532   2.347   1.598   2.903 -0.5937  0.2506  0.0150
 9358SOL    HW139533   2.297   1.520   2.924  0.3879 -0.9881 -2.2202
 9358SOL    HW239534   2.354   1.596   2.807  0.5265  0.1500  0.0930
 9359SOL     OW39535   0.887   0.516  17.516 -0.0062 -0.4750  0.0969
 9359SOL    HW139536   0.954   0.453  17.489 -0.1682 -0.6993  0.2229
 9359SOL    HW239537   0.923   0.604  17.506  2.1166 -1.1454  1.9027
 9360SOL     OW39538   0.361   1.927  12.359 -0.1270  0.1884 -0.4183
 9360SOL    HW139539   0.404   2.007  12.328  0.4726 -0.3048 -0.8761
 9360SOL    HW239540   0.368   1.869  12.283  0.0934  0.4371 -0.5883
 9361SOL     OW39541   1.565   3.096   3.710 -0.2919 -0.0267 -0.5538
 9361SOL    HW139542   1.556   3.130   3.622 -2.1383 -2.9707 -1.5283
 9361SOL    HW239543   1.507   3.152   3.763  0.2211 -0.0672  0.0530
 9362SOL     OW39544   2.782   0.708   4.342 -0.2471  0.5317 -0.6004
 9362SOL    HW139545   2.735   0.700   4.259 -1.5254  1.0056  0.0877
 9362SOL    HW239546   2.858   0.761   4.315 -0.7662  0.9815 -1.1807
 9363SOL     OW39547   2.654   3.125   6.759  0.3072 -0.3190  0.3698
 9363SOL    HW139548   2.638   3.038   6.723 -0.6742  0.5002 -1.1770
 9363SOL    HW239549   2.710   3.098   6.832  0.2079 -1.6730 -0.0524
 9364SOL     OW39550   2.061   1.475  13.303 -0.2286  1.0164 -0.0777
 9364SOL    HW139551   1.973   1.456  13.334  0.2072  1.9486  1.7284
 9364SOL    HW239552   2.055   1.559  13.256  0.4550  2.4872  2.4471
 9365SOL     OW39553   0.463   3.725  15.199  0.5396  0.1398  0.1349
 9365SOL    HW139554   0.414   3.657  15.154  0.2452 -0.2940  1.0985
 9365SOL    HW239555   0.537   3.753  15.144  0.4711  1.6599  0.7945
 9366SOL     OW39556   3.424   1.269   2.920 -0.1484  0.0267 -0.3777
 9366SOL    HW139557   3.402   1.360   2.942  2.1914  0.5913 -0.2663
 9366SOL    HW239558   3.351   1.244   2.865  0.6404  1.3422 -2.0233
 9367SOL     OW39559   3.589   3.889   0.285  0.1441 -0.2964 -0.1327
 9367SOL    HW139560   3.654   3.878   0.355 -0.4011 -1.6584  0.1637
 9367SOL    HW239561   3.587   3.801   0.248 -2.3344 -0.1369 -0.3689
 9368SOL     OW39562   3.158   3.338  13.198 -0.3807  0.3862  0.0452
 9368SOL    HW139563   3.186   3.283  13.125 -0.4148  1.4302 -0.7575
 9368SOL    HW239564   3.156   3.272  13.267 -1.6331  0.5058  0.1269
 9369SOL     OW39565   2.900   2.652   4.839  0.2439  0.0277  0.0196
 9369SOL    HW139566   2.921   2.735   4.881 -0.3058  0.4768 -0.5961
 9369SOL    HW239567   2.881   2.600   4.918 -1.0743 -0.1653 -0.4203
 9370SOL     OW39568   1.169   2.488   3.379  0.2026 -0.3705 -0.1220
 9370SOL    HW139569   1.180   2.469   3.285  0.9688 -2.3216  0.3628
 9370SOL    HW239570   1.092   2.544   3.381  2.0859  2.1447  2.0438
 9371SOL     OW39571   3.453   2.219   9.027 -0.3808  0.1349 -0.1768
 9371SOL    HW139572   3.517   2.274   9.072 -0.0179 -0.1567 -0.3298
 9371SOL    HW239573   3.388   2.286   9.010 -0.8333  0.1467  1.5974
 9372SOL     OW39574   0.219   3.750  15.822 -0.0042  0.1077  0.2771
 9372SOL    HW139575   0.130   3.727  15.796  0.6575 -1.6980 -0.4483
 9372SOL    HW239576   0.265   3.682  15.773  1.2458  1.5093 -0.5081
 9373SOL     OW39577   1.229   2.365   8.776 -0.5330 -0.3401  0.5770
 9373SOL    HW139578   1.277   2.446   8.758  0.7570 -0.9748  1.1928
 9373SOL    HW239579   1.297   2.313   8.819 -0.4870 -1.5882 -1.0175
 9374SOL     OW39580   0.193   4.700   4.007  0.1568  0.0283 -0.5026
 9374SOL    HW139581   0.261   4.634   3.993  0.7059  0.2554  1.1691
 9374SOL    HW239582   0.117   4.644   4.021 -0.7177  1.1432 -0.7220
 9375SOL     OW39583   1.750   1.075   5.045 -0.4808 -0.2921  0.0200
 9375SOL    HW139584   1.714   0.992   5.013 -0.7868  0.0099 -0.4275
 9375SOL    HW239585   1.818   1.090   4.978  0.1887 -2.1147  0.2827
 9376SOL     OW39586   2.323   2.909   2.983 -0.3765 -0.0957 -0.2364
 9376SOL    HW139587   2.400   2.864   2.945 -0.6390 -1.3579  0.7098
 9376SOL    HW239588   2.359   2.995   3.002  0.6725 -0.1895 -1.7474
 9377SOL     OW39589   2.264   4.144   3.062  0.3054  0.2851  0.8148
 9377SOL    HW139590   2.169   4.155   3.058  0.1714 -1.7945 -1.6456
 9377SOL    HW239591   2.276   4.056   3.096 -0.9390 -0.3531 -0.4264
 9378SOL     OW39592   4.090   1.486  13.604 -0.1803 -0.5032 -0.1209
 9378SOL    HW139593   4.059   1.429  13.674 -0.9339  2.0146  1.6022
 9378SOL    HW239594   4.071   1.440  13.522 -1.7679  0.6335 -0.3951
 9379SOL     OW39595   1.521   1.161   1.391 -0.0289  0.0587  0.0930
 9379SOL    HW139596   1.590   1.125   1.447 -0.4303 -1.2114 -0.2235
 9379SOL    HW239597   1.558   1.160   1.303  2.2371 -2.1985  1.0515
 9380SOL     OW39598   2.138   0.780   4.814  0.2952  0.1665 -0.0607
 9380SOL    HW139599   2.156   0.865   4.774  2.6092 -0.5192 -0.4863
 9380SOL    HW239600   2.223   0.779   4.860 -0.3220  0.7864  1.0872
 9381SOL     OW39601   1.425   4.131  13.351 -0.8403 -0.3641 -0.5069
 9381SOL    HW139602   1.430   4.091  13.264  0.5387 -0.7332 -0.2509
 9381SOL    HW239603   1.422   4.225  13.331  1.1757 -0.2557 -0.2944
 9382SOL     OW39604   1.474   3.800   3.179 -0.4675 -0.2293  0.2480
 9382SOL    HW139605   1.546   3.743   3.153  0.5315  0.4033  1.6117
 9382SOL    HW239606   1.508   3.888   3.161  1.4420 -0.9559  0.2921
 9383SOL     OW39607   3.220   3.052   3.275  0.2510 -0.3954 -0.0115
 9383SOL    HW139608   3.195   2.960   3.281 -0.0358 -0.1766  2.4256
 9383SOL    HW239609   3.151   3.102   3.318 -1.6045 -1.0888 -2.1989
 9384SOL     OW39610   0.590   1.678   2.357 -0.0431  0.0995 -0.1279
 9384SOL    HW139611   0.622   1.753   2.309  1.2762 -0.0753  0.4748
 9384SOL    HW239612   0.508   1.652   2.315 -0.7347  0.4608  0.9721
 9385SOL     OW39613   4.019   1.996  10.125  0.0273 -0.4566  0.7429
 9385SOL    HW139614   4.030   2.088  10.149 -0.6033 -0.2863  0.3798
 9385SOL    HW239615   3.926   2.005  10.103  0.9938  3.0869 -1.8351
 9386SOL     OW39616   3.369   0.015   8.210 -0.0058 -0.1920  0.2570
 9386SOL    HW139617   3.427   0.047   8.141 -2.1601 -0.7578 -1.8016
 9386SOL    HW239618   3.284   0.025   8.167 -0.5729  1.1085  1.6530
 9387SOL     OW39619   1.340   2.771   8.631 -0.8354 -0.2284  0.0434
 9387SOL    HW139620   1.289   2.730   8.701 -0.7638 -1.0479 -0.3801
 9387SOL    HW239621   1.420   2.721   8.644 -0.9104 -1.0102 -2.4663
 9388SOL     OW39622   1.605   0.767  16.813 -0.1120  0.1511 -0.2275
 9388SOL    HW139623   1.529   0.789  16.759  1.2116  1.3280 -1.6448
 9388SOL    HW239624   1.570   0.788  16.899 -1.8906  0.1502 -0.9377
 9389SOL     OW39625   2.003   0.644   2.524 -0.0759 -0.1390 -0.1974
 9389SOL    HW139626   2.081   0.599   2.558 -0.0544  0.4325  0.5236
 9389SOL    HW239627   1.998   0.711   2.593 -1.5302  1.3262 -1.7338
 9390SOL     OW39628   2.195   2.239  14.984  0.3852  0.0330 -0.1399
 9390SOL    HW139629   2.110   2.271  15.013  0.5481 -2.3162  2.9728
 9390SOL    HW239630   2.176   2.199  14.899  1.1250 -1.1343  0.2469
 9391SOL     OW39631   3.466   4.655  13.835 -0.6434 -0.1646  0.0346
 9391SOL    HW139632   3.504   4.705  13.762 -1.0599 -0.0968 -0.1391
 9391SOL    HW239633   3.396   4.715  13.860  0.3242  1.1504 -0.4134
 9392SOL     OW39634   0.285   3.245   7.368  0.4768  0.0113 -0.1617
 9392SOL    HW139635   0.192   3.223   7.383  0.3914 -0.1648 -0.9717
 9392SOL    HW239636   0.270   3.329   7.326 -0.6799 -0.9490 -1.6743
 9393SOL     OW39637   3.141   0.598   9.182 -0.0884 -0.2448 -0.0695
 9393SOL    HW139638   3.076   0.667   9.167 -0.7878 -0.5653  1.4718
 9393SOL    HW239639   3.086   0.542   9.237  0.4712  0.9011  1.6559
 9394SOL     OW39640   3.882   0.330   3.815 -0.0656 -0.0109  0.6368
 9394SOL    HW139641   3.848   0.388   3.883  1.8832  0.8505  0.8729
 9394SOL    HW239642   3.844   0.245   3.837 -0.2555 -0.5185 -1.6018
 9395SOL     OW39643   3.133   3.212   6.720  0.0317  0.0165 -0.0550
 9395SOL    HW139644   3.070   3.280   6.745 -0.6217 -0.0248 -1.6155
 9395SOL    HW239645   3.161   3.180   6.806  0.1787  1.9215  0.6140
 9396SOL     OW39646   1.907   0.111   3.787 -0.0358  0.1325 -0.1922
 9396SOL    HW139647   1.988   0.122   3.737  0.3329 -1.1573  0.1198
 9396SOL    HW239648   1.888   0.017   3.782 -3.1135  0.7456 -0.4021
 9397SOL     OW39649   2.895   3.952  15.978  0.1720  0.9558 -0.2636
 9397SOL    HW139650   2.933   4.037  16.003 -0.1197  1.9497 -3.1791
 9397SOL    HW239651   2.981   3.909  15.974  0.4493  1.5475 -0.8095
 9398SOL     OW39652   3.773   0.474   3.209 -0.5170  0.4717  0.2321
 9398SOL    HW139653   3.797   0.481   3.117 -1.1029 -0.8989 -0.0224
 9398SOL    HW239654   3.701   0.537   3.204 -0.5460  0.4547  0.4259
 9399SOL     OW39655   2.049   2.427   4.367  0.0832 -0.1498  0.0049
 9399SOL    HW139656   2.084   2.360   4.426 -0.8490 -0.7978 -0.1865
 9399SOL    HW239657   1.963   2.396   4.340 -1.3603  1.1930  3.0210
 9400SOL     OW39658   1.880   4.193   3.080  0.0041  0.0433  0.4693
 9400SOL    HW139659   1.932   4.150   3.012 -0.7050 -1.2290  0.7368
 9400SOL    HW239660   1.869   4.270   3.024 -1.0783 -0.6948 -0.3202
 9401SOL     OW39661   4.470   2.456   9.358 -0.8284  0.1229  0.2151
 9401SOL    HW139662   4.397   2.496   9.406  0.4196  1.1087  1.3011
 9401SOL    HW239663   4.478   2.379   9.414 -0.7581  0.4336  0.6332
 9402SOL     OW39664   0.647   3.322   5.490 -0.3233 -0.5380  0.3541
 9402SOL    HW139665   0.589   3.315   5.414 -0.4575 -1.4437  0.5386
 9402SOL    HW239666   0.728   3.284   5.454 -0.1343  0.3731 -0.1925
 9403SOL     OW39667   4.253   1.949   5.490 -0.2150  0.1553 -0.8257
 9403SOL    HW139668   4.158   1.957   5.487 -0.3858 -0.3599  3.0270
 9403SOL    HW239669   4.271   1.900   5.410 -2.6384 -1.5949 -0.2744
 9404SOL     OW39670   2.308   2.490   3.357 -0.3071  0.4518 -0.0663
 9404SOL    HW139671   2.296   2.455   3.268  0.4121 -0.0659  0.0372
 9404SOL    HW239672   2.299   2.581   3.330  1.0181  0.5687 -0.1279
 9405SOL     OW39673   2.373   2.444   6.556  0.1071 -0.1795  0.4308
 9405SOL    HW139674   2.334   2.532   6.560 -0.4666 -0.4079 -0.2016
 9405SOL    HW239675   2.356   2.430   6.463 -0.7379  0.3607  0.5026
 9406SOL     OW39676   1.264   1.694   0.463 -0.4418 -0.6982  0.2117
 9406SOL    HW139677   1.337   1.703   0.403 -1.2729 -0.2318 -0.7295
 9406SOL    HW239678   1.319   1.677   0.539  0.4419  0.9533 -0.0603
 9407SOL     OW39679   4.159   2.475  10.370 -0.3011  0.1737  0.2132
 9407SOL    HW139680   4.178   2.382  10.372  0.0866  0.2043 -1.6052
 9407SOL    HW239681   4.192   2.489  10.281  0.3690 -1.8347  0.1526
 9408SOL     OW39682   0.223   0.517  11.104 -0.3938  0.0169 -0.1361
 9408SOL    HW139683   0.150   0.517  11.042 -0.6070  0.4946  0.1167
 9408SOL    HW239684   0.232   0.611  11.114 -0.1189 -0.1151  0.8682
 9409SOL     OW39685   4.175   0.861  11.021  0.3761  0.2154 -0.1430
 9409SOL    HW139686   4.169   0.778  11.068  0.4320  0.6287  0.6022
 9409SOL    HW239687   4.108   0.856  10.954  0.3902  1.3901 -0.2468
 9410SOL     OW39688   2.803   3.569   5.086 -0.3150 -0.0358 -0.5466
 9410SOL    HW139689   2.718   3.590   5.049  0.4492 -0.1183 -2.3467
 9410SOL    HW239690   2.822   3.488   5.039 -3.5104 -1.2430  0.2469
 9411SOL     OW39691   0.051   1.328   3.636  0.3445 -0.4186 -0.3675
 9411SOL    HW139692   0.047   1.416   3.673 -2.3938 -1.1021  0.9939
 9411SOL    HW239693   4.699   1.282   3.681  1.2056 -2.2251 -0.8492
 9412SOL     OW39694   3.446   3.747  14.425  0.0864  0.5032 -0.5409
 9412SOL    HW139695   3.433   3.788  14.511 -2.6964 -2.4645  0.4867
 9412SOL    HW239696   3.451   3.654  14.448 -1.1735  0.2837 -1.1441
 9413SOL     OW39697   0.979   1.829   4.070  0.2306  0.8426  0.6865
 9413SOL    HW139698   0.905   1.796   4.018  1.2169  2.4330 -1.7527
 9413SOL    HW239699   0.927   1.874   4.137 -0.1287  0.9247  0.3561
 9414SOL     OW39700   3.840   0.989   3.325  0.6089  0.1189  0.5174
 9414SOL    HW139701   3.746   0.970   3.328  1.0140 -1.7273  1.6740
 9414SOL    HW239702   3.833   1.084   3.310 -1.8583 -0.6816 -3.4589
 9415SOL     OW39703   3.895   0.281  15.351  0.0843  0.2245  0.6850
 9415SOL    HW139704   3.855   0.195  15.361  1.2760 -0.3825  0.1179
 9415SOL    HW239705   3.826   0.344  15.373 -0.1439 -0.4931  2.0734
 9416SOL     OW39706   2.007   2.417   1.898 -0.2504 -0.5947 -0.5678
 9416SOL    HW139707   2.002   2.512   1.907  0.3694 -0.6564  0.5126
 9416SOL    HW239708   2.101   2.404   1.907 -0.6430 -1.8936  1.8526
 9417SOL     OW39709   1.082   1.520   3.192  0.4210  0.2959  0.3225
 9417SOL    HW139710   1.010   1.561   3.240 -2.1347 -0.6562 -2.7097
 9417SOL    HW239711   1.145   1.593   3.186 -1.2036  1.8621  2.1353
 9418SOL     OW39712   3.144   2.956   6.190  0.2989  0.0505 -0.0620
 9418SOL    HW139713   3.097   2.873   6.184  2.3843 -1.0347 -1.1914
 9418SOL    HW239714   3.074   3.020   6.179  1.1362  0.8092 -0.9777
 9419SOL     OW39715   0.697   1.139   3.442  0.7873  0.4567 -0.5637
 9419SOL    HW139716   0.757   1.202   3.481  1.2682  0.0478 -0.6433
 9419SOL    HW239717   0.651   1.105   3.519  1.7831  0.4049  0.0036
 9420SOL     OW39718   3.522   0.802  15.057 -0.5921 -0.1840  0.4601
 9420SOL    HW139719   3.585   0.733  15.038  0.0256  0.6890 -0.6191
 9420SOL    HW239720   3.575   0.851  15.120 -1.8215  1.0819  0.5331
 9421SOL     OW39721   3.058   0.488  12.885 -0.0293  0.1479  0.2695
 9421SOL    HW139722   2.991   0.526  12.828 -0.4208 -0.9801 -0.0062
 9421SOL    HW239723   3.010   0.419  12.930 -1.7258 -0.1320 -2.0116
 9422SOL     OW39724   1.249   3.618   5.163  0.4822  0.9330 -0.3367
 9422SOL    HW139725   1.250   3.709   5.135 -0.7411  2.1183  3.4550
 9422SOL    HW239726   1.251   3.626   5.258 -0.2638 -0.5248 -0.1903
 9423SOL     OW39727   3.903   1.605   1.349  0.3910 -0.3966 -0.2423
 9423SOL    HW139728   3.898   1.593   1.255 -0.3862 -1.2921 -0.0885
 9423SOL    HW239729   3.945   1.691   1.353  0.5195 -0.4240 -1.1192
 9424SOL     OW39730   4.386   1.935   1.237  0.4699 -0.3133  0.2759
 9424SOL    HW139731   4.452   1.934   1.307 -0.2690  1.7105  1.0179
 9424SOL    HW239732   4.363   2.028   1.234 -0.6981 -0.6012  0.6809
 9425SOL     OW39733   4.592   4.584  12.266  0.2166 -0.1058 -0.1044
 9425SOL    HW139734   4.510   4.586  12.217  0.3675 -1.4525 -0.4187
 9425SOL    HW239735   4.572   4.545  12.351 -0.6739 -0.6247 -0.5556
 9426SOL     OW39736   4.424   3.288   1.089  0.6489 -0.0336 -0.2434
 9426SOL    HW139737   4.438   3.193   1.098  0.3906 -0.1390 -0.9263
 9426SOL    HW239738   4.502   3.306   1.036  1.8209  0.1511  1.5536
 9427SOL     OW39739   0.553   4.114   5.237 -0.0741 -0.6194  0.2606
 9427SOL    HW139740   0.602   4.111   5.155 -1.3476  0.9357 -0.5410
 9427SOL    HW239741   0.581   4.199   5.271 -2.1548 -0.3909  1.4220
 9428SOL     OW39742   1.146   3.924   8.755  0.2230  0.0851  0.1963
 9428SOL    HW139743   1.167   4.004   8.707 -1.4070 -0.1513 -0.9083
 9428SOL    HW239744   1.156   3.946   8.848  1.1755  1.3855 -0.2237
 9429SOL     OW39745   4.095   3.906   1.815  0.0026  0.4619 -0.2967
 9429SOL    HW139746   4.027   3.938   1.873 -0.1820  1.0661 -0.8423
 9429SOL    HW239747   4.113   3.983   1.761  1.4560  0.0295 -0.4244
 9430SOL     OW39748   4.413   0.925  13.780  0.3290 -0.2022  0.0343
 9430SOL    HW139749   4.326   0.937  13.817  0.0349 -1.3068 -0.3030
 9430SOL    HW239750   4.389   0.909  13.689 -2.0561 -1.8729  0.9504
 9431SOL     OW39751   4.055   0.279   6.472  0.3933  0.0155  0.1128
 9431SOL    HW139752   4.130   0.239   6.516  1.2188 -0.9690 -2.1951
 9431SOL    HW239753   3.987   0.214   6.491 -0.6273  1.0298 -0.0244
 9432SOL     OW39754   2.750   3.035   3.219 -0.0679 -0.2240  0.3930
 9432SOL    HW139755   2.769   2.953   3.173 -0.8520 -0.8870  1.2581
 9432SOL    HW239756   2.773   3.017   3.310  1.7139  1.1616  0.2263
 9433SOL     OW39757   0.599   3.170   3.743  0.1617  0.9404 -0.4172
 9433SOL    HW139758   0.549   3.231   3.690 -2.3943  0.3259  1.2670
 9433SOL    HW239759   0.593   3.203   3.833  0.5029 -0.6008  0.1818
 9434SOL     OW39760   1.815   0.388   2.326 -0.2163 -0.2271 -0.0927
 9434SOL    HW139761   1.864   0.469   2.309 -0.3885  0.2546  1.6725
 9434SOL    HW239762   1.790   0.400   2.418 -1.9177  2.0048 -0.8500
 9435SOL     OW39763   2.436   1.873   7.478 -0.1005 -0.1433 -0.3763
 9435SOL    HW139764   2.411   1.965   7.481  2.7225  0.5918  0.6246
 9435SOL    HW239765   2.526   1.870   7.510 -0.1911 -3.3236 -0.3987
 9436SOL     OW39766   1.358   2.074   5.848 -0.3212 -0.6392 -0.1815
 9436SOL    HW139767   1.361   2.036   5.760 -0.7831 -1.0324 -0.0286
 9436SOL    HW239768   1.276   2.041   5.886 -0.7268  0.0483 -0.4758
 9437SOL     OW39769   2.683   1.768  12.268  0.6878 -0.1970  0.3852
 9437SOL    HW139770   2.769   1.807  12.251  1.4693 -2.2131 -0.2573
 9437SOL    HW239771   2.715   1.678  12.256 -0.6356 -0.6546  0.3796
 9438SOL     OW39772   4.151   0.127   5.134 -0.1874  0.3746  0.5813
 9438SOL    HW139773   4.108   0.169   5.060 -2.4774 -1.2230  0.9940
 9438SOL    HW239774   4.161   0.040   5.095 -0.8274  0.2265  0.7424
 9439SOL     OW39775   1.205   0.536   7.615 -0.0132 -0.2415 -0.4628
 9439SOL    HW139776   1.233   0.624   7.591  0.2785 -0.4797 -0.9807
 9439SOL    HW239777   1.191   0.543   7.710 -1.1298 -0.2652 -0.6243
 9440SOL     OW39778   0.649   0.066   7.930  0.1535  0.0305  0.2331
 9440SOL    HW139779   0.639   0.105   8.016  1.8325 -2.3904  1.5194
 9440SOL    HW239780   0.744   0.063   7.923  0.3034 -1.6811  3.0591
 9441SOL     OW39781   1.757   3.152  13.503 -0.0660 -0.3812 -0.0455
 9441SOL    HW139782   1.774   3.207  13.427  2.9469 -0.1040  0.8158
 9441SOL    HW239783   1.841   3.129  13.543  0.4465  1.2607 -0.1874
 9442SOL     OW39784   4.170   2.100  17.097 -0.3116  0.3911  0.2874
 9442SOL    HW139785   4.185   2.166  17.029 -2.2943 -0.0560 -0.5734
 9442SOL    HW239786   4.146   2.029  17.038 -0.1568 -0.2058  0.9493
 9443SOL     OW39787   4.161   0.928   1.088  0.2288  0.7346 -0.3823
 9443SOL    HW139788   4.230   0.979   1.045  2.9201 -1.9759  0.6679
 9443SOL    HW239789   4.124   0.880   1.015 -0.1941  0.8471 -0.2421
 9444SOL     OW39790   4.530   1.264  16.294  0.2646  0.2771 -0.7348
 9444SOL    HW139791   4.563   1.353  16.295 -0.3908  0.5152 -0.4089
 9444SOL    HW239792   4.579   1.227  16.368 -0.2100  1.4655  0.1762
 9445SOL     OW39793   3.295   1.478   1.659 -0.3715  0.0993 -0.4706
 9445SOL    HW139794   3.263   1.483   1.749 -0.5803  2.7509 -0.7017
 9445SOL    HW239795   3.355   1.552   1.660 -1.0000  0.6021 -0.0994
 9446SOL     OW39796   1.353   2.266   2.363 -0.0506 -0.2300  0.5378
 9446SOL    HW139797   1.324   2.278   2.273  0.9934  1.8891  0.4900
 9446SOL    HW239798   1.365   2.356   2.393  1.0440  0.2528 -1.4067
 9447SOL     OW39799   2.871   4.088  13.061  0.2683  0.3750  0.0108
 9447SOL    HW139800   2.867   4.146  12.985  1.7626 -0.2179 -0.5291
 9447SOL    HW239801   2.966   4.084  13.069  0.1948  2.2273  1.7578
 9448SOL     OW39802   4.229   0.144   4.568 -0.0006 -0.2304 -0.1314
 9448SOL    HW139803   4.151   0.160   4.515  0.4810  0.6568 -0.5794
 9448SOL    HW239804   4.183   0.127   4.651 -1.0037 -0.7172 -0.7880
 9449SOL     OW39805   4.627   2.054   3.713  0.2599  0.1063  0.0300
 9449SOL    HW139806   4.686   1.982   3.693  1.2744  1.3754 -1.5214
 9449SOL    HW239807   4.584   2.076   3.629 -0.3475  0.9397  0.5529
 9450SOL     OW39808   3.342   3.515   7.970  0.6211 -0.1025  0.2936
 9450SOL    HW139809   3.253   3.528   7.938  0.9094 -0.3999 -0.6261
 9450SOL    HW239810   3.320   3.549   8.057 -0.3691 -0.3722  0.1515
 9451SOL     OW39811   0.453   2.487   2.736  0.3803  0.1251  0.2048
 9451SOL    HW139812   0.548   2.483   2.736  0.2481 -3.0011  0.0663
 9451SOL    HW239813   0.420   2.420   2.796  1.3909  0.3516  0.9963
 9452SOL     OW39814   3.141   3.793   5.468 -0.3211  0.1719  0.5308
 9452SOL    HW139815   3.184   3.759   5.546  2.3061  2.6173  0.1411
 9452SOL    HW239816   3.049   3.787   5.494 -0.9591  0.8445 -1.5603
 9453SOL     OW39817   3.850   1.355   9.494 -0.3003 -0.7486 -0.4200
 9453SOL    HW139818   3.812   1.396   9.417 -0.4317 -1.6355 -0.8254
 9453SOL    HW239819   3.781   1.373   9.557  0.5731  1.3227 -0.0770
 9454SOL     OW39820   1.701   1.336   5.588  0.5415  0.5121  0.3863
 9454SOL    HW139821   1.719   1.253   5.543 -1.5302 -0.0250  0.5705
 9454SOL    HW239822   1.609   1.314   5.597  0.1844  1.8443  0.0144
 9455SOL     OW39823   4.661   1.247   1.653  0.8204  0.1942 -0.0386
 9455SOL    HW139824   4.615   1.329   1.635 -0.1330  0.0087  1.5058
 9455SOL    HW239825   4.600   1.197   1.707  0.1104  0.0568 -0.9901
 9456SOL     OW39826   0.729   4.157   5.681  0.1209  0.1685 -0.1290
 9456SOL    HW139827   0.641   4.143   5.646  0.2542 -0.8526 -0.0722
 9456SOL    HW239828   0.774   4.093   5.625 -0.9637 -1.0453  0.3811
 9457SOL     OW39829   4.626   1.970   1.992 -0.1936 -0.2130  0.4338
 9457SOL    HW139830   4.562   1.950   2.061  0.8555 -0.7006  1.2754
 9457SOL    HW239831   4.631   1.886   1.945  1.1662 -1.0491  2.0727
 9458SOL     OW39832   3.890   3.850   5.230  0.2324 -0.3204 -0.2808
 9458SOL    HW139833   3.830   3.853   5.155  0.6101 -0.6416 -0.5939
 9458SOL    HW239834   3.970   3.888   5.195  0.4234 -1.0297 -0.6229
 9459SOL     OW39835   1.079   3.793  15.456 -0.1685  0.0041 -0.2519
 9459SOL    HW139836   1.134   3.740  15.398 -1.8410 -2.1718  0.1033
 9459SOL    HW239837   1.060   3.724  15.520  0.9763 -0.2607 -0.2029
 9460SOL     OW39838   2.858   2.739   7.363 -0.1053 -0.2466  0.7658
 9460SOL    HW139839   2.909   2.658   7.351  2.3464  1.4216  0.0578
 9460SOL    HW239840   2.936   2.794   7.364 -0.0061 -0.3780 -2.8340
 9461SOL     OW39841   2.704   0.807  14.166 -0.0817 -0.0646  0.2546
 9461SOL    HW139842   2.786   0.769  14.133 -1.1455 -0.4100 -2.0071
 9461SOL    HW239843   2.670   0.841  14.083  0.7831  0.3968  0.0793
 9462SOL     OW39844   2.711   3.781   4.757 -0.1808  0.5824  0.0981
 9462SOL    HW139845   2.783   3.726   4.788 -1.9770 -2.1066 -0.4564
 9462SOL    HW239846   2.756   3.865   4.748 -2.0062  1.3795 -1.6492
 9463SOL     OW39847   4.377   3.233  11.740  0.1561 -0.4018 -0.4026
 9463SOL    HW139848   4.375   3.149  11.694  2.8593 -0.5580 -0.2254
 9463SOL    HW239849   4.342   3.296  11.677  0.2649 -1.0971 -1.1483
 9464SOL     OW39850   1.397   1.881   7.837 -0.2577 -0.0518 -0.0506
 9464SOL    HW139851   1.479   1.929   7.828 -0.4770  0.3466  0.0540
 9464SOL    HW239852   1.428   1.831   7.912 -2.4907 -0.8478  0.3484
 9465SOL     OW39853   1.691   0.546   1.557  0.0135 -0.0008 -0.2215
 9465SOL    HW139854   1.711   0.453   1.547  0.0664 -0.2143  1.8641
 9465SOL    HW239855   1.777   0.586   1.570 -0.3741  0.9380 -0.5244
 9466SOL     OW39856   3.733   0.438   8.456  0.7233 -0.5601 -0.2097
 9466SOL    HW139857   3.700   0.512   8.506  2.4603 -0.0812  0.2279
 9466SOL    HW239858   3.748   0.375   8.526 -2.9643  0.2327  1.2638
 9467SOL     OW39859   2.170   1.171   8.633  0.4709  0.5879 -0.3454
 9467SOL    HW139860   2.194   1.115   8.708 -0.0354  0.6625 -0.1252
 9467SOL    HW239861   2.172   1.107   8.562  2.3765 -0.0404  0.2828
 9468SOL     OW39862   3.985   1.247   7.162 -0.5761  0.0283  1.0404
 9468SOL    HW139863   3.899   1.228   7.198  0.6873 -1.5816  3.1653
 9468SOL    HW239864   3.975   1.342   7.158 -0.5375  0.0007  0.2122
 9469SOL     OW39865   3.764   0.533   1.296  0.2773 -0.3601 -0.2764
 9469SOL    HW139866   3.707   0.470   1.341 -0.1273 -0.8452 -1.4724
 9469SOL    HW239867   3.709   0.538   1.217  0.8018 -1.3653 -0.7080
 9470SOL     OW39868   3.253   0.576   5.118  0.2758 -0.0639 -0.0232
 9470SOL    HW139869   3.292   0.627   5.047  0.1235 -0.5384 -0.4498
 9470SOL    HW239870   3.169   0.618   5.137 -0.4657 -1.5514 -0.0558
 9471SOL     OW39871   1.390   4.684   3.784 -0.0875  0.0790  0.2987
 9471SOL    HW139872   1.403   4.606   3.730 -3.1421  0.2235 -0.6185
 9471SOL    HW239873   1.445   4.672   3.861 -0.6435  1.9059  0.9864
 9472SOL     OW39874   1.920   3.491   4.326  0.2911  0.7458 -0.5795
 9472SOL    HW139875   1.827   3.500   4.347  0.4261  2.1871 -0.6174
 9472SOL    HW239876   1.931   3.568   4.270 -1.9305  1.3273 -0.1958
 9473SOL     OW39877   3.843   4.203   1.002 -0.1927  0.0235 -0.2250
 9473SOL    HW139878   3.909   4.137   1.022  0.5824  0.3094 -1.8270
 9473SOL    HW239879   3.767   4.181   1.056 -1.1879  1.6573 -0.9242
 9474SOL     OW39880   3.504   3.794   8.045  0.1431 -0.0684  0.3637
 9474SOL    HW139881   3.476   3.707   8.072  1.5454 -0.1289  1.6515
 9474SOL    HW239882   3.457   3.804   7.962  1.2771 -0.6462 -0.3532
 9475SOL     OW39883   4.151   1.824   2.568  0.1295 -0.1511 -0.2871
 9475SOL    HW139884   4.200   1.835   2.649 -0.1585 -1.9687  0.1231
 9475SOL    HW239885   4.114   1.736   2.571  0.9626 -0.4414  0.9937
 9476SOL     OW39886   4.704   3.540   6.997  0.0383 -0.0436 -1.1039
 9476SOL    HW139887   4.642   3.473   7.025 -1.3564  1.1924 -1.2501
 9476SOL    HW239888   4.644   3.605   6.962  0.4755  1.3693  0.8270
 9477SOL     OW39889   2.098   0.363   0.383 -0.1445  0.1348 -0.2429
 9477SOL    HW139890   2.178   0.310   0.376  0.0699  0.5483 -0.8813
 9477SOL    HW239891   2.030   0.314   0.337  1.2857 -3.2217  1.1845
 9478SOL     OW39892   1.108   3.867   5.321  0.3064  0.1537 -0.4706
 9478SOL    HW139893   1.115   3.914   5.238  0.3503  1.4715  0.2737
 9478SOL    HW239894   1.057   3.931   5.370 -0.7801 -1.1610  0.1035
 9479SOL     OW39895   3.362   4.273   6.417 -0.1303  0.3520 -0.2415
 9479SOL    HW139896   3.412   4.341   6.461 -0.1129  0.8992 -1.1265
 9479SOL    HW239897   3.420   4.270   6.341 -0.0417 -1.9302 -0.1040
 9480SOL     OW39898   4.651   2.130   7.649  0.2203  0.0943  0.1109
 9480SOL    HW139899   4.579   2.188   7.674  1.0661  1.1791  0.0486
 9480SOL    HW239900   4.682   2.091   7.731 -1.3233  1.1078  1.1772
 9481SOL     OW39901   0.097   1.231   4.112  0.3476  0.3386 -0.2972
 9481SOL    HW139902   0.135   1.209   4.197  0.3357  1.1175 -0.0914
 9481SOL    HW239903   0.082   1.325   4.119  1.6137  0.4318  0.9668
 9482SOL     OW39904   1.674   1.485   1.682 -0.3288 -0.2245 -0.5891
 9482SOL    HW139905   1.597   1.428   1.684 -0.3755 -0.1456 -0.1797
 9482SOL    HW239906   1.722   1.432   1.619 -0.1614  0.3161 -0.9110
 9483SOL     OW39907   0.437   0.224   0.191  0.0288 -0.6377 -0.6244
 9483SOL    HW139908   0.438   0.287   0.263  4.1303 -0.7013 -0.6080
 9483SOL    HW239909   0.342   0.218   0.186 -0.0473  0.6824 -0.6742
 9484SOL     OW39910   1.815   3.224   8.605 -0.0399 -0.0396  0.3456
 9484SOL    HW139911   1.798   3.297   8.664  2.8951  2.1206 -1.4669
 9484SOL    HW239912   1.757   3.247   8.532 -1.8713  0.5508  2.0196
 9485SOL     OW39913   0.143   3.678  13.029 -0.0488  0.4385  0.6213
 9485SOL    HW139914   0.199   3.646  12.959  0.6445  2.4440  0.2719
 9485SOL    HW239915   0.213   3.711  13.085 -0.1613  0.7271  0.5901
 9486SOL     OW39916   1.391   3.041  12.713  0.1253 -0.8244  0.1521
 9486SOL    HW139917   1.307   3.065  12.673 -0.7556 -1.3755  1.7108
 9486SOL    HW239918   1.445   3.119  12.699 -1.5147 -0.1435 -2.4859
 9487SOL     OW39919   1.175   2.501  12.918  0.3059  0.2025  0.3506
 9487SOL    HW139920   1.259   2.541  12.896  0.1879 -0.3191 -1.0648
 9487SOL    HW239921   1.116   2.576  12.910 -0.2786 -0.3448 -0.4394
 9488SOL     OW39922   2.446   1.676  10.407  0.1749  0.8994 -0.4428
 9488SOL    HW139923   2.389   1.716  10.342  0.4127  2.2340  0.1698
 9488SOL    HW239924   2.420   1.711  10.492  0.6242 -0.6283  0.3287
 9489SOL     OW39925   3.816   2.104   9.885  0.1582 -0.0772  0.3488
 9489SOL    HW139926   3.764   2.072   9.959 -1.0331  3.0766  0.8963
 9489SOL    HW239927   3.821   2.200   9.883  2.0103 -0.2331 -1.4648
 9490SOL     OW39928   0.399   1.103   0.970  0.1428  0.4948  0.1609
 9490SOL    HW139929   0.312   1.083   0.938 -0.2874  0.9478  1.0477
 9490SOL    HW239930   0.448   1.055   0.903 -0.6988 -1.0584  0.6776
 9491SOL     OW39931   1.024   0.401   2.359 -0.0911  0.0121  0.0157
 9491SOL    HW139932   0.992   0.438   2.442 -1.0811  1.2717 -0.9437
 9491SOL    HW239933   0.956   0.334   2.350  1.7025 -1.4818 -2.2249
 9492SOL     OW39934   0.436   0.354  11.754  0.0597  0.3483 -0.5833
 9492SOL    HW139935   0.461   0.419  11.688  3.0511 -0.3532 -0.1527
 9492SOL    HW239936   0.345   0.378  11.768  0.6995  2.9281 -0.7664
 9493SOL     OW39937   4.164   4.336   0.487 -0.1670  0.2084 -0.2591
 9493SOL    HW139938   4.239   4.295   0.530 -0.1698  0.6171  0.1401
 9493SOL    HW239939   4.204   4.357   0.403 -1.7393  0.3857 -0.9545
 9494SOL     OW39940   1.278   0.498   1.846 -0.3055 -0.1842 -0.0130
 9494SOL    HW139941   1.273   0.493   1.941  3.9276 -1.4787  0.1452
 9494SOL    HW239942   1.372   0.495   1.826  0.2469 -0.6025  2.7498
 9495SOL     OW39943   0.630   4.218   6.810  0.3873 -0.0365  0.1531
 9495SOL    HW139944   0.597   4.272   6.881 -1.2396  0.0461 -0.6804
 9495SOL    HW239945   0.724   4.236   6.822  0.2303  1.2723 -0.5761
 9496SOL     OW39946   2.687   2.511   4.368  0.1584  0.1597  0.4081
 9496SOL    HW139947   2.747   2.559   4.425  0.0864  0.3757  0.3008
 9496SOL    HW239948   2.751   2.451   4.328  0.2259 -0.8930  2.0603
 9497SOL     OW39949   1.723   2.136   8.058  0.5649  0.0868 -0.3666
 9497SOL    HW139950   1.698   2.103   8.144  2.3797 -2.0037 -0.6520
 9497SOL    HW239951   1.645   2.174   8.018 -1.0360 -1.5940  1.1988
 9498SOL     OW39952   3.547   3.135   3.614  0.4510  0.3947 -0.2993
 9498SOL    HW139953   3.555   3.224   3.650 -2.3229 -0.4726  2.4809
 9498SOL    HW239954   3.640   3.119   3.602  0.2208  0.3581 -1.9840
 9499SOL     OW39955   0.951   3.562   5.253  0.0650 -0.4348 -0.3911
 9499SOL    HW139956   1.002   3.629   5.207 -0.9774  0.2018 -0.6280
 9499SOL    HW239957   1.007   3.484   5.254 -0.4652 -0.8044  1.6300
 9500SOL     OW39958   4.382   1.638   2.371 -0.0673 -0.2140  0.3332
 9500SOL    HW139959   4.304   1.643   2.315  0.9646  0.0822 -1.0693
 9500SOL    HW239960   4.340   1.630   2.457  0.9384 -0.0133  0.8340
 9501SOL     OW39961   2.156   0.658  17.583  0.3864 -0.2629 -0.4142
 9501SOL    HW139962   2.119   0.636  17.668 -3.6627 -1.9697 -2.6216
 9501SOL    HW239963   2.236   0.705  17.605  0.6018 -1.2521  0.9135
 9502SOL     OW39964   1.848   0.817  16.104 -0.1430 -0.3512  0.3394
 9502SOL    HW139965   1.767   0.794  16.059 -0.1331  0.3002 -0.0123
 9502SOL    HW239966   1.828   0.781  16.190  1.9708 -2.0195  0.1461
 9503SOL     OW39967   3.143   3.525   8.445  0.0218  0.7293 -0.1736
 9503SOL    HW139968   3.172   3.438   8.418 -0.4266  0.8347 -1.0104
 9503SOL    HW239969   3.055   3.507   8.478  1.9451 -2.2406  3.2467
 9504SOL     OW39970   2.642   0.333  16.396  0.2421  1.0498 -0.1659
 9504SOL    HW139971   2.574   0.307  16.458  0.8008 -0.3961 -0.1672
 9504SOL    HW239972   2.598   0.326  16.312  0.4167 -3.3725  0.1137
 9505SOL     OW39973   2.640   3.650   2.584  0.4210  0.3299 -0.6147
 9505SOL    HW139974   2.580   3.577   2.566 -0.2213  0.5548  0.6112
 9505SOL    HW239975   2.692   3.654   2.503 -2.2449  0.5552 -2.3138
 9506SOL     OW39976   0.718   0.677  15.577 -0.6721  0.3154 -0.6432
 9506SOL    HW139977   0.684   0.738  15.642  0.0921 -0.1395  0.1723
 9506SOL    HW239978   0.751   0.612  15.638 -3.0241 -0.2156  0.0835
 9507SOL     OW39979   0.666   1.387   1.179 -0.1084 -0.5299 -0.0653
 9507SOL    HW139980   0.698   1.421   1.263  1.6263 -0.7142 -0.6339
 9507SOL    HW239981   0.740   1.406   1.121 -0.7648  1.9810 -0.0975
 9508SOL     OW39982   2.727   0.156   7.000  0.2441 -0.3381  0.8071
 9508SOL    HW139983   2.750   0.185   7.089  4.3925  2.1800 -1.0957
 9508SOL    HW239984   2.816   0.156   6.966 -0.2256 -0.4894 -0.4223
 9509SOL     OW39985   2.814   1.751  13.881 -0.3025  0.7007  0.9510
 9509SOL    HW139986   2.826   1.758  13.786  0.3283 -0.9443  0.9059
 9509SOL    HW239987   2.899   1.715  13.906 -0.3403  0.8083  1.2265
 9510SOL     OW39988   1.994   0.387   8.626  0.3456  0.3410  0.3626
 9510SOL    HW139989   2.012   0.476   8.658  0.7506  0.5481 -0.4470
 9510SOL    HW239990   1.912   0.396   8.578  0.4392  0.2269  0.1805
 9511SOL     OW39991   0.821   3.937   5.538 -0.2253  0.1102  0.1104
 9511SOL    HW139992   0.755   3.894   5.592  0.1137 -2.1378 -1.2795
 9511SOL    HW239993   0.815   3.889   5.455 -1.2828 -1.2368  0.9729
 9512SOL     OW39994   3.880   0.530   6.792  0.4029  0.4891 -0.1740
 9512SOL    HW139995   3.786   0.514   6.781  0.8102 -1.6398 -0.4852
 9512SOL    HW239996   3.883   0.614   6.837 -4.2181  0.1858  0.7080
 9513SOL     OW39997   2.745   3.724   6.926 -0.5874  0.0671 -0.1875
 9513SOL    HW139998   2.693   3.707   6.847  2.1104 -3.5088 -1.1803
 9513SOL    HW239999   2.756   3.634   6.957 -2.1089 -0.1568 -0.2608
 9514SOL     OW40000   2.593   0.474  14.163 -0.3803  0.4045 -0.0125
 9514SOL    HW140001   2.504   0.439  14.153  0.0781 -1.0828  1.0782
 9514SOL    HW240002   2.581   0.541  14.230  1.2442  3.0220 -2.3783
 9515SOL     OW40003   0.623   2.882  15.966 -0.2797 -0.0261  0.0415
 9515SOL    HW140004   0.551   2.852  16.021 -2.5102 -0.3954 -3.0811
 9515SOL    HW240005   0.689   2.908  16.031 -1.7444  0.3129  1.3967
 9516SOL     OW40006   1.389   4.068   5.174 -0.6793  0.9049  0.3925
 9516SOL    HW140007   1.384   4.116   5.257  0.0055  0.4931  0.6715
 9516SOL    HW240008   1.423   4.136   5.116 -1.2255  0.7273 -0.1278
 9517SOL     OW40009   3.382   3.742  10.269 -0.0810  0.6012  0.3637
 9517SOL    HW140010   3.377   3.659  10.317  1.8299 -1.6022 -3.1906
 9517SOL    HW240011   3.329   3.719  10.193  0.4384 -0.3161  0.2723
 9518SOL     OW40012   3.073   0.216  11.402  0.3066 -0.0803 -0.2031
 9518SOL    HW140013   2.978   0.202  11.402 -0.0273  1.9635  4.2881
 9518SOL    HW240014   3.094   0.200  11.310 -0.8569 -2.0759 -0.1372
 9519SOL     OW40015   4.580   3.669   6.088  0.1475 -0.1730  0.3224
 9519SOL    HW140016   4.639   3.672   6.163 -0.1754 -0.3467  0.5860
 9519SOL    HW240017   4.638   3.626   6.025  0.6975 -0.1530  0.8147
 9520SOL     OW40018   2.521   4.180   9.201  0.3950  0.4085  0.2724
 9520SOL    HW140019   2.549   4.089   9.210  0.0941  0.3312  0.4153
 9520SOL    HW240020   2.574   4.213   9.274  2.7102 -1.0516 -0.7397
 9521SOL     OW40021   3.250   1.772  12.590  0.1544  0.4535 -0.2265
 9521SOL    HW140022   3.236   1.680  12.612 -0.9478  0.2870 -1.6181
 9521SOL    HW240023   3.346   1.778  12.588  0.2334 -0.4680  0.7589
 9522SOL     OW40024   2.541   1.930   5.878 -0.2492 -0.2585 -0.5591
 9522SOL    HW140025   2.488   1.936   5.958  2.0330  6.5699  0.4555
 9522SOL    HW240026   2.516   1.843   5.847 -0.0539 -0.4297 -0.2301
 9523SOL     OW40027   0.883   3.199   4.818  0.0198  0.0888 -0.1557
 9523SOL    HW140028   0.898   3.207   4.912 -1.3281 -0.2832  0.0938
 9523SOL    HW240029   0.789   3.190   4.802  0.4420 -2.2315 -1.3968
 9524SOL     OW40030   2.627   1.910   8.979 -0.3599 -0.1539  0.0544
 9524SOL    HW140031   2.644   1.967   8.903  0.3107 -0.7776 -0.2705
 9524SOL    HW240032   2.710   1.920   9.025  0.8591 -1.2968 -1.8701
 9525SOL     OW40033   0.104   4.616  15.804  0.2928  0.0058  0.1372
 9525SOL    HW140034   0.076   4.526  15.822  4.4515 -0.7963  2.7039
 9525SOL    HW240035   0.199   4.623  15.794  0.0127  2.0250 -0.9651
 9526SOL     OW40036   3.198   2.522   6.253 -0.2008  0.3387  0.0310
 9526SOL    HW140037   3.220   2.451   6.313 -0.7892  1.2447  1.3100
 9526SOL    HW240038   3.151   2.583   6.309 -0.9970 -0.0008 -0.2634
 9527SOL     OW40039   1.585   3.666   7.247  0.1455 -0.2952  0.0982
 9527SOL    HW140040   1.592   3.613   7.326 -2.7830 -0.8680 -0.0097
 9527SOL    HW240041   1.496   3.638   7.224 -0.7257  0.6259  2.3288
 9528SOL     OW40042   2.471   4.716   2.243 -0.3182  0.9408  0.4637
 9528SOL    HW140043   2.479   4.697   2.149  0.6588 -0.6478  0.8779
 9528SOL    HW240044   2.528   4.645   2.271  0.5963  0.5993 -2.2621
 9529SOL     OW40045   4.605   3.395  10.866  0.1819  0.4384  0.0818
 9529SOL    HW140046   4.624   3.322  10.806 -0.0939 -0.0248  0.5578
 9529SOL    HW240047   4.565   3.343  10.936  0.0530  0.5565  0.0959
 9530SOL     OW40048   0.164   0.331   2.228  0.1223 -0.5985  0.2635
 9530SOL    HW140049   0.146   0.243   2.260  0.5444 -0.4019  1.0467
 9530SOL    HW240050   0.114   0.329   2.147  0.3251 -0.7662  0.1452
 9531SOL     OW40051   1.375   4.333   8.835 -0.1708  0.6242 -0.4580
 9531SOL    HW140052   1.447   4.357   8.777  1.8639 -0.5830  1.5677
 9531SOL    HW240053   1.409   4.262   8.889 -0.2689  1.5333  0.7967
 9532SOL     OW40054   2.974   2.195   6.867 -0.0833 -0.0393  0.3957
 9532SOL    HW140055   3.014   2.275   6.901 -1.7147 -0.3975  3.2052
 9532SOL    HW240056   3.013   2.133   6.928  1.7589  2.1678  1.4813
 9533SOL     OW40057   2.101   4.577   3.105 -0.1997 -0.9977  0.2602
 9533SOL    HW140058   2.143   4.614   3.027 -0.9675  1.4197  0.9963
 9533SOL    HW240059   2.051   4.657   3.119  0.7344 -0.3872  0.1304
 9534SOL     OW40060   0.257   3.618   2.888  0.0306 -0.0549  0.0406
 9534SOL    HW140061   0.241   3.618   2.794  2.4694 -0.4671 -0.3904
 9534SOL    HW240062   0.316   3.543   2.901 -1.0542 -1.1474 -1.3248
 9535SOL     OW40063   1.062   2.854  15.207 -0.3235 -0.3158  0.1102
 9535SOL    HW140064   1.011   2.839  15.127  0.2829  1.2287 -0.5675
 9535SOL    HW240065   1.008   2.918  15.252  0.3406  0.6615 -0.4756
 9536SOL     OW40066   3.899   4.393   7.778 -0.2734  0.0108 -0.2385
 9536SOL    HW140067   3.857   4.450   7.843 -0.3038  1.0115 -1.1452
 9536SOL    HW240068   3.966   4.456   7.754 -0.8301 -0.2053 -2.3214
 9537SOL     OW40069   3.222   1.681   5.156 -0.6466  0.1884  0.1344
 9537SOL    HW140070   3.211   1.646   5.245 -1.0305 -3.9492 -1.5910
 9537SOL    HW240071   3.284   1.752   5.174 -1.9530  2.0077 -2.4343
 9538SOL     OW40072   2.997   4.195   9.781 -0.3331  0.2115  0.4267
 9538SOL    HW140073   3.059   4.222   9.849  1.0577 -1.4037 -0.1858
 9538SOL    HW240074   2.977   4.281   9.745  0.2080  0.0713 -0.2052
 9539SOL     OW40075   3.863   4.274   5.526  0.2541  0.0816 -0.1575
 9539SOL    HW140076   3.799   4.203   5.527 -0.6800  0.9381  1.3873
 9539SOL    HW240077   3.818   4.334   5.586 -0.3300  1.0926 -1.5969
 9540SOL     OW40078   2.258   4.491   0.738  0.4035 -0.1325 -0.0557
 9540SOL    HW140079   2.350   4.472   0.757  0.6480  2.0028  0.8970
 9540SOL    HW240080   2.220   4.406   0.716  1.8912 -1.5783  2.8313
 9541SOL     OW40081   1.093   0.026  14.579 -0.0281  0.6345 -0.0050
 9541SOL    HW140082   1.040   0.085  14.525  0.7635  1.4929  0.1524
 9541SOL    HW240083   1.175   0.074  14.569 -0.5121  1.6327  0.7738
 9542SOL     OW40084   4.177   3.629   7.178 -0.6193  0.1790 -0.8633
 9542SOL    HW140085   4.083   3.641   7.165 -0.4747  0.8564 -1.2921
 9542SOL    HW240086   4.199   3.564   7.112 -1.8779 -1.2102  0.0878
 9543SOL     OW40087   2.966   4.683   3.210  0.0499  0.1221 -0.1657
 9543SOL    HW140088   2.901   4.627   3.168  0.1902  0.1123 -0.3723
 9543SOL    HW240089   3.038   4.624   3.231  0.6663 -0.2232 -3.3128
 9544SOL     OW40090   0.269   2.271   3.495 -0.0983  0.4594 -0.3149
 9544SOL    HW140091   0.221   2.248   3.574 -1.2273 -0.0514 -1.1339
 9544SOL    HW240092   0.361   2.274   3.518 -1.5587  1.1860  5.3161
 9545SOL     OW40093   1.400   0.346   2.073  0.1751 -0.7026 -0.3235
 9545SOL    HW140094   1.421   0.431   2.112  0.9031  0.0922 -2.4383
 9545SOL    HW240095   1.347   0.308   2.144  0.0405 -1.8780 -1.0510
 9546SOL     OW40096   3.720   0.775   4.163 -0.1687  0.6581 -0.0991
 9546SOL    HW140097   3.729   0.867   4.188 -1.4212  1.3004 -2.0234
 9546SOL    HW240098   3.635   0.751   4.199  0.6588 -3.6697 -1.0495
 9547SOL     OW40099   0.134   0.377   9.064  0.1080  0.3400 -0.2595
 9547SOL    HW140100   0.192   0.303   9.079 -0.3683 -0.0919 -0.5643
 9547SOL    HW240101   0.189   0.450   9.092 -0.5023  0.5089  0.4828
 9548SOL     OW40102   1.814   1.570   5.488 -0.3129  0.0273  0.3782
 9548SOL    HW140103   1.756   1.496   5.503 -0.5180 -0.1862 -1.3984
 9548SOL    HW240104   1.749   1.634   5.459  1.8791  1.3667 -1.6696
 9549SOL     OW40105   0.995   3.833   6.704 -0.5455  0.2828 -0.0168
 9549SOL    HW140106   0.963   3.773   6.637 -1.7691 -0.4906  1.2721
 9549SOL    HW240107   0.936   3.813   6.776 -0.8503 -0.9182 -0.6052
 9550SOL     OW40108   1.122   2.009   3.893  0.0526  0.2594 -0.0614
 9550SOL    HW140109   1.058   2.078   3.914  0.1332  0.5292 -0.7240
 9550SOL    HW240110   1.202   2.039   3.936  1.0975 -0.8153 -1.2435
 9551SOL     OW40111   4.287   2.878   7.197 -0.5403 -0.1163  0.5234
 9551SOL    HW140112   4.284   2.792   7.240 -0.0377  0.4386  1.6580
 9551SOL    HW240113   4.197   2.910   7.196 -1.0223 -1.5361 -1.4097
 9552SOL     OW40114   0.131   3.056   6.842 -0.4415  0.9435 -0.0186
 9552SOL    HW140115   0.213   3.067   6.794  0.2712  1.4288  1.3077
 9552SOL    HW240116   0.102   3.145   6.822 -1.3605  0.6722  0.1304
 9553SOL     OW40117   4.015   0.232   4.429  0.3753 -0.4196  0.1562
 9553SOL    HW140118   3.967   0.307   4.464 -0.9817  0.3552 -3.4037
 9553SOL    HW240119   4.048   0.258   4.343 -1.3207  2.2786  0.3419
 9554SOL     OW40120   4.128   4.174  15.771  0.1995 -0.0335  0.0848
 9554SOL    HW140121   4.148   4.245  15.834  2.6117 -1.1824  0.6335
 9554SOL    HW240122   4.052   4.138  15.816 -1.1045  2.9188  0.2816
 9555SOL     OW40123   2.951   0.617   6.430 -0.0383 -0.2137 -0.5097
 9555SOL    HW140124   3.011   0.640   6.359 -1.4326 -2.1719 -2.3325
 9555SOL    HW240125   2.887   0.688   6.427 -1.2395 -1.3930 -2.8922
 9556SOL     OW40126   3.853   0.900   5.000  0.2088 -0.3754  0.2203
 9556SOL    HW140127   3.874   0.988   4.970 -0.2268  0.3177  1.9405
 9556SOL    HW240128   3.769   0.902   5.045 -0.2824 -0.3553 -0.6825
 9557SOL     OW40129   1.241   4.288   4.014 -0.0232  0.1554 -0.8071
 9557SOL    HW140130   1.199   4.210   3.976  0.1285 -0.6215  0.6180
 9557SOL    HW240131   1.174   4.348   3.981 -0.7060  0.1484  0.5612
 9558SOL     OW40132   2.852   2.991   8.103  0.0597  0.3486  0.0966
 9558SOL    HW140133   2.866   2.944   8.022  0.8122  0.9431 -0.1236
 9558SOL    HW240134   2.914   3.064   8.098  0.5026 -0.0938 -0.8009
 9559SOL     OW40135   0.186   0.397  15.489 -0.5434  0.3668  0.0498
 9559SOL    HW140136   0.187   0.320  15.432  0.4967  0.4810 -0.0964
 9559SOL    HW240137   0.191   0.354  15.574  1.9711  1.5361  0.4998
 9560SOL     OW40138   2.341   0.944  14.017 -0.1994  0.5915 -0.0699
 9560SOL    HW140139   2.344   0.904  13.930  1.5071  0.3536  0.1127
 9560SOL    HW240140   2.305   1.033  14.009  1.4781  1.2084 -0.6742
 9561SOL     OW40141   1.617   0.489   4.253 -0.0536 -0.0931 -0.1000
 9561SOL    HW140142   1.529   0.457   4.236  0.5039  0.1491 -3.4428
 9561SOL    HW240143   1.648   0.517   4.167 -1.5854  0.0194 -0.6104
 9562SOL     OW40144   1.093   2.818   2.056 -0.1832  0.1255  0.6003
 9562SOL    HW140145   1.138   2.892   2.096 -0.0686 -0.6861  1.9881
 9562SOL    HW240146   1.011   2.858   2.028 -1.7348 -1.6546  2.5304
 9563SOL     OW40147   1.047   3.837   8.385 -0.6958 -0.0437 -0.3373
 9563SOL    HW140148   1.049   3.931   8.404  0.3321 -0.1012 -0.1642
 9563SOL    HW240149   1.055   3.792   8.469 -1.6408  0.7088  0.1472
 9564SOL     OW40150   2.778   3.037   9.166  0.2056  0.3568  0.6358
 9564SOL    HW140151   2.764   3.053   9.259 -2.1597  3.4164 -0.2424
 9564SOL    HW240152   2.872   3.056   9.155  0.1901 -0.5437 -1.0947
 9565SOL     OW40153   3.549   0.615  11.743 -0.5259 -0.0607 -0.2944
 9565SOL    HW140154   3.627   0.630  11.690 -0.9547  4.0223  0.2857
 9565SOL    HW240155   3.497   0.573  11.674  3.0325 -1.4907 -2.0687
   4.71899   4.71899  17.67890
