Membrane in water
40155
    1TCq1    O1    1   2.497   1.862  11.170  0.4614 -0.4155  0.2893
    1TCq1    C1    2   2.596   1.845  11.083  0.3641 -1.6679 -0.0563
    1TCq1    O2    3   2.584   1.812  10.968  0.5575  0.5199  0.5952
    1TCq1    C2    4   2.715   1.909  11.129  0.7317  0.2956  0.8472
    1TCq1    C3    5   2.795   1.959  11.032 -0.3602  0.1949 -0.4610
    1TCq1    C4    6   2.918   2.005  11.072  0.4952 -0.5113 -0.6436
    1TCq1    C5    7   2.954   2.013  11.203  0.3746 -0.7453 -0.0811
    1TCq1    C6    8   2.866   1.964  11.298  0.1385  0.0417 -0.6753
    1TCq1    C7    9   2.750   1.903  11.262  0.0765 -0.0814  0.9007
    1TCq1    C8   10   2.874   2.023  11.434  0.2159  0.1141 -0.0455
    1TCq1    O4   11   2.978   2.084  11.451  0.4485 -0.5163  0.2572
    1TCq1    C9   12   3.010   2.059  10.971 -0.7649 -0.1045  0.6532
    1TCq1    O5   13   2.957   2.073  10.858 -0.5530 -0.2471  0.0116
    1TCq1    O6   14   3.123   2.088  11.013 -0.2541  0.0612 -0.0945
    1TCq1    H1   15   2.521   1.878  11.264  1.6696  0.1209 -0.1076
    1TCq1    H2   16   2.767   1.957  10.927 -1.3989 -0.2930 -0.1699
    1TCq1    H3   17   3.049   2.051  11.239  0.8280 -0.5223 -1.5166
    1TCq1    H4   18   2.699   1.838  11.333  0.7154 -0.7824  0.7238
    2MPD2     C   19   2.769   2.041  11.941 -0.2408  0.9610 -0.4141
    2MPD2    C1   20   2.867   2.102  11.864  0.3614  0.6290 -0.1193
    2MPD2    C2   21   2.876   2.082  11.727 -0.1777 -0.4331 -0.4781
    2MPD2    C3   22   2.776   2.013  11.659 -0.8197  0.2988  0.4290
    2MPD2    C4   23   2.680   1.954  11.733  0.2168  0.3295  0.5224
    2MPD2    C5   24   2.673   1.969  11.868  0.1258  0.0928 -0.8585
    2MPD2     H   25   2.963   2.121  11.675  2.5106 -1.7058  3.0995
    2MPD2    H1   26   2.619   1.882  11.680 -0.8707 -0.2967  2.6242
    2MPD2    H2   27   2.758   2.056  12.048  2.5748  0.9614 -0.1060
    2MPD2    H3   28   2.596   1.919  11.925  0.0167 -0.4495 -1.4775
    2MPD2     N   29   2.772   1.987  11.522  0.6753 -0.0538 -0.1767
    2MPD2    H5   30   2.685   1.948  11.489  0.1997 -1.3938  2.6710
    2MPD2    N1   31   2.962   2.184  11.913  0.3414 -0.2589  0.3077
    2MPD2    H7   32   3.016   2.231  11.841 -2.3791 -0.4454 -1.8353
    3TCq1    O1   33   3.025   3.232  10.572 -0.0923 -0.3057 -0.4014
    3TCq1    C1   34   2.959   3.329  10.635 -0.2214  0.6593 -0.2690
    3TCq1    O2   35   2.972   3.365  10.753 -0.1471 -0.6084  0.3251
    3TCq1    C2   36   2.836   3.359  10.561 -0.7846 -0.1792 -0.1534
    3TCq1    C3   37   2.843   3.356  10.422 -0.1998 -0.5557 -0.1628
    3TCq1    C4   38   2.724   3.367  10.360 -0.3447 -0.1696  0.3738
    3TCq1    C5   39   2.614   3.402  10.428  0.1363  0.2859  0.4217
    3TCq1    C6   40   2.607   3.405  10.567 -0.4874 -0.1397 -0.1312
    3TCq1    C7   41   2.718   3.375  10.632  0.8140  0.4708  0.2187
    3TCq1    C8   42   2.495   3.446  10.650 -0.8575  0.3001  0.3685
    3TCq1    O4   43   2.503   3.407  10.767 -0.3750 -0.2231  0.1762
    3TCq1    C9   44   2.722   3.353  10.217  0.3649 -0.0491 -0.2574
    3TCq1    O5   45   2.610   3.372  10.163  1.0650  0.5214 -0.3755
    3TCq1    O6   46   2.824   3.324  10.160 -0.4986  0.7785  0.5392
    3TCq1    H1   47   2.992   3.199  10.486 -0.7235 -2.7126  0.7699
    3TCq1    H2   48   2.939   3.351  10.371 -0.0050  0.8386  0.0670
    3TCq1    H3   49   2.520   3.420  10.376  0.0365  0.5927  0.7042
    3TCq1    H4   50   2.725   3.374  10.740  0.2633  1.2276  0.2601
    4MPD2     C   51   2.057   3.696  10.736 -0.0199  0.0251 -0.1195
    4MPD2    C1   52   2.122   3.768  10.633 -0.5670 -0.9942  0.7979
    4MPD2    C2   53   2.234   3.705  10.577 -0.4536 -0.7392 -0.0120
    4MPD2    C3   54   2.288   3.591  10.639 -0.7361  0.3103 -0.0501
    4MPD2    C4   55   2.224   3.528  10.747  0.1587 -0.1456  0.1044
    4MPD2    C5   56   2.108   3.582  10.793 -0.2097  0.2262 -0.4046
    4MPD2     H   57   2.271   3.762  10.492 -1.1441 -0.7355 -0.3122
    4MPD2    H1   58   2.259   3.446  10.808  0.5994  0.5911  0.8585
    4MPD2    H2   59   1.973   3.736  10.792  0.3829 -0.9494  1.1804
    4MPD2    H3   60   2.062   3.540  10.881 -2.2263 -0.8596 -2.0020
    4MPD2     N   61   2.416   3.538  10.591  0.3280  0.0702  0.5731
    4MPD2    H5   62   2.459   3.581  10.510  1.6197 -2.0494  0.1404
    4MPD2    N1   63   2.092   3.902  10.593 -0.2783 -0.2412  0.4037
    4MPD2    H7   64   2.165   3.945  10.537 -0.3890  0.3400  0.7096
    5TCq1    O1   65   2.211   0.923  10.578  0.3529  0.1454  0.0983
    5TCq1    C1   66   2.151   1.014  10.661  0.5314 -0.0763 -0.3768
    5TCq1    O2   67   2.033   1.045  10.658  0.3847  0.5216  0.4703
    5TCq1    C2   68   2.211   0.998  10.783  0.7684  0.9564  0.4035
    5TCq1    C3   69   2.137   1.013  10.895  0.3972  0.4068  0.0573
    5TCq1    C4   70   2.198   1.018  11.021 -0.5268  0.4676 -0.3831
    5TCq1    C5   71   2.336   1.014  11.034  0.1849 -0.5968 -0.0199
    5TCq1    C6   72   2.405   1.006  10.919  0.6074 -0.0523  0.8427
    5TCq1    C7   73   2.348   0.997  10.793  0.2547 -0.2571  0.1159
    5TCq1    C8   74   2.548   0.989  10.945  0.8138  0.8044  0.5391
    5TCq1    O4   75   2.605   1.070  11.023 -0.4512  0.2569  0.6480
    5TCq1    C9   76   2.119   1.030  11.138  0.3293  0.5302  0.7257
    5TCq1    O5   77   2.169   1.000  11.252  0.0447  0.2283  0.1278
    5TCq1    O6   78   2.003   1.064  11.116 -0.7363  0.3066  0.2246
    5TCq1    H1   79   2.295   0.882  10.607  0.2601  0.0833  0.2762
    5TCq1    H2   80   2.029   1.018  10.896  0.4528  1.5830  0.0940
    5TCq1    H3   81   2.381   1.010  11.133  1.8955  0.5983 -0.7682
    5TCq1    H4   82   2.411   1.005  10.705 -0.4376  1.5849 -0.1952
    6MPD2     C   83   2.842   0.955  10.900 -0.3407  0.1010  0.1515
    6MPD2    C1   84   2.748   0.870  10.845 -0.3388 -0.1515  0.0665
    6MPD2    C2   85   2.788   0.759  10.777  0.3937  0.2744  0.8698
    6MPD2    C3   86   2.919   0.733  10.744  1.0758 -0.4273  0.5125
    6MPD2    C4   87   3.009   0.827  10.791 -0.1467 -0.5636  0.1962
    6MPD2    C5   88   2.972   0.939  10.867 -0.6459  0.0779  0.6958
    6MPD2     H   89   2.708   0.690  10.752 -0.8749  2.0272  0.1056
    6MPD2    H1   90   3.115   0.816  10.768 -0.1648  0.8544 -0.5614
    6MPD2    H2   91   2.814   1.040  10.961 -0.0160  0.1243  0.2655
    6MPD2    H3   92   3.044   1.011  10.904 -0.7455 -0.8923  2.8047
    6MPD2     N   93   2.961   0.615  10.676 -0.4503 -0.0286 -1.0223
    6MPD2    H5   94   2.892   0.543  10.659 -1.2173  0.2220  0.9879
    6MPD2    N1   95   2.608   0.896  10.861 -0.0494  0.9675 -0.5366
    6MPD2    H7   96   2.547   0.848  10.796  1.3693 -1.6945  0.1301
    7TCq1    O1   97   0.292   0.620  12.965  0.3273  0.1587  0.1719
    7TCq1    C1   98   0.308   0.626  12.835 -0.4300 -0.6901  0.2601
    7TCq1    O2   99   0.269   0.717  12.762  0.3464  0.2804  0.1971
    7TCq1    C2  100   0.322   0.489  12.795  0.2816  0.6705  0.4840
    7TCq1    C3  101   0.293   0.463  12.665  0.0012  0.4753  0.3351
    7TCq1    C4  102   0.256   0.337  12.631 -0.2287  0.4206 -0.5105
    7TCq1    C5  103   0.268   0.229  12.712  0.0715  0.3805 -0.2227
    7TCq1    C6  104   0.311   0.250  12.839  0.7741  0.5980  0.5585
    7TCq1    C7  105   0.337   0.381  12.884  0.4755  0.8134 -0.1162
    7TCq1    C8  106   0.296   0.139  12.937  0.2060 -0.4504  0.1255
    7TCq1    O4  107   0.273   0.028  12.891 -0.7880 -0.4430  0.2179
    7TCq1    C9  108   0.197   0.313  12.503  0.1198  0.0591  0.2689
    7TCq1    O5  109   0.240   0.376  12.403  0.1915 -0.1060 -0.4038
    7TCq1    O6  110   0.114   0.219  12.507  0.3699  0.5292 -0.5152
    7TCq1    H1  111   0.368   0.586  13.015 -1.5577 -1.9928  1.5846
    7TCq1    H2  112   0.285   0.534  12.583  0.8065  0.9591  0.6731
    7TCq1    H3  113   0.234   0.132  12.679 -0.8852  0.1781  1.3572
    7TCq1    H4  114   0.388   0.395  12.979  1.0142  1.5191 -0.5005
    8MPD2     C  115   0.259   4.668  13.400  0.3960  0.2917  0.0400
    8MPD2    C1  116   0.288   4.598  13.279  0.1859 -0.9599 -0.0381
    8MPD2    C2  117   0.296   4.678  13.165  0.3610 -0.1304  0.3098
    8MPD2    C3  118   0.264   0.091  13.172 -0.2095  0.2150  0.0668
    8MPD2    C4  119   0.225   0.151  13.286  0.3176  0.5347  0.7634
    8MPD2    C5  120   0.225   0.081  13.394 -0.3925  0.1788 -0.3479
    8MPD2     H  121   0.328   4.649  13.066  1.6602 -0.8113  0.9341
    8MPD2    H1  122   0.206   0.258  13.287  4.2427  1.2208 -0.0678
    8MPD2    H2  123   0.260   4.626  13.500 -0.2903 -1.1067 -0.5326
    8MPD2    H3  124   0.213   0.124  13.493 -0.2135 -3.1754  1.1316
    8MPD2     N  125   0.281   0.182  13.063 -0.5593 -0.3200  0.0069
    8MPD2    H5  126   0.260   0.279  13.082  2.7405  0.6669 -1.5441
    8MPD2    N1  127   0.331   4.461  13.285 -0.5374 -0.1404 -0.1319
    8MPD2    H7  128   0.330   4.415  13.375  1.3961 -0.7836 -0.4403
    9TCq1    O1  129   3.355   4.449  11.010  0.4251  0.1117  0.5226
    9TCq1    C1  130   3.304   4.325  11.022  0.6057 -0.0797 -0.6625
    9TCq1    O2  131   3.345   4.239  11.096  0.9981  0.1557  0.1710
    9TCq1    C2  132   3.174   4.320  10.956 -0.0520 -0.1365 -0.1033
    9TCq1    C3  133   3.102   4.437  10.948 -0.0252 -0.2993  0.4517
    9TCq1    C4  134   2.971   4.431  10.940 -0.4000 -0.0129 -0.8771
    9TCq1    C5  135   2.907   4.312  10.908  0.3156 -0.2938 -0.3001
    9TCq1    C6  136   2.982   4.196  10.915  0.7327  0.5634 -0.1263
    9TCq1    C7  137   3.120   4.198  10.946  0.3046  0.0539  0.5556
    9TCq1    C8  138   2.910   4.076  10.883  0.0510 -0.1990 -0.4667
    9TCq1    O4  139   2.826   4.079  10.792 -0.8917  0.6314 -0.1661
    9TCq1    C9  140   2.896   4.558  10.956 -0.4975 -0.3294 -0.0337
    9TCq1    O5  141   2.768   4.542  10.934 -0.5304 -0.0339 -0.2621
    9TCq1    O6  142   2.962   4.667  10.951 -0.5733  0.2145  0.1260
    9TCq1    H1  143   3.324   4.481  10.922 -2.5980  3.5041  2.7622
    9TCq1    H2  144   3.146   4.531  10.978 -0.0617  0.3126 -1.3777
    9TCq1    H3  145   2.800   4.304  10.894 -0.1180 -0.6533  3.2717
    9TCq1    H4  146   3.187   4.113  10.949 -1.4192 -1.2098  2.9543
   10MPD2     C  147   2.846   3.777  10.859  0.2152  0.0500 -0.1517
   10MPD2    C1  148   2.912   3.836  10.965 -0.2621 -0.5444  0.8198
   10MPD2    C2  149   2.945   3.757  11.076 -0.4345 -0.5816 -0.4944
   10MPD2    C3  150   2.910   3.620  11.081  0.0526  0.5780  0.1313
   10MPD2    C4  151   2.836   3.571  10.976 -0.0674  0.3901  1.2092
   10MPD2    C5  152   2.803   3.650  10.872 -0.0920 -0.2105  0.4869
   10MPD2     H  153   2.981   3.810  11.163 -0.3150 -1.3389 -0.0776
   10MPD2    H1  154   2.810   3.466  10.968 -1.7059  1.0862 -2.6876
   10MPD2    H2  155   2.804   3.830  10.774  0.1050  0.4107  0.1276
   10MPD2    H3  156   2.747   3.617  10.785 -0.2317 -0.2012  0.5737
   10MPD2     N  157   2.959   3.536  11.184 -0.6130 -0.4926 -0.0360
   10MPD2    H5  158   2.913   3.448  11.207 -1.9275  0.6357  1.6298
   10MPD2    N1  159   2.947   3.976  10.970  0.9203  0.3776 -0.4349
   10MPD2    H7  160   3.009   4.003  11.046  1.5432 -0.5546 -0.6100
   11TCq1    O1  161   4.278   3.708  13.632 -0.2489 -0.0549  0.4568
   11TCq1    C1  162   4.150   3.674  13.638 -0.2654  0.1493 -0.5145
   11TCq1    O2  163   4.094   3.572  13.591  0.5037 -0.1031  0.0334
   11TCq1    C2  164   4.080   3.756  13.739  0.5698  0.2483 -0.1970
   11TCq1    C3  165   4.146   3.860  13.797  0.7002 -0.4853  0.4131
   11TCq1    C4  166   4.082   3.914  13.908  0.5952 -0.7421 -0.0135
   11TCq1    C5  167   3.980   3.861  13.971 -0.2955  0.1801  0.1008
   11TCq1    C6  168   3.915   3.758  13.914 -0.0248 -0.2325  0.3938
   11TCq1    C7  169   3.972   3.708  13.801 -0.2779  0.8456  0.1779
   11TCq1    C8  170   3.805   3.701  13.978 -0.6712 -0.1619 -0.2210
   11TCq1    O4  171   3.791   3.746  14.092 -0.0051 -0.6875 -0.1185
   11TCq1    C9  172   4.138   4.038  13.961 -0.0902  0.0979 -0.2211
   11TCq1    O5  173   4.071   4.098  14.049 -0.4999  0.0542  0.5786
   11TCq1    O6  174   4.259   4.054  13.937  0.1333 -0.0206  0.4726
   11TCq1    H1  175   4.306   3.753  13.715 -1.3757  1.3139  0.0907
   11TCq1    H2  176   4.240   3.904  13.765 -0.3296  2.1932  1.0520
   11TCq1    H3  177   3.954   3.907  14.066  0.6773  1.6824 -0.3649
   11TCq1    H4  178   3.912   3.638  13.745  2.2438 -0.5946 -0.7127
   12MPD2     C  179   3.536   3.581  14.053  0.0569  0.1913 -0.2446
   12MPD2    C1  180   3.617   3.540  13.949  0.4732 -0.8099  0.4059
   12MPD2    C2  181   3.575   3.431  13.876  1.1382 -0.3955 -0.2162
   12MPD2    C3  182   3.450   3.378  13.899 -0.6026 -0.8012 -0.0334
   12MPD2    C4  183   3.370   3.425  13.996 -0.4367  0.2945  0.6386
   12MPD2    C5  184   3.411   3.527  14.080  0.5570  0.0636 -0.0367
   12MPD2     H  185   3.633   3.380  13.800 -0.2858 -1.0818 -0.8249
   12MPD2    H1  186   3.273   3.382  14.019 -0.9977  1.6920  0.8905
   12MPD2    H2  187   3.570   3.666  14.112 -0.1762 -0.2554  0.5271
   12MPD2    H3  188   3.361   3.562  14.169  0.7498 -0.0329  0.1091
   12MPD2     N  189   3.419   3.271  13.821 -0.3278  0.3324 -0.0737
   12MPD2    H5  190   3.489   3.227  13.762 -0.0454 -0.1070  0.5866
   12MPD2    N1  191   3.751   3.586  13.927 -0.0821  0.3918 -0.2246
   12MPD2    H7  192   3.797   3.560  13.840 -2.6633 -2.1725 -0.8350
   13TCq1    O1  193   2.171   3.027  10.253  0.2573 -0.6854 -0.1104
   13TCq1    C1  194   2.276   2.959  10.197  0.2875 -1.1543  0.3412
   13TCq1    O2  195   2.269   2.860  10.126 -0.3427 -0.4884  0.0331
   13TCq1    C2  196   2.399   3.024  10.225  0.3673 -0.1128 -0.1493
   13TCq1    C3  197   2.496   3.007  10.136  0.4441 -0.1151  0.4650
   13TCq1    C4  198   2.625   3.017  10.187 -0.4441 -0.5715 -0.5681
   13TCq1    C5  199   2.655   3.024  10.323 -0.3488  0.1350  0.3405
   13TCq1    C6  200   2.553   3.016  10.407  1.1134  0.2835  0.8639
   13TCq1    C7  201   2.431   3.034  10.364 -0.2827 -0.1374 -0.4862
   13TCq1    C8  202   2.570   3.034  10.550  0.4517 -0.5908  0.6044
   13TCq1    O4  203   2.496   3.113  10.598  0.4126  0.0957  0.3808
   13TCq1    C9  204   2.727   3.010  10.091  0.0258 -0.1345 -0.0972
   13TCq1    O5  205   2.849   3.015  10.133 -0.7420  0.1917  0.2352
   13TCq1    O6  206   2.691   3.062   9.983 -0.9103 -0.3271  0.0169
   13TCq1    H1  207   2.193   3.097  10.317 -1.3346 -1.6145  1.4421
   13TCq1    H2  208   2.474   2.974  10.035  0.3042 -0.0286  0.4678
   13TCq1    H3  209   2.757   3.011  10.357 -0.3472  0.0140  0.2873
   13TCq1    H4  210   2.349   3.027  10.434  1.1057  0.3039  1.1857
   14MPD2     C  211   2.872   2.940  10.759 -0.9923  0.4289  0.0360
   14MPD2    C1  212   2.742   2.992  10.730 -0.2595  0.8459 -0.4161
   14MPD2    C2  213   2.677   3.077  10.824 -0.3489  0.5118 -0.0609
   14MPD2    C3  214   2.743   3.126  10.933  0.3166 -0.2233 -0.3208
   14MPD2    C4  215   2.868   3.078  10.964 -0.1137  0.0947 -0.0525
   14MPD2    C5  216   2.933   2.996  10.869  0.2599  0.9177  0.0478
   14MPD2     H  217   2.582   3.126  10.804 -1.2739 -1.5151 -0.6602
   14MPD2    H1  218   2.922   3.106  11.053  0.9836 -0.4792 -0.5380
   14MPD2    H2  219   2.921   2.863  10.701 -0.5547  0.3455  0.5182
   14MPD2    H3  220   3.037   2.968  10.879 -0.0874 -1.0879 -1.8772
   14MPD2     N  221   2.674   3.211  11.020 -0.4486 -0.4950  0.3420
   14MPD2    H5  222   2.578   3.221  10.989 -0.1971  0.9649  0.0277
   14MPD2    N1  223   2.690   2.978  10.600 -0.3111  0.2818  0.0304
   14MPD2    H7  224   2.739   2.914  10.538 -4.8859 -2.4782 -0.7164
   15TCq1    O1  225   0.515   3.622   1.585 -0.0913 -1.0306 -0.1031
   15TCq1    C1  226   0.492   3.632   1.448 -0.7831  0.3754 -0.1501
   15TCq1    O2  227   0.589   3.602   1.378  0.1812  0.2176 -0.1672
   15TCq1    C2  228   0.376   3.548   1.432  0.2423  0.2781  0.0684
   15TCq1    C3  229   0.272   3.574   1.518  0.2937  0.0049 -0.6889
   15TCq1    C4  230   0.179   3.471   1.531 -0.1312 -0.3660 -0.4680
   15TCq1    C5  231   0.195   3.347   1.465 -0.1128 -0.0780  0.0197
   15TCq1    C6  232   0.289   3.338   1.370  0.6578 -0.1705  0.2550
   15TCq1    C7  233   0.386   3.437   1.353  0.1987 -0.0414  0.0973
   15TCq1    C8  234   0.315   3.219   1.294 -0.0534  0.0536  0.1408
   15TCq1    O4  235   0.426   3.210   1.247  0.1765  0.1706  0.0659
   15TCq1    C9  236   0.077   3.483   1.632  0.0862 -0.6434 -0.1596
   15TCq1    O5  237   0.064   3.600   1.684  0.5302 -0.0410  0.5380
   15TCq1    O6  238   4.704   3.404   1.624 -0.2995 -0.5908 -0.3559
   15TCq1    H1  239   0.430   3.624   1.632  0.3799  1.8502  0.6516
   15TCq1    H2  240   0.255   3.662   1.579  1.3428 -0.6714  0.5809
   15TCq1    H3  241   0.126   3.269   1.494 -0.0013  0.5475  2.0026
   15TCq1    H4  242   0.461   3.435   1.275 -1.4391 -0.7874 -1.4445
   16MPD2     C  243   0.095   2.977   1.122 -0.5432  0.3680  0.2795
   16MPD2    C1  244   0.212   3.032   1.177  0.0345  0.1155 -0.4939
   16MPD2    C2  245   0.332   2.958   1.155  0.5974  0.1593  0.1067
   16MPD2    C3  246   0.329   2.843   1.080  0.1118  0.1833  0.4897
   16MPD2    C4  247   0.214   2.798   1.036 -0.4292  0.4993 -0.1613
   16MPD2    C5  248   0.096   2.855   1.064  0.0611 -0.5658  0.9475
   16MPD2     H  249   0.421   2.985   1.211  0.8032 -0.0919 -0.1005
   16MPD2    H1  250   0.204   2.705   0.981 -1.0289 -1.1399  2.7154
   16MPD2    H2  251   0.003   3.027   1.149 -1.0811 -0.7789  0.5773
   16MPD2    H3  252   4.717   2.816   1.033  1.0252 -0.6864 -1.8272
   16MPD2     N  253   0.454   2.774   1.077  0.7041  0.9765  0.0809
   16MPD2    H5  254   0.522   2.824   1.133  0.0379  1.8428  0.1164
   16MPD2    N1  255   0.204   3.148   1.256  0.5710  0.1573  0.1177
   16MPD2    H7  256   0.112   3.187   1.274  0.0391 -2.2388  2.4703
   17TCq1    O1  257   2.277   1.701  10.138  0.0402  0.3377  0.2278
   17TCq1    C1  258   2.326   1.782  10.047 -0.1181  0.5372 -0.1709
   17TCq1    O2  259   2.275   1.804   9.939  0.0951 -0.4887  0.4820
   17TCq1    C2  260   2.455   1.837  10.088  0.6034  0.3666  0.4515
   17TCq1    C3  261   2.504   1.930  10.005 -0.0657 -0.0582  0.3839
   17TCq1    C4  262   2.644   1.950  10.009 -0.2899  0.1613 -0.7759
   17TCq1    C5  263   2.714   1.895  10.112  0.2611 -0.6428 -0.1415
   17TCq1    C6  264   2.652   1.805  10.193 -0.8058  0.0993  0.2145
   17TCq1    C7  265   2.529   1.761  10.176  0.1771 -0.7780  0.1124
   17TCq1    C8  266   2.721   1.735  10.299 -0.5796  0.4543  0.1870
   17TCq1    O4  267   2.669   1.636  10.353  0.9483  0.2298 -0.2152
   17TCq1    C9  268   2.711   2.054   9.935  0.0753  0.5671  0.0426
   17TCq1    O5  269   2.818   2.099   9.978  0.2221 -0.2779 -0.2660
   17TCq1    O6  270   2.689   2.054   9.809 -0.3527 -0.6492 -0.6310
   17TCq1    H1  271   2.297   1.725  10.232 -1.7569 -2.0185  1.2129
   17TCq1    H2  272   2.443   1.979   9.931  3.1180  3.2384 -0.0771
   17TCq1    H3  273   2.821   1.913  10.121 -0.2840  2.6543 -0.2838
   17TCq1    H4  274   2.486   1.692  10.247  0.5085  0.7739  1.8079
   18MPD2     C  275   2.916   1.640  10.503  0.5184 -0.7960  0.2928
   18MPD2    C1  276   2.935   1.761  10.426  0.2297 -0.1996 -0.0088
   18MPD2    C2  277   3.054   1.828  10.436 -0.0987 -0.7169 -0.3558
   18MPD2    C3  278   3.156   1.778  10.516  0.5380 -0.2875 -0.1794
   18MPD2    C4  279   3.139   1.662  10.584  0.5981  0.2769  0.0662
   18MPD2    C5  280   3.020   1.589  10.580 -0.1954 -0.2230 -0.2550
   18MPD2     H  281   3.065   1.914  10.370 -2.2161  1.1814  1.7763
   18MPD2    H1  282   3.218   1.603  10.630  2.1512  2.3897  0.0948
   18MPD2    H2  283   2.829   1.575  10.506  1.4779 -1.9835  2.2272
   18MPD2    H3  284   3.017   1.490  10.624  2.6952 -0.3577 -0.3633
   18MPD2     N  285   3.289   1.827  10.520  0.0561 -0.0971 -0.4625
   18MPD2    H5  286   3.361   1.768  10.558 -0.7598  0.4840  1.9893
   18MPD2    N1  287   2.838   1.799  10.331 -0.1173  0.3456  0.6640
   18MPD2    H7  288   2.856   1.885  10.279 -1.0635  0.3913  0.4029
   19TMC2    C1  289   0.222   3.006  14.039  0.0170 -0.4683 -0.5992
   19TMC2    C2  290   0.342   2.936  14.021  0.4073 -0.6476 -0.2708
   19TMC2    C3  291   0.348   2.836  13.929 -0.1929  0.0238 -0.4440
   19TMC2    C4  292   0.105   2.966  13.975  0.1461 -0.5482  0.1089
   19TMC2    C5  293   0.117   2.863  13.891 -0.2022 -0.0741 -0.2866
   19TMC2    C6  294   0.232   2.801  13.864 -0.4943  0.1628 -0.2569
   19TMC2     C  295   0.216   3.125  14.109  0.4412 -0.6925 -0.0527
   19TMC2     O  296   0.118   3.195  14.093 -0.6416  0.9237  0.3584
   19TMC2     H  297   0.436   2.969  14.061 -0.0125 -0.9793  0.9795
   19TMC2    H1  298   0.010   3.016  13.991 -0.2246 -1.6228  1.2391
   19TMC2    H2  299   0.233   2.721  13.790  2.8918  1.0920 -1.2323
   19TMC2    C7  300   4.713   2.791  13.851 -0.0444 -0.1069 -0.4952
   19TMC2    C8  301   0.458   2.744  13.943  0.3476 -0.6096  0.1094
   19TMC2    O1  302   4.716   2.669  13.842  0.3462 -0.4392  0.3384
   19TMC2    O2  303   0.429   2.623  13.946 -0.3092 -0.1353  0.6109
   19TMC2    O5  304   0.555   2.803  13.875  0.5960  0.9817  0.1169
   19TMC2    H5  305   0.539   2.897  13.853  0.0494  0.7492 -0.4708
   20MPD2     C  306   0.262   3.350  14.307 -0.3909 -0.1802  0.2196
   20MPD2    C1  307   0.324   3.227  14.318  0.2246  0.1882 -0.7302
   20MPD2    C2  308   0.374   3.188  14.438  0.1265 -0.7527 -0.7371
   20MPD2    C3  309   0.377   3.276  14.542 -0.2689  0.0111  0.7938
   20MPD2    C4  310   0.322   3.401  14.527  0.1140  0.1416  0.7299
   20MPD2    C5  311   0.248   3.433  14.416 -0.1214  0.6489  0.5880
   20MPD2     H  312   0.424   3.093  14.431 -1.2279 -1.5923  0.8849
   20MPD2    H1  313   0.321   3.477  14.605 -1.3329  0.0129  0.8328
   20MPD2    H2  314   0.207   3.378  14.218 -0.1719 -1.0297 -0.1810
   20MPD2    H3  315   0.189   3.524  14.408  0.9021  1.2158 -0.5746
   20MPD2     N  316   0.420   3.243  14.673  0.5613  0.2887 -0.0469
   20MPD2    H5  317   0.416   3.306  14.753 -2.8265  0.9949 -0.7897
   20MPD2    N1  318   0.312   3.127  14.215  0.0577 -0.4835  0.5706
   20MPD2    H7  319   0.366   3.042  14.226  1.2373 -0.1221 -2.3395
   21MPD2     C  320   2.170   3.166  13.729  0.0742 -0.5991 -0.5607
   21MPD2    C1  321   2.257   3.091  13.807 -0.0785  0.3213 -0.8834
   21MPD2    C2  322   2.226   3.064  13.939  0.2512  0.3339 -0.1679
   21MPD2    C3  323   2.110   3.121  13.997 -0.7609 -0.0105  0.5746
   21MPD2    C4  324   2.030   3.192  13.920 -0.3447 -0.2570  0.5452
   21MPD2    C5  325   2.056   3.217  13.792 -0.1340 -0.1633 -0.4261
   21MPD2     H  326   2.299   3.003  13.991 -0.8485 -1.1067 -0.3069
   21MPD2    H1  327   1.938   3.238  13.954 -0.6624 -1.6554  1.5968
   21MPD2    H2  328   2.189   3.193  13.626  0.9167  1.1956  0.0818
   21MPD2    H3  329   1.984   3.275  13.737 -0.9208 -0.2640  0.5034
   21MPD2     N  330   2.089   3.115  14.136  0.0546  0.0193  0.2364
   21MPD2    H5  331   2.013   3.176  14.165  0.1793  0.3527 -0.1527
   21MPD2    N1  332   2.378   3.053  13.756  0.4988 -0.5808 -0.1852
   21MPD2    H7  333   2.446   3.029  13.827  0.1267 -1.2379 -0.0412
   22TCq2    C1  334   2.174   3.052  14.221 -0.5319  0.4168  0.0292
   22TCq2    O2  335   2.281   2.992  14.216 -0.4108 -0.0123  0.1999
   22TCq2    C2  336   2.123   3.063  14.357 -0.7650  0.0395 -0.0125
   22TCq2    C3  337   2.187   2.977  14.447  0.2978 -0.0883  0.2408
   22TCq2    C4  338   2.144   2.974  14.576 -0.2728 -0.3798  0.0563
   22TCq2    C5  339   2.051   3.063  14.625 -0.5768 -0.3267 -0.5011
   22TCq2    C6  340   1.990   3.145  14.534  0.0762 -0.3422  0.7030
   22TCq2    C7  341   2.023   3.145  14.400 -0.3800  0.0179  0.2390
   22TCq2    C8  342   1.915   3.250  14.599  0.1153 -0.1554 -0.6043
   22TCq2    O4  343   1.939   3.264  14.718 -0.5159 -0.6612  0.4876
   22TCq2    C9  344   2.195   2.873  14.664  0.0293 -0.3095  0.2814
   22TCq2    O5  345   2.288   2.795  14.626  0.2286 -0.0341  0.5753
   22TCq2    O6  346   2.191   2.898  14.787 -0.3370 -0.1734  0.6223
   22TCq2    H2  347   2.258   2.904  14.409 -0.5058 -1.0686  0.6273
   22TCq2    H3  348   2.009   3.054  14.724  0.3497  0.9688  0.0091
   22TCq2    H4  349   1.972   3.212  14.332  2.5661  1.1696 -0.8506
   23MPD2     C  350   3.811   4.561  14.677 -0.1742  1.0765  0.3097
   23MPD2    C1  351   3.740   4.448  14.706  0.5598 -0.1792  0.9160
   23MPD2    C2  352   3.612   4.436  14.656  0.2108  0.1537  0.2937
   23MPD2    C3  353   3.566   4.521  14.554  0.3053 -0.6642  0.1699
   23MPD2    C4  354   3.646   4.627  14.518 -0.5161 -0.5584 -0.3884
   23MPD2    C5  355   3.769   4.645  14.576 -0.1687  0.4920 -0.5870
   23MPD2     H  356   3.555   4.350  14.687  1.5393 -0.4597  1.0433
   23MPD2    H1  357   3.603   4.700  14.450  2.9529  1.9050  0.0784
   23MPD2    H2  358   3.907   4.585  14.721  0.6909  0.6617 -1.3445
   23MPD2    H3  359   3.837   0.007  14.547 -0.2146  0.2335 -1.3985
   23MPD2     N  360   3.440   4.520  14.496 -0.5419  0.7122 -0.4721
   23MPD2    H5  361   3.415   4.596  14.433  1.0653  1.8658  0.2825
   23MPD2    N1  362   3.775   4.355  14.808 -0.3544  0.0818 -0.3069
   23MPD2    H7  363   3.710   4.279  14.826 -1.1600  0.3530 -2.0998
   24TCq2    C1  364   3.338   4.440  14.528 -0.4908  0.3441  0.0707
   24TCq2    O2  365   3.347   4.341  14.600 -0.2395 -0.6948 -0.2766
   24TCq2    C2  366   3.230   4.452  14.437  0.0639 -0.7937  0.1203
   24TCq2    C3  367   3.236   4.542  14.336  0.8087  0.2363 -0.4925
   24TCq2    C4  368   3.140   4.535  14.236 -0.9192 -0.0962 -0.7178
   24TCq2    C5  369   3.038   4.444  14.244  0.1079  0.3062 -0.3989
   24TCq2    C6  370   3.029   4.355  14.346 -0.0395 -0.0459 -0.7466
   24TCq2    C7  371   3.122   4.364  14.450 -0.3901  0.1482  0.6123
   24TCq2    C8  372   2.929   4.254  14.367 -0.2249  0.2908 -0.2002
   24TCq2    O4  373   2.948   4.173  14.458 -0.1669  0.5320  0.1677
   24TCq2    C9  374   3.144   4.627  14.118  0.5738 -0.1468 -0.4958
   24TCq2    O5  375   3.050   4.619  14.041 -0.4087 -0.7188 -0.3571
   24TCq2    O6  376   3.225   0.004  14.112 -0.0089  0.3680  0.5645
   24TCq2    H2  377   3.319   4.606  14.309 -0.2423  1.5552 -0.5679
   24TCq2    H3  378   2.983   4.438  14.151 -1.0252  0.4226  0.2718
   24TCq2    H4  379   3.120   4.298  14.535 -1.5315 -0.3937  0.1585
   25TMC2    C1  380   2.235   1.933  10.842  0.1134  1.0905 -0.2393
   25TMC2    C2  381   2.298   1.946  10.719  0.3084 -0.3287 -0.4573
   25TMC2    C3  382   2.396   2.044  10.704 -0.0347 -0.4651 -0.3378
   25TMC2    C4  383   2.277   2.019  10.938 -0.6104 -0.0569 -0.0846
   25TMC2    C5  384   2.366   2.117  10.912  0.0383 -0.4659  0.3615
   25TMC2    C6  385   2.442   2.126  10.795 -0.3916  0.3050 -0.8102
   25TMC2     C  386   2.186   1.801  10.877  0.3430  0.7272  0.0634
   25TMC2     O  387   2.160   1.725  10.783 -0.8251 -0.3893 -0.0448
   25TMC2     H  388   2.285   1.871  10.640  2.9263 -2.5749  1.2636
   25TMC2    H1  389   2.226   2.023  11.034  1.8185  2.2817  1.0792
   25TMC2    H2  390   2.507   2.210  10.773 -0.7328  0.9623  0.7160
   25TMC2    C7  391   2.407   2.194  11.030  0.2391 -0.1637 -0.7101
   25TMC2    C8  392   2.466   2.046  10.579 -0.2214  0.6029 -0.7223
   25TMC2    O1  393   2.323   2.215  11.116  0.5572 -0.1363 -0.0186
   25TMC2    O2  394   2.575   2.104  10.576  0.0990  0.4336  0.4395
   25TMC2    O5  395   2.372   2.060  10.480  0.3286 -0.8925 -0.5017
   25TMC2    H5  396   2.290   2.008  10.496 -0.3432  0.2217 -0.3103
   26MPD2     C  397   2.117   1.401  11.178 -0.1315 -0.1329 -0.2333
   26MPD2    C1  398   2.059   1.428  11.061  0.4405 -0.3460  0.6671
   26MPD2    C2  399   2.077   1.555  11.001  0.1839  0.2717  0.5768
   26MPD2    C3  400   2.171   1.640  11.053  0.2797 -0.3437 -0.3145
   26MPD2    C4  401   2.227   1.606  11.171 -0.2448  0.8299 -0.1194
   26MPD2    C5  402   2.204   1.491  11.230 -0.1365  0.0793  0.1210
   26MPD2     H  403   2.028   1.576  10.907 -0.0601 -0.3517  0.5643
   26MPD2    H1  404   2.292   1.677  11.222 -0.5169  0.1298  1.1964
   26MPD2    H2  405   2.110   1.307  11.230  2.2024 -0.6034 -0.7745
   26MPD2    H3  406   2.243   1.469  11.329 -2.3505 -1.2951  0.7025
   26MPD2     N  407   2.207   1.764  11.006  0.1976  0.2376 -0.5234
   26MPD2    H5  408   2.273   1.813  11.065  0.0850  0.1649 -0.3383
   26MPD2    N1  409   1.986   1.327  10.998 -0.1310  0.5835 -0.1923
   26MPD2    H7  410   1.976   1.241  11.052 -3.2914  0.7896 -0.4413
   27TMC2    C1  411   1.321   3.864  11.806 -0.1674 -0.6495 -0.8380
   27TMC2    C2  412   1.260   3.898  11.700  0.6653 -0.1275  0.5209
   27TMC2    C3  413   1.202   4.014  11.681 -0.5280  0.7573 -1.2598
   27TMC2    C4  414   1.339   3.957  11.911  0.5290  0.1322 -0.5456
   27TMC2    C5  415   1.298   4.082  11.892  0.6024 -0.1928  0.3230
   27TMC2    C6  416   1.223   4.113  11.775 -0.2929 -0.7580 -0.2186
   27TMC2     C  417   1.295   3.734  11.860 -0.0084  0.0209  0.7205
   27TMC2     O  418   1.369   3.642  11.832  0.2847  0.9183  0.3066
   27TMC2     H  419   1.249   3.821  11.624 -1.4457  0.1036  0.5986
   27TMC2    H1  420   1.387   3.936  12.006 -2.3568  0.8096  1.0701
   27TMC2    H2  421   1.180   4.211  11.758  1.3224 -0.4472 -2.4249
   27TMC2    C7  422   1.250   4.145  12.014 -0.6159 -0.1681 -0.8422
   27TMC2    C8  423   1.173   4.058  11.543  0.0909  0.5301 -0.3608
   27TMC2    O1  424   1.307   4.120  12.121  0.6534 -0.2651  0.1819
   27TMC2    O2  425   1.170   4.174  11.503 -0.1442  0.3503 -0.3170
   27TMC2    O5  426   1.131   3.947  11.474  0.6264 -0.0728  0.0910
   27TMC2    H5  427   1.086   3.885  11.536 -1.1989  0.1000 -1.0623
   28MPD2     C  428   1.082   3.455  12.227  0.2076  0.3708 -0.3923
   28MPD2    C1  429   1.027   3.580  12.239  0.6082 -0.3730  0.1082
   28MPD2    C2  430   1.080   3.677  12.153 -0.1450 -0.4869  0.3349
   28MPD2    C3  431   1.167   3.643  12.052 -0.7218 -0.2684 -0.6051
   28MPD2    C4  432   1.219   3.519  12.049 -0.6866 -0.0845 -0.4209
   28MPD2    C5  433   1.179   3.418  12.135  0.5097 -0.4486  0.2964
   28MPD2     H  434   1.048   3.780  12.142  0.7311 -0.1934  0.5594
   28MPD2    H1  435   1.296   3.487  11.980 -0.6123 -0.6572 -0.0757
   28MPD2    H2  436   1.052   3.379  12.298 -1.1052 -0.5532 -1.9386
   28MPD2    H3  437   1.209   3.314  12.128 -0.4834 -0.5828 -1.8092
   28MPD2     N  438   1.205   3.745  11.964  0.4000 -0.0717  0.0578
   28MPD2    H5  439   1.150   3.829  11.978 -0.3291  0.0352 -3.3731
   28MPD2    N1  440   0.922   3.605  12.328 -1.0298 -0.5362  0.1747
   28MPD2    H7  441   0.868   3.531  12.373 -1.5205 -1.3357 -1.7282
   29MPD2     C  442   0.738   1.303  13.616 -0.0650  0.6122 -0.0185
   29MPD2    C1  443   0.869   1.278  13.647 -0.6452  0.0651  0.1026
   29MPD2    C2  444   0.949   1.377  13.703 -0.3432  0.4537 -0.0209
   29MPD2    C3  445   0.892   1.504  13.725  0.0724  0.2831 -0.0821
   29MPD2    C4  446   0.764   1.529  13.695  0.4287 -0.0761 -0.3938
   29MPD2    C5  447   0.690   1.429  13.644 -0.4025 -0.9632  0.4545
   29MPD2     H  448   1.048   1.343  13.731 -0.0578  1.3554  0.0930
   29MPD2    H1  449   0.727   1.628  13.720  1.6629 -0.1918  1.9204
   29MPD2    H2  450   0.658   1.246  13.571  1.5843 -1.3680 -0.4466
   29MPD2    H3  451   0.590   1.459  13.617 -0.6654 -1.2411  1.1195
   29MPD2     N  452   0.966   1.614  13.788 -0.0838 -0.1694 -0.8785
   29MPD2    H5  453   0.919   1.703  13.800  2.2968  1.2588 -2.1092
   29MPD2    N1  454   0.930   1.148  13.648  0.7050 -0.1027  0.2804
   29MPD2    H7  455   1.021   1.142  13.692  0.2378 -1.6436  1.0479
   30TCq2    C1  456   1.099   1.609  13.836 -0.5941  0.3125 -1.0919
   30TCq2    O2  457   1.189   1.529  13.808  0.6082  0.0265 -0.1482
   30TCq2    C2  458   1.130   1.727  13.916  0.1482  0.8284  0.3815
   30TCq2    C3  459   1.041   1.800  13.989 -0.8139  0.0927 -0.0360
   30TCq2    C4  460   1.086   1.890  14.080 -0.1631  0.6327 -0.4629
   30TCq2    C5  461   1.214   1.932  14.075  0.3907 -0.7758 -0.3213
   30TCq2    C6  462   1.297   1.880  13.978 -0.8558  0.6697  0.0225
   30TCq2    C7  463   1.262   1.769  13.900 -0.5989  0.3045  0.7350
   30TCq2    C8  464   1.425   1.931  13.940 -0.0855  0.8778 -0.6671
   30TCq2    O4  465   1.472   1.893  13.836 -0.0138  0.2242  0.2750
   30TCq2    C9  466   0.992   1.964  14.160 -0.2556 -0.0092 -0.5813
   30TCq2    O5  467   0.882   1.899  14.175  0.0269 -0.0064  0.4922
   30TCq2    O6  468   1.016   2.076  14.211  0.3215 -0.1864 -0.1352
   30TCq2    H2  469   0.938   1.767  13.988 -1.0393  0.8738 -1.7815
   30TCq2    H3  470   1.248   2.016  14.135  3.2454 -0.7673 -1.9242
   30TCq2    H4  471   1.335   1.717  13.840  0.6643  3.2329 -0.2799
   31MPD2     C  472   3.641   0.853  14.518 -0.1854  0.0857 -0.2857
   31MPD2    C1  473   3.561   0.836  14.412 -1.0997  0.2689 -0.3073
   31MPD2    C2  474   3.454   0.748  14.408  0.8769  0.1117 -0.2041
   31MPD2    C3  475   3.440   0.670  14.523 -0.2559  0.0935 -0.3792
   31MPD2    C4  476   3.519   0.682  14.636  0.9971 -0.2111 -0.6719
   31MPD2    C5  477   3.619   0.779  14.632 -0.5930  0.2972 -0.3109
   31MPD2     H  478   3.381   0.745  14.328 -0.4201  0.7265  0.9466
   31MPD2    H1  479   3.501   0.630  14.729 -0.5812  0.0041 -0.8618
   31MPD2    H2  480   3.726   0.920  14.523 -1.0816  1.0812  1.2841
   31MPD2    H3  481   3.677   0.798  14.721  0.2644  1.9407 -1.2237
   31MPD2     N  482   3.338   0.579  14.544  0.3912 -0.5904  0.1998
   31MPD2    H5  483   3.331   0.545  14.639  0.9793  1.2694  0.9042
   31MPD2    N1  484   3.609   0.915  14.305  0.0958  0.2147  0.5586
   31MPD2    H7  485   3.697   0.961  14.326  1.3935 -1.2962 -1.5216
   32TCq2    C1  486   3.232   0.550  14.461  0.1071 -0.3834 -0.0362
   32TCq2    O2  487   3.217   0.573  14.343  0.1588 -0.2369  0.7298
   32TCq2    C2  488   3.125   0.467  14.521  0.4087 -0.9044  0.6456
   32TCq2    C3  489   3.001   0.463  14.459  0.4994 -0.0213  0.1324
   32TCq2    C4  490   2.900   0.399  14.524 -0.6227  0.3037 -0.4001
   32TCq2    C5  491   2.919   0.347  14.656 -0.1615  0.3841  0.0956
   32TCq2    C6  492   3.048   0.349  14.707  0.5341  0.0274 -0.3493
   32TCq2    C7  493   3.147   0.406  14.643  0.1575 -0.8740  0.3635
   32TCq2    C8  494   3.074   0.301  14.838 -0.3447  0.6265 -0.2610
   32TCq2    O4  495   3.188   0.301  14.872 -0.0116  0.0432 -0.4169
   32TCq2    C9  496   2.767   0.403  14.475  0.8439 -0.2047  0.3516
   32TCq2    O5  497   2.673   0.350  14.547  0.2769 -0.0458 -0.0723
   32TCq2    O6  498   2.759   0.439  14.354 -0.0495  0.4019  0.1876
   32TCq2    H2  499   2.979   0.532  14.378  1.2958 -0.5573 -0.5483
   32TCq2    H3  500   2.833   0.304  14.706  0.1049  0.3089  0.4928
   32TCq2    H4  501   3.244   0.387  14.687  1.2964  1.0582 -1.2892
   33MPD2     C  502   4.027   2.403  10.399  0.3578 -0.2516 -1.0011
   33MPD2    C1  503   3.884   2.385  10.401 -0.1282  0.8136  0.0435
   33MPD2    C2  504   3.804   2.476  10.334  0.0875 -0.1652  0.5230
   33MPD2    C3  505   3.861   2.591  10.272  0.3798 -0.2473  0.0749
   33MPD2    C4  506   3.998   2.609  10.273  0.4628  0.3240 -0.0228
   33MPD2    C5  507   4.079   2.516  10.339  0.7113 -0.4508  0.4903
   33MPD2     H  508   3.698   2.458  10.342  0.0598  0.1414  0.8571
   33MPD2    H1  509   4.046   2.692  10.222  0.6423 -0.8379 -1.7197
   33MPD2    H2  510   4.093   2.343  10.460  0.4080  1.8477  1.0221
   33MPD2    H3  511   4.186   2.531  10.349  0.5955  0.4753  0.2974
   33MPD2     N  512   3.776   2.690  10.203 -0.4369  0.5276  0.1045
   33MPD2    H5  513   3.811   2.783  10.184  0.6061  0.4912  1.7898
   33MPD2    N1  514   3.836   2.268  10.465  0.3276  0.1683  0.3367
   33MPD2    H7  515   3.905   2.198  10.492  0.0615  0.2390  1.1901
   34TCq2    C1  516   3.647   2.673  10.172 -0.0473  0.3497 -0.1486
   34TCq2    O2  517   3.580   2.569  10.177  0.1986 -0.2208  0.3867
   34TCq2    C2  518   3.589   2.780  10.105 -0.1629 -0.0359  0.6310
   34TCq2    C3  519   3.462   2.762  10.066  0.0430 -0.0157 -0.2020
   34TCq2    C4  520   3.416   2.845   9.969  0.9193  1.0209 -0.8446
   34TCq2    C5  521   3.487   2.945   9.905  0.3483 -0.1392 -0.5440
   34TCq2    C6  522   3.617   2.961   9.946  0.3772 -0.8076  0.7400
   34TCq2    C7  523   3.670   2.878  10.044  0.1923 -0.9361  0.1094
   34TCq2    C8  524   3.714   3.039   9.872  0.5637  0.0488  0.2382
   34TCq2    O4  525   3.815   3.060   9.932 -0.0398 -0.4784  0.1827
   34TCq2    C9  526   3.275   2.842   9.939  0.2383  0.1977  0.2862
   34TCq2    O5  527   3.231   2.943   9.878  0.4079  0.1501 -0.4510
   34TCq2    O6  528   3.197   2.765  10.003 -0.0058 -0.0339 -0.0468
   34TCq2    H2  529   3.395   2.690  10.111 -0.2423 -0.9887 -2.1587
   34TCq2    H3  530   3.438   3.013   9.836  0.9690 -0.3095 -1.1536
   34TCq2    H4  531   3.777   2.876  10.055  0.0746 -0.7404  1.2942
   35MPD2     C  532   0.757   4.460  11.511  0.5244 -0.1446 -0.5723
   35MPD2    C1  533   0.733   4.333  11.565 -0.1018  0.2813 -0.5737
   35MPD2    C2  534   0.608   4.268  11.539  0.8744 -0.4101 -0.2478
   35MPD2    C3  535   0.520   4.324  11.449 -1.0195 -0.5099  0.6411
   35MPD2    C4  536   0.547   4.446  11.386 -0.9777  0.3205  0.6711
   35MPD2    C5  537   0.664   4.514  11.422  0.5907  0.0684  0.1451
   35MPD2     H  538   0.591   4.169  11.579  0.9983 -1.1424 -2.0023
   35MPD2    H1  539   0.489   4.485  11.302 -2.2589 -1.3107  0.7986
   35MPD2    H2  540   0.841   4.526  11.532  0.4070  0.5814 -2.4441
   35MPD2    H3  541   0.675   4.610  11.374 -0.6467 -0.3348 -0.9557
   35MPD2     N  542   0.388   4.265  11.434 -0.0296  0.3148  0.0142
   35MPD2    H5  543   0.369   4.185  11.494  1.4407 -0.5293 -0.6508
   35MPD2    N1  544   0.819   4.285  11.660 -0.0340  0.4955  0.5796
   35MPD2    H7  545   0.907   4.336  11.661  1.1967 -1.6058 -1.7934
   36TCq2    C1  546   0.277   4.311  11.369  0.2188 -0.7543  0.6044
   36TCq2    O2  547   0.283   4.398  11.282 -0.4689  0.3818 -0.3495
   36TCq2    C2  548   0.143   4.260  11.406  0.9715 -0.2682  0.0678
   36TCq2    C3  549   0.042   4.331  11.347  0.1089  0.1656  0.0253
   36TCq2    C4  550   4.634   4.320  11.403 -0.6417  0.0536  0.1702
   36TCq2    C5  551   4.606   4.248  11.510 -0.5401  0.4044  0.0937
   36TCq2    C6  552   4.713   4.194  11.579  0.1148 -0.8373 -0.2637
   36TCq2    C7  553   0.123   4.197  11.526  0.5116  0.6145 -0.4051
   36TCq2    C8  554   4.679   4.103  11.688  0.1542  0.4330  0.5995
   36TCq2    O4  555   0.039   4.011  11.706  0.1070  0.4584  0.0289
   36TCq2    C9  556   4.522   4.366  11.327 -0.9315 -0.4155  0.3100
   36TCq2    O5  557   4.545   4.380  11.203 -0.2780 -0.1155 -0.4573
   36TCq2    O6  558   4.421   4.414  11.384 -0.1015 -0.5917 -0.2136
   36TCq2    H2  559   0.065   4.356  11.243  1.2309 -1.6647 -0.1671
   36TCq2    H3  560   4.501   4.239  11.533  0.3768 -2.7904  2.9310
   36TCq2    H4  561   0.206   4.151  11.579  0.4700  1.1454  0.1277
   37TMC2    C1  562   2.628   0.197  11.158 -0.2440  0.3203 -0.1711
   37TMC2    C2  563   2.686   0.244  11.041  0.0695 -0.0305 -0.2394
   37TMC2    C3  564   2.818   0.237  11.035  0.1645  0.3728 -0.0297
   37TMC2    C4  565   2.699   0.165  11.265 -0.4750 -0.3305  0.1102
   37TMC2    C5  566   2.835   0.144  11.252 -0.1067  0.5438  0.3552
   37TMC2    C6  567   2.901   0.181  11.137 -0.4552  0.8240 -0.3377
   37TMC2     C  568   2.485   0.211  11.169 -0.1308  0.2556  0.1361
   37TMC2     O  569   2.427   0.279  11.084 -0.2507 -0.0616  0.7972
   37TMC2     H  570   2.624   0.267  10.955  0.0889  0.9644  0.0097
   37TMC2    H1  571   2.654   0.149  11.362 -2.1333  0.3974 -0.5406
   37TMC2    H2  572   3.009   0.189  11.129 -0.3914 -0.2303 -0.5945
   37TMC2    C7  573   2.904   0.084  11.363  0.3946  0.0526  1.1041
   37TMC2    C8  574   2.873   0.262  10.909  0.3480 -0.5256  0.2529
   37TMC2    O1  575   2.868   0.107  11.480 -0.1410  0.0066 -0.2793
   37TMC2    O2  576   2.835   0.362  10.849  0.3500  0.0155  0.0632
   37TMC2    O5  577   2.990   0.203  10.905 -0.5748 -0.3630 -0.4031
   37TMC2    H5  578   2.980   0.109  10.931  0.0962 -1.3889 -3.8277
   38MPD2     C  579   2.028   0.065  11.355 -0.1726 -0.2538 -0.4357
   38MPD2    C1  580   2.126   4.708  11.413  0.3554  0.1331  0.2824
   38MPD2    C2  581   2.258   0.008  11.377 -0.5500 -0.3483 -0.4458
   38MPD2    C3  582   2.296   0.113  11.296 -0.4159 -0.9645 -0.5068
   38MPD2    C4  583   2.195   0.202  11.257 -0.3013 -0.5287 -0.2243
   38MPD2    C5  584   2.067   0.172  11.279 -0.2130  0.4836 -0.4505
   38MPD2     H  585   2.339   4.671  11.424 -0.5106  0.7398  0.7477
   38MPD2    H1  586   2.204   0.288  11.191  0.8592 -0.7546 -0.3484
   38MPD2    H2  587   1.925   0.036  11.371 -0.9846  3.5873  1.3674
   38MPD2    H3  588   1.993   0.233  11.229 -1.2627 -0.8170 -0.4781
   38MPD2     N  589   2.435   0.125  11.265  0.6132 -0.2826  0.5607
   38MPD2    H5  590   2.500   0.051  11.289 -1.3681 -2.0808  0.4348
   38MPD2    N1  591   2.107   4.612  11.513  0.1838  0.2458  0.6223
   38MPD2    H7  592   2.187   4.578  11.565 -1.3947 -2.2602  1.3536
   39MPD2     C  593   0.866   2.246   1.341  0.1268  0.8700  0.0822
   39MPD2    C1  594   0.812   2.375   1.350  0.4821  0.0566  0.3127
   39MPD2    C2  595   0.684   2.394   1.297  0.1282  0.3971  0.0620
   39MPD2    C3  596   0.624   2.288   1.226 -0.0045  0.1783  0.1303
   39MPD2    C4  597   0.685   2.166   1.224  0.2260 -0.1504 -0.4658
   39MPD2    C5  598   0.794   2.138   1.296 -0.8047 -0.2357  1.1394
   39MPD2     H  599   0.633   2.488   1.314 -1.5849 -0.2947 -1.2361
   39MPD2    H1  600   0.628   2.082   1.186 -2.6345  0.8289  1.7091
   39MPD2    H2  601   0.960   2.221   1.388  0.5152 -0.9973 -1.6631
   39MPD2    H3  602   0.825   2.036   1.319 -0.0685 -0.7451 -2.1783
   39MPD2     N  603   0.495   2.300   1.163  0.4008  0.3530  0.5226
   39MPD2    H5  604   0.468   2.216   1.112  1.3949  0.0921  0.4076
   39MPD2    N1  605   0.902   2.466   1.394  0.0350  0.6047  0.0685
   39MPD2    H7  606   0.992   2.437   1.429  0.5520  2.0462 -0.0593
   40TCq2    C1  607   0.870   2.598   1.416  0.1984  0.1377  0.9173
   40TCq2    O2  608   0.759   2.652   1.421  0.3393  0.4325  0.3155
   40TCq2    C2  609   0.991   2.679   1.443 -0.7941 -0.3591  0.3372
   40TCq2    C3  610   0.961   2.795   1.508 -0.6485 -0.2284 -0.6434
   40TCq2    C4  611   1.066   2.863   1.566 -1.6963 -0.5476 -1.1376
   40TCq2    C5  612   1.196   2.814   1.562 -0.4701 -0.1972  0.6281
   40TCq2    C6  613   1.221   2.702   1.492  1.0542 -0.0420 -0.7993
   40TCq2    C7  614   1.123   2.639   1.427 -0.4719 -0.3395  0.4502
   40TCq2    C8  615   1.353   2.639   1.485  0.6672 -0.6871  0.0088
   40TCq2    O4  616   1.347   2.519   1.479 -0.1408  0.6378  0.1453
   40TCq2    C9  617   1.043   2.989   1.630  0.1019 -0.2143 -0.2686
   40TCq2    O5  618   1.132   3.026   1.707  0.5952 -0.3546  0.4259
   40TCq2    O6  619   0.929   3.042   1.617  0.2975  0.0746 -0.2776
   40TCq2    H2  620   0.859   2.834   1.507 -1.2171 -1.7349 -0.7885
   40TCq2    H3  621   1.281   2.866   1.604 -0.3985  0.1660  0.0152
   40TCq2    H4  622   1.146   2.542   1.386  0.6129  0.2172 -0.2540
   41TMC2    C1  623   4.459   4.696  13.972  0.3371 -0.1998  0.8829
   41TMC2    C2  624   4.583   0.029  13.959 -0.3384  0.3987 -0.7850
   41TMC2    C3  625   4.654   4.708  13.846 -0.8923  0.4943 -0.2139
   41TMC2    C4  626   4.406   4.618  13.871 -0.0140 -0.3878 -0.4886
   41TMC2    C5  627   4.479   4.584  13.759  0.9513  0.2719  0.1848
   41TMC2    C6  628   4.612   4.628  13.743  0.2603  0.5227  0.4295
   41TMC2     C  629   4.361   0.029  14.071 -0.3375  0.4320 -0.1003
   41TMC2     O  630   4.264   4.678  14.088  0.0811  0.5784  0.6212
   41TMC2     H  631   4.634   0.082  14.039 -0.9945  0.1540 -0.1954
   41TMC2    H1  632   4.299   4.602  13.870 -0.1805  0.7309 -0.0008
   41TMC2    H2  633   4.677   4.585  13.668 -1.2953 -0.4899 -0.3227
   41TMC2    C7  634   4.405   4.521  13.651  0.3829  0.1559 -0.4543
   41TMC2    C8  635   0.079   4.703  13.870  0.3469 -0.2958 -0.1783
   41TMC2    O1  636   4.286   4.497  13.674  0.6654 -0.1344 -0.5274
   41TMC2    O2  637   0.124   4.669  13.981 -0.5465  0.5756  0.4148
   41TMC2    O5  638   0.128   0.091  13.801  0.6704 -0.0904  0.3577
   41TMC2    H5  639   0.071   0.118  13.727  2.1648 -1.0643 -1.1428
   42MPD2     C  640   4.176   0.197  14.232  0.3704  0.3138 -0.7593
   42MPD2    C1  641   4.302   0.243  14.177 -0.0392 -0.3512 -0.5378
   42MPD2    C2  642   4.338   0.379  14.205  0.9750 -0.4887 -0.2618
   42MPD2    C3  643   4.255   0.450  14.291 -0.5209 -0.4105 -0.7382
   42MPD2    C4  644   4.133   0.407  14.331 -0.4146 -0.3587  0.6638
   42MPD2    C5  645   4.095   0.278  14.307  0.3503 -0.3170 -0.6252
   42MPD2     H  646   4.428   0.423  14.166  1.1929 -2.3126 -1.8312
   42MPD2    H1  647   4.074   0.469  14.397 -2.0094 -0.0521 -1.0577
   42MPD2    H2  648   4.135   0.100  14.207  0.4156  0.7171 -2.3993
   42MPD2    H3  649   4.001   0.234  14.342  0.4812  0.5866  0.8564
   42MPD2     N  650   4.289   0.575  14.347 -0.3806  0.2582  0.2432
   42MPD2    H5  651   4.225   0.615  14.415 -2.5469 -0.7972 -1.1740
   42MPD2    N1  652   4.389   0.159  14.102 -0.4827  0.1523  0.2374
   42MPD2    H7  653   4.476   0.195  14.065 -0.2509 -1.5274 -0.8838
   43MPD2     C  654   1.457   3.140  17.511 -0.5075  0.1074  0.6582
   43MPD2    C1  655   1.503   3.159  17.641  0.1023 -0.1144  0.7224
   43MPD2    C2  656   1.427   3.231   0.058 -0.3439 -0.0139  0.2763
   43MPD2    C3  657   1.317   3.307   0.023 -0.0872  0.1125  0.1025
   43MPD2    C4  658   1.287   3.312  17.559  0.4573 -0.3063 -0.3300
   43MPD2    C5  659   1.349   3.218  17.478 -0.6109 -0.5781  0.7265
   43MPD2     H  660   1.454   3.229   0.163  1.0164 -1.1017 -0.0856
   43MPD2    H1  661   1.217   3.385  17.520  1.5403  0.8023 -0.2405
   43MPD2    H2  662   1.501   3.070  17.441  0.3028  1.2731  0.0182
   43MPD2    H3  663   1.316   3.206  17.375  1.8117 -0.7716 -0.0519
   43MPD2     N  664   1.236   3.381   0.121  0.4237 -0.0634  0.5860
   43MPD2    H5  665   1.141   3.410   0.099  1.2204  1.6778 -0.5509
   43MPD2    N1  666   1.615   3.091   0.016  0.7097  0.2218 -0.1117
   43MPD2    H7  667   1.621   3.089   0.118  0.1251 -0.1275 -0.0817
   44TCq2    C1  668   1.196   3.489   0.691  0.7396 -0.0074 -1.0167
   44TCq2    O2  669   1.293   3.414   0.709 -0.0275  0.0557  0.1057
   44TCq2    C2  670   1.129   3.492   0.553 -0.0659 -0.1559 -0.4140
   44TCq2    C3  671   1.031   3.584   0.520  0.0261 -0.5185  0.3684
   44TCq2    C4  672   1.004   3.603   0.386  0.2818 -0.0783  0.9742
   44TCq2    C5  673   1.083   3.540   0.292 -0.1405  0.4461 -0.8858
   44TCq2    C6  674   1.166   3.442   0.336  0.1630 -0.3863  0.3656
   44TCq2    C7  675   1.194   3.418   0.466  0.2356  0.3161 -0.5852
   44TCq2    C8  676   1.278   3.406   0.247 -1.0909  0.4578 -0.2060
   44TCq2    O4  677   1.386   3.403   0.303  0.6466  0.1709 -0.0511
   44TCq2    C9  678   0.904   3.705   0.346  0.0715 -0.4756 -0.1695
   44TCq2    O5  679   0.942   3.785   0.259 -0.0636  0.5697 -0.4620
   44TCq2    O6  680   0.817   3.734   0.431 -1.1276 -0.2397  0.1054
   44TCq2    H2  681   0.975   3.647   0.589  1.5701  1.4588 -0.1859
   44TCq2    H3  682   1.061   3.561   0.188 -1.8276 -0.1889 -0.6571
   44TCq2    H4  683   1.254   3.330   0.486  2.4094  1.7953 -0.5748
   45TMC2    C1  684   1.862   4.054   9.836 -0.1456 -0.8028 -0.4699
   45TMC2    C2  685   1.760   4.066   9.925  0.1951  0.0989  0.0783
   45TMC2    C3  686   1.768   4.172  10.008  0.2936  0.9405 -0.1066
   45TMC2    C4  687   1.953   4.146   9.804 -0.0215  0.6714  0.0049
   45TMC2    C5  688   1.945   4.256   9.884 -0.0078 -0.5612 -0.1601
   45TMC2    C6  689   1.859   4.270   9.991  0.3569 -0.0794 -0.4235
   45TMC2     C  690   1.849   3.945   9.736 -1.0496  0.0191 -0.5014
   45TMC2     O  691   1.944   3.871   9.715 -0.1646  0.3881  0.4305
   45TMC2     H  692   1.683   3.990   9.924  1.4344 -1.1237 -1.1745
   45TMC2    H1  693   2.027   4.133   9.726  0.0028  0.0490  0.1365
   45TMC2    H2  694   1.849   4.366  10.041  0.3721  0.6126 -1.7468
   45TMC2    C7  695   2.065   4.334   9.886 -0.1011 -0.1109 -0.1994
   45TMC2    C8  696   1.650   4.209  10.098 -0.0177 -0.2041 -0.1845
   45TMC2    O1  697   2.144   4.311   9.795  0.1836  0.2064  0.3242
   45TMC2    O2  698   1.533   4.173  10.096  0.1395  0.7750 -0.4673
   45TMC2    O5  699   1.708   4.260  10.209  0.3675 -0.1870 -0.3303
   45TMC2    H5  700   1.806   4.264  10.215  0.2407  3.1339 -0.3085
   46MPD2     C  701   1.740   3.756   9.520 -0.1662 -0.6510 -0.1179
   46MPD2    C1  702   1.685   3.881   9.558 -0.1317 -0.1979 -0.4080
   46MPD2    C2  703   1.585   3.934   9.486 -0.0840  0.1924 -0.0539
   46MPD2    C3  704   1.540   3.879   9.370  0.9424 -0.7017  0.2519
   46MPD2    C4  705   1.594   3.759   9.328 -0.0236 -0.0419 -0.2758
   46MPD2    C5  706   1.699   3.703   9.397 -1.0897 -0.6381 -0.0258
   46MPD2     H  707   1.538   4.027   9.516 -2.8217 -1.0073 -0.6478
   46MPD2    H1  708   1.556   3.707   9.240 -0.8100 -1.1448  0.7265
   46MPD2    H2  709   1.823   3.710   9.571  0.3102  0.1898 -0.1272
   46MPD2    H3  710   1.745   3.614   9.355  1.0275  1.0522 -1.2899
   46MPD2     N  711   1.423   3.933   9.310  0.5654 -0.2886  0.6528
   46MPD2    H5  712   1.380   4.008   9.363  1.1409  1.6644 -1.6572
   46MPD2    N1  713   1.731   3.956   9.663  0.0667  0.1722  0.2053
   46MPD2    H7  714   1.675   4.037   9.688  1.6526  0.9948  1.0477
   47TMC2    C1  715   4.016   0.335   8.916  0.0697 -0.2102 -0.6610
   47TMC2    C2  716   4.069   0.263   8.818 -0.1395 -0.2109 -0.3839
   47TMC2    C3  717   4.000   0.230   8.705 -0.0900 -0.6296 -0.9492
   47TMC2    C4  718   3.882   0.366   8.913  0.4650 -0.5013  0.9155
   47TMC2    C5  719   3.814   0.318   8.801 -0.1071 -0.5070 -0.5455
   47TMC2    C6  720   3.866   0.264   8.690  0.1231  0.1256  0.5526
   47TMC2     C  721   4.087   0.375   9.030 -0.1253  0.1841 -0.7462
   47TMC2     O  722   4.043   0.461   9.102  0.6655 -0.1892 -0.2578
   47TMC2     H  723   4.176   0.253   8.821 -0.3453 -3.0570 -1.7666
   47TMC2    H1  724   3.825   0.383   9.003  1.3945  0.2402  1.3613
   47TMC2    H2  725   3.806   0.236   8.605  1.2176 -1.3060  0.2582
   47TMC2    C7  726   3.671   0.334   8.798  0.0745 -0.6722  0.4181
   47TMC2    C8  727   4.064   0.142   8.608 -0.8194  0.6044  0.1382
   47TMC2    O1  728   3.608   0.261   8.719  0.3415 -0.2764 -0.2095
   47TMC2    O2  729   4.025   0.137   8.495 -0.7364  0.5056 -0.1860
   47TMC2    O5  730   4.159   0.065   8.669 -0.3881  0.4040  0.0231
   47TMC2    H5  731   4.162   0.062   8.767  1.0211 -0.1624 -0.0353
   48MPD2     C  732   4.252   0.373   9.278  0.8574  0.0312 -0.0625
   48MPD2    C1  733   4.251   0.273   9.186 -0.7511  1.0174  0.0977
   48MPD2    C2  734   4.340   0.164   9.198 -0.3828 -0.3100 -0.4055
   48MPD2    C3  735   4.420   0.161   9.308  0.0733 -0.2239  0.0332
   48MPD2    C4  736   4.424   0.265   9.398  0.3220 -0.0418 -0.0452
   48MPD2    C5  737   4.339   0.377   9.381 -0.6083  0.0369  0.3039
   48MPD2     H  738   4.339   0.077   9.133 -1.5945  1.3948 -2.6583
   48MPD2    H1  739   4.469   0.264   9.496  0.7940 -2.1862 -0.2878
   48MPD2    H2  740   4.183   0.456   9.263  0.6486 -0.5436 -2.2770
   48MPD2    H3  741   4.343   0.457   9.454 -2.9434  1.0580 -0.6904
   48MPD2     N  742   4.490   0.042   9.335 -0.2007 -0.3461  0.1349
   48MPD2    H5  743   4.480   4.678   9.275 -1.0331 -1.5236  1.8662
   48MPD2    N1  744   4.174   0.268   9.066 -0.1515  0.0590  0.3659
   48MPD2    H7  745   4.178   0.196   8.996  0.4112  1.5832 -1.1799
   49MPD2     C  746   2.246   2.126   9.568 -0.6639 -0.2283  0.0164
   49MPD2    C1  747   2.208   2.105   9.696 -0.1348 -0.0263  0.8581
   49MPD2    C2  748   2.281   2.174   9.792  0.1544  0.2016  0.1853
   49MPD2    C3  749   2.370   2.276   9.765  0.4360  0.2703  0.1467
   49MPD2    C4  750   2.396   2.305   9.632  0.6907 -0.4898 -0.3594
   49MPD2    C5  751   2.339   2.223   9.534 -0.5087 -0.4679 -0.1836
   49MPD2     H  752   2.262   2.136   9.892  0.8571  0.7336  0.5182
   49MPD2    H1  753   2.454   2.385   9.587  1.5166  0.4177  2.3170
   49MPD2    H2  754   2.204   2.058   9.495  0.5200 -0.1105 -0.7663
   49MPD2    H3  755   2.363   2.247   9.432 -1.0439  2.2575  0.3278
   49MPD2     N  756   2.440   2.342   9.866  0.6786 -0.4937  0.0327
   49MPD2    H5  757   2.505   2.414   9.835 -0.3719 -0.4468 -2.0745
   49MPD2    N1  758   2.116   2.010   9.738 -0.2041  0.3010  0.1287
   49MPD2    H7  759   2.118   1.975   9.833  2.3605  0.7097  0.2335
   50TCq2    C1  760   1.999   1.982   9.673 -0.3067 -0.2396 -0.5341
   50TCq2    O2  761   1.976   2.000   9.552 -0.3127  0.6543 -0.4267
   50TCq2    C2  762   1.902   1.894   9.739  0.0249  0.4067  0.5309
   50TCq2    C3  763   1.795   1.845   9.674 -0.3155  0.0352  0.1337
   50TCq2    C4  764   1.702   1.771   9.739 -0.5253  0.0947 -0.3621
   50TCq2    C5  765   1.724   1.728   9.862 -0.7693 -0.8290  0.0199
   50TCq2    C6  766   1.824   1.774   9.936  0.0958  0.5742 -0.2328
   50TCq2    C7  767   1.919   1.858   9.877 -0.1382 -0.9118 -0.4244
   50TCq2    C8  768   1.821   1.767  10.082 -0.3562 -0.4928 -0.6138
   50TCq2    O4  769   1.927   1.787  10.143  0.5267  0.1912  0.0653
   50TCq2    C9  770   1.592   1.728   9.655 -0.2181  0.5657 -0.4494
   50TCq2    O5  771   1.501   1.666   9.715 -0.0871 -0.5552  0.5680
   50TCq2    O6  772   1.573   1.791   9.548 -0.1993  0.0127 -0.0076
   50TCq2    H2  773   1.771   1.873   9.572  1.5031 -0.8834 -0.5576
   50TCq2    H3  774   1.662   1.645   9.894  0.9569 -2.6173 -1.2428
   50TCq2    H4  775   1.993   1.901   9.943 -0.5973 -3.0622  1.5013
   51MPD2     C  776   2.365   1.484   0.996  0.0725 -0.7282  0.7831
   51MPD2    C1  777   2.313   1.438   1.116  1.3581  0.4844  0.1054
   51MPD2    C2  778   2.318   1.523   1.221  0.2262 -0.4721  0.1353
   51MPD2    C3  779   2.366   1.654   1.204  0.5076  0.3518 -0.5249
   51MPD2    C4  780   2.416   1.695   1.078 -0.4799  0.4908  0.0802
   51MPD2    C5  781   2.412   1.611   0.973 -0.2054  0.2169  0.1167
   51MPD2     H  782   2.299   1.483   1.320 -2.9112  0.4908 -0.0753
   51MPD2    H1  783   2.456   1.795   1.062 -1.7203  0.9006 -0.4200
   51MPD2    H2  784   2.353   1.416   0.912 -1.3845  0.6654 -0.1448
   51MPD2    H3  785   2.449   1.645   0.877  0.9360 -0.9791  0.1338
   51MPD2     N  786   2.370   1.753   1.307  0.0256  0.2920 -0.0735
   51MPD2    H5  787   2.406   1.843   1.277  1.2207 -0.8226 -1.9798
   51MPD2    N1  788   2.239   1.316   1.123  0.2505  0.3316 -0.0741
   51MPD2    H7  789   2.195   1.314   1.214  2.7845  2.3453  1.2277
   52TCq2    C1  790   2.358   1.728   1.444  0.7430 -0.2880 -0.1666
   52TCq2    O2  791   2.318   1.626   1.497  0.2272  0.0369  0.5704
   52TCq2    C2  792   2.405   1.834   1.530 -0.6625  0.3406  0.0994
   52TCq2    C3  793   2.365   1.828   1.660 -0.2484  0.5556 -1.0757
   52TCq2    C4  794   2.408   1.921   1.746 -0.1074  0.6272  0.0401
   52TCq2    C5  795   2.493   2.024   1.704 -0.0983  0.9624  0.1730
   52TCq2    C6  796   2.540   2.021   1.575  0.6705 -0.1194  0.7144
   52TCq2    C7  797   2.495   1.927   1.490  0.2831  0.8078  0.2918
   52TCq2    C8  798   2.619   2.135   1.523 -0.7994  0.1638 -0.0944
   52TCq2    O4  799   2.660   2.212   1.610  1.0346 -0.7814  0.1605
   52TCq2    C9  800   2.365   1.904   1.883 -0.0620 -0.1999  0.0614
   52TCq2    O5  801   2.291   1.809   1.914 -0.4631 -0.0082  0.0406
   52TCq2    O6  802   2.417   1.979   1.969 -0.0092 -0.0433 -0.2870
   52TCq2    H2  803   2.296   1.751   1.693  0.3021  0.1649 -0.8372
   52TCq2    H3  804   2.526   2.095   1.779 -0.1276  1.7104 -0.5217
   52TCq2    H4  805   2.544   1.913   1.395 -0.6008  1.5925 -0.2754
   53TMC2    C1  806   3.330   4.587  11.926 -0.2279  0.2667 -0.3239
   53TMC2    C2  807   3.442   4.572  12.003  0.8423  0.6254  0.1045
   53TMC2    C3  808   3.428   4.537  12.134 -0.4020 -0.3839  0.7813
   53TMC2    C4  809   3.208   4.582  11.989  0.3813  0.5523 -0.5887
   53TMC2    C5  810   3.201   4.585  12.119 -0.0816 -0.0292  0.2561
   53TMC2    C6  811   3.308   4.554  12.200 -0.1600  0.6120  0.2313
   53TMC2     C  812   3.339   4.559  11.784 -0.1396  0.2157  0.2746
   53TMC2     O  813   3.441   4.497  11.757 -0.3893 -0.1530  0.5469
   53TMC2     H  814   3.539   4.569  11.955  0.1335  0.7177 -1.3334
   53TMC2    H1  815   3.112   4.599  11.942 -0.7636 -1.0752  1.1687
   53TMC2    H2  816   3.304   4.563  12.308  2.9690  1.9008  0.2515
   53TMC2    C7  817   3.075   4.629  12.176 -0.1086 -0.0869  0.3805
   53TMC2    C8  818   3.549   4.515  12.212  0.4381  0.0678  0.0234
   53TMC2    O1  819   3.006   4.706  12.105  0.3923 -0.2826 -0.1083
   53TMC2    O2  820   3.559   4.585  12.315 -0.0025  0.2636 -0.2740
   53TMC2    O5  821   3.644   4.479  12.126 -0.4592 -0.0137  0.1317
   53TMC2    H5  822   3.611   4.423  12.052  0.7424  0.5617 -0.8345
   54MPD2     C  823   3.317   4.526  11.488 -0.1831 -0.0146 -0.0166
   54MPD2    C1  824   3.229   4.601  11.570 -0.7196 -0.3485  0.5409
   54MPD2    C2  825   3.127   4.671  11.505  0.0667 -0.0526  0.1656
   54MPD2    C3  826   3.110   4.666  11.370 -0.6136 -0.2758 -0.2811
   54MPD2    C4  827   3.198   4.595  11.293 -0.0451  0.4473  0.2503
   54MPD2    C5  828   3.299   4.518  11.350  0.7062  0.2077 -0.3924
   54MPD2     H  829   3.068   0.012  11.575  1.6884  1.8978 -0.0880
   54MPD2    H1  830   3.201   4.604  11.185 -0.5786 -0.2397  0.1816
   54MPD2    H2  831   3.401   4.473  11.530 -1.4038 -2.3481 -0.4887
   54MPD2    H3  832   3.380   4.472  11.294  2.1461  1.4925  0.6205
   54MPD2     N  833   3.002   0.014  11.303  0.0530  0.0699  0.3358
   54MPD2    H5  834   2.991   4.707  11.206  2.0220 -0.3268  0.2095
   54MPD2    N1  835   3.238   4.611  11.711  0.0597 -0.3639  0.2929
   54MPD2    H7  836   3.168   4.668  11.756 -0.5821 -1.3509  0.5608
   55MPD2     C  837   3.837   2.688  17.637 -0.1926  0.5295 -0.4280
   55MPD2    C1  838   3.825   2.558  17.671 -0.1952 -0.2782  0.1005
   55MPD2    C2  839   3.755   2.532   0.110  0.3446 -0.3645 -0.9937
   55MPD2    C3  840   3.688   2.626   0.186  0.4942  0.0795 -0.4911
   55MPD2    C4  841   3.702   2.757   0.143  0.2046 -0.0548 -0.1751
   55MPD2    C5  842   3.785   2.785   0.038  0.1053  0.1532  0.5417
   55MPD2     H  843   3.744   2.432   0.148 -2.3911  1.3763  2.8112
   55MPD2    H1  844   3.646   2.838   0.189 -1.4381 -1.0279 -0.4838
   55MPD2    H2  845   3.892   2.728  17.553 -2.3831 -0.4402 -2.3177
   55MPD2    H3  846   3.801   2.890   0.014  0.6683 -0.3602 -1.3322
   55MPD2     N  847   3.610   2.591   0.301 -0.1764 -0.0541  0.0659
   55MPD2    H5  848   3.599   2.493   0.323 -1.5584 -0.4792 -2.4505
   55MPD2    N1  849   3.867   2.465  17.579  0.3317  0.3765  0.0607
   55MPD2    H7  850   3.908   2.495  17.491  0.1067 -0.3295 -0.2831
   56TCq2    C1  851   3.849   2.337  17.592 -0.5602  0.1707  0.2046
   56TCq2    O2  852   3.833   2.268   0.018  0.2778  0.7623  0.1956
   56TCq2    C2  853   3.841   2.275  17.461 -0.6383 -0.7270  0.6050
   56TCq2    C3  854   3.775   2.337  17.358  0.4103  0.2439 -0.5361
   56TCq2    C4  855   3.756   2.276  17.236 -0.0286  0.6897  0.1245
   56TCq2    C5  856   3.795   2.145  17.208 -0.9981  0.5274  0.3790
   56TCq2    C6  857   3.851   2.082  17.322  0.1856  0.1042 -0.3479
   56TCq2    C7  858   3.861   2.139  17.448  0.1007 -0.3783 -0.0977
   56TCq2    C8  859   3.866   1.943  17.309 -0.1057 -0.1672  0.0687
   56TCq2    O4  860   3.909   1.909  17.202  0.0463 -0.2203  0.2525
   56TCq2    C9  861   3.718   2.355  17.123 -0.3710  0.0635 -0.1413
   56TCq2    O5  862   3.732   2.298  17.012  0.4135  0.4288 -0.5276
   56TCq2    O6  863   3.696   2.478  17.135  0.1183 -0.8726  0.5982
   56TCq2    H2  864   3.736   2.438  17.368  0.6140  0.4354 -1.7566
   56TCq2    H3  865   3.792   2.088  17.115  1.8443 -1.3135  1.4197
   56TCq2    H4  866   3.921   2.082  17.518  2.5343  0.0860 -1.8267
   57TMC2    C1  867   3.153   3.408  13.465  0.5827  0.4842 -0.1034
   57TMC2    C2  868   3.259   3.440  13.544  0.3362  0.2428  0.5969
   57TMC2    C3  869   3.380   3.433  13.486  0.6384  0.3115 -0.0032
   57TMC2    C4  870   3.167   3.392  13.325  0.3276 -0.1918 -0.2345
   57TMC2    C5  871   3.293   3.358  13.286 -0.1022 -0.3940  0.6070
   57TMC2    C6  872   3.407   3.394  13.359 -0.1209  0.0316 -0.0046
   57TMC2     C  873   3.020   3.414  13.522  0.6008  0.1593  0.6088
   57TMC2     O  874   2.991   3.473  13.626 -0.3327  0.3371 -0.0483
   57TMC2     H  875   3.254   3.457  13.651 -0.0346  2.5307  0.2285
   57TMC2    H1  876   3.083   3.380  13.258 -0.0771  0.6832  0.1203
   57TMC2    H2  877   3.510   3.377  13.328  1.0798 -0.4432  4.2335
   57TMC2    C7  878   3.310   3.351  13.138 -0.0629  0.2561  0.5150
   57TMC2    C8  879   3.489   3.518  13.539  0.2909  1.1102  0.2556
   57TMC2    O1  880   3.231   3.408  13.064 -0.0442  0.4759  0.0681
   57TMC2    O2  881   3.611   3.482  13.531  0.3838  0.4923 -0.4490
   57TMC2    O5  882   3.442   3.647  13.543 -0.5991 -0.2173  0.2877
   57TMC2    H5  883   3.354   3.655  13.500  0.9851  0.1907 -2.8874
   58MPD2     C  884   2.509   3.320  13.414 -0.3321 -0.8833 -0.3292
   58MPD2    C1  885   2.563   3.388  13.523 -0.3084  0.5853  0.4878
   58MPD2    C2  886   2.705   3.396  13.534 -0.5256  0.2647 -0.4288
   58MPD2    C3  887   2.789   3.358  13.430  0.1429  0.3685  0.3666
   58MPD2    C4  888   2.734   3.303  13.321 -0.4113  0.2270 -0.2700
   58MPD2    C5  889   2.596   3.289  13.312  0.0177 -0.2757 -0.2011
   58MPD2     H  890   2.756   3.439  13.619  0.2188  0.9276 -1.2186
   58MPD2    H1  891   2.793   3.270  13.236  1.6603 -1.6862  1.9146
   58MPD2    H2  892   2.403   3.309  13.399 -0.1464 -0.4211 -2.0336
   58MPD2    H3  893   2.552   3.259  13.217 -0.7627  1.1666 -0.2995
   58MPD2     N  894   2.932   3.356  13.435  0.4791 -0.4362 -0.4646
   58MPD2    H5  895   2.978   3.288  13.375  0.6955  1.7735 -2.8055
   58MPD2    N1  896   2.491   3.432  13.631 -0.1575  0.3201 -0.2634
   58MPD2    H7  897   2.543   3.470  13.709 -0.3773 -1.2962  0.6749
   59MPD2     C  898   0.419   3.251  12.917  1.3153  0.0448 -0.6274
   59MPD2    C1  899   0.514   3.251  12.819  0.3122 -1.3267 -0.5639
   59MPD2    C2  900   0.643   3.286  12.857  0.2233 -0.4301 -0.5706
   59MPD2    C3  901   0.671   3.316  12.984  0.1808 -0.2325 -0.1695
   59MPD2    C4  902   0.568   3.315  13.077  0.5890  0.2798 -0.6175
   59MPD2    C5  903   0.438   3.285  13.045 -0.0108  0.2956 -0.0865
   59MPD2     H  904   0.722   3.285  12.782  1.5764  0.7215  0.8287
   59MPD2    H1  905   0.580   3.345  13.181 -0.7174 -2.8639  0.4660
   59MPD2    H2  906   0.315   3.223  12.910  1.0513  0.8457  0.2389
   59MPD2    H3  907   0.363   3.301  13.122 -0.3620 -1.2356 -0.1176
   59MPD2     N  908   0.799   3.340  13.031  0.6528 -0.0422 -0.7346
   59MPD2    H5  909   0.797   3.352  13.132  0.1302 -0.3883 -0.7058
   59MPD2    N1  910   0.493   3.223  12.684  0.2776  0.0868 -0.2588
   59MPD2    H7  911   0.568   3.214  12.617 -0.8370  1.3332 -1.6644
   60TCq2    C1  912   0.366   3.195  12.631 -0.2270 -0.5584 -0.2873
   60TCq2    O2  913   0.257   3.189  12.686  0.7620 -0.4326  0.4108
   60TCq2    C2  914   0.382   3.153  12.495 -0.1383  0.1715 -1.2898
   60TCq2    C3  915   0.286   3.060  12.450 -0.0340  0.0710  0.1270
   60TCq2    C4  916   0.301   3.000  12.324  0.4213 -0.9707 -1.0535
   60TCq2    C5  917   0.414   3.034  12.260  0.3178  0.2023  0.1299
   60TCq2    C6  918   0.489   3.147  12.289  0.4771  0.6456  0.1327
   60TCq2    C7  919   0.483   3.194  12.417 -0.6871  0.4364  1.1486
   60TCq2    C8  920   0.591   3.202  12.208 -0.3905 -1.2740  0.1862
   60TCq2    O4  921   0.663   3.118  12.156  0.0321  0.6137  0.3450
   60TCq2    C9  922   0.208   2.901  12.273 -0.0322 -1.0732 -0.2081
   60TCq2    O5  923   0.129   2.847  12.357  0.2482  0.2110 -0.7383
   60TCq2    O6  924   0.221   2.873  12.155 -0.0494  0.1581  0.4674
   60TCq2    H2  925   0.203   3.027  12.510 -1.8547  1.5920 -1.5467
   60TCq2    H3  926   0.435   2.973  12.173  0.3713  1.1245 -0.5055
   60TCq2    H4  927   0.554   3.271  12.443  1.0292 -0.7756 -0.0081
   61MPD2     C  928   4.705   0.197  14.319 -0.1521  0.2896  1.1365
   61MPD2    C1  929   4.703   0.282  14.428 -0.1446 -1.3529  0.2697
   61MPD2    C2  930   0.098   0.354  14.470 -0.3365  0.4323  0.2682
   61MPD2    C3  931   0.219   0.331  14.412 -0.4487 -0.1258  0.6024
   61MPD2    C4  932   0.221   0.241  14.307 -0.6601  0.2938  0.5745
   61MPD2    C5  933   0.108   0.184  14.259  0.2455  0.1537  0.6799
   61MPD2     H  934   0.085   0.416  14.558  0.8511 -0.4542  1.0749
   61MPD2    H1  935   0.314   0.203  14.266 -0.3637  1.3823  0.2336
   61MPD2    H2  936   4.613   0.163  14.273 -1.3890  0.9673  3.1298
   61MPD2    H3  937   0.114   0.122  14.170 -1.7528  1.4313 -0.3400
   61MPD2     N  938   0.326   0.406  14.453 -1.1163 -0.2375 -0.1678
   61MPD2    H5  939   0.326   0.429  14.551  0.4879  0.4626 -0.3321
   61MPD2    N1  940   4.578   0.306  14.496  0.2454  0.0411  0.1600
   61MPD2    H7  941   4.576   0.377  14.568  1.8979 -0.1874  0.4322
   62TCq2    C1  942   4.467   0.222  14.492  0.4285 -0.0977 -0.4227
   62TCq2    O2  943   4.465   0.112  14.438 -0.1313  0.3293 -0.4948
   62TCq2    C2  944   4.372   0.253  14.593  0.4367  0.3159 -0.2584
   62TCq2    C3  945   4.311   0.153  14.657  0.0068  0.6331 -0.1712
   62TCq2    C4  946   4.241   0.174  14.770  0.4233 -0.2610  0.2461
   62TCq2    C5  947   4.237   0.298  14.829  0.2004  1.0193 -0.5419
   62TCq2    C6  948   4.296   0.407  14.757 -0.3684  0.5241 -0.5049
   62TCq2    C7  949   4.363   0.381  14.641 -0.1120  0.0406  0.3414
   62TCq2    C8  950   4.357   0.512  14.833 -0.4201  0.3828  0.1872
   62TCq2    O4  951   4.376   0.621  14.779 -0.6232 -0.3163  0.0052
   62TCq2    C9  952   4.189   0.060  14.842 -0.2579  0.2808  0.1450
   62TCq2    O5  953   4.220   4.661  14.803  0.0068 -0.2330 -0.2293
   62TCq2    O6  954   4.160   0.101  14.960  0.1050 -0.9923  0.3525
   62TCq2    H2  955   4.317   0.050  14.622  0.3625  0.1934  1.2108
   62TCq2    H3  956   4.199   0.317  14.928  0.5666  0.4242 -0.2826
   62TCq2    H4  957   4.406   0.471  14.597 -2.5278  0.6912 -0.6997
   63TMC2    C1  958   4.276   0.342  10.194  0.0722  0.1315  0.8483
   63TMC2    C2  959   4.351   0.454  10.225 -0.3590 -0.3718  0.2920
   63TMC2    C3  960   4.416   0.511  10.119 -0.7450  0.1741 -0.1326
   63TMC2    C4  961   4.262   0.289  10.068 -0.5370 -0.1533 -0.6707
   63TMC2    C5  962   4.332   0.360   9.970  0.6706 -0.2703  0.6405
   63TMC2    C6  963   4.410   0.470   9.993 -1.0729  0.6199 -0.2617
   63TMC2     C  964   4.200   0.293  10.308 -0.5261  0.0414 -0.1921
   63TMC2     O  965   4.183   0.364  10.406  0.5814 -0.4734 -0.8132
   63TMC2     H  966   4.364   0.490  10.326  0.6577  0.9075 -0.2990
   63TMC2    H1  967   4.188   0.215  10.042 -0.2941  0.1185 -2.1092
   63TMC2    H2  968   4.464   0.519   9.913  0.3351  0.8318  0.8022
   63TMC2    C7  969   4.280   0.336   9.840 -0.3511  0.0584  0.4443
   63TMC2    C8  970   4.440   0.655  10.131 -0.5241 -0.1254  0.0882
   63TMC2    O1  971   4.240   0.221   9.825  0.4458  0.0581  0.6057
   63TMC2    O2  972   4.443   0.730  10.031 -0.3108  1.3048  0.2278
   63TMC2    O5  973   4.488   0.681  10.250  0.1256  0.2882 -0.1380
   63TMC2    H5  974   4.492   0.601  10.307  0.2882  1.2404  1.1825
   64MPD2     C  975   3.942   4.656  10.570  0.6548  1.0104  0.1643
   64MPD2    C1  976   4.024   4.590  10.473  0.4410  0.2871  0.1666
   64MPD2    C2  977   4.091   4.675  10.389  0.4332 -0.4367  0.1082
   64MPD2    C3  978   4.088   0.096  10.383  0.9943  0.2928  0.0122
   64MPD2    C4  979   4.013   0.152  10.478  0.0780 -0.2555  0.2133
   64MPD2    C5  980   3.940   0.076  10.568 -0.4270 -0.8440 -0.0055
   64MPD2     H  981   4.142   4.624  10.309  0.5296  0.2396 -0.2614
   64MPD2    H1  982   3.995   0.257  10.493  1.2899 -0.3931  2.6525
   64MPD2    H2  983   3.884   4.606  10.646  0.0528  1.7707  0.2107
   64MPD2    H3  984   3.877   0.128  10.640 -0.4231 -0.4906 -0.2583
   64MPD2     N  985   4.151   0.168  10.281  0.2025 -0.1087  0.6799
   64MPD2    H5  986   4.185   0.103  10.212 -1.4332  1.3979 -1.5282
   64MPD2    N1  987   4.027   4.453  10.451  0.0972  0.0117 -0.8082
   64MPD2    H7  988   4.085   4.418  10.375  0.7023 -1.3608  0.2797
   65MPD2     C  989   0.619   4.136  15.573  0.2967 -0.1361 -0.8039
   65MPD2    C1  990   0.602   4.168  15.437  1.1040  0.2665 -0.3432
   65MPD2    C2  991   0.579   4.060  15.350 -0.5972 -0.3976 -0.4470
   65MPD2    C3  992   0.558   3.931  15.395 -0.5085  0.1602 -0.0891
   65MPD2    C4  993   0.578   3.904  15.524 -0.1939 -0.2125 -0.7552
   65MPD2    C5  994   0.611   4.008  15.611  0.4695  0.6981  0.2234
   65MPD2     H  995   0.575   4.082  15.243 -0.4576 -0.7703 -0.5307
   65MPD2    H1  996   0.555   3.805  15.560  1.5005 -0.3971 -0.1867
   65MPD2    H2  997   0.639   4.213  15.647 -0.7517  0.6749 -1.3637
   65MPD2    H3  998   0.624   3.986  15.716  2.4731 -1.2685 -0.4448
   65MPD2     N  999   0.494   3.836  15.313 -0.0720 -0.0949  0.0955
   65MPD2    H5 1000   0.477   3.748  15.361 -2.6294 -0.3369 -1.2397
   65MPD2    N1 1001   0.611   4.298  15.382  0.1960 -0.1145  0.1484
   65MPD2    H7 1002   0.598   4.304  15.282  0.1524 -1.0761  0.0896
   66TCq2    C1 1003   0.628   4.416  15.448  0.6620 -0.1667 -0.0731
   66TCq2    O2 1004   0.631   4.442  15.566  0.6729 -0.3916  0.2367
   66TCq2    C2 1005   0.658   4.525  15.357  0.1036 -0.3826  0.2406
   66TCq2    C3 1006   0.681   4.506  15.220  0.5292  0.1214  0.8348
   66TCq2    C4 1007   0.710   4.613  15.142  0.1293 -0.3278  0.7303
   66TCq2    C5 1008   0.709   0.026  15.185 -1.6732 -0.6707 -0.5279
   66TCq2    C6 1009   0.709   0.037  15.324  0.5641 -0.3418  0.3834
   66TCq2    C7 1010   0.679   4.649  15.408  0.3870 -0.7822 -0.3972
   66TCq2    C8 1011   0.725   0.170  15.377 -0.4098  0.2606 -0.4316
   66TCq2    O4 1012   0.729   0.255  15.287 -0.0788 -0.2440  0.2973
   66TCq2    C9 1013   0.733   4.596  14.999  0.4625  0.3185 -0.3802
   66TCq2    O5 1014   0.705   4.695  14.927 -0.0949 -0.0920  0.7391
   66TCq2    O6 1015   0.741   4.478  14.955  0.0356 -0.0527 -0.2216
   66TCq2    H2 1016   0.679   4.406  15.178 -1.2931  0.1068  0.9554
   66TCq2    H3 1017   0.734   0.102  15.111  0.1991  0.2058  1.0121
   66TCq2    H4 1018   0.709   4.660  15.511 -2.9684  0.3317  0.4820
   67MPD2     C 1019   0.794   3.582  13.848 -0.5210  0.3320  0.2014
   67MPD2    C1 1020   0.713   3.667  13.922  0.1454 -0.1758 -0.6927
   67MPD2    C2 1021   0.585   3.699  13.887  0.0271 -0.2545 -0.2204
   67MPD2    C3 1022   0.533   3.649  13.775 -0.4365 -0.4092 -0.4347
   67MPD2    C4 1023   0.615   3.576  13.690  0.0140 -0.4684  0.2698
   67MPD2    C5 1024   0.738   3.543  13.725  0.4360 -0.4253 -0.1811
   67MPD2     H 1025   0.541   3.769  13.957 -1.5299 -1.9041  0.4676
   67MPD2    H1 1026   0.577   3.537  13.596 -1.0992  1.1191  0.0565
   67MPD2    H2 1027   0.897   3.562  13.876 -0.5311  2.2038  1.6714
   67MPD2    H3 1028   0.795   3.480  13.658 -0.3282 -1.4879  0.1581
   67MPD2     N 1029   0.399   3.675  13.732 -0.7032  0.6401  0.0930
   67MPD2    H5 1030   0.381   3.678  13.632 -0.3062  1.8688  0.0584
   67MPD2    N1 1031   0.769   3.742  14.033 -0.0494 -0.9512  0.5276
   67MPD2    H7 1032   0.702   3.794  14.088 -0.3695 -0.6187 -0.1802
   68TCq2    C1 1033   0.890   3.728  14.092  0.1789  0.0531 -0.0659
   68TCq2    O2 1034   0.985   3.656  14.064 -0.2031 -1.3684  0.2077
   68TCq2    C2 1035   0.900   3.817  14.202  0.2235  0.2079  0.8552
   68TCq2    C3 1036   0.826   3.932  14.214  0.0944 -0.3434 -0.5979
   68TCq2    C4 1037   0.820   3.991  14.339 -0.0956 -0.0894 -0.2787
   68TCq2    C5 1038   0.880   3.939  14.452  0.3942  0.1647  0.1626
   68TCq2    C6 1039   0.961   3.837  14.426 -0.1179 -0.1482  0.0389
   68TCq2    C7 1040   0.981   3.775  14.306  0.1991 -0.0441 -0.5705
   68TCq2    C8 1041   1.070   3.825  14.521 -0.7410 -0.5094  0.6052
   68TCq2    O4 1042   1.171   3.764  14.483  0.4104  0.1714 -0.4519
   68TCq2    C9 1043   0.740   4.111  14.366  0.5544 -0.2722 -0.2137
   68TCq2    O5 1044   0.703   4.125  14.482 -0.3796  0.2331 -0.0612
   68TCq2    O6 1045   0.715   4.189  14.267  0.2884  0.1560 -0.5627
   68TCq2    H2 1046   0.758   3.962  14.135 -0.4192  1.2052  0.4476
   68TCq2    H3 1047   0.865   3.988  14.547 -0.8819 -0.8000  0.4496
   68TCq2    H4 1048   1.039   3.684  14.293 -0.0154 -0.5026  1.6332
   69TMC2    C1 1049   2.232   0.577  12.001  0.2443 -0.1963 -0.0301
   69TMC2    C2 1050   2.141   0.522  11.926  0.1236 -0.5482  0.6321
   69TMC2    C3 1051   2.140   0.555  11.795 -0.4772  0.2070  0.2559
   69TMC2    C4 1052   2.323   0.672  11.947 -0.5096  0.2244 -0.0009
   69TMC2    C5 1053   2.320   0.706  11.815  0.0796 -0.3466 -0.2907
   69TMC2    C6 1054   2.224   0.646  11.739  0.7753 -0.9765 -0.1344
   69TMC2     C 1055   2.298   0.484  12.087  0.2907  0.4600  0.0403
   69TMC2     O 1056   2.232   0.414  12.163 -0.2319 -0.3804 -1.2136
   69TMC2     H 1057   2.074   0.449  11.972  2.0666 -2.1520  0.8908
   69TMC2    H1 1058   2.394   0.710  12.020  1.9026 -2.7260 -0.7959
   69TMC2    H2 1059   2.205   0.675  11.636  0.2075  0.6443  0.4329
   69TMC2    C7 1060   2.457   0.716  11.765  0.5794  0.4320 -0.6156
   69TMC2    C8 1061   2.000   0.547  11.747 -0.1941  0.1352 -0.4132
   69TMC2    O1 1062   2.536   0.663  11.837  0.0165 -0.1789 -0.0060
   69TMC2    O2 1063   1.895   0.545  11.816  0.0605  0.8321 -0.2968
   69TMC2    O5 1064   1.999   0.540  11.607  0.2213 -0.1351 -0.2777
   69TMC2    H5 1065   2.092   0.530  11.578  0.3320  0.9646 -0.3027
   70MPD2     C 1066   2.665   0.409  12.053  0.1792  0.0262 -0.5417
   70MPD2    C1 1067   2.537   0.394  12.102  0.3171 -0.0927 -1.0854
   70MPD2    C2 1068   2.516   0.316  12.215 -0.4605  0.0003 -0.0896
   70MPD2    C3 1069   2.619   0.245  12.274 -0.3457 -0.3281  0.0600
   70MPD2    C4 1070   2.742   0.248  12.221  0.0871  0.3637  0.1216
   70MPD2    C5 1071   2.760   0.336  12.121 -0.5203 -0.0791 -0.1450
   70MPD2     H 1072   2.417   0.305  12.258 -0.2979  0.6213  0.4320
   70MPD2    H1 1073   2.825   0.194  12.264 -1.4668 -0.1755  2.4159
   70MPD2    H2 1074   2.689   0.467  11.965  1.8684 -2.4337 -1.7201
   70MPD2    H3 1075   2.862   0.332  12.082 -0.3942  0.2563  0.1543
   70MPD2     N 1076   2.604   0.182  12.400  0.3389  0.0887 -0.1513
   70MPD2    H5 1077   2.689   0.150  12.446  0.7854  1.9447  0.3138
   70MPD2    N1 1078   2.429   0.475  12.040 -0.1751  0.0545 -0.5301
   70MPD2    H7 1079   2.457   0.516  11.951 -2.4332  2.7178  0.0052
   71TMC2    C1 1080   1.583   1.839   1.511 -1.0103 -0.3027 -0.1229
   71TMC2    C2 1081   1.613   1.960   1.572  0.2791  0.4636 -0.2366
   71TMC2    C3 1082   1.585   1.981   1.705 -0.4911 -0.6631  0.4919
   71TMC2    C4 1083   1.515   1.743   1.579  0.1816 -0.3380  0.2940
   71TMC2    C5 1084   1.482   1.765   1.711 -0.1675  0.8882  0.8370
   71TMC2    C6 1085   1.519   1.881   1.780  0.2553  0.5748  0.3821
   71TMC2     C 1086   1.609   1.831   1.365  0.0789 -0.2105 -0.2867
   71TMC2     O 1087   1.620   1.936   1.305  0.6963  0.8286 -0.0057
   71TMC2     H 1088   1.680   2.029   1.523  1.3741 -0.3429  0.1242
   71TMC2    H1 1089   1.469   1.663   1.522 -0.4383  1.6170 -1.9245
   71TMC2    H2 1090   1.486   1.896   1.882  0.4262 -1.4129  0.7200
   71TMC2    C7 1091   1.369   1.695   1.782  0.5833  0.3942  0.0209
   71TMC2    C8 1092   1.634   2.096   1.772  0.7083 -0.2702 -0.3398
   71TMC2    O1 1093   1.358   1.708   1.901  0.6259 -0.1965 -0.3270
   71TMC2    O2 1094   1.691   2.082   1.882  0.2795 -0.6866 -0.3136
   71TMC2    O5 1095   1.595   2.216   1.713  0.7565  0.6400  0.3476
   71TMC2    H5 1096   1.543   2.204   1.631  0.0088  2.0078  0.6201
   72MPD2     C 1097   1.576   1.542   0.935  0.4952 -0.0561  0.1817
   72MPD2    C1 1098   1.545   1.675   0.957 -0.2503 -0.0419 -0.0110
   72MPD2    C2 1099   1.553   1.731   1.079  0.1925 -0.9339 -0.3031
   72MPD2    C3 1100   1.606   1.656   1.188 -0.1099 -0.1987  0.7388
   72MPD2    C4 1101   1.625   1.521   1.163  0.3628  0.1615  0.0445
   72MPD2    C5 1102   1.614   1.467   1.039  0.5300  0.1223  0.2900
   72MPD2     H 1103   1.531   1.837   1.085  1.0209 -0.6735 -2.1361
   72MPD2    H1 1104   1.662   1.461   1.245  0.5072  0.3272  0.1016
   72MPD2    H2 1105   1.566   1.490   0.841 -1.0014  1.7426 -0.6346
   72MPD2    H3 1106   1.622   1.359   1.035  0.4199  0.1128  0.3411
   72MPD2     N 1107   1.626   1.699   1.323 -0.2209  0.4359 -0.1059
   72MPD2    H5 1108   1.658   1.629   1.389  0.2802  1.2038  0.4659
   72MPD2    N1 1109   1.519   1.765   0.856 -0.0442 -0.7432  0.3519
   72MPD2    H7 1110   1.482   1.853   0.889 -0.4639 -0.3834 -1.0946
   73TMC2    C1 1111   4.610   2.323  13.492 -0.1385 -0.5891  0.0913
   73TMC2    C2 1112   4.538   2.273  13.597  0.1589  0.2970  0.7693
   73TMC2    C3 1113   4.566   2.145  13.636  0.4079  0.4165  0.5265
   73TMC2    C4 1114   4.699   2.244  13.423 -0.4611 -0.5787  0.4293
   73TMC2    C5 1115   4.717   2.117  13.462 -0.3070  0.2274 -0.2893
   73TMC2    C6 1116   4.652   2.065  13.571  0.4978 -1.0983 -0.5247
   73TMC2     C 1117   4.684   2.449  13.514  0.5265  0.1330 -0.0058
   73TMC2     O 1118   0.087   2.431  13.509 -0.0890 -0.5621  0.5192
   73TMC2     H 1119   4.467   2.335  13.650 -0.6505  1.8572 -2.1290
   73TMC2    H1 1120   0.045   2.295  13.351 -1.3507  0.0805  0.1142
   73TMC2    H2 1121   4.668   1.968  13.616  0.6798 -0.0313  1.7585
   73TMC2    C7 1122   0.132   2.068  13.452 -0.6792  0.6104 -0.0408
   73TMC2    C8 1123   4.497   2.086  13.745  0.3183 -0.5188 -0.5972
   73TMC2    O1 1124   0.149   1.948  13.440  0.2839  0.7021 -0.5278
   73TMC2    O2 1125   4.379   2.110  13.770 -0.0979  0.0416  0.0935
   73TMC2    O5 1126   4.591   2.056  13.838  0.2887 -0.3608  0.2228
   73TMC2    H5 1127   4.683   2.090  13.832 -0.0944  0.8018  0.9474
   74MPD2     C 1128   0.099   2.937  13.527 -0.3635 -0.4764  0.7738
   74MPD2    C1 1129   0.176   2.822  13.533 -0.0545 -0.0567  0.0712
   74MPD2    C2 1130   0.112   2.702  13.546  0.2410  0.4502  1.2172
   74MPD2    C3 1131   4.692   2.690  13.527 -0.4045  0.1767 -0.1372
   74MPD2    C4 1132   4.617   2.805  13.514 -0.4133  0.4648  0.4050
   74MPD2    C5 1133   4.681   2.928  13.520  0.1919  0.4422  0.0225
   74MPD2     H 1134   0.174   2.614  13.553 -1.6929 -1.0178  0.2175
   74MPD2    H1 1135   4.511   2.792  13.498 -0.2185 -1.9949  1.0761
   74MPD2    H2 1136   0.153   3.031  13.535 -1.7251  0.5115 -1.5186
   74MPD2    H3 1137   4.628   3.023  13.519 -1.4476 -0.4755 -1.6428
   74MPD2     N 1138   4.619   2.569  13.519  0.4712 -0.1166 -0.4526
   74MPD2    H5 1139   4.518   2.569  13.511  0.4966  0.7434 -0.7852
   74MPD2    N1 1140   0.319   2.842  13.541  0.6853  0.6023 -0.1273
   74MPD2    H7 1141   0.354   2.938  13.536  2.6804 -0.2153 -1.9111
   75TCq2    C1 1142   0.292   3.717  13.810 -0.0319  0.5537 -0.1061
   75TCq2    O2 1143   0.294   3.722  13.932  0.4612 -0.5338 -0.5388
   75TCq2    C2 1144   0.170   3.734  13.755 -0.6949 -0.4475 -0.1800
   75TCq2    C3 1145   0.064   3.740  13.843  0.1172 -0.8378 -0.5581
   75TCq2    C4 1146   4.653   3.754  13.789  0.7755 -0.5655 -0.0800
   75TCq2    C5 1147   4.644   3.761  13.653 -0.1043  0.2360 -0.2187
   75TCq2    C6 1148   0.030   3.751  13.570  0.1081  0.4781  0.1853
   75TCq2    C7 1149   0.152   3.744  13.621  0.2798  0.4762 -0.5639
   75TCq2    C8 1150   0.006   3.782  13.433  0.5264 -0.2332  0.3066
   75TCq2    O4 1151   4.640   3.707  13.387  0.2105 -1.0507 -0.9588
   75TCq2    C9 1152   4.542   3.770  13.884  0.2750  0.0195 -0.9199
   75TCq2    O5 1153   4.563   3.776  14.007 -0.1496  0.9915  0.2644
   75TCq2    O6 1154   4.428   3.788  13.834  0.2579  0.2351  0.3898
   75TCq2    H2 1155   0.078   3.742  13.950  0.7128 -0.9667 -0.6361
   75TCq2    H3 1156   4.546   3.793  13.617 -0.5893 -1.7900 -0.7103
   75TCq2    H4 1157   0.231   3.758  13.548 -0.8458  0.8434 -1.7149
   76MPD2     C 1158   3.486   0.279  12.007 -0.0338  0.4005 -0.0413
   76MPD2    C1 1159   3.508   0.239  11.877 -0.0287 -0.4390 -0.2355
   76MPD2    C2 1160   3.608   0.144  11.848  0.7029 -0.7814 -0.1227
   76MPD2    C3 1161   3.699   0.104  11.946  0.1665  0.2536  0.0375
   76MPD2    C4 1162   3.689   0.157  12.075  0.2851 -0.0161  0.5304
   76MPD2    C5 1163   3.576   0.235  12.103 -0.5394 -0.0897 -0.0386
   76MPD2     H 1164   3.620   0.105  11.747 -2.0009 -0.1181 -0.7032
   76MPD2    H1 1165   3.752   0.121  12.155 -0.8621 -0.3791  1.2735
   76MPD2    H2 1166   3.421   0.356  12.047 -0.3673  0.2025 -0.2134
   76MPD2    H3 1167   3.565   0.277  12.202 -2.0804  1.6597 -0.9349
   76MPD2     N 1168   3.800   0.013  11.931 -0.5051 -0.0292 -0.6466
   76MPD2    H5 1169   3.862   4.716  12.010 -0.9515  0.6454 -0.1779
   76MPD2    N1 1170   3.428   0.279  11.770 -0.4260  0.0256  0.1482
   76MPD2    H7 1171   3.434   0.224  11.685  1.9308 -0.3427  0.5429
   77TCq2    C1 1172   3.805   4.631  11.834 -0.4015  0.0303 -0.0464
   77TCq2    O2 1173   3.739   4.626  11.730 -0.4639 -0.0104  0.0120
   77TCq2    C2 1174   3.916   4.544  11.844 -0.8037  0.2986 -0.3787
   77TCq2    C3 1175   3.899   4.413  11.800  0.5713 -0.0014  0.0159
   77TCq2    C4 1176   3.992   4.313  11.831 -1.4158 -0.3849 -0.8188
   77TCq2    C5 1177   4.097   4.355  11.909 -0.0808  0.4388 -0.1384
   77TCq2    C6 1178   4.115   4.485  11.945  0.2769 -0.4565 -0.4146
   77TCq2    C7 1179   4.023   4.587  11.918  0.0595  0.0087 -0.4455
   77TCq2    C8 1180   4.238   4.532  12.003 -0.4760  0.0607  0.0368
   77TCq2    O4 1181   4.277   4.645  11.965  0.1924  0.0063  0.2970
   77TCq2    C9 1182   3.985   4.184  11.766  0.2750  0.0569 -0.0206
   77TCq2    O5 1183   4.071   4.096  11.795  0.1388  0.3521 -0.4194
   77TCq2    O6 1184   3.900   4.174  11.675  1.1111 -0.0731  0.0128
   77TCq2    H2 1185   3.811   4.384  11.744 -0.6306  1.2213  1.2673
   77TCq2    H3 1186   4.179   4.287  11.929 -0.0719 -0.2561 -2.5930
   77TCq2    H4 1187   4.043   4.692  11.935  0.0891 -0.0680 -0.0268
   78MPD1     C 1188   4.370   1.161   0.205 -0.2874 -0.1497  0.2105
   78MPD1    C1 1189   4.420   1.050   0.259 -0.2103  0.0183  0.3429
   78MPD1    C2 1190   4.489   1.056   0.383  0.0458  0.4764 -0.0664
   78MPD1    C3 1191   4.501   1.182   0.446 -0.0654 -0.2997  0.5229
   78MPD1    C4 1192   4.455   1.291   0.385 -0.4107  0.6797 -0.3989
   78MPD1    C5 1193   4.392   1.282   0.260  0.0786 -0.1207  0.5000
   78MPD1     H 1194   4.528   0.967   0.432 -1.8374  0.7844  2.0058
   78MPD1    H1 1195   4.478   1.388   0.428  2.2445  0.0881 -0.4665
   78MPD1    H2 1196   4.320   1.171   0.110 -0.0916 -1.0080  0.0171
   78MPD1    H3 1197   4.359   1.373   0.211  2.6479  1.2926  1.3622
   78MPD1     N 1198   4.564   1.205   0.571  0.4077 -0.2870 -0.2824
   78MPD1    H5 1199   4.557   1.299   0.608  0.0038 -0.6608  0.5914
   78MPD1    N1 1200   4.377   0.922   0.215 -0.3874 -0.4021 -0.4010
   78MPD1    H6 1201   4.370   0.912   0.114 -2.2018  0.2728 -0.3279
   78MPD1    H7 1202   4.432   0.851   0.264 -0.5072 -0.2586 -0.0607
   79TCq2    C1 1203   4.670   1.128   0.623  0.5207  0.5698 -0.3364
   79TCq2    O2 1204   4.714   1.024   0.576  0.0964 -0.8964 -0.3713
   79TCq2    C2 1205   0.005   1.170   0.745 -0.0214 -0.4598 -0.0861
   79TCq2    C3 1206   4.658   1.262   0.822 -0.3221  0.4855 -0.3012
   79TCq2    C4 1207   4.709   1.283   0.946  0.2130  0.0936  0.1650
   79TCq2    C5 1208   0.088   1.208   1.007 -0.3165 -0.4103  0.0843
   79TCq2    C6 1209   0.146   1.113   0.921 -0.5738 -0.8868  0.4767
   79TCq2    C7 1210   0.108   1.099   0.794 -0.0565 -0.3382  0.6854
   79TCq2    C8 1211   0.270   1.053   0.968  0.0919 -0.1444  0.0625
   79TCq2    O4 1212   0.336   0.993   0.886  0.0751  0.6922  0.6818
   79TCq2    C9 1213   4.649   1.389   1.023 -0.2400  0.4593 -0.1528
   79TCq2    O5 1214   4.677   1.392   1.149 -0.2051 -0.1079  0.2562
   79TCq2    O6 1215   4.566   1.466   0.973 -0.6180  0.5145 -0.3516
   79TCq2    H2 1216   4.567   1.315   0.797 -0.3019 -0.1499 -1.6918
   79TCq2    H3 1217   0.133   1.229   1.103 -0.5400  0.7469 -0.0679
   79TCq2    H4 1218   0.159   1.021   0.739  3.7194  1.3935  1.7454
   80MPD2     C 1219   2.747   4.291  12.031  0.3542 -0.2101 -0.0465
   80MPD2    C1 1220   2.709   4.331  11.904  0.5142  0.5854  0.2476
   80MPD2    C2 1221   2.577   4.354  11.880  0.9213  0.7217 -0.0276
   80MPD2    C3 1222   2.482   4.331  11.969 -0.1491 -0.3874 -0.2748
   80MPD2    C4 1223   2.523   4.285  12.092 -0.0761  0.2388  0.0467
   80MPD2    C5 1224   2.654   4.260  12.123  0.3914  0.2626  0.5278
   80MPD2     H 1225   2.539   4.390  11.785  1.3579  0.7367 -0.1940
   80MPD2    H1 1226   2.447   4.270  12.167 -0.9044 -1.4169 -1.1288
   80MPD2    H2 1227   2.849   4.274  12.064  0.1060 -0.6240  0.5165
   80MPD2    H3 1228   2.684   4.227  12.222  0.0173 -0.4380  0.4046
   80MPD2     N 1229   2.347   4.370  11.947  0.1688 -0.0936 -0.1487
   80MPD2    H5 1230   2.286   4.322  12.012  0.4163 -0.8969 -0.5074
   80MPD2    N1 1231   2.797   4.342  11.794 -0.1672 -0.2301  0.1991
   80MPD2    H7 1232   2.757   4.346  11.700  0.9881 -1.3397 -0.3452
   81TCq2    C1 1233   2.934   4.331  11.805 -0.9223 -0.3028  0.0883
   81TCq2    O2 1234   3.000   4.321  11.904 -0.1830 -0.0029  0.1583
   81TCq2    C2 1235   3.005   4.341  11.677  0.6977  0.1350 -0.2368
   81TCq2    C3 1236   3.117   4.267  11.662 -0.4716  0.0178  0.3630
   81TCq2    C4 1237   3.157   4.234  11.537  0.0626 -0.2576 -0.2778
   81TCq2    C5 1238   3.092   4.283  11.431 -0.2658 -0.6901 -0.1652
   81TCq2    C6 1239   2.979   4.355  11.447 -0.5476 -0.0926  0.3468
   81TCq2    C7 1240   2.928   4.380  11.569 -0.3615 -0.5416 -0.2435
   81TCq2    C8 1241   2.898   4.379  11.325  0.1367  0.4175  0.4586
   81TCq2    O4 1242   2.816   4.468  11.326 -0.6287 -0.0088 -0.3260
   81TCq2    C9 1243   3.280   4.169  11.532 -0.3969 -0.1948 -0.1827
   81TCq2    O5 1244   3.352   4.161  11.636 -0.8527 -0.1751 -0.1063
   81TCq2    O6 1245   3.314   4.110  11.425 -0.5544 -0.0817  0.4778
   81TCq2    H2 1246   3.169   4.230  11.749  0.5053 -1.1199 -0.6985
   81TCq2    H3 1247   3.141   4.266  11.336  1.2682 -0.8549  0.6382
   81TCq2    H4 1248   2.842   4.445  11.583 -1.3102 -1.4930 -1.6874
   82MPD2     C 1249   1.162   3.676  10.485 -0.8074 -0.3282  0.0709
   82MPD2    C1 1250   1.154   3.574  10.397  0.4582  0.1834  0.3232
   82MPD2    C2 1251   1.263   3.480  10.390  0.8465  0.7218  0.9981
   82MPD2    C3 1252   1.373   3.499  10.473 -0.2969  0.3906  0.1110
   82MPD2    C4 1253   1.378   3.606  10.557  0.3103  0.6533 -0.3001
   82MPD2    C5 1254   1.273   3.697  10.563 -0.2009  0.2615  0.0494
   82MPD2     H 1255   1.248   3.385  10.340 -0.8237  2.7599 -2.3347
   82MPD2    H1 1256   1.458   3.619  10.629 -1.2249 -0.1125  1.5214
   82MPD2    H2 1257   1.087   3.755  10.487 -0.6249 -0.1290 -0.7520
   82MPD2    H3 1258   1.281   3.782  10.630  0.2617  0.0784  0.2280
   82MPD2     N 1259   1.471   3.398  10.496 -0.4910 -0.3085  0.3932
   82MPD2    H5 1260   1.534   3.404  10.576 -1.7660 -0.6911  1.4331
   82MPD2    N1 1261   1.043   3.561  10.315  0.1367 -0.2763  0.3916
   82MPD2    H7 1262   0.962   3.611  10.349  0.8755  1.1382  0.0881
   83TCq2    C1 1263   1.472   3.281  10.428 -0.4427  0.3124  0.7706
   83TCq2    O2 1264   1.434   3.242  10.318  0.5787 -0.4045 -0.5570
   83TCq2    C2 1265   1.533   3.184  10.513 -0.4883  0.5923 -0.4189
   83TCq2    C3 1266   1.648   3.215  10.583 -0.3177 -0.0667 -0.3370
   83TCq2    C4 1267   1.666   3.148  10.702  0.1617 -0.2563 -0.4328
   83TCq2    C5 1268   1.576   3.048  10.743 -0.2744  0.0843  0.6235
   83TCq2    C6 1269   1.455   3.024  10.676 -0.4327  0.6247 -0.4347
   83TCq2    C7 1270   1.443   3.092  10.555 -0.3174 -0.5111  0.4081
   83TCq2    C8 1271   1.353   2.943  10.740  0.2361  0.0541 -0.4625
   83TCq2    O4 1272   1.378   2.913  10.857 -0.1462  0.1158 -0.4041
   83TCq2    C9 1273   1.772   3.184  10.790 -0.5585  0.1044 -0.3255
   83TCq2    O5 1274   1.773   3.126  10.907 -0.3914  0.1983  0.3909
   83TCq2    O6 1275   1.832   3.293  10.767  0.1539 -0.3719  0.4935
   83TCq2    H2 1276   1.718   3.288  10.544 -1.6297  1.3446 -0.0585
   83TCq2    H3 1277   1.586   3.006  10.842 -2.0889  1.8858  1.5527
   83TCq2    H4 1278   1.353   3.076  10.496  0.4516 -0.5717 -0.7215
   84TCq2    C1 1279   2.416   2.338  10.002  0.1527 -0.1216  0.3165
   84TCq2    O2 1280   2.331   2.278  10.071  0.3261 -0.1195  0.4254
   84TCq2    C2 1281   2.495   2.441  10.058 -0.2906 -0.2022  0.1528
   84TCq2    C3 1282   2.618   2.474  10.002 -0.1285 -0.6738 -0.2910
   84TCq2    C4 1283   2.685   2.584  10.054  0.1161  0.3307 -0.6147
   84TCq2    C5 1284   2.632   2.651  10.154  0.7221 -0.5438  0.1189
   84TCq2    C6 1285   2.513   2.620  10.214 -0.0134  0.2245 -0.0790
   84TCq2    C7 1286   2.443   2.512  10.162  0.2363  0.6785 -0.5496
   84TCq2    C8 1287   2.467   2.657  10.351  0.0245  0.2389 -0.5938
   84TCq2    O4 1288   2.555   2.700  10.423 -0.3088  0.7456  0.1865
   84TCq2    C9 1289   2.820   2.619  10.002 -0.0477 -0.0555 -0.2688
   84TCq2    O5 1290   2.884   2.708  10.070 -0.1396  0.4835  0.0089
   84TCq2    O6 1291   2.867   2.564   9.898 -0.5627 -0.0833 -0.0490
   84TCq2    H2 1292   2.670   2.420   9.923  1.0556  1.2062 -0.7859
   84TCq2    H3 1293   2.688   2.734  10.197 -0.0791  1.0208 -1.8356
   84TCq2    H4 1294   2.354   2.470  10.208  0.8817 -1.0189 -0.8343
   85MPD2     C 1295   2.456   0.296  16.236  0.2224 -0.2051  0.6587
   85MPD2    C1 1296   2.435   0.250  16.107 -0.2039 -0.5896 -0.0278
   85MPD2    C2 1297   2.518   0.295  16.000 -0.0770 -0.0801  0.2066
   85MPD2    C3 1298   2.610   0.394  16.026 -0.7703  0.3626  0.1295
   85MPD2    C4 1299   2.604   0.458  16.152  0.0522 -0.0378  0.6685
   85MPD2    C5 1300   2.534   0.405  16.253  0.1892 -0.2791  0.0869
   85MPD2     H 1301   2.519   0.258  15.898 -1.1886  1.6543 -0.4406
   85MPD2    H1 1302   2.661   0.549  16.166  0.0140  0.3699 -1.7478
   85MPD2    H2 1303   2.413   0.259  16.328 -1.6571 -0.1253 -0.1993
   85MPD2    H3 1304   2.529   0.450  16.351  0.5297 -0.3947  0.1582
   85MPD2     N 1305   2.693   0.446  15.924 -0.0921  0.6030 -0.3952
   85MPD2    H5 1306   2.678   0.424  15.826  0.8773  2.3119 -0.9273
   85MPD2    N1 1307   2.361   0.133  16.075  0.2510 -0.2883 -0.3810
   85MPD2    H7 1308   2.345   0.100  15.980 -2.0537 -0.5134  0.0893
   86TCq2    C1 1309   2.805   0.531  15.931 -0.0343  0.2200 -0.2298
   86TCq2    O2 1310   2.879   0.552  16.029 -0.6824  0.2910  0.1633
   86TCq2    C2 1311   2.851   0.578  15.799  0.8695  0.2505 -0.9089
   86TCq2    C3 1312   2.762   0.595  15.699 -0.1880 -0.4894 -0.6279
   86TCq2    C4 1313   2.798   0.660  15.578 -0.0815  0.1420  0.0189
   86TCq2    C5 1314   2.919   0.720  15.566  0.1215  0.1112 -0.5861
   86TCq2    C6 1315   3.007   0.704  15.670 -0.6708 -0.2733  0.9523
   86TCq2    C7 1316   2.974   0.641  15.794 -0.1667 -0.1494 -0.9792
   86TCq2    C8 1317   3.142   0.739  15.646  0.5515  0.0727  0.0394
   86TCq2    O4 1318   3.224   0.664  15.697  0.6726  0.0385  0.4166
   86TCq2    C9 1319   2.712   0.638  15.463 -0.2813 -0.0505 -0.4027
   86TCq2    O5 1320   2.721   0.713  15.361 -0.1297 -0.3718  0.0050
   86TCq2    O6 1321   2.640   0.536  15.463  0.4633 -0.0573  0.3356
   86TCq2    H2 1322   2.664   0.550  15.693 -0.5604  0.1244  0.9902
   86TCq2    H3 1323   2.936   0.759  15.466 -0.4420  0.5261 -0.5235
   86TCq2    H4 1324   3.039   0.643  15.881 -1.5021 -1.9736  0.0784
   87MPD2     C 1325   4.498   3.810   0.236 -0.2876 -0.0014  0.5483
   87MPD2    C1 1326   4.569   3.919   0.272 -0.4798  0.6640 -0.3992
   87MPD2    C2 1327   4.501   4.042   0.292 -0.2417  0.5022  0.5660
   87MPD2    C3 1328   4.362   4.052   0.285  0.3853 -0.1056 -0.0563
   87MPD2    C4 1329   4.290   3.940   0.252  0.1788 -0.2374  0.0641
   87MPD2    C5 1330   4.361   3.822   0.220 -0.1153 -0.4474  0.3322
   87MPD2     H 1331   4.552   4.136   0.313  1.4960 -0.4859  0.8059
   87MPD2    H1 1332   4.183   3.944   0.234  0.0122  0.2095  1.1385
   87MPD2    H2 1333   4.547   3.717   0.211  3.0556  2.2921 -1.5069
   87MPD2    H3 1334   4.299   3.747   0.172 -0.8465 -0.4879  1.3323
   87MPD2     N 1335   4.312   4.179   0.318 -0.3937  0.2651  0.2094
   87MPD2    H5 1336   4.379   4.252   0.339  0.5211  0.0416 -1.9857
   87MPD2    N1 1337   4.706   3.892   0.282  0.0659 -0.3873  0.4484
   87MPD2    H7 1338   0.021   3.800   0.254  0.2113  0.6942 -2.9715
   88TCq2    C1 1339   0.080   3.974   0.341 -0.1375  0.3843 -0.4595
   88TCq2    O2 1340   0.061   4.084   0.384 -0.3777  0.3337  0.0263
   88TCq2    C2 1341   0.215   3.938   0.330  0.0758  0.2430 -0.5306
   88TCq2    C3 1342   0.303   4.013   0.409  0.6802  0.3264 -0.4877
   88TCq2    C4 1343   0.433   3.967   0.413 -0.0686  0.6320 -0.6906
   88TCq2    C5 1344   0.474   3.852   0.344 -0.2227  0.1578  0.5770
   88TCq2    C6 1345   0.384   3.781   0.280 -0.1955  0.3099 -0.4383
   88TCq2    C7 1346   0.256   3.834   0.248 -0.0887 -0.2062  0.4712
   88TCq2    C8 1347   0.422   3.660   0.214  0.0279  0.6375 -0.4090
   88TCq2    O4 1348   0.360   3.624   0.115  0.2233  0.0302  0.0451
   88TCq2    C9 1349   0.527   4.033   0.501  0.6491  0.4909 -0.2877
   88TCq2    O5 1350   0.505   4.156   0.533 -0.4280  0.5516 -0.2265
   88TCq2    O6 1351   0.620   3.965   0.553  0.0005  0.7406  0.0963
   88TCq2    H2 1352   0.280   4.090   0.481  2.4281  0.6481 -0.2721
   88TCq2    H3 1353   0.575   3.817   0.361  0.1575  1.8878  1.8741
   88TCq2    H4 1354   0.191   3.762   0.198  1.5743 -0.7327 -0.9273
   89MPD2     C 1355   1.633   2.532   1.498  0.6198 -0.6300  0.4412
   89MPD2    C1 1356   1.601   2.667   1.512  0.3551 -0.3292  0.1967
   89MPD2    C2 1357   1.710   2.749   1.541  0.3718 -0.2161 -0.5766
   89MPD2    C3 1358   1.836   2.701   1.547 -0.6644  0.1167  0.5488
   89MPD2    C4 1359   1.862   2.565   1.545 -0.2660 -0.1994  0.5075
   89MPD2    C5 1360   1.758   2.482   1.519  0.1281 -0.1346 -0.0398
   89MPD2     H 1361   1.681   2.853   1.537 -2.0825 -0.8933 -0.5667
   89MPD2    H1 1362   1.958   2.524   1.574  0.2412 -1.1121 -2.4730
   89MPD2    H2 1363   1.557   2.457   1.480 -0.1438  0.2162  0.1429
   89MPD2    H3 1364   1.778   2.376   1.523 -1.4829 -0.4749 -0.9857
   89MPD2     N 1365   1.938   2.800   1.566 -0.6130  0.9822  0.4784
   89MPD2    H5 1366   1.912   2.897   1.575 -0.9336  0.9473 -0.0550
   89MPD2    N1 1367   1.470   2.718   1.504  0.2216  0.5392 -0.1270
   89MPD2    H7 1368   1.464   2.818   1.516  1.3844  0.4928  0.8807
   90TCq2    C1 1369   2.075   2.771   1.575  0.3491  0.0936  0.0570
   90TCq2    O2 1370   2.138   2.668   1.554  0.6200  0.0653 -0.1414
   90TCq2    C2 1371   2.152   2.885   1.612 -0.0025 -0.2982  0.6161
   90TCq2    C3 1372   2.086   2.998   1.657  0.1632  0.0379 -0.5039
   90TCq2    C4 1373   2.153   3.111   1.668  0.4434 -0.3445  0.3611
   90TCq2    C5 1374   2.279   3.126   1.612 -0.4470  0.0655  0.5044
   90TCq2    C6 1375   2.339   3.010   1.565 -0.2151 -0.0353  0.0739
   90TCq2    C7 1376   2.284   2.881   1.569 -0.2394  0.2247  0.7946
   90TCq2    C8 1377   2.426   3.032   1.450  0.7456 -0.5883 -0.2097
   90TCq2    O4 1378   2.426   2.952   1.359  0.3987 -0.2378 -0.4666
   90TCq2    C9 1379   2.079   3.227   1.717  0.7644 -0.2438 -1.2029
   90TCq2    O5 1380   2.137   3.337   1.740  0.2523  0.0561  0.2207
   90TCq2    O6 1381   1.957   3.209   1.734  0.5697  0.1515  0.3933
   90TCq2    H2 1382   1.988   2.991   1.704 -1.6078  0.4368 -4.0729
   90TCq2    H3 1383   2.324   3.224   1.605  0.6432 -0.5868 -1.5244
   90TCq2    H4 1384   2.317   2.802   1.503 -4.5707  0.8830 -2.2191
   91TMC2    C1 1385   3.148   1.302  16.053  0.4350 -0.1970  0.9115
   91TMC2    C2 1386   3.207   1.383  15.959 -1.1346  0.7541 -0.4528
   91TMC2    C3 1387   3.124   1.438  15.865 -0.7600 -0.8330  0.2059
   91TMC2    C4 1388   3.010   1.283  16.059  0.3096 -0.6091 -0.4960
   91TMC2    C5 1389   2.932   1.344  15.964 -0.2743  0.0765 -0.7071
   91TMC2    C6 1390   2.985   1.426  15.867 -0.0975 -0.6021 -0.3058
   91TMC2     C 1391   3.242   1.208  16.111 -0.0989 -0.0106  0.6741
   91TMC2     O 1392   3.198   1.096  16.117  0.9877 -0.0806  0.0518
   91TMC2     H 1393   3.313   1.379  15.936 -0.9066  3.7593  0.1100
   91TMC2    H1 1394   2.967   1.209  16.125  0.0499  0.3655  0.4103
   91TMC2    H2 1395   2.928   1.475  15.789 -0.0154 -0.4129 -0.2469
   91TMC2    C7 1396   2.792   1.319  15.977  0.2010  0.4058  0.2796
   91TMC2    C8 1397   3.175   1.453  15.730 -0.1550  0.3320  0.3689
   91TMC2    O1 1398   2.753   1.297  16.088 -0.3347  0.9597 -0.4359
   91TMC2    O2 1399   3.103   1.521  15.657 -0.4544  0.3892 -0.2396
   91TMC2    O5 1400   3.222   1.335  15.692 -0.3865 -0.1509  0.5203
   91TMC2    H5 1401   3.275   1.289  15.760  0.2286 -0.4624 -0.1708
   92MPD2     C 1402   3.492   1.056  16.178  0.3226  0.1240 -0.1965
   92MPD2    C1 1403   3.485   1.195  16.174 -0.1313  0.1721 -0.1279
   92MPD2    C2 1404   3.596   1.269  16.183  0.2751  0.2370 -0.0952
   92MPD2    C3 1405   3.722   1.208  16.197  0.7607  0.3394  0.9349
   92MPD2    C4 1406   3.728   1.070  16.181 -0.6101  0.0994 -0.9207
   92MPD2    C5 1407   3.615   0.993  16.175  0.1287 -0.0064  0.4053
   92MPD2     H 1408   3.585   1.373  16.154  0.3909  0.4557  0.6530
   92MPD2    H1 1409   3.814   1.003  16.180 -0.7328 -0.0945  0.4652
   92MPD2    H2 1410   3.400   1.003  16.197  0.3882 -0.0926 -0.4925
   92MPD2    H3 1411   3.603   0.885  16.175 -1.0582  0.1204  1.4773
   92MPD2     N 1412   3.830   1.296  16.207  0.6693  0.2320  0.0908
   92MPD2    H5 1413   3.818   1.396  16.224 -0.3396  0.1081  0.0752
   92MPD2    N1 1414   3.365   1.264  16.142 -0.0781  0.3916 -0.0914
   92MPD2    H7 1415   3.366   1.366  16.137 -1.2285  0.2913 -2.6382
   93MPD2     C 1416   0.058   1.508  13.474 -0.0432  0.1552 -0.1156
   93MPD2    C1 1417   0.023   1.599  13.576  0.6216  0.1565  0.2338
   93MPD2    C2 1418   4.608   1.630  13.605  0.9215  0.1341 -0.0642
   93MPD2    C3 1419   4.507   1.577  13.526 -0.5825  0.4834  0.3290
   93MPD2    C4 1420   4.542   1.479  13.433  0.6296  0.4718  0.5618
   93MPD2    C5 1421   4.670   1.451  13.406  0.7070 -0.0691  0.1943
   93MPD2     H 1422   4.583   1.699  13.686  0.0178 -1.3711  0.9389
   93MPD2    H1 1423   4.464   1.432  13.375  1.6130 -1.1687  0.5831
   93MPD2    H2 1424   0.159   1.488  13.440 -0.0911 -1.4342  0.6911
   93MPD2    H3 1425   4.695   1.372  13.336 -1.6469 -0.0221 -0.7318
   93MPD2     N 1426   4.389   1.643  13.513 -0.4828  0.6563  0.2522
   93MPD2    H5 1427   4.330   1.614  13.435 -0.1368 -0.2533  0.3238
   93MPD2    N1 1428   0.118   1.672  13.645 -0.0909  0.3605  0.1941
   93MPD2    H7 1429   0.080   1.744  13.705  1.1149 -0.3226  1.7999
   94TCq2    C1 1430   0.250   1.681  13.622 -0.6059 -0.3593  0.9108
   94TCq2    O2 1431   0.326   1.612  13.556  0.0392 -0.0739 -0.6440
   94TCq2    C2 1432   0.305   1.797  13.693 -0.4170  0.3216  0.1638
   94TCq2    C3 1433   0.229   1.901  13.730 -0.6183  0.1312 -0.0812
   94TCq2    C4 1434   0.300   2.006  13.784 -0.5984  0.3785 -0.6878
   94TCq2    C5 1435   0.443   2.007  13.801 -0.2735  0.4223 -0.4584
   94TCq2    C6 1436   0.515   1.899  13.746 -0.5657  0.3862 -0.1339
   94TCq2    C7 1437   0.441   1.795  13.699 -0.4506 -0.7868  0.0180
   94TCq2    C8 1438   0.647   1.902  13.696 -0.3871 -0.0369 -0.4906
   94TCq2    O4 1439   0.683   1.836  13.602  0.2026 -0.1369  0.0819
   94TCq2    C9 1440   0.235   2.122  13.827 -0.5906 -0.7250 -0.0544
   94TCq2    O5 1441   0.111   2.135  13.807 -0.6452  0.4972 -0.6505
   94TCq2    O6 1442   0.306   2.193  13.904  0.5447  0.2115  0.1671
   94TCq2    H2 1443   0.126   1.913  13.697 -0.1472  1.2561 -1.1312
   94TCq2    H3 1444   0.497   2.090  13.844 -0.3818  0.3566 -0.1931
   94TCq2    H4 1445   0.489   1.716  13.642  1.9935  0.9684 -0.3661
   95TMC2    C1 1446   4.409   3.285  15.619  0.5035 -0.4202  0.7889
   95TMC2    C2 1447   4.274   3.291  15.609 -0.3029  0.0365  0.2950
   95TMC2    C3 1448   4.199   3.261  15.714  0.2124  0.1736 -0.5063
   95TMC2    C4 1449   4.468   3.259  15.738 -0.5211 -0.5647 -0.2578
   95TMC2    C5 1450   4.392   3.244  15.858  0.4700 -0.3498 -0.0264
   95TMC2    C6 1451   4.256   3.232  15.837 -0.0668  0.4961 -0.8146
   95TMC2     C 1452   4.489   3.319  15.504 -0.3882  1.4028  0.2865
   95TMC2     O 1453   4.609   3.322  15.529 -0.7674  0.7966  0.2807
   95TMC2     H 1454   4.223   3.307  15.515 -2.7833 -0.0499  1.6376
   95TMC2    H1 1455   4.574   3.247  15.753 -0.3626  1.8895  0.5499
   95TMC2    H2 1456   4.202   3.206  15.927 -2.2014 -0.0804 -2.2579
   95TMC2    C7 1457   4.452   3.210  15.987  0.2320 -0.6693 -0.5052
   95TMC2    C8 1458   4.066   3.217  15.689 -0.1820  0.1667  0.7669
   95TMC2    O1 1459   4.542   3.126  15.989  0.1236 -0.2484 -0.4237
   95TMC2    O2 1460   4.043   3.169  15.580  0.1098 -0.0182 -0.6064
   95TMC2    O5 1461   3.986   3.234  15.798 -0.5131  0.4522  0.0340
   95TMC2    H5 1462   4.024   3.275  15.879  1.3460 -1.2876  0.0256
   96MPD2     C 1463   4.606   3.319  14.999  0.0114  0.0209  0.1405
   96MPD2    C1 1464   4.671   3.376  15.106  0.3476 -0.0606  0.1202
   96MPD2    C2 1465   4.617   3.376  15.236  0.0576  0.1272 -0.5631
   96MPD2    C3 1466   4.497   3.302  15.259  0.0066 -0.2086  0.2229
   96MPD2    C4 1467   4.431   3.247  15.150  0.0496  0.7043 -0.2752
   96MPD2    C5 1468   4.483   3.255  15.024  0.5523 -0.2164 -0.1734
   96MPD2     H 1469   4.668   3.413  15.324 -1.9533  2.1702 -0.2550
   96MPD2    H1 1470   4.330   3.212  15.165 -0.1089  0.4374 -1.9432
   96MPD2    H2 1471   4.634   3.317  14.895 -1.4774  3.4052 -0.3259
   96MPD2    H3 1472   4.423   3.205  14.949 -1.5361 -0.0561  1.3745
   96MPD2     N 1473   4.430   3.290  15.384 -0.4031 -0.1969  0.1530
   96MPD2    H5 1474   4.342   3.240  15.393 -0.7722  0.2033 -1.1460
   96MPD2    N1 1475   0.076   3.427  15.079  0.4977  0.1359  0.2552
   96MPD2    H7 1476   0.110   3.393  14.990  2.3527 -0.3867  1.1662
   97MPD2     C 1477   1.946   1.220   0.866 -0.0319 -1.3648 -0.3647
   97MPD2    C1 1478   1.988   1.342   0.817  0.2815 -0.0232  0.4035
   97MPD2    C2 1479   2.029   1.346   0.684  0.1393 -0.0502 -0.1012
   97MPD2    C3 1480   2.013   1.235   0.601 -0.0852  0.2912  0.3284
   97MPD2    C4 1481   1.973   1.118   0.659  0.1239  0.4440 -0.9826
   97MPD2    C5 1482   1.942   1.107   0.789  0.5497  0.2765  0.0326
   97MPD2     H 1483   2.066   1.438   0.640 -0.1103  1.2582  2.4448
   97MPD2    H1 1484   1.955   1.033   0.594  0.0884 -0.6989  0.5518
   97MPD2    H2 1485   1.925   1.212   0.972  0.2576 -0.8583 -0.2673
   97MPD2    H3 1486   1.908   1.014   0.833 -0.8955  1.9639  2.5640
   97MPD2     N 1487   2.047   1.245   0.465 -0.5485  0.2426 -0.2860
   97MPD2    H5 1488   2.047   1.160   0.409  4.4714  1.0335 -1.5273
   97MPD2    N1 1489   1.988   1.455   0.900 -0.1933  0.1022  0.4856
   97MPD2    H7 1490   1.970   1.431   0.997  1.1121  1.0548  0.9753
   98TCq2    C1 1491   2.083   1.357   0.392  0.2793  0.0587 -0.0173
   98TCq2    O2 1492   2.120   1.470   0.418 -0.1538 -0.7993  0.2471
   98TCq2    C2 1493   2.116   1.306   0.258  0.3216  0.5212  0.2907
   98TCq2    C3 1494   2.061   1.192   0.204  0.0705  0.3086  0.1649
   98TCq2    C4 1495   2.112   1.132   0.096 -0.1632 -0.6920 -0.2191
   98TCq2    C5 1496   2.219   1.196   0.031 -0.2204  0.1695 -0.2223
   98TCq2    C6 1497   2.270   1.312   0.085  0.2747  0.2153  0.5921
   98TCq2    C7 1498   2.216   1.367   0.196  0.0961 -0.2100 -0.2147
   98TCq2    C8 1499   2.370   1.393   0.020  0.8539 -0.1994  0.1427
   98TCq2    O4 1500   2.438   1.470   0.087  0.2618  0.0638 -0.5573
   98TCq2    C9 1501   2.049   1.014   0.037  0.3299  0.1313  0.3918
   98TCq2    O5 1502   1.950   0.969   0.106 -0.7027  0.0774 -0.6872
   98TCq2    O6 1503   2.099   0.964  17.604  0.1027  0.6878  0.4482
   98TCq2    H2 1504   1.972   1.155   0.253 -0.1637  1.7374  0.8050
   98TCq2    H3 1505   2.265   1.154  17.616  0.7625  0.0495  0.3548
   98TCq2    H4 1506   2.253   1.459   0.238  1.0665 -0.8303  0.2989
   99MPD2     C 1507   1.271   3.707   1.152 -1.0657  0.4771 -0.1103
   99MPD2    C1 1508   1.152   3.752   1.108  0.8953 -0.3330 -0.2492
   99MPD2    C2 1509   1.111   3.711   0.980 -0.4464  0.0233  0.6618
   99MPD2    C3 1510   1.185   3.622   0.902  0.1790  0.0860  0.3538
   99MPD2    C4 1511   1.302   3.578   0.952  0.3164 -0.2884  0.3020
   99MPD2    C5 1512   1.346   3.617   1.079 -0.2877  0.3231  0.1715
   99MPD2     H 1513   1.025   3.764   0.940  0.1314  0.9754  0.6858
   99MPD2    H1 1514   1.366   3.507   0.901 -1.9667 -1.5433 -0.8608
   99MPD2    H2 1515   1.311   3.731   1.249 -1.3323 -1.9029  0.5942
   99MPD2    H3 1516   1.440   3.575   1.114 -0.2592  0.0167 -0.2677
   99MPD2     N 1517   1.135   3.584   0.772 -0.0221 -0.1555  0.1691
   99MPD2    H5 1518   1.042   3.612   0.741  0.5454 -1.3603 -2.6950
   99MPD2    N1 1519   1.088   3.857   1.161  0.4882  0.5168 -0.0461
   99MPD2    H7 1520   0.995   3.888   1.132 -0.4479  0.4483  2.8478
  100TCq2    C1 1521   1.139   3.936   1.264 -0.2295 -0.1090 -0.1619
  100TCq2    O2 1522   1.253   3.961   1.297 -0.1517 -0.2339  0.2629
  100TCq2    C2 1523   1.034   4.027   1.312  0.4046  0.3317 -0.4592
  100TCq2    C3 1524   1.074   4.151   1.364 -0.1701  0.4183 -0.0106
  100TCq2    C4 1525   0.985   4.250   1.382  0.3429  0.2894  0.5219
  100TCq2    C5 1526   0.852   4.230   1.362  0.0403  0.0452  0.2175
  100TCq2    C6 1527   0.807   4.111   1.304  0.6313  0.4474  0.1218
  100TCq2    C7 1528   0.901   4.011   1.279 -1.3809 -0.2789  0.1244
  100TCq2    C8 1529   0.659   4.094   1.298  0.8573  0.2140 -0.3311
  100TCq2    O4 1530   0.589   4.186   1.334  0.0061 -0.1068 -0.0784
  100TCq2    C9 1531   1.017   4.379   1.435 -0.1351 -0.0460  0.2436
  100TCq2    O5 1532   1.143   4.392   1.466 -0.5480  0.1723  0.6035
  100TCq2    O6 1533   0.921   4.462   1.461  0.0410  0.6483  0.2299
  100TCq2    H2 1534   1.180   4.164   1.378  0.0664 -1.4071 -0.0519
  100TCq2    H3 1535   0.791   4.298   1.419 -1.0030 -1.6149  1.0621
  100TCq2    H4 1536   0.878   3.907   1.261 -4.1424  0.8664 -2.9210
  101MPD2     C 1537   1.609   3.711  12.660  0.1571 -0.2538 -0.7165
  101MPD2    C1 1538   1.507   3.785  12.725 -0.3350  0.3041 -0.0087
  101MPD2    C2 1539   1.424   3.719  12.812 -0.7349 -0.7714  0.0714
  101MPD2    C3 1540   1.438   3.588  12.854  0.4262  0.1414  0.2977
  101MPD2    C4 1541   1.547   3.523  12.801 -0.3565 -0.2022  0.1008
  101MPD2    C5 1542   1.625   3.588  12.702  0.1535 -0.2767  0.2319
  101MPD2     H 1543   1.348   3.765  12.874 -0.2323 -2.3996  1.8676
  101MPD2    H1 1544   1.575   3.420  12.818 -1.9552 -0.7021 -0.3263
  101MPD2    H2 1545   1.672   3.757  12.586  0.0764  0.1009 -0.5637
  101MPD2    H3 1546   1.713   3.541  12.658 -0.1240 -0.9214  0.3645
  101MPD2     N 1547   1.356   3.526  12.954 -0.5664 -0.5814  0.1876
  101MPD2    H5 1548   1.289   3.587  13.000 -1.1717  0.0465 -1.5451
  101MPD2    N1 1549   1.486   3.921  12.692  0.1225  0.6859 -0.3100
  101MPD2    H7 1550   1.556   3.973  12.640  0.0462 -0.4335 -1.5364
  102TCq2    C1 1551   1.531   4.331  12.390  0.2302 -0.5601 -0.3237
  102TCq2    O2 1552   1.646   4.289  12.380  0.6043 -0.3160 -0.8229
  102TCq2    C2 1553   1.440   4.293  12.502  0.0534  0.5328 -1.1965
  102TCq2    C3 1554   1.330   4.373  12.528 -0.5368 -0.5733 -0.2862
  102TCq2    C4 1555   1.244   4.326  12.621  0.4733  0.3451 -0.6827
  102TCq2    C5 1556   1.265   4.205  12.677  0.8784  0.4820  0.3244
  102TCq2    C6 1557   1.381   4.138  12.667  0.3166 -0.1903  0.1887
  102TCq2    C7 1558   1.470   4.175  12.570 -0.3582 -0.2641 -0.1655
  102TCq2    C8 1559   1.383   4.005  12.736  0.0913 -0.3471  0.1426
  102TCq2    O4 1560   1.284   3.969  12.799  0.2927 -0.5505 -0.5146
  102TCq2    C9 1561   1.142   4.417  12.661  0.1837  0.0408  0.3850
  102TCq2    O5 1562   1.098   4.501  12.580  0.0486 -0.3243  0.6720
  102TCq2    O6 1563   1.094   4.386  12.774  0.2825 -0.1006  0.1576
  102TCq2    H2 1564   1.317   4.475  12.495 -2.5414 -0.3901  1.1125
  102TCq2    H3 1565   1.194   4.171  12.752  1.1549 -1.3859 -0.2548
  102TCq2    H4 1566   1.554   4.113  12.539 -0.1420  1.5919 -3.1662
  103TMC2    C1 1567   4.646   4.384  12.681 -0.4265 -0.6156  0.3936
  103TMC2    C2 1568   0.058   4.413  12.660  0.4980  0.6438  0.7974
  103TMC2    C3 1569   0.132   4.449  12.767  0.9245 -0.5523  0.2555
  103TMC2    C4 1570   4.586   4.422  12.794  0.5330  0.2044 -0.2094
  103TMC2    C5 1571   4.660   4.475  12.899  0.0959 -0.2408 -0.0527
  103TMC2    C6 1572   0.076   4.487  12.889  1.0123 -0.7166  0.1108
  103TMC2     C 1573   4.562   4.368  12.561  0.1780 -0.3281 -0.0585
  103TMC2     O 1574   4.448   4.329  12.566 -0.0858 -0.2397  0.2312
  103TMC2     H 1575   0.110   4.364  12.578 -2.2872 -0.8008 -0.0923
  103TMC2    H1 1576   4.478   4.425  12.781  0.5107 -2.4276 -0.5939
  103TMC2    H2 1577   0.139   4.508  12.975  2.8660 -0.1168 -1.4052
  103TMC2    C7 1578   4.609   4.510  13.022  0.3647  0.6392 -0.1323
  103TMC2    C8 1579   0.266   4.402  12.770 -0.9082 -0.1541 -0.0777
  103TMC2    O1 1580   4.687   4.565  13.097 -0.1161  0.8334 -0.2809
  103TMC2    O2 1581   0.303   4.312  12.690  0.3318  0.0767 -0.0419
  103TMC2    O5 1582   0.336   4.514  12.786  0.3506  0.2876 -0.3866
  103TMC2    H5 1583   0.283   4.575  12.842 -2.1789 -0.8107 -1.5898
  104MPD2     C 1584   4.670   4.511  12.246 -0.4418  0.1467 -0.4754
  104MPD2    C1 1585   4.579   4.445  12.321 -0.3524  0.0882  0.3099
  104MPD2    C2 1586   4.450   4.420  12.276 -0.0728  0.6703  0.4104
  104MPD2    C3 1587   4.422   4.468  12.147 -0.0586 -0.8976 -0.2650
  104MPD2    C4 1588   4.514   4.533  12.071 -0.2694  0.2002  0.3454
  104MPD2    C5 1589   4.630   4.564  12.129 -0.2579  0.5066 -0.4501
  104MPD2     H 1590   4.373   4.398  12.349 -0.2505  3.6969  1.1171
  104MPD2    H1 1591   4.489   4.582  11.977 -0.7734 -1.8465 -0.6046
  104MPD2    H2 1592   0.048   4.543  12.287  0.1663 -0.5256 -1.3839
  104MPD2    H3 1593   4.710   4.623  12.085 -1.4188  2.9713  0.7443
  104MPD2     N 1594   4.292   4.449  12.101  0.2932  0.1276 -0.0266
  104MPD2    H5 1595   4.228   4.390  12.154  0.5531 -2.3996 -2.5584
  104MPD2    N1 1596   4.628   4.426  12.456 -0.3893 -0.3187  0.2532
  104MPD2    H7 1597   4.708   4.481  12.487  0.9074 -0.9222 -2.0678
  105MPD2     C 1598   1.414   3.038  17.126 -0.1311 -0.4732  0.4094
  105MPD2    C1 1599   1.340   3.147  17.085  0.2218 -0.0462  0.4387
  105MPD2    C2 1600   1.208   3.152  17.108  0.7108 -0.7140 -0.7721
  105MPD2    C3 1601   1.144   3.039  17.158 -0.0585  0.0219 -0.9665
  105MPD2    C4 1602   1.214   2.933  17.203 -0.8161 -0.7202 -0.1303
  105MPD2    C5 1603   1.348   2.938  17.184  0.0228  0.4128 -0.2539
  105MPD2     H 1604   1.147   3.233  17.070  2.5920  0.5732 -1.0426
  105MPD2    H1 1605   1.161   2.862  17.266  0.0198 -2.6472 -1.6013
  105MPD2    H2 1606   1.520   3.025  17.108 -0.8140 -1.7193 -2.5663
  105MPD2    H3 1607   1.401   2.867  17.248 -0.2057  1.7674  1.4364
  105MPD2     N 1608   1.005   3.025  17.188 -0.6633 -0.7779 -0.3799
  105MPD2    H5 1609   0.975   2.942  17.238  0.2703 -0.2170  1.1053
  105MPD2    N1 1610   1.393   3.269  17.034  0.0921  0.4529  0.6276
  105MPD2    H7 1611   1.330   3.346  17.010 -2.9556 -2.0151  0.7387
  106TCq2    C1 1612   0.907   3.111  17.145 -0.0580 -0.4792 -0.1719
  106TCq2    O2 1613   0.902   3.197  17.053 -0.1081 -0.1724  0.1803
  106TCq2    C2 1614   0.794   3.109  17.240  0.2852  0.0062 -0.3593
  106TCq2    C3 1615   0.666   3.132  17.206 -1.0599 -0.2247  0.3547
  106TCq2    C4 1616   0.565   3.134  17.300 -0.1265  0.3265 -0.0266
  106TCq2    C5 1617   0.594   3.111  17.430 -0.1771 -0.5657 -0.3536
  106TCq2    C6 1618   0.727   3.101  17.466  0.1769 -0.6780  0.1944
  106TCq2    C7 1619   0.827   3.093  17.374 -0.4976 -0.9196 -1.0342
  106TCq2    C8 1620   0.760   3.150  17.601  0.4555  0.1385 -0.2258
  106TCq2    O4 1621   0.876   3.143  17.637 -0.2363  0.0677 -0.2991
  106TCq2    C9 1622   0.429   3.160  17.251  0.7716  1.2636  0.7045
  106TCq2    O5 1623   0.405   3.131  17.135 -0.1673 -0.0879  0.3325
  106TCq2    O6 1624   0.342   3.199  17.335 -0.1051  0.0065 -1.0534
  106TCq2    H2 1625   0.637   3.153  17.104  0.7925 -0.2267 -0.1664
  106TCq2    H3 1626   0.511   3.103  17.500  2.0386 -2.2971  2.0958
  106TCq2    H4 1627   0.930   3.093  17.406 -1.2497 -1.2288  1.3389
  107TMC2    C1 1628   2.443   2.970  11.267 -0.6411 -0.0842  0.6891
  107TMC2    C2 1629   2.537   2.874  11.274  0.0790 -0.4347 -0.0193
  107TMC2    C3 1630   2.580   2.826  11.152 -0.4004  0.1650  0.0558
  107TMC2    C4 1631   2.377   2.995  11.145  0.0791 -0.3382  0.3838
  107TMC2    C5 1632   2.414   2.937  11.026 -0.0878 -0.2941  0.1689
  107TMC2    C6 1633   2.524   2.852  11.027  0.1581  0.1332  0.3197
  107TMC2     C 1634   2.354   2.982  11.382  0.4570  0.1623 -0.0767
  107TMC2     O 1635   2.234   3.000  11.368  0.4340  0.3481  0.0310
  107TMC2     H 1636   2.576   2.826  11.363  2.8549  2.0028  0.0775
  107TMC2    H1 1637   2.279   3.040  11.148  1.5011  2.8006 -0.1813
  107TMC2    H2 1638   2.560   2.801  10.939 -0.2367  0.7713 -0.2122
  107TMC2    C7 1639   2.328   2.945  10.911 -1.2669  0.0647  0.1390
  107TMC2    C8 1640   2.695   2.743  11.146  0.5468  0.6610 -1.1771
  107TMC2    O1 1641   2.242   3.030  10.911 -0.3448  0.1278  0.1740
  107TMC2    O2 1642   2.711   2.659  11.053  0.4634  0.1474 -0.6583
  107TMC2    O5 1643   2.776   2.793  11.248  0.0470  0.1466 -0.1078
  107TMC2    H5 1644   2.744   2.874  11.291  1.6440 -0.7441  2.7506
  108MPD2     C 1645   2.475   2.984  11.715 -0.0558 -0.2761  0.6453
  108MPD2    C1 1646   2.380   2.993  11.624  0.3707  0.3243  0.0044
  108MPD2    C2 1647   2.252   3.031  11.657 -0.0841 -0.0445  0.3401
  108MPD2    C3 1648   2.216   3.047  11.793  0.1118 -0.7430  0.1127
  108MPD2    C4 1649   2.318   3.028  11.886 -0.0595 -0.1972 -0.3957
  108MPD2    C5 1650   2.446   3.003  11.848  0.1724 -0.4002  0.0051
  108MPD2     H 1651   2.177   3.045  11.580  0.8222  0.6089 -0.4195
  108MPD2    H1 1652   2.296   3.032  11.993  0.6900 -3.5721 -0.1482
  108MPD2    H2 1653   2.573   2.941  11.697 -0.4692 -0.5025 -1.0115
  108MPD2    H3 1654   2.521   2.981  11.924 -0.5248  1.8561  1.3540
  108MPD2     N 1655   2.088   3.086  11.850  0.0177 -0.0117  0.5056
  108MPD2    H5 1656   2.087   3.113  11.948  1.6146 -1.2844  0.8598
  108MPD2    N1 1657   2.427   2.964  11.497 -1.0192  0.6109  0.1449
  108MPD2    H7 1658   2.527   2.949  11.483 -1.3092  1.2644 -2.6456
  109MPD2     C 1659   1.295   0.655   1.578 -0.4323 -0.0509  0.1942
  109MPD2    C1 1660   1.297   0.772   1.510  0.3590 -0.1836  0.2920
  109MPD2    C2 1661   1.324   0.895   1.568  0.4736  0.2797 -0.0950
  109MPD2    C3 1662   1.375   0.900   1.698  0.5293  0.1074 -0.0848
  109MPD2    C4 1663   1.385   0.783   1.769 -0.0856  0.1412  0.3064
  109MPD2    C5 1664   1.336   0.662   1.707 -0.1051 -0.0259 -1.3508
  109MPD2     H 1665   1.322   0.993   1.522 -2.1663 -1.0781 -2.8427
  109MPD2    H1 1666   1.421   0.773   1.870  0.6304 -0.7933 -0.0486
  109MPD2    H2 1667   1.263   0.564   1.528 -0.2491 -0.7355  1.3413
  109MPD2    H3 1668   1.325   0.576   1.771 -0.4014  1.0333  0.0343
  109MPD2     N 1669   1.399   1.023   1.761  0.1175 -0.0090  0.6138
  109MPD2    H5 1670   1.393   1.103   1.698 -0.8063 -0.0799  0.6246
  109MPD2    N1 1671   1.253   0.749   1.378 -0.1981 -0.5474  0.5352
  109MPD2    H7 1672   1.229   0.659   1.338  1.4286 -0.0933 -1.4625
  110TCq2    C1 1673   1.418   1.046   1.892  0.2786 -0.2845  0.3504
  110TCq2    O2 1674   1.392   0.972   1.987  0.0542  1.2417  0.6188
  110TCq2    C2 1675   1.459   1.181   1.919  0.0064  0.8143 -0.8987
  110TCq2    C3 1676   1.413   1.240   2.030  0.2138  0.2356  0.1366
  110TCq2    C4 1677   1.446   1.371   2.058  1.0579  0.0743  0.4550
  110TCq2    C5 1678   1.537   1.442   1.979 -0.2576  0.1206 -0.4672
  110TCq2    C6 1679   1.589   1.369   1.874 -0.2330  0.4188 -0.5501
  110TCq2    C7 1680   1.541   1.248   1.833  0.1689  0.6746 -0.0776
  110TCq2    C8 1681   1.664   1.438   1.779  0.1185  0.0832 -0.0720
  110TCq2    O4 1682   1.653   1.412   1.659 -0.5018  0.8017 -0.2449
  110TCq2    C9 1683   1.392   1.434   2.172 -0.0207  0.8128 -0.1164
  110TCq2    O5 1684   1.291   1.383   2.234 -0.7610  0.0426 -0.0571
  110TCq2    O6 1685   1.445   1.546   2.205  0.0079  0.2314  0.3440
  110TCq2    H2 1686   1.349   1.182   2.095  0.0434 -1.1577 -1.2632
  110TCq2    H3 1687   1.562   1.544   2.009 -0.3523 -0.2906  1.0019
  110TCq2    H4 1688   1.575   1.202   1.741 -2.0868 -1.7615  0.2812
  111TMC2    C1 1689   2.145   0.611  11.158 -0.1951  0.0823  0.3221
  111TMC2    C2 1690   2.237   0.634  11.064  0.0140 -0.2826  0.2554
  111TMC2    C3 1691   2.370   0.622  11.105  0.0478 -0.4752 -0.1556
  111TMC2    C4 1692   2.174   0.567  11.287  0.7944 -0.1536  0.3369
  111TMC2    C5 1693   2.304   0.547  11.315  0.1883 -1.0019  0.7647
  111TMC2    C6 1694   2.405   0.580  11.228 -0.4272 -0.2404  0.3280
  111TMC2     C 1695   2.007   0.639  11.122 -0.6504 -0.0287 -0.0516
  111TMC2     O 1696   1.985   0.647  11.002  0.6799  0.0594  0.0594
  111TMC2     H 1697   2.207   0.651  10.962  3.2774  0.2350 -0.6146
  111TMC2    H1 1698   2.093   0.532  11.350 -0.1379 -1.7788 -1.7671
  111TMC2    H2 1699   2.508   0.583  11.261  0.3900  1.8973 -2.3371
  111TMC2    C7 1700   2.329   0.463  11.436 -0.2094  1.0578  1.1597
  111TMC2    C8 1701   2.483   0.617  11.010 -0.0225 -0.1777 -0.3482
  111TMC2    O1 1702   2.236   0.467  11.510  0.5173 -0.5896  1.0981
  111TMC2    O2 1703   2.602   0.619  11.042 -0.6070  0.1433 -0.7850
  111TMC2    O5 1704   2.430   0.573  10.893  0.0272 -0.6381  0.0060
  111TMC2    H5 1705   2.343   0.528  10.889 -0.8417  1.0940 -0.7188
  112MPD2     C 1706   1.499   0.649  11.228  0.2030 -0.1277  0.2800
  112MPD2    C1 1707   1.564   0.594  11.119 -0.6505 -0.0189 -0.4839
  112MPD2    C2 1708   1.706   0.602  11.121  0.6486  0.9243 -0.1589
  112MPD2    C3 1709   1.779   0.643  11.229  0.1814 -0.1259 -0.2009
  112MPD2    C4 1710   1.710   0.689  11.337  0.7017 -0.5634 -0.2764
  112MPD2    C5 1711   1.569   0.694  11.334 -1.2949 -0.0842 -0.1416
  112MPD2     H 1712   1.760   0.565  11.035 -1.3005  2.7608 -2.1684
  112MPD2    H1 1713   1.760   0.731  11.424  0.8531  0.2041 -0.7313
  112MPD2    H2 1714   1.392   0.654  11.239  0.0714  0.7372 -1.5078
  112MPD2    H3 1715   1.522   0.738  11.421  1.2283 -0.1471  1.2495
  112MPD2     N 1716   1.923   0.647  11.233 -0.0394 -0.1692 -0.2684
  112MPD2    H5 1717   1.974   0.665  11.319 -1.5454  1.5864  0.2499
  112MPD2    N1 1718   1.492   0.542  11.000  0.0751  0.2219  0.1116
  112MPD2    H7 1719   1.545   0.490  10.931  1.3112  1.5501  0.0461
  113MPD2     C 1720   0.436   3.503   0.629  0.2742  0.5715  0.4424
  113MPD2    C1 1721   0.334   3.587   0.603  0.2984 -0.3477  0.9227
  113MPD2    C2 1722   0.238   3.559   0.510  0.2789 -1.1131 -0.0990
  113MPD2    C3 1723   0.241   3.436   0.444 -0.3136 -0.3958 -0.0631
  113MPD2    C4 1724   0.343   3.348   0.475 -0.1772 -0.0785  0.6465
  113MPD2    C5 1725   0.440   3.384   0.570  0.4958 -0.4117 -0.1890
  113MPD2     H 1726   0.181   3.644   0.475 -1.1838 -1.0521  2.4395
  113MPD2    H1 1727   0.359   3.255   0.421  0.5457 -0.0538  0.8150
  113MPD2    H2 1728   0.507   3.516   0.711  0.2223 -0.4987  0.6536
  113MPD2    H3 1729   0.513   3.305   0.581  2.8490  1.7983  0.0835
  113MPD2     N 1730   0.154   3.412   0.342 -0.1639 -0.4490  0.4485
  113MPD2    H5 1731   0.161   3.321   0.296  0.1709 -1.1936  1.9668
  113MPD2    N1 1732   0.339   3.709   0.678 -0.4474 -0.0368 -0.3937
  113MPD2    H7 1733   0.424   3.713   0.732 -0.7406  0.8298 -0.0020
  114TCq2    C1 1734   0.063   3.500   0.290 -0.5292  0.5791  0.1068
  114TCq2    O2 1735   0.055   3.620   0.296  0.6089 -1.1885 -0.7469
  114TCq2    C2 1736   4.677   3.438   0.222  0.4675 -0.0128  0.0919
  114TCq2    C3 1737   4.657   3.487   0.096 -0.1876  0.3938  0.1967
  114TCq2    C4 1738   4.600   3.405  17.670  0.0446  0.2226  0.0016
  114TCq2    C5 1739   4.561   3.281   0.036 -0.4888 -0.2624 -0.1959
  114TCq2    C6 1740   4.569   3.249   0.166  0.2304  0.2324 -0.3441
  114TCq2    C7 1741   4.629   3.316   0.264 -0.0470  0.1703 -0.0655
  114TCq2    C8 1742   4.532   3.109   0.200  0.2514  0.3420 -0.1603
  114TCq2    O4 1743   4.573   3.021   0.124  0.1376  0.3353  0.3503
  114TCq2    C9 1744   4.586   3.458  17.526 -0.0803 -0.1876  0.6320
  114TCq2    O5 1745   4.639   3.569  17.498  0.8649 -0.1306 -0.0320
  114TCq2    O6 1746   4.537   3.383  17.443  0.1737  0.3140  0.2517
  114TCq2    H2 1747   4.691   3.586   0.070  1.5143 -0.7560 -1.9589
  114TCq2    H3 1748   4.513   3.217  17.636  0.4720 -1.4714  0.2238
  114TCq2    H4 1749   4.638   3.273   0.363 -0.0124 -0.3686 -0.3021
  115TMC2    C1 1750   1.026   0.776  17.611 -0.9129 -0.2657  0.1115
  115TMC2    C2 1751   1.158   0.797  17.634 -0.5885 -0.0614  0.1009
  115TMC2    C3 1752   1.199   0.926  17.630  0.0026 -0.6378 -0.5712
  115TMC2    C4 1753   0.945   0.875  17.576 -0.2865 -0.5078  0.3623
  115TMC2    C5 1754   0.996   1.002  17.564 -0.1065 -0.6149 -0.3174
  115TMC2    C6 1755   1.128   1.030  17.591 -0.0346  0.7627  0.0250
  115TMC2     C 1756   0.967   0.643  17.607 -0.6927 -0.3997 -0.1189
  115TMC2     O 1757   0.851   0.632  17.566  0.8578 -0.4243  0.0342
  115TMC2     H 1758   1.220   0.710  17.651  0.4112  0.5575 -0.3746
  115TMC2    H1 1759   0.839   0.851  17.574 -0.2444 -0.6387 -0.1397
  115TMC2    H2 1760   1.172   1.128  17.602 -1.5175  1.5003 -0.7056
  115TMC2    C7 1761   0.905   1.118  17.566  0.2168 -0.3794 -0.0881
  115TMC2    C8 1762   1.322   0.956   0.026  0.8780  0.3762 -0.6414
  115TMC2    O1 1763   0.796   1.097  17.622 -0.6943 -0.2451 -0.6399
  115TMC2    O2 1764   1.391   1.054   0.005  0.3791 -1.0690  0.1642
  115TMC2    O5 1765   1.344   0.865   0.120  0.3619  0.3557  0.0690
  115TMC2    H5 1766   1.253   0.840   0.147  0.1029  0.2044 -0.9451
  116MPD2     C 1767   0.953   0.138   0.055 -0.3857  0.4723 -0.2498
  116MPD2    C1 1768   0.861   0.231   0.005 -0.1264  0.2384 -0.3461
  116MPD2    C2 1769   0.892   0.360  17.649  0.6314  0.3096  0.5043
  116MPD2    C3 1770   1.009   0.410   0.009  0.0816 -0.8979 -0.3182
  116MPD2    C4 1771   1.101   0.324   0.057  0.0927 -0.2002 -0.0103
  116MPD2    C5 1772   1.072   0.193   0.089  0.6121  0.9422 -0.4005
  116MPD2     H 1773   0.817   0.416  17.594  1.0042  0.2977 -0.0207
  116MPD2    H1 1774   1.202   0.357   0.076 -0.1444 -0.0276  0.9675
  116MPD2    H2 1775   0.934   0.034   0.077 -0.4894  0.8000  1.2386
  116MPD2    H3 1776   1.145   0.131   0.138 -0.1696  1.6880  1.6943
  116MPD2     N 1777   1.047   0.546  17.665 -0.3112  0.2250  0.0265
  116MPD2    H5 1778   1.139   0.575   0.022 -0.0682  0.1986 -0.6967
  116MPD2    N1 1779   0.736   0.167  17.641 -0.3005 -0.5388 -0.2871
  116MPD2    H7 1780   0.736   0.066  17.642  1.7575 -0.5327  0.7799
  117TMC2    C1 1781   3.940   2.309  13.976 -0.6009  0.8799  0.5746
  117TMC2    C2 1782   3.983   2.204  14.059  0.1643 -0.1408 -0.6180
  117TMC2    C3 1783   4.111   2.207  14.106  0.0954  0.5553  0.0354
  117TMC2    C4 1784   4.029   2.402  13.930  0.2432  0.0248  0.4334
  117TMC2    C5 1785   4.161   2.382  13.961 -0.1591  0.3724  0.1697
  117TMC2    C6 1786   4.205   2.296  14.063 -0.2161  0.2454  0.2450
  117TMC2     C 1787   3.817   2.288  13.904  0.7608 -0.3462 -0.1506
  117TMC2     O 1788   3.763   2.176  13.907 -0.3259  0.0628  0.3520
  117TMC2     H 1789   3.922   2.116  14.075 -0.5468  0.5577  0.5683
  117TMC2    H1 1790   4.000   2.483  13.864  2.5630  0.1856 -0.3898
  117TMC2    H2 1791   4.306   2.301  14.103  0.0477 -0.9005 -0.2891
  117TMC2    C7 1792   4.264   2.480  13.924  0.4734 -0.1811 -0.1201
  117TMC2    C8 1793   4.139   2.105  14.205 -0.8174 -0.2665 -0.1854
  117TMC2    O1 1794   4.376   2.438  13.933 -0.0842  0.4369  0.4979
  117TMC2    O2 1795   4.251   2.095  14.257  0.1875  0.1683 -0.0189
  117TMC2    O5 1796   4.026   2.056  14.268  0.0584 -0.5312  0.0802
  117TMC2    H5 1797   3.941   2.082  14.229 -1.2732 -2.5265  1.6190
  118MPD2     C 1798   4.207   2.804  13.752  0.5056 -0.9639  0.6938
  118MPD2    C1 1799   4.282   2.703  13.815 -0.3209 -0.5462 -1.4351
  118MPD2    C2 1800   4.415   2.725  13.844  0.1319 -0.2880 -0.0976
  118MPD2    C3 1801   4.479   2.842  13.802 -0.1088  0.5685  0.1955
  118MPD2    C4 1802   4.403   2.938  13.735 -0.3613 -0.0802  0.5254
  118MPD2    C5 1803   4.269   2.918  13.713 -0.2170 -0.1067 -0.1034
  118MPD2     H 1804   4.473   2.647  13.891 -0.1143 -0.0249  0.6416
  118MPD2    H1 1805   4.443   3.031  13.698  1.0002  0.3036  2.9683
  118MPD2    H2 1806   4.099   2.792  13.745  0.5402 -0.2885 -1.0236
  118MPD2    H3 1807   4.224   2.993  13.649  0.5357 -0.2258 -0.7722
  118MPD2     N 1808   4.615   2.876  13.830  0.0046 -0.1503 -0.6810
  118MPD2    H5 1809   4.634   2.975  13.818 -1.5167  0.5029  2.3618
  118MPD2    N1 1810   4.213   2.590  13.859 -0.5378 -0.1905 -0.0009
  118MPD2    H7 1811   4.112   2.597  13.849 -0.6787 -2.8299 -0.5001
  119MPD2     C 1812   2.737   3.764  13.964  0.3553  0.1496 -0.1377
  119MPD2    C1 1813   2.603   3.760  13.935  0.4126  0.5920 -0.8305
  119MPD2    C2 1814   2.564   3.784  13.806 -0.0737  0.7444 -0.5232
  119MPD2    C3 1815   2.655   3.786  13.700  0.4590 -0.6892 -0.2701
  119MPD2    C4 1816   2.788   3.768  13.730  0.3712 -0.8018  0.6166
  119MPD2    C5 1817   2.832   3.774  13.867  0.3853  0.6899  0.1006
  119MPD2     H 1818   2.460   3.807  13.783  0.0404  0.5133 -1.2720
  119MPD2    H1 1819   2.864   3.758  13.653  1.0438 -0.1500  1.1942
  119MPD2    H2 1820   2.761   3.761  14.070  0.6906 -0.9041 -0.2528
  119MPD2    H3 1821   2.936   3.785  13.895  0.4457  2.8341 -0.9930
  119MPD2     N 1822   2.616   3.763  13.564 -0.2081 -0.6079  0.3637
  119MPD2    H5 1823   2.689   3.738  13.499 -1.3631 -0.5997 -0.9317
  119MPD2    N1 1824   2.512   3.739  14.048 -0.0760 -0.4024 -0.0257
  119MPD2    H7 1825   2.554   3.742  14.140 -0.1288  0.0980 -0.0173
  120TCq2    C1 1826   2.486   3.752  13.521 -0.0984  0.6929  0.0805
  120TCq2    O2 1827   2.377   3.769  13.570 -0.1011  0.3205 -0.7033
  120TCq2    C2 1828   2.477   3.692  13.387 -0.5295 -0.3092 -0.7410
  120TCq2    C3 1829   2.573   3.708  13.292 -0.1641  0.1954  0.3847
  120TCq2    C4 1830   2.555   3.658  13.169 -0.3848  0.4731  0.2356
  120TCq2    C5 1831   2.439   3.592  13.132 -0.3307  0.4308 -0.0408
  120TCq2    C6 1832   2.345   3.580  13.228  0.1415 -0.2619  0.3960
  120TCq2    C7 1833   2.357   3.629  13.358  0.2899  0.3826  0.3220
  120TCq2    C8 1834   2.205   3.538  13.195  0.0044  0.2703  0.2875
  120TCq2    O4 1835   2.186   3.528  13.073  0.1882 -0.3442  0.2668
  120TCq2    C9 1836   2.656   3.667  13.065 -0.0694  0.0754  0.1894
  120TCq2    O5 1837   2.652   3.581  12.971 -0.4262  0.4529 -0.0791
  120TCq2    O6 1838   2.751   3.745  13.090 -0.5155 -0.8124  0.2828
  120TCq2    H2 1839   2.666   3.762  13.304 -0.7428  1.2114  0.3220
  120TCq2    H3 1840   2.439   3.543  13.036  0.1949  0.3276  0.0118
  120TCq2    H4 1841   2.274   3.634  13.429  1.4028 -4.3790  1.9573
  121TMC2    C1 1842   3.559   0.455  13.724 -0.6680  0.3141 -0.2084
  121TMC2    C2 1843   3.642   0.351  13.696 -0.5227  1.1846  0.3761
  121TMC2    C3 1844   3.584   0.230  13.678  0.4497  0.4058 -0.1185
  121TMC2    C4 1845   3.424   0.439  13.749 -0.0077 -0.3116  0.5456
  121TMC2    C5 1846   3.371   0.314  13.732 -0.3903  0.1628  0.9055
  121TMC2    C6 1847   3.451   0.207  13.702 -0.0708  0.3101 -0.1817
  121TMC2     C 1848   3.628   0.584  13.749  0.5232 -0.6696  0.5223
  121TMC2     O 1849   3.609   0.644  13.855  0.2054  0.0180  0.4678
  121TMC2     H 1850   3.747   0.374  13.682 -0.6274  0.8586 -0.9296
  121TMC2    H1 1851   3.363   0.525  13.775  0.7858  0.0271  1.3218
  121TMC2    H2 1852   3.422   0.105  13.678  0.0408 -0.0331  1.1030
  121TMC2    C7 1853   3.229   0.297  13.702  0.0348 -0.3874  1.1802
  121TMC2    C8 1854   3.663   0.111  13.660 -0.6539 -0.1294  0.0034
  121TMC2    O1 1855   3.178   0.187  13.715  0.8343 -0.1043  0.1347
  121TMC2    O2 1856   3.633   0.000  13.704  0.0058 -0.8068  0.4861
  121TMC2    O5 1857   3.791   0.142  13.638  0.1027  0.1948  0.0195
  121TMC2    H5 1858   3.803   0.231  13.596 -0.0548 -0.7375 -2.0271
  122MPD2     C 1859   3.867   0.756  13.784 -0.0474 -0.0231  0.6934
  122MPD2    C1 1860   3.828   0.709  13.661 -0.3813  0.4658  0.1894
  122MPD2    C2 1861   3.907   0.722  13.553 -0.3303 -1.3371 -0.2882
  122MPD2    C3 1862   4.022   0.796  13.556 -0.1242 -0.2105  0.5108
  122MPD2    C4 1863   4.053   0.860  13.676  1.1205  0.3959  0.4208
  122MPD2    C5 1864   3.978   0.837  13.793  0.0949 -0.1502  0.0638
  122MPD2     H 1865   3.869   0.694  13.455 -0.9383  0.9873 -0.7234
  122MPD2    H1 1866   4.145   0.917  13.678  0.5370  1.2901  1.5495
  122MPD2    H2 1867   3.805   0.767  13.873 -2.9168 -0.0182 -1.3013
  122MPD2    H3 1868   4.005   0.895  13.880 -1.7523 -0.8654  1.1176
  122MPD2     N 1869   4.104   0.818  13.445 -0.1521 -0.7038 -0.3230
  122MPD2    H5 1870   4.191   0.868  13.458 -0.9768  0.1117  2.1693
  122MPD2    N1 1871   3.719   0.612  13.655 -0.7449  0.4211  0.2135
  122MPD2    H7 1872   3.716   0.555  13.572  2.7454 -0.4969  0.7179
  123MPD2     C 1873   2.033   3.401  10.176 -0.1170  0.3936  0.1598
  123MPD2    C1 1874   2.136   3.346  10.103 -0.0721  0.1592 -0.1047
  123MPD2    C2 1875   2.263   3.405  10.120 -0.5963  0.4181  0.2174
  123MPD2    C3 1876   2.281   3.512  10.202  0.2267 -0.9115  0.2909
  123MPD2    C4 1877   2.181   3.558  10.280  0.4190 -0.0794 -0.0850
  123MPD2    C5 1878   2.054   3.505  10.267 -0.4313 -0.0786 -0.1339
  123MPD2     H 1879   2.354   3.372  10.072 -0.3213  0.5711  0.6361
  123MPD2    H1 1880   2.201   3.633  10.355 -0.0835  0.5151 -0.5453
  123MPD2    H2 1881   1.931   3.367  10.164 -0.1081  0.6713 -0.6766
  123MPD2    H3 1882   1.971   3.546  10.324  1.7688  3.4480  0.5421
  123MPD2     N 1883   2.416   3.571  10.201  0.1415  0.6464 -0.1365
  123MPD2    H5 1884   2.485   3.515  10.153  0.6634 -0.4209  1.8622
  123MPD2    N1 1885   2.113   3.232  10.019 -0.1138 -0.5823  0.6997
  123MPD2    H7 1886   2.016   3.201  10.009 -0.6511  0.9015  1.3652
  124TCq2    C1 1887   2.441   3.701  10.238  0.0001 -0.6566 -0.2420
  124TCq2    O2 1888   2.362   3.787  10.279 -0.1582  0.3110  0.4149
  124TCq2    C2 1889   2.577   3.748  10.200 -0.0806 -0.1704 -0.6468
  124TCq2    C3 1890   2.587   3.885  10.219 -0.7165  0.1005 -0.3287
  124TCq2    C4 1891   2.661   3.965  10.135 -0.0327  0.3585  0.3464
  124TCq2    C5 1892   2.715   3.901  10.026 -0.2295  0.3717 -0.2000
  124TCq2    C6 1893   2.713   3.767  10.006 -0.2239  0.1621 -0.1392
  124TCq2    C7 1894   2.648   3.687  10.099  0.8801 -0.4319 -0.3185
  124TCq2    C8 1895   2.743   3.709   9.875  0.7684  0.0485 -0.6643
  124TCq2    O4 1896   2.765   3.587   9.881  0.1029  0.1484 -0.1632
  124TCq2    C9 1897   2.685   4.093  10.168  0.2606 -0.0693 -0.3615
  124TCq2    O5 1898   2.761   4.164  10.093  0.3017  0.2749 -0.6728
  124TCq2    O6 1899   2.623   4.133  10.269  0.1263 -0.7568  0.7463
  124TCq2    H2 1900   2.540   3.923  10.309  1.0000 -0.9946  1.0250
  124TCq2    H3 1901   2.770   3.961   9.955  1.4888 -0.6528  0.2745
  124TCq2    H4 1902   2.636   3.581  10.081  2.9361 -0.6739 -0.2139
  125TMC2    C1 1903   2.910   0.040   8.660  0.0598  1.1525 -0.3005
  125TMC2    C2 1904   2.841   0.061   8.550  0.4585 -0.3380 -0.3771
  125TMC2    C3 1905   2.838   0.182   8.501 -0.5963 -0.1388 -0.3825
  125TMC2    C4 1906   2.974   0.141   8.728  0.5603 -0.3574  0.3786
  125TMC2    C5 1907   2.959   0.264   8.679  0.0181 -0.1668  0.8381
  125TMC2    C6 1908   2.905   0.287   8.554 -0.1131 -0.2711  0.6104
  125TMC2     C 1909   2.937   4.618   8.686 -0.8359 -0.4725  0.0825
  125TMC2     O 1910   2.884   4.535   8.614  0.1007  0.1971 -0.4338
  125TMC2     H 1911   2.798   4.693   8.498  0.4502  0.4561 -1.6831
  125TMC2    H1 1912   3.027   0.121   8.821 -0.1192  0.9199  1.0309
  125TMC2    H2 1913   2.912   0.389   8.518  0.8313 -0.3487  0.5643
  125TMC2    C7 1914   3.026   0.370   8.751 -0.5858  0.0272 -0.1044
  125TMC2    C8 1915   2.736   0.214   8.396  0.6247  0.2765  0.4056
  125TMC2    O1 1916   2.992   0.486   8.733 -0.1610 -0.0028  0.3670
  125TMC2    O2 1917   2.687   0.320   8.369  0.6954  0.3688 -0.5534
  125TMC2    O5 1918   2.734   0.116   8.304 -0.2638 -0.1157  0.2708
  125TMC2    H5 1919   2.795   0.043   8.327 -0.1865 -0.1620 -0.0838
  126MPD1     C 1920   3.188   4.236   8.950 -0.3716  0.2005  0.3699
  126MPD1    C1 1921   3.257   4.356   8.958 -0.5800  0.0486  0.1753
  126MPD1    C2 1922   3.188   4.465   8.908  0.1787 -0.1362 -0.2056
  126MPD1    C3 1923   3.074   4.467   8.830 -0.3546  0.6497 -0.5034
  126MPD1    C4 1924   3.011   4.349   8.820 -0.1534  0.1248 -0.3267
  126MPD1    C5 1925   3.067   4.236   8.880  0.4987  0.2736 -0.1755
  126MPD1     H 1926   3.235   4.562   8.908 -1.0066  0.4415  0.4806
  126MPD1    H1 1927   2.916   4.338   8.769  0.1316 -1.4084 -0.5395
  126MPD1    H2 1928   3.219   4.138   8.984  0.1591  0.2145 -0.0756
  126MPD1    H3 1929   3.005   4.148   8.886  0.3430  0.4399  0.6213
  126MPD1     N 1930   3.029   4.597   8.786  0.3717  0.0739  0.4184
  126MPD1    H5 1931   3.084   4.677   8.815  2.4122 -0.9074 -0.7984
  126MPD1    N1 1932   3.373   4.365   9.031 -0.0043  0.2586 -0.2451
  126MPD1    H6 1933   3.430   4.442   8.995  1.6796 -0.9370 -0.1330
  126MPD1    H7 1934   3.431   4.281   9.023  1.1759  1.1318 -0.8868
  127MPD2     C 1935   4.564   3.748   9.258 -0.2355  0.9463 -0.0569
  127MPD2    C1 1936   4.540   3.782   9.390  0.0669 -0.0098  0.0215
  127MPD2    C2 1937   4.559   3.911   9.439 -0.4754  0.5381 -0.7222
  127MPD2    C3 1938   4.573   4.015   9.344 -0.0933 -0.2857  0.3481
  127MPD2    C4 1939   4.595   3.977   9.209 -0.3392  0.9315 -0.4517
  127MPD2    C5 1940   4.594   3.845   9.165  0.0355 -0.4679 -0.8220
  127MPD2     H 1941   4.545   3.941   9.542 -0.0732  1.3032 -0.8935
  127MPD2    H1 1942   4.648   4.046   9.145  0.3811  0.8609  0.0741
  127MPD2    H2 1943   4.560   3.647   9.219 -0.2997  1.0509 -0.3222
  127MPD2    H3 1944   4.633   3.817   9.068  0.9356  3.3006 -1.5207
  127MPD2     N 1945   4.599   4.140   9.402  0.8583 -0.5283 -0.1367
  127MPD2    H5 1946   4.592   4.143   9.503  0.2889  0.1654 -0.1923
  127MPD2    N1 1947   4.519   3.682   9.486  0.2920 -0.2852  0.1393
  127MPD2    H7 1948   4.509   3.586   9.453 -1.2824 -0.1042  0.0881
  128TCq2    C1 1949   4.512   3.685   9.624  0.2853 -0.3012  0.4664
  128TCq2    O2 1950   4.546   3.779   9.697  0.0925  0.0986  0.2751
  128TCq2    C2 1951   4.425   3.579   9.668 -1.7145 -0.0892 -0.4025
  128TCq2    C3 1952   4.432   3.552   9.803 -0.3449  0.1776 -0.4640
  128TCq2    C4 1953   4.362   3.446   9.851 -0.2575  0.3961  0.4860
  128TCq2    C5 1954   4.289   3.365   9.771  0.1666 -0.6673 -0.1441
  128TCq2    C6 1955   4.273   3.403   9.642 -0.2150  1.1642  0.3407
  128TCq2    C7 1956   4.339   3.507   9.586 -0.0572 -0.0574  0.3076
  128TCq2    C8 1957   4.182   3.328   9.552 -0.4810 -0.2323 -0.3350
  128TCq2    O4 1958   4.206   3.344   9.431 -0.0458 -0.1368  0.2122
  128TCq2    C9 1959   4.381   3.421   9.991  0.1745 -0.1694 -0.5027
  128TCq2    O5 1960   4.324   3.327  10.053  0.3708 -0.3817 -0.0288
  128TCq2    O6 1961   4.441   3.504  10.061 -0.2018 -0.4217  0.5291
  128TCq2    H2 1962   4.500   3.606   9.868 -0.0061 -0.6932 -0.1020
  128TCq2    H3 1963   4.238   3.280   9.815  1.2574 -2.3939 -2.2373
  128TCq2    H4 1964   4.327   3.527   9.481 -2.3798 -0.5818  0.4798
  129MPD2     C 1965   1.748   0.773   1.773 -0.6981 -0.1399 -0.3430
  129MPD2    C1 1966   1.856   0.695   1.740 -0.0262 -0.4540 -0.2380
  129MPD2    C2 1967   1.926   0.720   1.619 -0.0112 -0.9606  0.3343
  129MPD2    C3 1968   1.885   0.827   1.533  0.7121 -0.3765  0.0388
  129MPD2    C4 1969   1.784   0.909   1.579 -0.2995  0.1995  0.4684
  129MPD2    C5 1970   1.709   0.874   1.692 -0.8025 -0.2866  0.5181
  129MPD2     H 1971   2.010   0.660   1.584  1.0799 -0.8344  2.7758
  129MPD2    H1 1972   1.755   0.996   1.521 -2.5233 -0.4361  0.6301
  129MPD2    H2 1973   1.691   0.756   1.864 -1.6288 -1.7631 -1.2373
  129MPD2    H3 1974   1.626   0.935   1.724 -0.6908  0.7484 -1.1584
  129MPD2     N 1975   1.967   0.852   1.419 -0.3776  0.3570  0.2251
  129MPD2    H5 1976   2.040   0.784   1.400 -0.3798 -0.5514  3.5164
  129MPD2    N1 1977   1.905   0.595   1.822 -0.0796 -0.9226 -0.8654
  129MPD2    H7 1978   1.988   0.549   1.786  2.2658  1.7287  1.1228
  130TCq2    C1 1979   1.860   0.560   1.945 -0.1208 -0.3066 -0.6523
  130TCq2    O2 1980   1.781   0.611   2.022 -0.0569 -0.3697  0.5586
  130TCq2    C2 1981   1.913   0.438   1.997 -0.0881  0.2492 -0.1042
  130TCq2    C3 1982   1.877   0.400   2.128 -1.2074 -0.2039  0.7192
  130TCq2    C4 1983   1.911   0.274   2.164 -0.4352  0.3895  0.0620
  130TCq2    C5 1984   1.974   0.180   2.081  0.6019 -0.4432  0.0738
  130TCq2    C6 1985   2.001   0.228   1.956  0.3020 -0.6268 -0.0587
  130TCq2    C7 1986   1.971   0.352   1.908  0.5209  0.1405 -0.1146
  130TCq2    C8 1987   2.051   0.125   1.857  0.8563 -0.0225  0.0970
  130TCq2    O4 1988   2.051   0.152   1.733  0.0033  0.0913 -0.3701
  130TCq2    C9 1989   1.874   0.236   2.299  0.6945  0.3027 -0.2246
  130TCq2    O5 1990   1.881   0.325   2.386 -0.0880  0.0323  0.2039
  130TCq2    O6 1991   1.876   0.115   2.332  0.0977  0.6465  0.1229
  130TCq2    H2 1992   1.807   0.460   2.186 -0.6639  0.1432  1.0173
  130TCq2    H3 1993   1.973   0.075   2.109  2.0200 -0.5011 -0.1133
  130TCq2    H4 1994   2.016   0.379   1.813  0.2245 -0.7417 -0.5064
  131MPD2     C 1995   2.081   3.209   9.053  0.6325 -0.6630 -0.1832
  131MPD2    C1 1996   2.176   3.281   9.131 -0.0172  0.7770 -0.1903
  131MPD2    C2 1997   2.199   3.243   9.268 -0.0752 -0.2969  0.3948
  131MPD2    C3 1998   2.138   3.126   9.307 -0.2983  0.1181 -0.0376
  131MPD2    C4 1999   2.054   3.047   9.227 -0.1534 -0.0294  0.3472
  131MPD2    C5 2000   2.021   3.096   9.099 -1.0867  0.4374 -0.8921
  131MPD2     H 2001   2.265   3.300   9.333  0.3885 -2.2546  1.6384
  131MPD2    H1 2002   1.978   2.984   9.271 -1.5702  1.4872  0.0291
  131MPD2    H2 2003   2.054   3.247   8.955 -0.9712 -2.0960 -0.2853
  131MPD2    H3 2004   1.941   3.050   9.043  0.6072 -0.5524 -2.5205
  131MPD2     N 2005   2.149   3.091   9.444 -0.3742 -0.9071 -0.2607
  131MPD2    H5 2006   2.192   3.165   9.499  2.7384 -0.2708 -3.5538
  131MPD2    N1 2007   2.244   3.386   9.067 -0.8139  0.3730 -0.3441
  131MPD2    H7 2008   2.214   3.404   8.972 -0.8956  0.0080 -0.3851
  132TCq2    C1 2009   2.717   3.730   9.054  0.1542 -0.2226  0.7391
  132TCq2    O2 2010   2.776   3.644   9.120  0.3792  0.6454 -0.1827
  132TCq2    C2 2011   2.589   3.687   8.996  0.0533  0.4150 -0.5306
  132TCq2    C3 2012   2.519   3.772   8.924 -0.5968  0.1037 -0.4580
  132TCq2    C4 2013   2.387   3.745   8.892 -0.2665 -0.0704 -0.1220
  132TCq2    C5 2014   2.324   3.636   8.943 -0.7014 -0.0900 -0.4180
  132TCq2    C6 2015   2.402   3.548   9.017 -0.4864 -0.3163 -0.2756
  132TCq2    C7 2016   2.534   3.573   9.047  0.4758  0.1660  0.2702
  132TCq2    C8 2017   2.339   3.468   9.120  0.8563  0.0254 -0.6181
  132TCq2    O4 2018   2.376   3.470   9.233 -0.1723  0.0163  0.4755
  132TCq2    C9 2019   2.311   3.826   8.794  0.0275  0.6764  0.0785
  132TCq2    O5 2020   2.186   3.827   8.817 -0.0690  0.1390 -0.6915
  132TCq2    O6 2021   2.370   3.924   8.741  0.1690 -0.6116  0.0490
  132TCq2    H2 2022   2.560   3.863   8.880 -0.3453 -0.7990 -2.0730
  132TCq2    H3 2023   2.216   3.633   8.935 -0.6349 -0.0992 -1.2768
  132TCq2    H4 2024   2.590   3.506   9.112  1.2268  0.2108 -0.3383
  133MPD2     C 2025   0.995   0.066   9.409 -0.6539  0.0690  0.3886
  133MPD2    C1 2026   1.119   0.011   9.438 -1.0185  0.3982  0.5318
  133MPD2    C2 2027   1.150   4.599   9.407 -0.5845  0.4086 -0.5314
  133MPD2    C3 2028   1.058   4.519   9.343  0.9304  0.2522  0.5295
  133MPD2    C4 2029   0.938   4.574   9.304  0.2018  1.1195 -0.7112
  133MPD2    C5 2030   0.904   4.705   9.335  0.2165  0.6664  0.1429
  133MPD2     H 2031   1.247   4.561   9.438 -0.3380  1.6679  0.2594
  133MPD2    H1 2032   0.871   4.510   9.250 -0.0203  2.1628 -1.6688
  133MPD2    H2 2033   0.961   0.163   9.442  0.8915  0.9764 -0.6969
  133MPD2    H3 2034   0.808   0.024   9.300  0.0199 -2.4438 -2.6202
  133MPD2     N 2035   1.081   4.389   9.302  0.0948 -0.0731  0.3009
  133MPD2    H5 2036   1.003   4.341   9.260  0.6674 -0.0038 -0.8230
  133MPD2    N1 2037   1.198   0.090   9.531 -0.1115  0.3433 -0.3415
  133MPD2    H7 2038   1.171   0.187   9.541 -0.9346  0.1489 -0.6638
  134TCq2    C1 2039   1.312   0.051   9.600  0.4538  0.0357 -0.9067
  134TCq2    O2 2040   1.372   4.659   9.611  0.5920 -0.1336  0.3529
  134TCq2    C2 2041   1.380   0.161   9.667 -0.4876 -0.4847  0.0574
  134TCq2    C3 2042   1.317   0.285   9.681  0.3132  0.4646 -0.2621
  134TCq2    C4 2043   1.393   0.387   9.731  0.2284 -0.3590 -0.4203
  134TCq2    C5 2044   1.525   0.370   9.757  0.4077 -1.1883  0.2055
  134TCq2    C6 2045   1.584   0.247   9.748  0.3400 -0.8553  0.3667
  134TCq2    C7 2046   1.512   0.141   9.706 -0.3982  0.0128  0.2760
  134TCq2    C8 2047   1.728   0.236   9.762  0.2975 -0.2729 -0.4244
  134TCq2    O4 2048   1.791   0.317   9.834  0.4820  0.7016  0.6652
  134TCq2    C9 2049   1.345   0.519   9.738 -1.0142 -0.0721  0.0007
  134TCq2    O5 2050   1.241   0.535   9.674  0.7096  0.2216 -0.1750
  134TCq2    O6 2051   1.432   0.607   9.757  0.0267  0.0078 -0.1903
  134TCq2    H2 2052   1.210   0.295   9.671  0.3055 -0.4782 -1.0846
  134TCq2    H3 2053   1.587   0.450   9.796  0.6549 -1.0300 -0.5227
  134TCq2    H4 2054   1.551   0.040   9.698  0.4710  0.3344  0.5666
  135MPD2     C 2055   3.408   1.044   9.106 -0.0532 -0.5846  0.2637
  135MPD2    C1 2056   3.445   0.916   9.133  0.2830  0.8306  0.0246
  135MPD2    C2 2057   3.564   0.874   9.080  0.2456  0.0141  0.2809
  135MPD2    C3 2058   3.634   0.945   8.987  0.3532 -0.2833 -0.7016
  135MPD2    C4 2059   3.596   1.072   8.960  0.2028  0.2759 -0.6734
  135MPD2    C5 2060   3.485   1.118   9.023 -0.6177 -0.0208  0.1282
  135MPD2     H 2061   3.600   0.774   9.099  0.5503  0.4948  2.2208
  135MPD2    H1 2062   3.646   1.143   8.896 -1.6455  0.0771 -2.3427
  135MPD2    H2 2063   3.318   1.091   9.143 -0.1956  0.2104 -1.0756
  135MPD2    H3 2064   3.455   1.216   8.988 -0.6565  0.4829  1.5918
  135MPD2     N 2065   3.751   0.899   8.920 -0.1808  0.3961  0.0619
  135MPD2    H5 2066   3.797   0.967   8.860 -2.7310  0.4381 -1.8501
  135MPD2    N1 2067   3.388   0.840   9.232 -0.0077 -0.4258 -0.3385
  135MPD2    H7 2068   3.434   0.755   9.261 -1.3059 -0.7368  0.8067
  136TCq2    C1 2069   3.271   0.873   9.305 -0.8794  0.1113 -0.1414
  136TCq2    O2 2070   3.199   0.969   9.287  0.6714  0.0514  0.1387
  136TCq2    C2 2071   3.220   0.772   9.393  0.1947  1.2282  0.0945
  136TCq2    C3 2072   3.091   0.796   9.428 -1.2283 -0.6390 -0.3745
  136TCq2    C4 2073   3.044   0.752   9.545  0.5672 -0.1087  0.2279
  136TCq2    C5 2074   3.119   0.677   9.624 -0.0269 -0.5171  0.0840
  136TCq2    C6 2075   3.253   0.660   9.593 -0.2578  0.2234  0.0607
  136TCq2    C7 2076   3.304   0.711   9.480 -0.4570  0.5794 -0.2258
  136TCq2    C8 2077   3.332   0.592   9.685 -0.2570 -0.1283 -0.3159
  136TCq2    O4 2078   3.455   0.603   9.675  0.1057 -0.7227  0.3350
  136TCq2    C9 2079   2.908   0.776   9.597  0.5299 -0.4879 -0.0573
  136TCq2    O5 2080   2.853   0.699   9.683 -0.1751  0.0825  0.1638
  136TCq2    O6 2081   2.846   0.869   9.538 -0.0052  0.9152  0.5273
  136TCq2    H2 2082   3.031   0.854   9.359  3.4795  3.7792 -0.7330
  136TCq2    H3 2083   3.089   0.644   9.723  1.4608  2.3905  1.4729
  136TCq2    H4 2084   3.412   0.712   9.468 -0.4841  1.2260 -0.4015
  137MPD2     C 2085   3.902   4.002   9.169 -0.2163 -0.0715  0.2028
  137MPD2    C1 2086   3.872   4.113   9.245 -0.1404 -0.2033 -0.0664
  137MPD2    C2 2087   3.841   4.078   9.381  0.9365  0.5991 -0.4924
  137MPD2    C3 2088   3.818   3.949   9.430  0.6425 -0.2413  1.2333
  137MPD2    C4 2089   3.837   3.842   9.345 -0.2898  0.4878  0.3310
  137MPD2    C5 2090   3.885   3.870   9.217 -1.0472  0.0484 -0.4483
  137MPD2     H 2091   3.804   4.156   9.446  1.4043 -0.8425  1.5004
  137MPD2    H1 2092   3.817   3.742   9.380 -0.3113  1.2346  2.4428
  137MPD2    H2 2093   3.942   4.020   9.070 -2.8992 -0.2111 -0.8938
  137MPD2    H3 2094   3.919   3.791   9.150  0.1328 -0.2637  0.5257
  137MPD2     N 2095   3.762   3.937   9.558  0.2103  0.1776  0.2828
  137MPD2    H5 2096   3.769   4.016   9.621  0.8635 -0.0908  0.5520
  137MPD2    N1 2097   3.904   4.244   9.199  0.5327  0.5455  0.2963
  137MPD2    H7 2098   3.949   4.254   9.109 -1.2790  2.2504 -0.4276
  138TCq2    C1 2099   3.865   4.364   9.268 -0.0106 -0.0593 -0.4332
  138TCq2    O2 2100   3.791   4.374   9.361 -0.3286 -0.0617 -0.0177
  138TCq2    C2 2101   3.896   4.479   9.187 -0.0430  0.0396  0.6689
  138TCq2    C3 2102   3.999   4.492   9.096  0.2296  0.4936  0.4610
  138TCq2    C4 2103   4.029   4.616   9.051  0.1262 -0.3049 -0.0075
  138TCq2    C5 2104   3.950   0.001   9.079  0.3173 -0.2837  0.1163
  138TCq2    C6 2105   3.840   4.704   9.160 -0.2751  0.1104  0.5179
  138TCq2    C7 2106   3.819   4.588   9.223  0.5706  0.0624  0.4684
  138TCq2    C8 2107   3.746   0.092   9.183  0.2146  0.0074  0.5504
  138TCq2    O4 2108   3.799   0.196   9.216 -0.2965 -0.0017  0.0476
  138TCq2    C9 2109   4.150   4.630   8.968 -0.0820  0.1384 -0.7788
  138TCq2    O5 2110   4.181   0.029   8.922 -1.0829 -0.8230  0.2867
  138TCq2    O6 2111   4.192   4.527   8.915  0.2102 -0.5500  0.2346
  138TCq2    H2 2112   4.065   4.408   9.076 -2.0916 -1.5351  1.4549
  138TCq2    H3 2113   3.985   0.095   9.037 -0.7501  0.6180  1.2355
  138TCq2    H4 2114   3.737   4.580   9.294  2.0237 -0.7126  2.0556
  139TMC2    C1 2115   3.929   3.310  13.010 -0.2139 -0.5111  0.0324
  139TMC2    C2 2116   3.907   3.318  12.876  0.6238 -0.2022  0.0499
  139TMC2    C3 2117   3.814   3.403  12.832  0.4415  0.6116  0.3431
  139TMC2    C4 2118   3.849   3.370  13.102  0.7526  0.6207 -0.4061
  139TMC2    C5 2119   3.748   3.452  13.050 -0.1584 -0.1328 -0.0023
  139TMC2    C6 2120   3.723   3.466  12.916 -0.0820  0.1315 -0.1868
  139TMC2     C 2121   4.038   3.220  13.049  0.3786  0.4439 -0.2950
  139TMC2     O 2122   4.112   3.188  12.959  0.0802 -0.4647 -0.6626
  139TMC2     H 2123   3.954   3.256  12.800 -0.3238 -0.7366 -0.1001
  139TMC2    H1 2124   3.860   3.351  13.208 -0.0367  2.2224 -0.0371
  139TMC2    H2 2125   3.647   3.531  12.875 -1.3168  1.0881  3.6757
  139TMC2    C7 2126   3.679   3.533  13.153 -0.4737  0.3046  0.4849
  139TMC2    C8 2127   3.784   3.431  12.688  0.0746 -0.6274 -0.7100
  139TMC2    O1 2128   3.560   3.564  13.137  0.2602  0.4953  0.0346
  139TMC2    O2 2129   3.666   3.436  12.654 -0.7198 -0.0756 -0.6599
  139TMC2    O5 2130   3.887   3.386  12.619  0.2486 -0.0164 -0.3938
  139TMC2    H5 2131   3.978   3.405  12.652  0.4268  0.6913 -1.2700
  140MPD2     C 2132   4.057   2.996  13.326 -0.3687 -0.3139  0.4891
  140MPD2    C1 2133   4.108   3.068  13.226 -1.0466  0.1861  0.2896
  140MPD2    C2 2134   4.234   3.027  13.173 -0.2087 -0.5164 -0.5984
  140MPD2    C3 2135   4.307   2.919  13.217  0.2948  0.0009  0.1439
  140MPD2    C4 2136   4.248   2.851  13.322 -0.2578 -0.0258  0.5413
  140MPD2    C5 2137   4.130   2.892  13.373 -0.8747  0.6935 -0.0126
  140MPD2     H 2138   4.275   3.091  13.096 -1.2806 -0.0459 -0.7770
  140MPD2    H1 2139   4.296   2.769  13.374 -2.5136 -1.2785  0.6696
  140MPD2    H2 2140   3.963   3.021  13.374 -1.7212 -0.2059 -2.2185
  140MPD2    H3 2141   4.080   2.836  13.452 -1.6176  1.9410  0.3941
  140MPD2     N 2142   4.435   2.885  13.171 -0.1480  0.0405  0.6541
  140MPD2    H5 2143   4.484   2.961  13.124  0.3054 -0.7199 -0.1037
  140MPD2    N1 2144   4.024   3.171  13.174  0.0277  0.4418 -0.5199
  140MPD2    H7 2145   3.935   3.189  13.219 -0.9067 -1.8236 -1.4393
  141TCq2    C1 2146   4.412   0.639  14.337 -0.7213 -0.3893 -0.2501
  141TCq2    O2 2147   4.520   0.612  14.288  0.4975 -0.5602  0.4030
  141TCq2    C2 2148   4.407   0.769  14.405 -0.1803 -1.0115  0.0983
  141TCq2    C3 2149   4.297   0.841  14.416 -0.5953  0.0294  0.0869
  141TCq2    C4 2150   4.289   0.935  14.521  0.0528 -0.3032  0.4680
  141TCq2    C5 2151   4.398   0.961  14.601  0.1837  0.4020 -1.1669
  141TCq2    C6 2152   4.519   0.899  14.572  0.6237  0.7413  0.2705
  141TCq2    C7 2153   4.522   0.802  14.477 -0.8005  0.0251 -0.1962
  141TCq2    C8 2154   4.640   0.956  14.633 -0.0183 -0.3759  0.3564
  141TCq2    O4 2155   4.633   1.078  14.664  0.7549  0.0712  0.0035
  141TCq2    C9 2156   4.171   1.003  14.553  0.1839 -0.3063  0.1741
  141TCq2    O5 2157   4.157   1.032  14.670  0.0458 -0.0541  0.4648
  141TCq2    O6 2158   4.083   0.993  14.462 -0.4350  0.1058 -0.3635
  141TCq2    H2 2159   4.210   0.823  14.354  0.5918 -1.9560 -1.0198
  141TCq2    H3 2160   4.384   1.036  14.679  2.1538 -0.7415  0.2930
  141TCq2    H4 2161   4.613   0.748  14.452 -0.5259  0.6763 -0.6128
  142MPD2     C 2162   2.258   2.620   9.849  0.0579  0.2901 -0.3009
  142MPD2    C1 2163   2.227   2.604   9.717  0.3080  0.6587  1.0238
  142MPD2    C2 2164   2.298   2.681   9.618 -0.6793 -0.1191 -0.1093
  142MPD2    C3 2165   2.402   2.766   9.659  0.2329 -0.0837 -0.1656
  142MPD2    C4 2166   2.434   2.765   9.790  0.6336  0.1304 -0.9681
  142MPD2    C5 2167   2.357   2.700   9.886 -0.4399 -0.6137 -0.1468
  142MPD2     H 2168   2.269   2.678   9.513  0.5119  2.4734 -0.4953
  142MPD2    H1 2169   2.509   2.836   9.820  0.0431  1.0862 -1.7285
  142MPD2    H2 2170   2.204   2.564   9.925  2.2190  0.0130  1.0211
  142MPD2    H3 2171   2.385   2.714   9.990 -2.3913 -0.2215  0.3134
  142MPD2     N 2172   2.462   2.866   9.583  0.1211  0.0805  0.5260
  142MPD2    H5 2173   2.528   2.926   9.630  0.9894 -0.3554 -0.1391
  142MPD2    N1 2174   2.122   2.513   9.688  0.0313  0.3662 -0.5574
  142MPD2    H7 2175   2.071   2.477   9.768  1.7896 -1.6326 -0.3257
  143TCq2    C1 2176   2.442   2.881   9.446  0.1755 -0.0123  0.7507
  143TCq2    O2 2177   2.380   2.813   9.362 -0.1434 -0.1335  0.7366
  143TCq2    C2 2178   2.497   3.005   9.392 -1.1235 -0.7332 -0.1083
  143TCq2    C3 2179   2.497   3.018   9.254  0.6609  0.7853  0.9427
  143TCq2    C4 2180   2.530   3.139   9.198  0.1723  0.6776  0.0398
  143TCq2    C5 2181   2.573   3.244   9.276  0.2787  0.1985  0.7243
  143TCq2    C6 2182   2.566   3.233   9.416 -0.6604 -0.1076  0.4457
  143TCq2    C7 2183   2.514   3.120   9.476 -0.1282  0.0443 -0.0063
  143TCq2    C8 2184   2.595   3.345   9.502 -0.2814 -0.0920 -0.1770
  143TCq2    O4 2185   2.639   3.316   9.610 -0.2281  0.2530  0.1899
  143TCq2    C9 2186   2.546   3.131   9.053 -0.3354 -0.3963 -0.8443
  143TCq2    O5 2187   2.602   3.233   9.011  0.0703 -0.3089 -0.2592
  143TCq2    O6 2188   2.529   3.021   8.999  0.0089 -0.0980  1.0378
  143TCq2    H2 2189   2.474   2.933   9.190 -1.3849  1.2052  1.1285
  143TCq2    H3 2190   2.614   3.329   9.223  0.3560 -0.6206 -0.5187
  143TCq2    H4 2191   2.515   3.115   9.584  1.2349  0.0760 -0.0234
  144MPD2     C 2192   4.426   2.411   0.668 -0.0579  0.2495  0.0597
  144MPD2    C1 2193   4.468   2.320   0.571  0.6889  0.1616 -0.1186
  144MPD2    C2 2194   4.600   2.320   0.526 -0.0657 -1.1705  0.1283
  144MPD2    C3 2195   4.686   2.410   0.577 -0.1309  1.3754 -0.2437
  144MPD2    C4 2196   4.647   2.504   0.675  0.1668 -0.9097  0.3406
  144MPD2    C5 2197   4.510   2.510   0.717  0.3993  0.1938 -0.3257
  144MPD2     H 2198   4.641   2.247   0.458 -1.8612  0.5344 -2.7835
  144MPD2    H1 2199   0.004   2.573   0.713  1.2506 -1.9028  0.0290
  144MPD2    H2 2200   4.324   2.416   0.704 -1.5420  2.0544 -4.3797
  144MPD2    H3 2201   4.477   2.591   0.781 -0.7238  0.9119 -1.8185
  144MPD2     N 2202   0.102   2.426   0.528 -0.2265  0.1564 -0.4929
  144MPD2    H5 2203   0.151   2.500   0.578  1.4108 -0.1784 -1.6148
  144MPD2    N1 2204   4.381   2.233   0.504 -0.8857  0.9535 -0.0640
  144MPD2    H7 2205   4.428   2.163   0.447 -2.2572  2.3745 -2.9380
  145TCq2    C1 2206   0.169   2.354   0.434  0.0176 -0.6094  0.5041
  145TCq2    O2 2207   0.133   2.254   0.369 -0.0968 -0.2175 -0.7995
  145TCq2    C2 2208   0.299   2.406   0.398  0.5946  0.4953 -0.1646
  145TCq2    C3 2209   0.362   2.350   0.289  0.4966 -0.1234 -0.3632
  145TCq2    C4 2210   0.485   2.391   0.258 -0.3521  0.0784 -0.2216
  145TCq2    C5 2211   0.541   2.497   0.328 -0.3559  0.1735  0.1306
  145TCq2    C6 2212   0.478   2.553   0.436  0.7081 -0.0550 -0.0315
  145TCq2    C7 2213   0.355   2.507   0.477  0.2262  0.5456  0.1508
  145TCq2    C8 2214   0.565   2.630   0.525  0.2000  1.0032 -0.2465
  145TCq2    O4 2215   0.684   2.604   0.499 -0.8193 -0.4368 -0.5812
  145TCq2    C9 2216   0.552   2.305   0.161 -0.1071 -0.6740  1.0407
  145TCq2    O5 2217   0.663   2.348   0.119  0.2061 -0.3561  0.1605
  145TCq2    O6 2218   0.501   2.192   0.133  0.0830  0.3015  0.5278
  145TCq2    H2 2219   0.318   2.281   0.218 -0.8019  3.1604 -2.7643
  145TCq2    H3 2220   0.645   2.513   0.301  0.1839 -2.4307  0.6559
  145TCq2    H4 2221   0.316   2.537   0.574  2.7079 -1.0913  1.6387
  146TMC2    C1 2222   0.893   0.729  12.135 -0.2395  0.1083  0.0980
  146TMC2    C2 2223   0.881   0.752  11.998  0.2824  0.4599 -0.0781
  146TMC2    C3 2224   0.812   0.663  11.925  0.0638 -0.0148  0.6500
  146TMC2    C4 2225   0.840   0.610  12.193  0.2366 -0.8952  0.2163
  146TMC2    C5 2226   0.785   0.519  12.104  0.3330 -0.8626  0.3697
  146TMC2    C6 2227   0.740   0.559  11.981  0.1587  0.2322  0.4923
  146TMC2     C 2228   0.956   0.833  12.220 -0.8491 -0.3117 -0.9196
  146TMC2     O 2229   0.969   0.946  12.175 -0.2874  0.1729 -0.4867
  146TMC2     H 2230   0.922   0.841  11.952 -0.4122  0.7417 -0.1501
  146TMC2    H1 2231   0.849   0.585  12.298  0.3356 -1.6893  0.0181
  146TMC2    H2 2232   0.671   0.506  11.917  1.8024  1.2962 -2.1737
  146TMC2    C7 2233   0.751   0.386  12.144 -0.1687  0.4343 -0.1616
  146TMC2    C8 2234   0.793   0.716  11.790 -0.4586  0.1583 -0.1657
  146TMC2    O1 2235   0.659   0.321  12.096  0.3688  0.4625 -0.2869
  146TMC2    O2 2236   0.810   0.838  11.774 -0.0250  0.1005  0.0613
  146TMC2    O5 2237   0.720   0.639  11.701 -0.8091 -0.4234 -0.3780
  146TMC2    H5 2238   0.726   0.542  11.709  1.3892 -0.3160 -0.6923
  147MPD2     C 2239   0.907   4.680  12.405 -0.4910  0.3385 -0.3263
  147MPD2    C1 2240   0.992   0.074  12.438 -0.3841  0.3221  0.1993
  147MPD2    C2 2241   0.960   0.194  12.371  0.0760 -0.3555  0.5992
  147MPD2    C3 2242   0.850   0.207  12.292  0.6413  0.4525  0.3467
  147MPD2    C4 2243   0.774   0.102  12.265 -0.0674 -0.8964 -0.5983
  147MPD2    C5 2244   0.808   4.701  12.321  0.0254 -0.2879 -0.4987
  147MPD2     H 2245   1.020   0.283  12.389  2.1186 -1.9454  1.7731
  147MPD2    H1 2246   0.686   0.103  12.202  0.4419  2.1518 -1.2501
  147MPD2    H2 2247   0.919   4.581  12.449  0.0188  0.1266 -0.9418
  147MPD2    H3 2248   0.738   4.620  12.305 -0.6203  0.3683 -0.9637
  147MPD2     N 2249   0.846   0.335  12.234  0.6377  0.0906 -0.0618
  147MPD2    H5 2250   0.923   0.396  12.260  0.7780  0.6670 -1.8382
  147MPD2    N1 2251   1.105   0.063  12.532  0.0796 -0.2743 -0.2156
  147MPD2    H7 2252   1.124   4.684  12.557  0.5596 -0.7013 -2.2290
  148MPD2     C 2253   1.845   3.881  10.267  0.2943  0.2182 -0.0699
  148MPD2    C1 2254   1.873   3.796  10.164 -0.5364  0.0169  0.0157
  148MPD2    C2 2255   1.772   3.705  10.127 -0.1981 -0.5215  0.3010
  148MPD2    C3 2256   1.641   3.707  10.176  0.1128 -0.7309 -0.3814
  148MPD2    C4 2257   1.618   3.804  10.267  0.1064 -0.6112 -0.0810
  148MPD2    C5 2258   1.717   3.889  10.318 -0.3837  0.0577  0.2325
  148MPD2     H 2259   1.799   3.629  10.055 -1.8359 -0.5119 -0.3252
  148MPD2    H1 2260   1.519   3.814  10.309  1.0707  0.0561  2.0271
  148MPD2    H2 2261   1.926   3.936  10.312 -0.8689  1.9912 -0.1315
  148MPD2    H3 2262   1.684   3.969  10.384 -0.8324 -1.3690  1.7443
  148MPD2     N 2263   1.535   3.615  10.143 -0.1143  0.4117 -0.0990
  148MPD2    H5 2264   1.435   3.631  10.154 -0.5098 -1.9964 -0.1807
  148MPD2    N1 2265   1.987   3.812  10.081 -0.3899  0.4281 -0.2582
  148MPD2    H7 2266   2.001   3.742  10.009 -2.7895  1.0693 -1.3380
  149TCq2    C1 2267   2.086   3.905  10.103  0.1427 -0.5254  0.6584
  149TCq2    O2 2268   2.089   3.998  10.182  0.5073  0.0198 -0.2669
  149TCq2    C2 2269   2.199   3.890  10.004 -0.0152  0.4808 -0.2735
  149TCq2    C3 2270   2.273   4.003   9.986  0.1157 -0.1959  0.1631
  149TCq2    C4 2271   2.349   4.004   9.870 -0.5419  0.3402  0.4971
  149TCq2    C5 2272   2.352   3.906   9.774  0.7835  0.0338 -0.0418
  149TCq2    C6 2273   2.288   3.792   9.814  0.2187 -0.9371 -0.3775
  149TCq2    C7 2274   2.210   3.782   9.926 -0.4643 -0.5727 -0.2716
  149TCq2    C8 2275   2.248   3.697   9.711 -0.2699 -0.4602  0.0898
  149TCq2    O4 2276   2.222   3.580   9.746  0.2519  0.1649  0.0860
  149TCq2    C9 2277   2.402   4.129   9.828 -0.1991 -0.3446  0.7442
  149TCq2    O5 2278   2.419   4.150   9.704 -0.4746  0.2681 -0.2878
  149TCq2    O6 2279   2.476   4.190   9.910  0.2430 -0.2169  0.2210
  149TCq2    H2 2280   2.268   4.100  10.034 -0.6615 -0.4443  0.5702
  149TCq2    H3 2281   2.405   3.917   9.680  0.9483 -0.1822  0.0282
  149TCq2    H4 2282   2.171   3.688   9.964 -0.6617  0.2151  1.4971
  150MPD2     C 2283   3.300   3.323  12.028  0.2403  0.1295 -0.0228
  150MPD2    C1 2284   3.263   3.429  11.943  0.7547  0.3051 -0.2357
  150MPD2    C2 2285   3.293   3.558  11.979 -0.0865 -0.4897  0.0453
  150MPD2    C3 2286   3.362   3.586  12.097 -0.9080 -0.3373 -0.1985
  150MPD2    C4 2287   3.401   3.483  12.178  0.3892  0.6492 -0.0909
  150MPD2    C5 2288   3.359   3.358  12.144  0.4398 -0.1733 -0.2673
  150MPD2     H 2289   3.276   3.645  11.918 -0.2064  0.8434  1.9980
  150MPD2    H1 2290   3.457   3.496  12.270  0.5081 -0.6429  0.0197
  150MPD2    H2 2291   3.275   3.221  12.003 -1.3707  0.7607 -1.0254
  150MPD2    H3 2292   3.390   3.285  12.218  0.2492 -1.6835 -1.6923
  150MPD2     N 2293   3.396   3.724  12.120 -0.0268  0.1439  0.3805
  150MPD2    H5 2294   3.382   3.785  12.040 -0.1753 -0.1003  0.2224
  150MPD2    N1 2295   3.202   3.399  11.816 -0.1870 -0.4358 -0.5028
  150MPD2    H7 2296   3.185   3.301  11.791 -1.1441 -1.0357  2.5423
  151TCq2    C1 2297   3.491   3.764  12.216  0.2845  0.1385 -0.2977
  151TCq2    O2 2298   3.569   3.691  12.273  0.1288 -0.5260  0.1508
  151TCq2    C2 2299   3.528   3.904  12.209 -0.4700 -0.3754  0.7838
  151TCq2    C3 2300   3.472   3.998  12.121 -0.5821  0.1086  0.2783
  151TCq2    C4 2301   3.538   4.110  12.096  0.4993 -0.4385 -0.2105
  151TCq2    C5 2302   3.667   4.140  12.145 -0.1818 -0.0527 -0.3743
  151TCq2    C6 2303   3.722   4.039  12.214 -0.8301 -0.8132 -0.7190
  151TCq2    C7 2304   3.660   3.926  12.250  0.0579  0.2168  0.1578
  151TCq2    C8 2305   3.860   4.058  12.247 -0.0713 -0.7754  0.5014
  151TCq2    O4 2306   3.901   4.176  12.255  0.2125  0.5415 -0.0156
  151TCq2    C9 2307   3.477   4.199  12.004  0.3740  0.3746 -0.7841
  151TCq2    O5 2308   3.550   4.293  11.969 -0.2881  0.3074 -0.2432
  151TCq2    O6 2309   3.378   4.161  11.943 -0.1319  0.0121  0.1798
  151TCq2    H2 2310   3.380   3.978  12.068 -0.6302 -0.2996  0.5096
  151TCq2    H3 2311   3.719   4.232  12.124  0.2554 -0.7153 -2.1841
  151TCq2    H4 2312   3.720   3.854  12.305  1.5100  0.5619 -0.9705
  152MPD2     C 2313   3.038   3.382  12.168 -0.8942  0.4886 -0.2306
  152MPD2    C1 2314   3.011   3.517  12.169  0.2121 -0.0802  0.3972
  152MPD2    C2 2315   2.931   3.574  12.071  0.3215 -0.4143  0.5036
  152MPD2    C3 2316   2.886   3.495  11.968 -0.2579 -0.0152 -0.8235
  152MPD2    C4 2317   2.908   3.357  11.973 -0.6710  1.0030 -0.2605
  152MPD2    C5 2318   2.969   3.305  12.080 -0.0640 -0.4051  0.9783
  152MPD2     H 2319   2.915   3.681  12.063  1.1537 -0.2339  1.3327
  152MPD2    H1 2320   2.872   3.290  11.896  1.8921  2.7531 -2.9522
  152MPD2    H2 2321   3.103   3.336  12.242 -0.1602  0.8842 -0.6317
  152MPD2    H3 2322   2.977   3.197  12.086  1.9861 -0.2398  1.1575
  152MPD2     N 2323   2.803   3.558  11.868 -0.4889  0.5117 -0.7417
  152MPD2    H5 2324   2.768   3.653  11.877 -0.1287  0.6216 -0.4993
  152MPD2    N1 2325   3.056   3.595  12.279  0.0487  0.3199  0.1562
  152MPD2    H7 2326   3.108   3.541  12.347 -1.5222 -1.4428 -0.0606
  153TCq2    C1 2327   3.064   3.730  12.290 -0.5602  0.4921 -0.2848
  153TCq2    O2 2328   3.015   3.823  12.228  0.1274 -0.4050  0.3849
  153TCq2    C2 2329   3.145   3.756  12.409  0.4014  0.1486  0.2068
  153TCq2    C3 2330   3.138   3.661  12.514 -1.1033  0.8517 -0.0495
  153TCq2    C4 2331   3.217   3.684  12.625  0.0150  0.3262  0.6341
  153TCq2    C5 2332   3.299   3.795  12.632  0.1735 -0.1851  0.8421
  153TCq2    C6 2333   3.299   3.883  12.526 -0.4475 -0.2680  0.1860
  153TCq2    C7 2334   3.213   3.871  12.424 -0.6070  0.7436 -0.1171
  153TCq2    C8 2335   3.390   3.996  12.516  0.1507 -0.4618 -0.7666
  153TCq2    O4 2336   3.358   4.084  12.441  0.2143  0.0446 -0.1589
  153TCq2    C9 2337   3.237   3.586  12.724  0.0506 -0.8129  0.8963
  153TCq2    O5 2338   3.179   3.477  12.699  0.4750 -0.1620  0.5124
  153TCq2    O6 2339   3.276   3.630  12.837 -0.2536 -0.1121 -0.0681
  153TCq2    H2 2340   3.052   3.595  12.519 -0.9563  0.5393 -1.8473
  153TCq2    H3 2341   3.366   3.799  12.717  0.6754 -3.1453  0.5785
  153TCq2    H4 2342   3.206   3.953  12.353  0.3046  0.8961 -0.0323
  154MPD2     C 2343   3.581   3.328   1.446 -0.1853  0.2962  1.1264
  154MPD2    C1 2344   3.519   3.447   1.456 -0.0766  0.1472  0.4576
  154MPD2    C2 2345   3.595   3.563   1.441 -0.5555  0.6313  0.2147
  154MPD2    C3 2346   3.727   3.558   1.413 -0.3307  0.3546 -0.5498
  154MPD2    C4 2347   3.791   3.437   1.403 -0.0195  0.1805  0.7098
  154MPD2    C5 2348   3.716   3.322   1.414 -0.3302  0.4233 -0.3699
  154MPD2     H 2349   3.560   3.665   1.453  0.3028  1.2053 -2.0690
  154MPD2    H1 2350   3.899   3.436   1.393  0.1293  1.8124  2.1136
  154MPD2    H2 2351   3.528   3.234   1.451 -1.1275  0.8072  0.5924
  154MPD2    H3 2352   3.765   3.225   1.407  0.1712  0.3559  3.6815
  154MPD2     N 2353   3.796   3.685   1.417 -0.5027 -0.0382 -0.7289
  154MPD2    H5 2354   3.734   3.765   1.428  1.0297  0.7476  2.0879
  154MPD2    N1 2355   3.380   3.449   1.493  0.1994 -0.1673  0.3483
  154MPD2    H7 2356   3.340   3.359   1.519  0.6440 -0.7462 -1.0031
  155TCq2    C1 2357   3.303   3.555   1.535  0.3979  0.3313  1.1100
  155TCq2    O2 2358   3.337   3.671   1.544  0.8900 -0.7262 -0.2889
  155TCq2    C2 2359   3.170   3.525   1.586  0.8910  0.4223  0.4017
  155TCq2    C3 2360   3.094   3.621   1.648  0.2003 -0.1733 -0.5513
  155TCq2    C4 2361   2.970   3.593   1.691  0.0421 -0.0950 -0.2023
  155TCq2    C5 2362   2.912   3.472   1.662  1.0749 -0.7646 -0.8102
  155TCq2    C6 2363   2.988   3.378   1.594 -0.1931  0.0065  0.0669
  155TCq2    C7 2364   3.112   3.405   1.547 -0.1370 -0.7873  0.5449
  155TCq2    C8 2365   2.925   3.247   1.572  0.5390  1.0011 -1.0063
  155TCq2    O4 2366   2.829   3.222   1.648 -0.0072  0.5429  0.2039
  155TCq2    C9 2367   2.900   3.699   1.759  0.5469  0.2705  0.0901
  155TCq2    O5 2368   2.781   3.682   1.786  0.3217 -0.2815  0.5102
  155TCq2    O6 2369   2.952   3.805   1.781  0.1936  0.0366 -0.4789
  155TCq2    H2 2370   3.127   3.723   1.661 -2.0965  0.6266 -1.0554
  155TCq2    H3 2371   2.810   3.458   1.695  0.7492 -1.5795 -2.1305
  155TCq2    H4 2372   3.163   3.334   1.483 -1.3800 -0.1193 -1.1790
  156MPD2     C 2373   3.832   0.815  11.697  0.1257 -0.5198 -0.1424
  156MPD2    C1 2374   3.764   0.911  11.628 -0.3064 -0.8497  0.1691
  156MPD2    C2 2375   3.720   1.024  11.691  0.8733  0.6338 -0.4730
  156MPD2    C3 2376   3.746   1.043  11.825  0.5665 -0.0263  0.3440
  156MPD2    C4 2377   3.837   0.958  11.891  0.4079  0.1341 -0.2529
  156MPD2    C5 2378   3.867   0.843  11.826 -0.8672 -0.0862 -0.0859
  156MPD2     H 2379   3.657   1.090  11.633  1.0458  1.4088  0.2186
  156MPD2    H1 2380   3.859   0.963  11.998 -2.3443 -0.5591  0.3369
  156MPD2    H2 2381   3.866   0.720  11.656 -0.4695 -0.4122 -0.8804
  156MPD2    H3 2382   3.910   0.762  11.885 -3.0646 -1.3823 -0.2604
  156MPD2     N 2383   3.694   1.161  11.881  0.3693 -0.3583 -0.0355
  156MPD2    H5 2384   3.641   1.226  11.824 -0.0680  0.3883  1.2032
  156MPD2    N1 2385   3.724   0.893  11.495 -0.3621  0.1347  0.8226
  156MPD2    H7 2386   3.672   0.964  11.444 -0.7483 -0.6037  0.1913
  157TCq2    C1 2387   3.742   0.783  11.417 -0.1507  0.1753  0.7480
  157TCq2    O2 2388   3.813   0.686  11.424 -0.1902 -0.3019 -0.3070
  157TCq2    C2 2389   3.674   0.816  11.292  0.5548  0.3113  0.2036
  157TCq2    C3 2390   3.731   0.767  11.176 -0.3330 -0.2883  0.8616
  157TCq2    C4 2391   3.680   0.815  11.061  0.6488  0.2717 -0.0824
  157TCq2    C5 2392   3.582   0.912  11.057  0.3089  0.6566 -0.4960
  157TCq2    C6 2393   3.520   0.942  11.172 -0.1496 -0.0260  0.2325
  157TCq2    C7 2394   3.559   0.887  11.290  0.3515  0.2302 -1.0749
  157TCq2    C8 2395   3.399   1.020  11.165 -0.3222 -0.6431 -0.2099
  157TCq2    O4 2396   3.402   1.105  11.078 -0.8303  0.1835  0.3521
  157TCq2    C9 2397   3.744   0.780  10.935  0.2622  0.2489 -0.0468
  157TCq2    O5 2398   3.748   0.870  10.850  0.0895  0.3340 -0.4763
  157TCq2    O6 2399   3.827   0.687  10.938 -0.3174 -0.0591 -0.2990
  157TCq2    H2 2400   3.820   0.704  11.171  0.1064  0.6293 -2.5424
  157TCq2    H3 2401   3.543   0.953  10.965 -0.7194 -0.6264 -0.6386
  157TCq2    H4 2402   3.512   0.921  11.381  2.0655  0.8047 -0.4173
  158TMC2    C1 2403   4.285   0.229  13.683 -0.7020 -0.2754  0.8456
  158TMC2    C2 2404   4.414   0.239  13.653 -0.0161 -0.1709 -0.4344
  158TMC2    C3 2405   4.462   0.176  13.544  0.4149  0.6219 -0.3477
  158TMC2    C4 2406   4.199   0.142  13.620 -0.3892 -0.7048 -0.5662
  158TMC2    C5 2407   4.243   0.094  13.500 -0.3776 -0.2862  0.7100
  158TMC2    C6 2408   4.373   0.109  13.463 -0.4508 -0.6956  0.9316
  158TMC2     C 2409   4.234   0.271  13.809 -0.5316 -0.1172 -0.4788
  158TMC2     O 2410   4.258   0.385  13.851  0.2857 -1.1156  0.1474
  158TMC2     H 2411   4.476   0.283  13.730  0.2669 -0.9397 -0.2251
  158TMC2    H1 2412   4.091   0.145  13.631 -0.1448  2.4722  1.0804
  158TMC2    H2 2413   4.399   0.080  13.362  1.2608 -2.7590  1.9629
  158TMC2    C7 2414   4.144   0.076  13.396  0.5312  0.2315  0.2195
  158TMC2    C8 2415   4.609   0.170  13.522 -0.3671 -0.2470 -0.4978
  158TMC2    O1 2416   4.174   0.138  13.295 -0.1871  0.2713  0.3648
  158TMC2    O2 2417   4.668   0.189  13.624  0.8183 -0.5474  0.3210
  158TMC2    O5 2418   4.622   0.055  13.460  0.0766  0.0925 -0.2652
  158TMC2    H5 2419   4.596   0.070  13.367  0.3836  2.1589 -0.0169
  159MPD2     C 2420   3.779   0.242  14.057 -0.3522  0.0525  0.5148
  159MPD2    C1 2421   3.841   0.119  14.043  0.7855 -0.7075  0.3433
  159MPD2    C2 2422   3.955   0.097  13.971  0.0513  0.3074  0.5858
  159MPD2    C3 2423   4.017   0.205  13.914  0.4268  0.2699 -0.7131
  159MPD2    C4 2424   3.964   0.331  13.932 -0.6802 -0.2203  0.7095
  159MPD2    C5 2425   3.843   0.351  13.997  0.7348 -0.3790  0.1244
  159MPD2     H 2426   4.003   0.001  13.953  0.9312  0.9011 -0.2390
  159MPD2    H1 2427   4.015   0.415  13.887 -1.1601 -1.7008 -2.5547
  159MPD2    H2 2428   3.688   0.265  14.111 -1.9057 -1.5425 -1.4418
  159MPD2    H3 2429   3.800   0.449  14.013 -2.0533 -1.1994 -2.3823
  159MPD2     N 2430   4.137   0.185  13.847  0.0698 -0.4016 -1.1749
  159MPD2    H5 2431   4.156   0.094  13.805 -0.7791 -1.3028  0.4033
  159MPD2    N1 2432   3.787   0.010  14.112 -0.1562  0.0745 -0.2276
  159MPD2    H7 2433   3.692   0.026  14.144 -1.8336 -4.0289 -3.1336
  160TMC2    C1 2434   3.962   2.721   0.413 -0.3673  0.0269  0.2759
  160TMC2    C2 2435   4.016   2.597   0.397  0.1506  0.2358  0.1273
  160TMC2    C3 2436   4.099   2.591   0.288  0.1214  0.4560 -0.2253
  160TMC2    C4 2437   3.976   2.826   0.322  0.0010  0.7136  0.7272
  160TMC2    C5 2438   4.072   2.818   0.222 -0.4389 -0.1621  0.3954
  160TMC2    C6 2439   4.140   2.697   0.208 -0.4493  0.7842 -0.0938
  160TMC2     C 2440   3.844   2.718   0.507 -0.0617 -0.2605  0.2528
  160TMC2     O 2441   3.829   2.618   0.574  0.3745 -0.4269 -0.0207
  160TMC2     H 2442   4.003   2.517   0.468 -0.3118  0.2344  0.0405
  160TMC2    H1 2443   3.898   2.900   0.312 -1.0014 -0.3068  0.9304
  160TMC2    H2 2444   4.213   2.692   0.128 -1.5108  0.9565 -1.0769
  160TMC2    C7 2445   4.137   2.941   0.177  0.0571  0.0968  0.4460
  160TMC2    C8 2446   4.166   2.466   0.264 -0.1668 -0.0461 -0.0336
  160TMC2    O1 2447   4.208   2.927   0.080  0.0500  0.2449  0.8090
  160TMC2    O2 2448   4.276   2.463   0.209 -0.7856 -0.2564 -0.0114
  160TMC2    O5 2449   4.094   2.360   0.307  0.2572 -0.4724  0.1562
  160TMC2    H5 2450   4.010   2.390   0.349  1.5000  1.3932  1.3321
  161MPD2     C 2451   3.683   2.797   0.745 -0.2753 -0.3292  0.2096
  161MPD2    C1 2452   3.695   2.876   0.631  0.1823 -0.3474  0.7112
  161MPD2    C2 2453   3.609   2.982   0.619 -0.3610 -0.4092  0.4986
  161MPD2    C3 2454   3.525   3.016   0.717  0.0731 -0.7547  0.4381
  161MPD2    C4 2455   3.516   2.934   0.828 -0.0405 -0.5543 -0.0221
  161MPD2    C5 2456   3.597   2.826   0.845 -0.0724 -0.4065  0.0532
  161MPD2     H 2457   3.620   3.040   0.528  3.2213 -0.0487  1.1604
  161MPD2    H1 2458   3.446   2.952   0.908 -1.2861  2.2444 -1.7437
  161MPD2    H2 2459   3.750   2.713   0.764  0.1555  0.0693  0.4554
  161MPD2    H3 2460   3.593   2.757   0.929  1.0134 -0.8320 -0.2470
  161MPD2     N 2461   3.442   3.130   0.714 -0.2273  0.5751 -0.8864
  161MPD2    H5 2462   3.384   3.145   0.796 -0.0247 -0.8510 -0.4892
  161MPD2    N1 2463   3.787   2.841   0.535  0.3364  0.3370  0.2817
  161MPD2    H7 2464   3.797   2.912   0.463 -3.7768  1.1202  0.4612
  162TMC2    C1 2465   1.038   4.472   0.794 -0.3855 -0.1981  0.0908
  162TMC2    C2 2466   0.903   4.504   0.781 -0.1213 -0.3874 -0.1142
  162TMC2    C3 2467   0.845   4.554   0.891 -0.2158  0.5130  0.4634
  162TMC2    C4 2468   1.114   4.497   0.906 -0.7793  0.0093 -0.1405
  162TMC2    C5 2469   1.055   4.582   0.996 -0.6783 -0.4057  0.5098
  162TMC2    C6 2470   0.922   4.599   0.994 -0.8168 -0.6713  0.1623
  162TMC2     C 2471   1.106   4.412   0.682 -0.0243  0.6477  0.1283
  162TMC2     O 2472   1.226   4.402   0.699 -0.1834  0.4917 -0.1434
  162TMC2     H 2473   0.847   4.470   0.694  1.2673  1.1131 -1.5868
  162TMC2    H1 2474   1.220   4.474   0.904 -0.8776 -0.4750  0.2587
  162TMC2    H2 2475   0.880   4.659   1.073 -0.5310  0.4823 -0.5720
  162TMC2    C7 2476   1.135   4.642   1.091 -0.0024  0.0665 -0.3346
  162TMC2    C8 2477   0.699   4.575   0.890 -0.3326  0.6231  0.8710
  162TMC2    O1 2478   1.089   0.020   1.153  0.1803  0.6433 -0.3833
  162TMC2    O2 2479   0.638   4.575   0.783 -0.1841  0.0388  0.3216
  162TMC2    O5 2480   0.650   4.596   1.015  0.4083 -0.3641  0.0670
  162TMC2    H5 2481   0.716   4.579   1.085  1.0157  0.3597 -0.3364
  163MPD2     C 2482   1.140   4.195   0.219 -0.1023 -0.3016  0.3004
  163MPD2    C1 2483   1.238   4.199   0.319  0.0755  0.2898 -0.1363
  163MPD2    C2 2484   1.206   4.267   0.432  0.3077 -0.0808  0.4377
  163MPD2    C3 2485   1.073   4.291   0.462 -0.7128 -0.5802 -0.0010
  163MPD2    C4 2486   0.972   4.251   0.375 -0.2991 -0.2886  0.1466
  163MPD2    C5 2487   1.007   4.206   0.251  0.4155 -0.6874 -0.0462
  163MPD2     H 2488   1.281   4.283   0.508 -0.2006  1.4611  0.6022
  163MPD2    H1 2489   0.866   4.266   0.393 -0.2802  1.2889 -1.0227
  163MPD2    H2 2490   1.157   4.161   0.118 -0.2271 -1.0280  0.5255
  163MPD2    H3 2491   0.921   4.190   0.187 -0.3224  2.0246  0.2672
  163MPD2     N 2492   1.027   4.363   0.580 -0.3468 -0.0648  0.0482
  163MPD2    H5 2493   0.926   4.373   0.586 -0.3943 -1.1694  1.1434
  163MPD2    N1 2494   1.369   4.154   0.298 -0.2023  0.5845  0.0528
  163MPD2    H7 2495   1.386   4.123   0.203 -0.4483  1.6314 -0.3287
  164TCq2    C1 2496   1.974   3.969  10.620 -0.1570 -0.1894  0.6102
  164TCq2    O2 2497   1.872   3.925  10.667  0.3789 -0.3332  0.0594
  164TCq2    C2 2498   1.982   4.112  10.584 -0.5038 -0.4816  0.3277
  164TCq2    C3 2499   2.097   4.184  10.604  0.6161 -0.3946 -0.8178
  164TCq2    C4 2500   2.083   4.317  10.624  0.9489  0.2960  0.0797
  164TCq2    C5 2501   1.960   4.384  10.628  0.3538  0.6803  0.7699
  164TCq2    C6 2502   1.848   4.300  10.614 -0.1737 -0.2005 -0.1753
  164TCq2    C7 2503   1.857   4.170  10.579 -0.2462 -0.7050  0.1396
  164TCq2    C8 2504   1.719   4.367  10.620 -0.2330 -0.3049  0.1011
  164TCq2    O4 2505   1.689   4.446  10.711 -0.6397  0.5195  0.2736
  164TCq2    C9 2506   2.201   4.395  10.645  0.4332  0.6951  0.0883
  164TCq2    O5 2507   2.304   4.329  10.672 -0.2121  0.1924 -0.6704
  164TCq2    O6 2508   2.185   4.519  10.645 -0.0232 -0.3323 -0.8853
  164TCq2    H2 2509   2.193   4.134  10.594  0.9237  0.0850 -0.2830
  164TCq2    H3 2510   1.944   4.491  10.642 -4.8329 -0.1681  1.3772
  164TCq2    H4 2511   1.772   4.102  10.579 -3.2593  3.0864 -1.5815
  165MPD2     C 2512   2.676   2.251   1.182  0.2922  0.4728 -0.2904
  165MPD2    C1 2513   2.688   2.250   1.320  0.3346 -0.7535  0.7653
  165MPD2    C2 2514   2.766   2.347   1.380  0.0717 -0.2392  0.0528
  165MPD2    C3 2515   2.841   2.443   1.306 -0.4617  0.5873 -0.6891
  165MPD2    C4 2516   2.827   2.442   1.169  0.4891 -0.3719 -0.4541
  165MPD2    C5 2517   2.745   2.343   1.109  0.2750 -0.4410  0.5954
  165MPD2     H 2518   2.797   2.333   1.483  1.1934 -1.1635 -0.4149
  165MPD2    H1 2519   2.884   2.517   1.116 -0.4383  1.1321  0.6932
  165MPD2    H2 2520   2.610   2.185   1.128  2.1289 -1.2722 -0.3881
  165MPD2    H3 2521   2.726   2.346   1.003 -1.7335  0.8063  0.9872
  165MPD2     N 2522   2.939   2.532   1.356  0.2791  0.2614 -0.0536
  165MPD2    H5 2523   2.991   2.589   1.290 -1.2111  0.8588 -0.6913
  165MPD2    N1 2524   2.621   2.148   1.389 -0.2488 -0.1931  0.3686
  165MPD2    H7 2525   2.555   2.086   1.344 -0.6736  2.3891 -2.5322
  166TCq2    C1 2526   2.961   2.556   1.488  0.7761  0.2189 -0.5881
  166TCq2    O2 2527   2.902   2.510   1.584 -0.6993 -0.4987 -0.4940
  166TCq2    C2 2528   3.044   2.670   1.511  0.5181  0.5612 -0.0195
  166TCq2    C3 2529   3.024   2.737   1.630  0.1587  0.1625 -0.3137
  166TCq2    C4 2530   3.102   2.852   1.643  0.3373 -0.9454  0.4892
  166TCq2    C5 2531   3.179   2.901   1.544  0.2570 -0.3116 -0.1147
  166TCq2    C6 2532   3.183   2.833   1.425 -0.5285  0.9095  0.0558
  166TCq2    C7 2533   3.132   2.706   1.405  0.4383  0.1435 -0.5776
  166TCq2    C8 2534   3.275   2.882   1.325 -0.1219  0.0553 -0.4150
  166TCq2    O4 2535   3.326   2.795   1.253  0.5627 -0.1762  0.2167
  166TCq2    C9 2536   3.101   2.925   1.768  0.2293 -0.2997  0.3568
  166TCq2    O5 2537   3.163   3.035   1.771  0.4287 -0.3690  0.6000
  166TCq2    O6 2538   3.030   2.877   1.867  0.2141 -0.8108 -0.4704
  166TCq2    H2 2539   2.953   2.710   1.708  1.8702 -0.8487  0.8930
  166TCq2    H3 2540   3.238   2.990   1.561  0.2309 -1.0734  4.0006
  166TCq2    H4 2541   3.152   2.660   1.309 -1.3209  0.0286 -0.8894
  167TMC2    C1 2542   0.917   4.071  12.686  0.2027  0.0954 -0.4445
  167TMC2    C2 2543   0.808   4.070  12.776  0.4871  0.5191  0.1694
  167TMC2    C3 2544   0.762   3.951  12.821 -0.1320 -0.3525 -0.2885
  167TMC2    C4 2545   0.979   3.952  12.664 -0.4600  0.5148  0.1552
  167TMC2    C5 2546   0.933   3.834  12.718 -0.2157  0.3347  0.2456
  167TMC2    C6 2547   0.817   3.834  12.794  0.0574  0.2246  0.4269
  167TMC2     C 2548   0.906   4.171  12.582  0.5011 -0.4034  0.4479
  167TMC2     O 2549   0.860   4.282  12.615  0.2099  0.2269  0.3868
  167TMC2     H 2550   0.762   4.168  12.784  0.1533  0.1114  3.2499
  167TMC2    H1 2551   1.072   3.950  12.608 -1.4675  1.7337 -1.5829
  167TMC2    H2 2552   0.797   3.747  12.854 -0.0156 -1.5188 -2.1283
  167TMC2    C7 2553   1.008   3.710  12.717 -0.4255 -0.6721 -0.5943
  167TMC2    C8 2554   0.684   3.952  12.938 -0.0630  0.5077  0.2912
  167TMC2    O1 2555   0.970   3.621  12.791 -0.6900  0.0808  0.3269
  167TMC2    O2 2556   0.695   3.864  13.023  0.2197 -0.3530 -0.5103
  167TMC2    O5 2557   0.652   4.079  12.969  0.7497  0.2303  0.3559
  167TMC2    H5 2558   0.623   4.127  12.888  1.7415 -0.6820 -0.5421
  168MPD2     C 2559   0.864   4.314  12.315 -0.1692 -0.2664  0.6928
  168MPD2    C1 2560   0.968   4.219  12.347  0.5472  0.0019 -0.1661
  168MPD2    C2 2561   1.054   4.178  12.245  0.5095 -0.1262 -0.2455
  168MPD2    C3 2562   1.042   4.240  12.119  0.5271 -0.6745  0.0741
  168MPD2    C4 2563   0.937   4.327  12.090 -0.4828  0.4441  0.3274
  168MPD2    C5 2564   0.843   4.361  12.190 -1.1738 -0.7461  0.2590
  168MPD2     H 2565   1.139   4.114  12.266  0.5178  0.2011  0.7500
  168MPD2    H1 2566   0.911   4.356  11.988 -1.1310  2.5160  1.0695
  168MPD2    H2 2567   0.791   4.342  12.391  0.1963  1.2802  0.4789
  168MPD2    H3 2568   0.764   4.430  12.163  0.2195 -0.0547 -2.0233
  168MPD2     N 2569   1.120   4.193  12.010  0.1604 -0.5423 -0.0335
  168MPD2    H5 2570   1.072   4.192  11.921  1.2221 -0.1333 -0.6190
  168MPD2    N1 2571   0.976   4.146  12.467 -0.7263  0.1855  0.1287
  168MPD2    H7 2572   1.046   4.073  12.468 -2.6745 -1.6559  1.1495
  169MPD1     C 2573   0.455   1.276   9.723  0.0351  0.8633  0.2397
  169MPD1    C1 2574   0.456   1.405   9.778  0.5226  0.0509  0.6430
  169MPD1    C2 2575   0.368   1.500   9.732 -0.2112 -0.1820  0.2972
  169MPD1    C3 2576   0.282   1.474   9.627  0.1473  0.1600 -0.2874
  169MPD1    C4 2577   0.297   1.348   9.565  0.3660  0.1334 -0.9212
  169MPD1    C5 2578   0.369   1.248   9.616  0.0742  0.3964  0.2247
  169MPD1     H 2579   0.356   1.600   9.773  1.6584 -0.0035  0.4077
  169MPD1    H1 2580   0.225   1.319   9.489 -0.5413  2.0768 -0.8135
  169MPD1    H2 2581   0.513   1.191   9.756  2.1114  0.7142 -3.7923
  169MPD1    H3 2582   0.354   1.145   9.584 -1.2776  0.2080  1.4297
  169MPD1     N 2583   0.202   1.577   9.574  0.1399 -0.3476 -0.1308
  169MPD1    H5 2584   0.196   1.662   9.629  0.8589  1.1203 -2.3216
  169MPD1    N1 2585   0.541   1.431   9.887  0.1853  0.3098  0.0012
  169MPD1    H6 2586   0.553   1.530   9.908 -0.5818  0.8322 -2.0489
  169MPD1    H7 2587   0.633   1.391   9.868  1.8984  3.9296  0.7021
  170MPD1     C 2588   2.273   1.276  12.503  0.2377 -0.9044  0.8007
  170MPD1    C1 2589   2.308   1.182  12.593  0.6878 -0.2382  0.7086
  170MPD1    C2 2590   2.339   1.227  12.723 -0.5009 -0.3916  0.6740
  170MPD1    C3 2591   2.342   1.360  12.754  0.3364 -0.3609 -1.2806
  170MPD1    C4 2592   2.290   1.446  12.658  0.4443  0.4645  0.1618
  170MPD1    C5 2593   2.251   1.402  12.536  0.2454 -0.0543  0.0508
  170MPD1     H 2594   2.380   1.165  12.802  4.1044  0.2688 -1.2127
  170MPD1    H1 2595   2.263   1.550  12.672 -1.7393  0.1234 -1.6005
  170MPD1    H2 2596   2.254   1.252  12.399 -0.0379  1.8002  0.2315
  170MPD1    H3 2597   2.219   1.474  12.462  1.5209 -0.2261 -0.6645
  170MPD1     N 2598   2.385   1.409  12.876 -0.3531 -0.1036 -0.1815
  170MPD1    H5 2599   2.391   1.338  12.949 -0.5166 -0.8243 -0.8744
  170MPD1    N1 2600   2.321   1.054  12.547 -0.6958 -0.3575 -0.7738
  170MPD1    H6 2601   2.289   0.992  12.621 -0.5839  2.7482  1.8442
  170MPD1    H7 2602   2.277   1.028  12.459 -1.5533 -4.0901  0.7552
  171MPD1     C 2603   0.916   3.076  14.905  0.5408  0.9093  1.1171
  171MPD1    C1 2604   1.004   3.065  15.010  0.6741  0.1284 -0.5781
  171MPD1    C2 2605   1.058   2.942  15.040 -0.2395 -0.5167 -0.3197
  171MPD1    C3 2606   1.044   2.844  14.948 -0.5990  0.2730 -0.1966
  171MPD1    C4 2607   0.960   2.855  14.838 -0.3431  0.3043  0.2271
  171MPD1    C5 2608   0.888   2.970  14.826  0.0190 -0.6669 -0.0626
  171MPD1     H 2609   1.108   2.927  15.135  2.3557  1.5899 -1.3420
  171MPD1    H1 2610   0.947   2.778  14.763  1.7074  0.9150 -0.7508
  171MPD1    H2 2611   0.861   3.164  14.873  0.8943  0.0037 -2.0269
  171MPD1    H3 2612   0.810   2.973  14.750  0.1032  1.2446 -0.0739
  171MPD1     N 2613   1.121   2.723  14.964 -0.1728  0.4797  0.8914
  171MPD1    H5 2614   1.100   2.650  14.896 -0.2716  0.6187  0.7718
  171MPD1    N1 2615   1.018   3.174  15.099 -0.0415 -0.0909  0.0036
  171MPD1    H6 2616   1.104   3.159  15.151 -0.2966  0.4531  0.5809
  171MPD1    H7 2617   1.015   3.264  15.051 -1.5754  0.0434  0.3259
  172MPD1     C 2618   0.960   3.310   0.889  0.4615 -0.1180 -0.1072
  172MPD1    C1 2619   1.048   3.210   0.839 -0.3615 -0.3794 -0.6518
  172MPD1    C2 2620   1.012   3.139   0.723  0.3300 -0.3397 -0.2821
  172MPD1    C3 2621   0.884   3.158   0.670 -0.1451  0.2815  0.0621
  172MPD1    C4 2622   0.801   3.247   0.731  0.3992 -0.1612  0.4021
  172MPD1    C5 2623   0.838   3.320   0.832  0.3297  0.1978  0.3907
  172MPD1     H 2624   1.086   3.076   0.675 -2.0476 -3.1856 -0.2109
  172MPD1    H1 2625   0.696   3.256   0.705 -0.1181 -0.7829  2.3197
  172MPD1    H2 2626   0.996   3.358   0.979  0.7000  1.7588 -1.2005
  172MPD1    H3 2627   0.771   3.398   0.863 -0.5559 -1.7234  3.3139
  172MPD1     N 2628   0.837   3.088   0.557  0.0188 -0.3063 -0.0306
  172MPD1    H5 2629   0.736   3.079   0.562 -0.0842 -0.1457 -2.0127
  172MPD1    N1 2630   1.185   3.211   0.877  0.2979  0.3159  0.3530
  172MPD1    H6 2631   1.234   3.286   0.830  0.7559  0.4604  1.0685
  172MPD1    H7 2632   1.195   3.241   0.974  0.4985  1.1431  0.0776
  173MPD1     C 2633   2.218   1.988  12.849 -0.7087 -0.0350  0.5639
  173MPD1    C1 2634   2.252   2.040  12.971 -0.2428  0.4492  0.2382
  173MPD1    C2 2635   2.216   1.966  13.082 -0.4399 -0.0195 -0.2020
  173MPD1    C3 2636   2.171   1.834  13.072  0.1930 -0.4712  0.2039
  173MPD1    C4 2637   2.149   1.783  12.952 -0.4957  0.4928  0.9013
  173MPD1    C5 2638   2.180   1.859  12.846 -0.6252 -0.0716 -0.7402
  173MPD1     H 2639   2.241   1.991  13.185  2.8816 -0.8361 -0.8120
  173MPD1    H1 2640   2.119   1.682  12.926 -0.4844 -0.1170  3.2284
  173MPD1    H2 2641   2.223   2.044  12.756 -0.2771 -1.0408 -0.0255
  173MPD1    H3 2642   2.172   1.804  12.753 -1.0978 -1.8907  0.3760
  173MPD1     N 2643   2.166   1.755  13.190 -0.0458 -0.2350  0.3632
  173MPD1    H5 2644   2.184   1.799  13.280 -0.8605  0.5394  0.1370
  173MPD1    N1 2645   2.296   2.173  12.979  0.3488 -0.2232 -0.3209
  173MPD1    H6 2646   2.336   2.187  13.071  0.7255 -3.1306 -0.0427
  173MPD1    H7 2647   2.362   2.201  12.907  0.0151 -1.0157 -0.9400
  174MPD1     C 2648   2.264   0.774  13.461 -0.6656  0.3060  0.6006
  174MPD1    C1 2649   2.138   0.813  13.498  0.0569 -0.1643 -0.7633
  174MPD1    C2 2650   2.096   0.942  13.463 -0.1853 -0.5627  0.0271
  174MPD1    C3 2651   2.178   1.033  13.405  0.5241 -0.0269 -0.0083
  174MPD1    C4 2652   2.299   0.987  13.361 -0.3539  0.4039  0.4896
  174MPD1    C5 2653   2.344   0.862  13.397 -0.1527  0.0328 -0.3770
  174MPD1     H 2654   1.991   0.966  13.477 -0.3039 -0.6292 -0.7014
  174MPD1    H1 2655   2.361   1.058  13.307 -0.5227  0.1251 -0.0670
  174MPD1    H2 2656   2.297   0.675  13.491  2.4802  1.5371  1.2008
  174MPD1    H3 2657   2.445   0.829  13.375 -0.9550 -1.6455 -1.5304
  174MPD1     N 2658   2.150   1.169  13.384 -0.1163 -0.2500  0.0875
  174MPD1    H5 2659   2.232   1.214  13.345 -1.4913  1.3267 -1.0216
  174MPD1    N1 2660   2.051   0.720  13.544  0.0650 -0.4349 -0.5257
  174MPD1    H6 2661   1.981   0.754  13.609  1.2366 -0.1163  0.5747
  174MPD1    H7 2662   2.109   0.649  13.588  0.5054  1.2496  1.6154
  175MPD1     C 2663   0.147   3.091  15.231 -0.5178  0.2572  0.1220
  175MPD1    C1 2664   0.159   2.955  15.222  0.0622 -0.0848 -0.2207
  175MPD1    C2 2665   0.121   2.878  15.328  0.7243 -0.7119  0.6343
  175MPD1    C3 2666   0.076   2.932  15.447 -0.1000  0.4436 -0.2648
  175MPD1    C4 2667   0.043   3.061  15.446 -0.5770 -0.2372 -0.1799
  175MPD1    C5 2668   0.087   3.141  15.343 -0.6149 -0.4372  0.2081
  175MPD1     H 2669   0.138   2.771  15.320 -3.3783 -1.2204 -1.3051
  175MPD1    H1 2670   0.009   3.103  15.540  1.3143 -0.3259  0.5452
  175MPD1    H2 2671   0.182   3.155  15.150 -2.4358 -0.4140 -1.2364
  175MPD1    H3 2672   0.075   3.248  15.351  1.5752 -0.2475  0.9492
  175MPD1     N 2673   0.054   2.856  15.558 -0.4164 -0.2746  0.5394
  175MPD1    H5 2674   0.011   2.903  15.637  0.5020  1.4449  0.0198
  175MPD1    N1 2675   0.235   2.900  15.115 -0.0537 -0.0068 -0.2704
  175MPD1    H6 2676   0.240   2.963  15.036 -2.1054  1.2285  0.5850
  175MPD1    H7 2677   0.215   2.805  15.085 -0.3640 -0.0295  0.0007
  176MPD1     C 2678   1.899   4.367  15.944 -0.0827  0.1733 -0.3230
  176MPD1    C1 2679   1.870   4.281  16.048  0.1327  0.4987 -0.1389
  176MPD1    C2 2680   1.806   4.328  16.165  0.4244 -0.1035  0.5012
  176MPD1    C3 2681   1.803   4.462  16.190  0.6233  0.6148  0.4677
  176MPD1    C4 2682   1.858   4.550  16.098  0.3070 -0.6976 -0.6682
  176MPD1    C5 2683   1.901   4.499  15.977  0.1444 -0.0189  0.3801
  176MPD1     H 2684   1.757   4.261  16.234  1.5428 -2.4921 -1.0235
  176MPD1    H1 2685   1.847   4.657  16.116  0.2763 -0.6350 -1.0469
  176MPD1    H2 2686   1.915   4.331  15.843  0.6056  0.7302 -0.4111
  176MPD1    H3 2687   1.891   4.568  15.894  0.3765 -0.5850 -0.1199
  176MPD1     N 2688   1.740   4.509  16.307  0.0813 -0.3883  0.4392
  176MPD1    H5 2689   1.690   4.434  16.354  1.3833 -0.4012  1.8146
  176MPD1    N1 2690   1.864   4.143  16.027  0.3424  0.5256 -0.8706
  176MPD1    H6 2691   1.954   4.118  15.987  0.7386  1.8566 -0.8211
  176MPD1    H7 2692   1.860   4.093  16.116  2.5275  1.8147 -0.0554
  177MPD1     C 2693   0.200   4.599  10.197  0.2194 -0.0837 -0.8572
  177MPD1    C1 2694   0.221   4.705  10.112  0.1088 -0.1083 -0.9941
  177MPD1    C2 2695   0.210   4.676   9.979 -0.5080  0.3649  0.2734
  177MPD1    C3 2696   0.171   4.554   9.928  0.0457 -0.8771  0.3682
  177MPD1    C4 2697   0.143   4.455  10.019  0.0315  0.1555  0.4318
  177MPD1    C5 2698   0.156   4.478  10.153 -0.1815  0.3181 -0.3388
  177MPD1     H 2699   0.242   0.036   9.912 -1.3455  2.0436  1.8079
  177MPD1    H1 2700   0.114   4.355   9.990 -1.2710  1.2118 -1.8466
  177MPD1    H2 2701   0.213   4.612  10.304 -1.4425  0.4914 -0.7236
  177MPD1    H3 2702   0.127   4.393  10.215  1.0506 -0.4295 -0.7739
  177MPD1     N 2703   0.141   4.546   9.789 -0.1180  0.5781 -0.2838
  177MPD1    H5 2704   0.167   4.624   9.729 -1.4100 -0.3136 -2.0023
  177MPD1    N1 2705   0.281   0.105  10.154  0.5738 -0.4405  0.3413
  177MPD1    H6 2706   0.263   0.184  10.092  0.0119 -2.5669 -2.1713
  177MPD1    H7 2707   0.251   0.129  10.248 -2.7923 -1.6095 -0.4446
  178MPD1     C 2708   1.872   0.490   0.004 -0.0198 -0.3592 -0.4020
  178MPD1    C1 2709   1.853   0.447  17.555  0.3494 -0.0514  0.1574
  178MPD1    C2 2710   1.946   0.477  17.462 -0.7202  0.6065  0.3864
  178MPD1    C3 2711   2.068   0.538  17.485  0.0702  0.8198  0.6587
  178MPD1    C4 2712   2.094   0.571  17.613 -0.0875  0.0275  1.0066
  178MPD1    C5 2713   1.993   0.543   0.031  0.3868 -0.7273  0.3518
  178MPD1     H 2714   1.906   0.466  17.362 -0.4625 -0.3560  0.3953
  178MPD1    H1 2715   2.177   0.637  17.639  1.3425 -0.3286 -2.6933
  178MPD1    H2 2716   1.801   0.471   0.084  0.4183 -3.7363 -0.7838
  178MPD1    H3 2717   2.007   0.577   0.133  0.4808  0.4949 -0.0764
  178MPD1     N 2718   2.158   0.579  17.381 -0.4196  0.0634 -0.5250
  178MPD1    H5 2719   2.250   0.606  17.413  1.2777 -3.4302 -2.4542
  178MPD1    N1 2720   1.725   0.413  17.518  0.1222  0.3079  0.3106
  178MPD1    H6 2721   1.730   0.361  17.430  0.1940  1.2958 -0.2601
  178MPD1    H7 2722   1.679   0.356  17.589  0.3829  0.8281  0.8914
  179MPD1     C 2723   2.869   2.936  15.317 -0.1674  0.3172 -0.6028
  179MPD1    C1 2724   2.762   2.966  15.236  0.3685  0.0947  0.5417
  179MPD1    C2 2725   2.637   2.979  15.289  0.3180  0.0886  0.2305
  179MPD1    C3 2726   2.621   2.974  15.430  0.1561  0.4636  0.7265
  179MPD1    C4 2727   2.727   2.939  15.506  0.7337  0.4189  0.3081
  179MPD1    C5 2728   2.852   2.931  15.452  0.1416 -0.3165  0.1812
  179MPD1     H 2729   2.559   3.023  15.227  1.4492  0.9645 -0.5684
  179MPD1    H1 2730   2.724   2.923  15.613 -1.9794 -1.7865 -0.0962
  179MPD1    H2 2731   2.965   2.911  15.273 -0.9263  0.0301 -2.1065
  179MPD1    H3 2732   2.935   2.916  15.520  0.5663 -0.0084 -0.2705
  179MPD1     N 2733   2.504   2.995  15.502  0.0912  0.2869 -0.2356
  179MPD1    H5 2734   2.512   3.006  15.603 -0.6149  0.9175 -0.2531
  179MPD1    N1 2735   2.777   2.966  15.095  0.1807  0.3888  0.1695
  179MPD1    H6 2736   2.704   3.030  15.062 -0.1270 -0.9043 -1.6574
  179MPD1    H7 2737   2.865   2.996  15.053  0.1030  0.8533  0.3367
  180MPD1     C 2738   1.897   0.413  14.476 -0.0690  0.8633  0.1376
  180MPD1    C1 2739   1.957   0.323  14.389 -0.7369 -0.1779  0.8715
  180MPD1    C2 2740   1.885   0.262  14.292  0.3625  0.4708  0.0181
  180MPD1    C3 2741   1.751   0.277  14.280  1.0678  0.1109  0.2712
  180MPD1    C4 2742   1.691   0.355  14.372  0.4118 -0.2247 -0.2471
  180MPD1    C5 2743   1.769   0.425  14.467 -0.0982 -0.1731 -0.1649
  180MPD1     H 2744   1.933   0.194  14.222  0.7659 -0.1926  0.9311
  180MPD1    H1 2745   1.587   0.382  14.365  1.0027  2.1156 -0.1003
  180MPD1    H2 2746   1.955   0.466  14.550 -0.5343 -1.3133  2.0382
  180MPD1    H3 2747   1.722   0.500  14.530 -0.8947 -0.1624 -0.7752
  180MPD1     N 2748   1.675   0.216  14.174 -0.4549 -0.3137 -0.7429
  180MPD1    H5 2749   1.728   0.151  14.117  1.6287 -0.1002  0.9574
  180MPD1    N1 2750   2.097   0.322  14.377  0.1793  0.2521  0.6237
  180MPD1    H6 2751   2.122   0.315  14.475 -0.7185  0.5330  0.8731
  180MPD1    H7 2752   2.131   0.238  14.330 -0.8172  0.2570 -0.1226
  181MPD1     C 2753   3.196   1.017  10.476 -0.0235 -0.2214  1.0705
  181MPD1    C1 2754   3.185   1.149  10.523 -0.5684  0.4741  0.2018
  181MPD1    C2 2755   3.256   1.248  10.453 -0.3024  0.1180 -0.8517
  181MPD1    C3 2756   3.324   1.221  10.335 -0.0253  0.6175 -0.5552
  181MPD1    C4 2757   3.315   1.091  10.281  0.9855 -0.5555  0.0029
  181MPD1    C5 2758   3.255   0.990  10.354 -0.1216 -0.1473  0.8950
  181MPD1     H 2759   3.246   1.347  10.496 -0.9343  0.2793 -1.3730
  181MPD1    H1 2760   3.356   1.068  10.183  0.0321  1.1207 -0.7715
  181MPD1    H2 2761   3.151   0.934  10.529  0.0397 -0.4753  0.7293
  181MPD1    H3 2762   3.256   0.889  10.315 -0.6392  0.6892 -1.2775
  181MPD1     N 2763   3.386   1.323  10.258  0.1324 -0.0702 -0.1700
  181MPD1    H5 2764   3.429   1.305  10.168  0.4292  0.6261 -0.1693
  181MPD1    N1 2765   3.113   1.185  10.640  0.3471  0.1369  0.2451
  181MPD1    H6 2766   3.082   1.282  10.631 -0.0003  0.2323  2.5256
  181MPD1    H7 2767   3.040   1.115  10.649  0.1478  0.5315  1.6555
  182MPD1     C 2768   0.983   1.982   0.808  0.1350 -0.5444  0.2441
  182MPD1    C1 2769   0.900   2.065   0.885  0.2410  0.0181  1.2676
  182MPD1    C2 2770   0.764   2.034   0.901 -0.0531 -0.2085  0.0573
  182MPD1    C3 2771   0.716   1.918   0.840  0.0112 -0.1648 -0.3158
  182MPD1    C4 2772   0.802   1.833   0.780 -0.2968 -0.4716  0.4981
  182MPD1    C5 2773   0.927   1.875   0.747  0.0870  0.6595  0.0919
  182MPD1     H 2774   0.707   2.098   0.967 -0.9291 -0.2012 -0.7132
  182MPD1    H1 2775   0.784   1.736   0.735  0.4210 -1.1747  1.7345
  182MPD1    H2 2776   1.090   1.996   0.795  0.0664 -1.5422 -1.4719
  182MPD1    H3 2777   0.981   1.815   0.674 -0.0032  1.6003 -0.7439
  182MPD1     N 2778   0.586   1.862   0.859  0.1901 -0.0359  0.3144
  182MPD1    H5 2779   0.563   1.776   0.809 -0.9094 -0.4175  1.4922
  182MPD1    N1 2780   0.962   2.146   0.981  0.4942 -0.4251 -0.3419
  182MPD1    H6 2781   0.901   2.223   1.008  1.2112 -0.5692  1.6565
  182MPD1    H7 2782   1.049   2.186   0.946  1.1226  0.1703  1.9086
  183MPD1     C 2783   4.598   1.167   8.625 -0.2500 -0.5226  0.6002
  183MPD1    C1 2784   4.611   1.089   8.737 -0.4834 -0.6144  0.1780
  183MPD1    C2 2785   4.560   1.133   8.854  0.6380 -0.3168 -0.2487
  183MPD1    C3 2786   4.481   1.245   8.858 -0.1075 -0.5800 -0.3483
  183MPD1    C4 2787   4.464   1.324   8.747  0.6355  0.6538  0.9790
  183MPD1    C5 2788   4.521   1.282   8.634  0.3498  0.3022  1.0328
  183MPD1     H 2789   4.575   1.080   8.947 -0.7859 -2.3417 -1.1520
  183MPD1    H1 2790   4.410   1.418   8.751 -2.3356 -0.7901 -4.2981
  183MPD1    H2 2791   4.647   1.152   8.529 -1.6425 -0.4653 -0.1252
  183MPD1    H3 2792   4.500   1.344   8.548  0.1905 -1.6219 -0.3133
  183MPD1     N 2793   4.416   1.272   8.981  0.3940  1.2089 -0.1496
  183MPD1    H5 2794   4.434   1.219   9.066  1.3086 -0.0882 -1.1575
  183MPD1    N1 2795   4.702   0.984   8.738  0.6900  0.0584 -0.3106
  183MPD1    H6 2796   4.711   0.944   8.645  0.9658 -0.3706 -0.0961
  183MPD1    H7 2797   4.690   0.915   8.811  2.0505 -1.5955 -1.6389
  184MPD1     C 2798   4.083   3.616   9.962 -0.0938 -0.0708 -0.0561
  184MPD1    C1 2799   4.021   3.570   9.842 -0.1925 -0.2193 -0.3266
  184MPD1    C2 2800   4.061   3.636   9.726  0.0561  0.3709 -0.1525
  184MPD1    C3 2801   4.139   3.753   9.729 -0.3185  0.2768 -0.2914
  184MPD1    C4 2802   4.165   3.805   9.853 -0.3793  0.5730  0.0948
  184MPD1    C5 2803   4.131   3.737   9.970 -0.3927  0.2785  0.6109
  184MPD1     H 2804   4.044   3.589   9.630  1.7104 -0.6753  0.0622
  184MPD1    H1 2805   4.191   3.911   9.856  0.3259  0.3131  3.2329
  184MPD1    H2 2806   4.079   3.557  10.054 -0.7391 -0.1341 -0.1257
  184MPD1    H3 2807   4.155   3.787  10.063  0.0042  1.7901 -0.3130
  184MPD1     N 2808   4.185   3.822   9.612 -0.5662  0.8944 -0.3441
  184MPD1    H5 2809   4.254   3.894   9.633  0.0837 -0.0266  0.7035
  184MPD1    N1 2810   3.957   3.447   9.845 -0.4984  0.2190 -0.5820
  184MPD1    H6 2811   3.906   3.437   9.933 -0.9513 -0.6604 -0.9466
  184MPD1    H7 2812   3.890   3.437   9.769  0.2607 -4.3767 -0.6022
  185MPD1     C 2813   4.138   3.588   8.603 -0.7782 -0.0817  0.1313
  185MPD1    C1 2814   4.124   3.726   8.607 -0.3713  0.2528  0.2295
  185MPD1    C2 2815   4.140   3.787   8.730 -0.0695 -0.2957  0.2622
  185MPD1    C3 2816   4.178   3.716   8.845 -0.2176 -0.8845  0.4353
  185MPD1    C4 2817   4.200   3.579   8.841  0.0417 -0.0821  0.4473
  185MPD1    C5 2818   4.173   3.518   8.721 -0.3409 -0.2564  0.1019
  185MPD1     H 2819   4.115   3.893   8.731  0.6470 -0.1243 -0.9193
  185MPD1    H1 2820   4.224   3.514   8.925 -0.6018 -0.9784 -0.0682
  185MPD1    H2 2821   4.106   3.542   8.510  4.3090  0.1630 -1.7605
  185MPD1    H3 2822   4.176   3.410   8.714 -0.0468 -0.1681 -1.1851
  185MPD1     N 2823   4.205   3.765   8.970 -0.0605  0.0324 -0.1991
  185MPD1    H5 2824   4.240   3.696   9.036 -0.5340  1.1128  1.1885
  185MPD1    N1 2825   4.064   3.795   8.498 -0.9166  0.6320 -0.0029
  185MPD1    H6 2826   4.110   3.770   8.410 -0.4003 -0.2181  0.5021
  185MPD1    H7 2827   4.073   3.896   8.498  0.6658  0.4919  1.2321
  186MPD1     C 2828   2.560   3.383  15.429  0.6041  0.2190 -0.6615
  186MPD1    C1 2829   2.588   3.343  15.556  0.0646 -0.2812  0.9734
  186MPD1    C2 2830   2.542   3.425  15.657  0.5073  0.5483  0.0594
  186MPD1    C3 2831   2.453   3.526  15.636 -0.4374 -0.2111 -0.6106
  186MPD1    C4 2832   2.405   3.551  15.513 -0.1425 -0.9653  0.0434
  186MPD1    C5 2833   2.456   3.475  15.410 -0.5888  0.1630 -0.0397
  186MPD1     H 2834   2.581   3.405  15.756  0.7401 -1.1154 -0.3775
  186MPD1    H1 2835   2.337   3.632  15.489 -1.5563 -1.9858  0.5596
  186MPD1    H2 2836   2.598   3.322  15.348  0.8627 -1.2246  0.5438
  186MPD1    H3 2837   2.425   3.515  15.314  0.3341 -1.3696 -0.9694
  186MPD1     N 2838   2.413   3.613  15.741  0.3229  0.0288  0.3725
  186MPD1    H5 2839   2.353   3.690  15.715  1.3045  0.4198 -0.7515
  186MPD1    N1 2840   2.702   3.268  15.580  0.1667 -0.1030 -0.0661
  186MPD1    H6 2841   2.793   3.314  15.576 -0.2124  0.6993  0.5393
  186MPD1    H7 2842   2.715   3.200  15.506 -1.8493 -0.6009  0.0447
  187MPD1     C 2843   2.316   0.830  16.799 -0.6382 -0.1510 -0.3575
  187MPD1    C1 2844   2.205   0.752  16.792 -0.3754 -0.2496 -0.9790
  187MPD1    C2 2845   2.098   0.781  16.878  0.2146  0.2817 -1.0884
  187MPD1    C3 2846   2.126   0.859  16.989  0.0016  0.1137 -0.1736
  187MPD1    C4 2847   2.254   0.889  17.013 -0.1926 -0.5974 -0.4079
  187MPD1    C5 2848   2.351   0.877  16.922 -0.1957  0.2701  0.5312
  187MPD1     H 2849   1.998   0.742  16.860  1.6484 -3.1816 -1.3792
  187MPD1    H1 2850   2.280   0.955  17.095  0.7978 -1.0569 -0.3518
  187MPD1    H2 2851   2.390   0.836  16.721 -1.3244  0.9257 -0.9333
  187MPD1    H3 2852   2.451   0.916  16.928 -0.8051  1.2243  4.1287
  187MPD1     N 2853   2.031   0.902  17.082 -0.4587  0.4271 -0.9007
  187MPD1    H5 2854   2.077   0.966  17.146  0.2534  0.3135 -1.3029
  187MPD1    N1 2855   2.178   0.687  16.675  0.2256  0.2509  0.3392
  187MPD1    H6 2856   2.100   0.623  16.681  0.0141  0.3840 -0.8851
  187MPD1    H7 2857   2.252   0.644  16.620 -0.9883  0.3332 -1.3552
  188MPD1     C 2858   1.615   0.745  10.773 -0.3180 -0.3757  0.0309
  188MPD1    C1 2859   1.497   0.776  10.714  0.0314  0.2504 -0.2732
  188MPD1    C2 2860   1.472   0.710  10.591  0.5389 -0.6759 -0.0956
  188MPD1    C3 2861   1.556   0.613  10.535  1.2386 -0.3101 -0.3382
  188MPD1    C4 2862   1.657   0.570  10.604 -0.3745  0.4136  0.1705
  188MPD1    C5 2863   1.691   0.649  10.712  0.2140 -0.5141 -0.1180
  188MPD1     H 2864   1.389   0.733  10.525  0.0083  0.4891  0.9903
  188MPD1    H1 2865   1.732   0.499  10.573 -0.4675  0.3375  0.1225
  188MPD1    H2 2866   1.635   0.779  10.874 -1.8112 -1.3133  0.6446
  188MPD1    H3 2867   1.779   0.622  10.770  2.3525 -0.4215 -3.2875
  188MPD1     N 2868   1.516   0.536  10.423 -0.5741  0.3496  0.3170
  188MPD1    H5 2869   1.578   0.461  10.394 -2.5282 -0.5265 -1.6296
  188MPD1    N1 2870   1.397   0.857  10.773  0.6314 -0.1931  0.3728
  188MPD1    H6 2871   1.427   0.905  10.857 -2.3088 -0.9080  1.8420
  188MPD1    H7 2872   1.359   0.924  10.707  0.6220  1.5413  2.1438
  189MPD1     C 2873   3.504   1.228  17.626  0.2051 -0.0271 -0.1549
  189MPD1    C1 2874   3.381   1.206  17.570  0.8400 -0.1179 -0.3005
  189MPD1    C2 2875   3.307   1.314  17.541 -0.6710  0.5826 -0.1037
  189MPD1    C3 2876   3.339   1.440  17.567 -0.2327  0.6175  0.7364
  189MPD1    C4 2877   3.457   1.468  17.627 -0.2120  0.0829 -0.3846
  189MPD1    C5 2878   3.542   1.362  17.650  0.2721 -0.1704  0.1272
  189MPD1     H 2879   3.209   1.299  17.497 -1.6762  1.1962  1.9571
  189MPD1    H1 2880   3.498   1.563  17.659  0.7740  0.6948 -3.5359
  189MPD1    H2 2881   3.567   1.144  17.653 -0.2667 -1.1384 -2.4395
  189MPD1    H3 2882   3.644   1.389   0.004  0.4638 -0.9320  0.1630
  189MPD1     N 2883   3.239   1.540  17.541 -0.4569 -0.2899  0.1072
  189MPD1    H5 2884   3.160   1.506  17.489 -0.1218 -0.7130 -0.1222
  189MPD1    N1 2885   3.340   1.072  17.547 -0.0089 -0.3087  0.0920
  189MPD1    H6 2886   3.423   1.014  17.544  0.9315  1.0378  0.2024
  189MPD1    H7 2887   3.292   1.057  17.459  0.9835  0.3368 -0.5490
  190MPD1     C 2888   1.405   4.419  16.195 -0.6224  0.2778 -0.0681
  190MPD1    C1 2889   1.386   4.550  16.232  0.6211  0.1392  0.5695
  190MPD1    C2 2890   1.439   4.640  16.140  0.1707  0.5707  0.2594
  190MPD1    C3 2891   1.490   4.603  16.018 -0.8904  0.4306  0.5513
  190MPD1    C4 2892   1.493   4.470  15.981  0.2314 -0.5354  0.0765
  190MPD1    C5 2893   1.433   4.382  16.065  0.9442  0.3719 -0.3298
  190MPD1     H 2894   1.444   0.028  16.164 -1.1179  0.6929 -0.0058
  190MPD1    H1 2895   1.537   4.425  15.893  0.0162  1.9585 -1.2831
  190MPD1    H2 2896   1.364   4.342  16.259 -1.0837  1.9385  1.6103
  190MPD1    H3 2897   1.441   4.275  16.045 -0.7051  0.4678 -1.5169
  190MPD1     N 2898   1.551   4.696  15.939 -0.1953 -0.2436  0.4496
  190MPD1    H5 2899   1.559   0.074  15.971 -0.0070  0.0969 -0.6024
  190MPD1    N1 2900   1.363   4.579  16.365 -0.2371 -0.0621  0.3538
  190MPD1    H6 2901   1.304   4.516  16.420  0.8710  0.1580  1.8121
  190MPD1    H7 2902   1.343   4.675  16.391  2.7952  0.5088  0.6748
  191MPD1     C 2903   2.046   1.779  12.464  0.3178  0.0742  0.2548
  191MPD1    C1 2904   2.103   1.902  12.432  0.3403 -0.3120 -0.3192
  191MPD1    C2 2905   2.020   2.007  12.415  1.1304  0.1531  0.7382
  191MPD1    C3 2906   1.873   1.992  12.430 -0.7752 -0.7459 -0.9312
  191MPD1    C4 2907   1.818   1.869  12.464  0.8323 -0.4872  0.6643
  191MPD1    C5 2908   1.910   1.767  12.478 -0.4932  0.2717  0.1645
  191MPD1     H 2909   2.062   2.103  12.389  2.1244  0.2554  2.7208
  191MPD1    H1 2910   1.712   1.854  12.482  0.7829 -1.7507 -0.6980
  191MPD1    H2 2911   2.103   1.689  12.482  1.4669  0.8013  0.2455
  191MPD1    H3 2912   1.878   1.667  12.503 -2.8876  1.1701  0.7347
  191MPD1     N 2913   1.802   2.111  12.396 -0.0324  0.1019  0.0940
  191MPD1    H5 2914   1.864   2.189  12.374 -0.0276  0.6311  1.9897
  191MPD1    N1 2915   2.236   1.909  12.387  0.1485  0.4976 -0.4053
  191MPD1    H6 2916   2.300   1.847  12.436 -1.2346 -1.9851 -1.6933
  191MPD1    H7 2917   2.277   2.002  12.396  2.3774 -0.7650  2.3464
  192MPD1     C 2918   0.880   2.707  12.492  0.1269 -0.3232 -0.1098
  192MPD1    C1 2919   0.908   2.577  12.523 -0.0731 -0.1199  0.0101
  192MPD1    C2 2920   1.018   2.514  12.475  0.2823 -0.5624  0.2134
  192MPD1    C3 2921   1.116   2.597  12.415 -0.1810  1.3022 -0.1014
  192MPD1    C4 2922   1.096   2.728  12.397 -0.1355  0.8255  0.5992
  192MPD1    C5 2923   0.968   2.777  12.426 -0.5401 -0.3890  1.3320
  192MPD1     H 2924   1.032   2.407  12.464  0.8151 -0.3569 -1.0984
  192MPD1    H1 2925   1.161   2.794  12.341  0.0565  1.0187  1.0514
  192MPD1    H2 2926   0.791   2.754  12.531 -0.1173  0.0522 -1.1341
  192MPD1    H3 2927   0.950   2.879  12.396 -1.0670 -0.6367  0.7893
  192MPD1     N 2928   1.248   2.553  12.373 -0.1064 -0.3339  0.8198
  192MPD1    H5 2929   1.316   2.622  12.346  0.9460 -1.5062  0.4845
  192MPD1    N1 2930   0.805   2.497  12.579 -0.1884  0.3389  0.4878
  192MPD1    H6 2931   0.841   2.421  12.636 -0.4079  0.4797  0.8157
  192MPD1    H7 2932   0.745   2.548  12.644  3.2571  2.4741  1.9890
  193MPD1     C 2933   0.509   1.663  16.425 -0.5984  0.4383  0.3075
  193MPD1    C1 2934   0.572   1.663  16.305 -0.2036  0.0722 -0.4738
  193MPD1    C2 2935   0.705   1.715  16.297  0.7176 -0.0707  0.3725
  193MPD1    C3 2936   0.763   1.782  16.410 -0.1087 -0.4460  0.1546
  193MPD1    C4 2937   0.708   1.764  16.529 -0.8770 -0.2322  0.0353
  193MPD1    C5 2938   0.584   1.700  16.534  0.1237 -0.3959 -0.1284
  193MPD1     H 2939   0.751   1.705  16.200 -0.8331  1.9813 -0.5918
  193MPD1    H1 2940   0.757   1.799  16.620  3.7678  0.7591 -2.8413
  193MPD1    H2 2941   0.414   1.615  16.443 -0.0092 -1.1739 -0.9078
  193MPD1    H3 2942   0.539   1.696  16.632  2.4686 -0.6783  0.9378
  193MPD1     N 2943   0.881   1.863  16.397 -0.1821  0.2624  0.1699
  193MPD1    H5 2944   0.912   1.908  16.483 -0.2074  3.3278 -1.4205
  193MPD1    N1 2945   0.514   1.594  16.203  0.1542  0.4187 -0.1914
  193MPD1    H6 2946   0.504   1.495  16.226 -1.6267  0.4254 -0.9003
  193MPD1    H7 2947   0.550   1.619  16.111  2.6120  0.9428  0.9152
  194MPD1     C 2948   3.489   3.988  15.773 -0.2895 -0.2109  0.1002
  194MPD1    C1 2949   3.496   3.883  15.868 -0.0279 -0.4959 -0.7025
  194MPD1    C2 2950   3.562   3.908  15.982 -0.4005 -0.1092  0.3689
  194MPD1    C3 2951   3.611   4.036  16.010 -0.1259  0.6818  0.1893
  194MPD1    C4 2952   3.602   4.132  15.911  0.5851 -0.1497  0.3235
  194MPD1    C5 2953   3.531   4.110  15.793  0.4258  0.2884 -0.5932
  194MPD1     H 2954   3.564   3.824  16.051 -0.0145  1.0368  1.7407
  194MPD1    H1 2955   3.642   4.232  15.921  2.9807 -0.9929 -0.8033
  194MPD1    H2 2956   3.442   3.967  15.678 -0.1309  2.9743 -0.6929
  194MPD1    H3 2957   3.518   4.197  15.730  0.6331  1.0310  0.3869
  194MPD1     N 2958   3.688   4.066  16.126 -0.3059  0.2561  0.0622
  194MPD1    H5 2959   3.728   4.159  16.133 -3.0102  1.3673  0.5359
  194MPD1    N1 2960   3.447   3.756  15.831 -0.3054  0.1246 -0.3982
  194MPD1    H6 2961   3.443   3.685  15.904  1.6246 -1.1016 -1.4750
  194MPD1    H7 2962   3.353   3.756  15.792 -1.6433  1.3128  2.8511
  195MPD1     C 2963   1.510   0.565   0.216 -0.0553  0.4740 -0.3867
  195MPD1    C1 2964   1.472   0.526   0.091  1.0007 -0.2347 -0.2854
  195MPD1    C2 2965   1.469   0.395   0.056  0.3367 -0.2206  0.3848
  195MPD1    C3 2966   1.510   0.296   0.151 -0.1030 -0.1439  0.0128
  195MPD1    C4 2967   1.551   0.340   0.273  0.4486 -0.2554 -0.2501
  195MPD1    C5 2968   1.561   0.473   0.304 -0.0765 -0.3001  0.1791
  195MPD1     H 2969   1.451   0.376  17.625  0.0003 -0.6144  0.5156
  195MPD1    H1 2970   1.587   0.267   0.345 -1.4650 -1.5187 -0.5677
  195MPD1    H2 2971   1.514   0.668   0.249 -0.9164  0.5057 -0.3588
  195MPD1    H3 2972   1.591   0.500   0.405 -0.3587  2.4730 -0.4775
  195MPD1     N 2973   1.507   0.157   0.132 -0.6747  0.3558  0.1350
  195MPD1    H5 2974   1.516   0.105   0.219 -0.9126 -0.2257 -0.1847
  195MPD1    N1 2975   1.457   0.623  17.665 -0.5951 -0.0320 -0.4712
  195MPD1    H6 2976   1.478   0.720   0.016  0.7870 -0.6690  0.8628
  195MPD1    H7 2977   1.512   0.605  17.582 -1.5183 -2.3565 -0.5839
  196MPD1     C 2978   1.661   1.633  17.506 -0.1261  0.9263  0.4279
  196MPD1    C1 2979   1.690   1.759  17.552  0.1751  0.5623  0.3651
  196MPD1    C2 2980   1.648   1.789   0.010 -0.7450  0.6444 -0.6376
  196MPD1    C3 2981   1.584   1.699   0.094  0.4547  0.1857 -0.8567
  196MPD1    C4 2982   1.573   1.566   0.046  0.2562  0.2781 -0.0664
  196MPD1    C5 2983   1.611   1.535  17.589 -0.1529  0.0548 -0.0022
  196MPD1     H 2984   1.667   1.890   0.044 -0.2173  0.2005  0.3844
  196MPD1    H1 2985   1.528   1.494   0.113  1.2161 -1.5358 -1.3800
  196MPD1    H2 2986   1.680   1.622  17.400  0.4128  1.4212  0.4733
  196MPD1    H3 2987   1.608   1.435  17.548  0.4015  0.4749 -1.0722
  196MPD1     N 2988   1.541   1.723   0.226 -0.5961  0.5367  0.8606
  196MPD1    H5 2989   1.517   1.650   0.291 -0.7810  2.1225  2.5693
  196MPD1    N1 2990   1.737   1.859  17.458 -0.1431 -0.6135  0.0346
  196MPD1    H6 2991   1.778   1.944  17.496  2.1908 -1.2938 -0.9718
  196MPD1    H7 2992   1.784   1.825  17.374 -1.1043  1.2355 -1.2618
  197MPD1     C 2993   4.139   3.432  17.136 -0.1194 -0.2296 -0.4292
  197MPD1    C1 2994   4.199   3.314  17.117 -0.7431 -0.1134  0.2079
  197MPD1    C2 2995   4.295   3.300  17.021  0.1306  0.4351 -0.3861
  197MPD1    C3 2996   4.335   3.404  16.944 -0.2026 -0.0253  0.1688
  197MPD1    C4 2997   4.269   3.525  16.955 -0.0859  0.0094  0.4669
  197MPD1    C5 2998   4.163   3.528  17.047  0.1085  0.6920 -0.4420
  197MPD1     H 2999   4.344   3.203  17.017 -1.0252 -0.1589 -0.5108
  197MPD1    H1 3000   4.292   3.611  16.894  0.1897 -1.1530 -1.0981
  197MPD1    H2 3001   4.058   3.449  17.207 -0.7897 -0.2841 -1.1837
  197MPD1    H3 3002   4.106   3.620  17.056  1.4793  1.4088  1.0683
  197MPD1     N 3003   4.448   3.400  16.861 -0.2605 -0.0349  0.2772
  197MPD1    H5 3004   4.456   3.478  16.797  0.1801 -2.0720 -2.1181
  197MPD1    N1 3005   4.174   3.213  17.210  0.1194 -0.3963  0.7005
  197MPD1    H6 3006   4.163   3.119  17.172 -1.3130 -0.2561  0.7411
  197MPD1    H7 3007   4.082   3.230  17.251  0.9764  2.8903  1.2313
  198MPD1     C 3008   1.471   1.528  15.161 -0.0525 -0.5279  0.6393
  198MPD1    C1 3009   1.517   1.539  15.292  0.1898 -0.2221 -0.1773
  198MPD1    C2 3010   1.633   1.470  15.323 -0.0567  0.8477  0.3908
  198MPD1    C3 3011   1.696   1.384  15.236 -0.4099  0.1301 -0.0670
  198MPD1    C4 3012   1.650   1.382  15.105 -0.2525  0.2309 -0.1710
  198MPD1    C5 3013   1.540   1.453  15.069 -0.0025  0.7122  0.3178
  198MPD1     H 3014   1.668   1.490  15.424  0.9983 -2.3583  0.6806
  198MPD1    H1 3015   1.701   1.327  15.027 -1.6290  0.2522 -1.0968
  198MPD1    H2 3016   1.390   1.589  15.124 -1.7047 -2.5024  1.0127
  198MPD1    H3 3017   1.506   1.438  14.967 -0.5867  0.3457  0.5687
  198MPD1     N 3018   1.823   1.324  15.270  0.2659 -0.2222 -0.7635
  198MPD1    H5 3019   1.863   1.346  15.360 -2.0355  0.7712  0.0188
  198MPD1    N1 3020   1.469   1.648  15.374  0.0182  0.3503 -0.0780
  198MPD1    H6 3021   1.373   1.682  15.365  0.1477  1.1229  1.3114
  198MPD1    H7 3022   1.493   1.631  15.472 -0.2195  2.1435  0.2918
  199MPD1     C 3023   3.239   1.316   9.926  0.0128 -0.4213 -0.4718
  199MPD1    C1 3024   3.370   1.300   9.887 -1.0905 -1.0207  0.0201
  199MPD1    C2 3025   3.426   1.398   9.801  0.3353 -0.0153  0.1253
  199MPD1    C3 3026   3.351   1.502   9.743  0.1997 -0.8295 -0.0632
  199MPD1    C4 3027   3.222   1.510   9.778 -0.4873 -0.1114 -0.6304
  199MPD1    C5 3028   3.173   1.416   9.862 -0.5065  0.2102 -0.3337
  199MPD1     H 3029   3.532   1.387   9.782  0.4209  1.0573 -0.0095
  199MPD1    H1 3030   3.162   1.591   9.738 -2.1442 -0.5160  1.0344
  199MPD1    H2 3031   3.190   1.255  10.001  0.1809 -0.1523 -0.1384
  199MPD1    H3 3032   3.068   1.420   9.888 -0.3960  0.6592  0.0528
  199MPD1     N 3033   3.404   1.595   9.657  0.0336 -0.3242  0.1798
  199MPD1    H5 3034   3.354   1.682   9.638  0.2540 -0.3386 -0.4823
  199MPD1    N1 3035   3.456   1.213   9.957  0.2072  0.2820  0.1115
  199MPD1    H6 3036   3.546   1.189   9.915 -1.1205  0.5448 -2.9114
  199MPD1    H7 3037   3.416   1.121   9.979 -0.4309  0.2696 -1.0519
  200MPD1     C 3038   2.667   2.085  14.403 -0.4481  0.0912 -0.5159
  200MPD1    C1 3039   2.669   2.096  14.265  0.3132 -0.4504  0.2699
  200MPD1    C2 3040   2.780   2.155  14.201  0.0729  0.3641 -0.4023
  200MPD1    C3 3041   2.883   2.214  14.272  0.4316 -0.1094  0.1724
  200MPD1    C4 3042   2.864   2.226  14.406 -0.1150  0.3727 -0.1265
  200MPD1    C5 3043   2.764   2.162  14.466  0.4503  0.0327 -1.0315
  200MPD1     H 3044   2.788   2.154  14.093 -1.0429  3.3206 -0.5012
  200MPD1    H1 3045   2.941   2.268  14.470 -0.6487 -0.0296  0.7746
  200MPD1    H2 3046   2.586   2.061  14.471 -0.2198 -0.9683 -0.6105
  200MPD1    H3 3047   2.759   2.157  14.574  2.6303  0.3363 -0.9201
  200MPD1     N 3048   2.997   2.271  14.202  0.1681 -0.3971  0.1553
  200MPD1    H5 3049   3.010   2.250  14.103  2.9973 -3.6276  1.1959
  200MPD1    N1 3050   2.575   2.029  14.191  0.1014  0.1243  0.1316
  200MPD1    H6 3051   2.487   2.035  14.241  0.1627 -1.6722  0.4442
  200MPD1    H7 3052   2.565   2.080  14.103 -0.8182 -0.9213 -0.3647
  201MPD1     C 3053   0.431   1.917  13.001  0.1030  0.0160 -0.3396
  201MPD1    C1 3054   0.398   1.822  12.908 -0.6780  0.4102 -0.3771
  201MPD1    C2 3055   0.442   1.698  12.929 -0.5720  0.6237  0.2093
  201MPD1    C3 3056   0.524   1.666  13.035 -0.0403 -0.6175 -0.9910
  201MPD1    C4 3057   0.544   1.758  13.135 -0.0531  0.6485 -0.2711
  201MPD1    C5 3058   0.498   1.880  13.112  0.6744  0.2327  0.3462
  201MPD1     H 3059   0.417   1.625  12.853 -2.0953  0.2898  1.0326
  201MPD1    H1 3060   0.612   1.735  13.216  0.2174 -1.2559 -1.0381
  201MPD1    H2 3061   0.411   2.023  12.986 -1.3218 -0.1641  0.2924
  201MPD1    H3 3062   0.522   1.955  13.187 -0.2761 -0.1314  1.0091
  201MPD1     N 3063   0.576   1.536  13.048  0.3270 -0.0106 -0.3758
  201MPD1    H5 3064   0.559   1.473  12.971 -1.7578  1.0028 -0.7472
  201MPD1    N1 3065   0.292   1.848  12.817  0.1581 -0.3422  0.1789
  201MPD1    H6 3066   0.303   1.797  12.730 -2.1200  0.7978 -0.7832
  201MPD1    H7 3067   0.305   1.945  12.791  2.0883 -0.3077  1.2232
  202MPD1     C 3068   0.226   0.364   8.811  0.5976  0.1847  0.0708
  202MPD1    C1 3069   0.165   0.484   8.849  0.3205 -1.1212 -0.9794
  202MPD1    C2 3070   0.240   0.553   8.941 -0.2731 -0.8419  0.0082
  202MPD1    C3 3071   0.327   0.495   9.031  0.1466  0.7683  0.4356
  202MPD1    C4 3072   0.370   0.373   9.007  0.5427 -0.6863  0.0830
  202MPD1    C5 3073   0.326   0.317   8.894  0.3126 -0.5170  0.0112
  202MPD1     H 3074   0.210   0.657   8.952 -0.5024 -0.7730 -1.1989
  202MPD1    H1 3075   0.436   0.317   9.072  0.3569 -0.1282  0.7482
  202MPD1    H2 3076   0.177   0.302   8.737 -1.0488  1.8592 -0.2491
  202MPD1    H3 3077   0.372   0.221   8.877 -2.3977 -1.9110  0.5336
  202MPD1     N 3078   0.363   0.569   9.157  0.5709  0.5062  0.5314
  202MPD1    H5 3079   0.440   0.531   9.212 -1.0510 -0.4547  2.1517
  202MPD1    N1 3080   0.091   0.559   8.756  0.1260 -0.1218 -1.0295
  202MPD1    H6 3081   0.034   0.629   8.804 -1.5762 -0.0398 -3.1536
  202MPD1    H7 3082   0.036   0.496   8.698  1.2442 -0.5040 -1.6850
  203MPD1     C 3083   3.938   2.307  12.547  0.4483 -0.5215  0.6103
  203MPD1    C1 3084   3.977   2.275  12.424  0.2785  0.5387 -0.1275
  203MPD1    C2 3085   4.019   2.146  12.411 -0.4789 -0.6789  0.2462
  203MPD1    C3 3086   4.048   2.056  12.516 -0.4436 -1.3626  0.2157
  203MPD1    C4 3087   4.002   2.091  12.640  0.5446  0.2639 -0.3606
  203MPD1    C5 3088   3.948   2.217  12.652  0.2312 -0.9860 -0.0587
  203MPD1     H 3089   4.043   2.115  12.310  0.7640 -0.9629  0.6267
  203MPD1    H1 3090   4.003   2.025  12.726  0.2228  0.2924 -0.3325
  203MPD1    H2 3091   3.903   2.407  12.567 -0.3341 -0.9665  1.5038
  203MPD1    H3 3092   3.920   2.257  12.749  1.6473 -2.3084  0.8972
  203MPD1     N 3093   4.110   1.930  12.488 -0.0788  0.3381 -0.0520
  203MPD1    H5 3094   4.125   1.898  12.393  0.2034  1.3867 -0.3582
  203MPD1    N1 3095   3.976   2.368  12.318  0.0684  0.3993 -0.6330
  203MPD1    H6 3096   3.915   2.445  12.344  0.6186  0.5570  0.2050
  203MPD1    H7 3097   3.947   2.332  12.228 -1.6367  2.3910 -0.8817
  204MPD1     C 3098   3.465   2.292  17.508  1.1193 -0.1499  0.6432
  204MPD1    C1 3099   3.406   2.321  17.383  0.0023  0.4081 -0.4304
  204MPD1    C2 3100   3.405   2.224  17.288  0.2420 -0.4827 -0.1536
  204MPD1    C3 3101   3.443   2.098  17.309  0.3510 -0.7264  0.5078
  204MPD1    C4 3102   3.480   2.066  17.437 -1.0494  0.0011  0.3820
  204MPD1    C5 3103   3.498   2.165  17.533 -0.2613  0.2084 -1.1732
  204MPD1     H 3104   3.380   2.246  17.184 -1.5894 -0.2338  0.3294
  204MPD1    H1 3105   3.507   1.965  17.464  1.1761  0.0652 -1.6737
  204MPD1    H2 3106   3.472   2.370  17.583  1.3603  2.1795 -1.8052
  204MPD1    H3 3107   3.538   2.131  17.628  0.8713 -0.3309 -1.8527
  204MPD1     N 3108   3.449   2.012  17.197 -0.0576 -0.0795  0.4937
  204MPD1    H5 3109   3.447   2.063  17.109  0.1248  0.0953  0.5909
  204MPD1    N1 3110   3.369   2.461  17.353  0.0757  0.6146 -0.4845
  204MPD1    H6 3111   3.319   2.477  17.266 -1.5989 -0.4331  0.2701
  204MPD1    H7 3112   3.324   2.506  17.433 -2.3503  0.0826 -1.5602
  205MPD1     C 3113   3.835   0.662  16.187  0.3865 -0.3500  0.9901
  205MPD1    C1 3114   3.974   0.657  16.183  0.4455  0.6094  0.1665
  205MPD1    C2 3115   4.037   0.698  16.297  0.1850  0.2196 -0.2124
  205MPD1    C3 3116   3.969   0.734  16.413 -0.8182 -0.0743  0.2622
  205MPD1    C4 3117   3.835   0.737  16.411  0.7011 -0.2468  0.0917
  205MPD1    C5 3118   3.766   0.708  16.296  0.5341  0.7796  0.0799
  205MPD1     H 3119   4.146   0.702  16.302  0.2766 -0.7627 -1.1124
  205MPD1    H1 3120   3.785   0.776  16.499  0.9469 -1.3160  0.6962
  205MPD1    H2 3121   3.766   0.620  16.114  2.7278  1.6123 -2.3862
  205MPD1    H3 3122   3.658   0.718  16.286  0.5142  2.1892  1.7436
  205MPD1     N 3123   4.026   0.792  16.527 -0.3500  0.2998 -0.2031
  205MPD1    H5 3124   3.956   0.848  16.576  0.7137  1.2231  0.2479
  205MPD1    N1 3125   4.045   0.591  16.074 -0.1273  0.7200  0.3328
  205MPD1    H6 3126   4.009   0.641  15.993 -0.1212 -0.4678 -0.4043
  205MPD1    H7 3127   4.146   0.605  16.075  0.3410 -2.6757  0.8540
  206MPD1     C 3128   3.443   0.494  16.172 -0.2048  0.1037 -0.4814
  206MPD1    C1 3129   3.515   0.371  16.167 -0.5043 -0.0958  0.0232
  206MPD1    C2 3130   3.509   0.288  16.064  0.5100  0.2879 -0.0509
  206MPD1    C3 3131   3.448   0.326  15.949 -0.3212 -1.0659  0.1613
  206MPD1    C4 3132   3.388   0.451  15.944  0.1957 -0.5803  0.2230
  206MPD1    C5 3133   3.374   0.528  16.058 -0.2996  0.0059  0.3435
  206MPD1     H 3134   3.554   0.189  16.064 -1.3904 -0.5855  1.3476
  206MPD1    H1 3135   3.333   0.474  15.853 -0.7889  2.1500  1.5085
  206MPD1    H2 3136   3.433   0.556  16.260  1.3651  0.8531 -0.8215
  206MPD1    H3 3137   3.316   0.619  16.057 -1.0070 -0.4411  0.4528
  206MPD1     N 3138   3.429   0.245  15.836  0.5518  0.2192  0.5161
  206MPD1    H5 3139   3.397   0.289  15.750 -2.8575 -1.9210  0.6890
  206MPD1    N1 3140   3.579   0.329  16.279 -0.5602  0.0326  0.4630
  206MPD1    H6 3141   3.603   0.407  16.341  1.6288 -1.0937  1.0416
  206MPD1    H7 3142   3.667   0.281  16.260 -0.5124 -1.1515  3.5480
  207MPD1     C 3143   1.168   2.275   9.215 -0.5287  0.1193  0.3043
  207MPD1    C1 3144   1.251   2.386   9.190 -0.6921  0.5386  0.0903
  207MPD1    C2 3145   1.372   2.395   9.261 -1.1363  0.2981  0.4184
  207MPD1    C3 3146   1.408   2.297   9.352  0.5679  0.7291 -0.1616
  207MPD1    C4 3147   1.325   2.191   9.373 -0.1055  0.5277  0.5436
  207MPD1    C5 3148   1.202   2.188   9.308 -0.7987  0.0920 -0.5466
  207MPD1     H 3149   1.439   2.478   9.245  0.2381 -0.7895  0.5319
  207MPD1    H1 3150   1.342   2.107   9.439 -0.6997 -1.6036 -1.9996
  207MPD1    H2 3151   1.078   2.258   9.157  0.4150 -1.7645 -0.6269
  207MPD1    H3 3152   1.144   2.100   9.333  0.2045 -0.2862  0.4784
  207MPD1     N 3153   1.521   2.300   9.432 -0.5664 -0.2413  0.0632
  207MPD1    H5 3154   1.538   2.212   9.479 -0.2377 -0.2191 -0.0164
  207MPD1    N1 3155   1.226   2.475   9.085  0.4673  0.1451  0.2470
  207MPD1    H6 3156   1.131   2.478   9.049  0.4804  0.4374  0.2406
  207MPD1    H7 3157   1.256   2.572   9.092  0.3775  0.0964  1.3196
  208MPD1     C 3158   0.251   2.002  17.469  0.3896  0.4128 -0.3029
  208MPD1    C1 3159   0.232   1.985  17.603  0.1025 -0.6539  0.1384
  208MPD1    C2 3160   0.158   1.874  17.639  0.0811 -0.2953 -0.5771
  208MPD1    C3 3161   0.119   1.770  17.550 -0.3622  0.3203  0.1112
  208MPD1    C4 3162   0.160   1.783  17.420 -0.7013  0.2319  0.1853
  208MPD1    C5 3163   0.218   1.900  17.387  0.1040 -0.3351  0.4996
  208MPD1     H 3164   0.137   1.868   0.072 -0.8452  0.2980 -0.7277
  208MPD1    H1 3165   0.151   1.707  17.344  1.3166  0.8665 -0.6848
  208MPD1    H2 3166   0.289   2.096  17.431  0.1008  1.0454  0.9917
  208MPD1    H3 3167   0.243   1.904  17.281 -0.8738  0.9662  0.3127
  208MPD1     N 3168   0.058   1.660  17.608 -0.2229 -0.5690 -0.4768
  208MPD1    H5 3169   0.042   1.667   0.035  0.2616  3.0591 -0.6358
  208MPD1    N1 3170   0.264   2.081   0.027  0.0106 -0.2559 -0.5520
  208MPD1    H6 3171   0.258   2.032   0.116  0.5107  1.8511  0.6400
  208MPD1    H7 3172   0.362   2.106   0.019 -0.4691  1.6323 -0.3856
  209MPD1     C 3173   1.750   1.743  11.302 -0.0284  0.3831 -0.7054
  209MPD1    C1 3174   1.684   1.862  11.291  0.5277  0.0253 -0.0740
  209MPD1    C2 3175   1.699   1.935  11.171  0.5300  0.2577  0.2241
  209MPD1    C3 3176   1.741   1.872  11.056 -0.1005  0.2417  0.1121
  209MPD1    C4 3177   1.783   1.746  11.070 -0.8373 -0.6502  0.3492
  209MPD1    C5 3178   1.794   1.684  11.188  0.2487 -0.4206  0.0792
  209MPD1     H 3179   1.674   2.040  11.167  2.0170  0.5951 -0.2852
  209MPD1    H1 3180   1.821   1.696  10.981  0.5665  2.7993 -0.9751
  209MPD1    H2 3181   1.746   1.689  11.396  1.9511  0.6329 -0.4812
  209MPD1    H3 3182   1.832   1.583  11.194 -1.3100 -1.0267 -0.3112
  209MPD1     N 3183   1.752   1.951  10.940 -0.2178 -0.1352 -0.2643
  209MPD1    H5 3184   1.749   2.051  10.957 -1.9845 -0.0129 -1.2351
  209MPD1    N1 3185   1.642   1.929  11.407 -0.3259 -0.4933 -0.2935
  209MPD1    H6 3186   1.568   1.997  11.392  1.3709  1.2331 -0.8822
  209MPD1    H7 3187   1.627   1.871  11.489  0.6742  0.2526  0.4324
  210MPD1     C 3188   2.525   2.503  10.725 -0.4933 -0.2263 -0.5908
  210MPD1    C1 3189   2.425   2.504  10.824  0.1227 -0.2750  0.1151
  210MPD1    C2 3190   2.301   2.459  10.782  0.4453 -0.4544  0.0615
  210MPD1    C3 3191   2.275   2.389  10.667 -0.0024 -0.0139  0.0025
  210MPD1    C4 3192   2.376   2.379  10.573 -0.2340  0.1067  0.0740
  210MPD1    C5 3193   2.497   2.442  10.600 -0.2876  0.1691 -0.0224
  210MPD1     H 3194   2.219   2.471  10.852  1.3637  1.4072  0.8350
  210MPD1    H1 3195   2.362   2.307  10.494  2.3719  0.2308 -0.4791
  210MPD1    H2 3196   2.621   2.547  10.749 -0.6820  0.1067 -0.4430
  210MPD1    H3 3197   2.576   2.450  10.527  0.3914  0.6144  0.7610
  210MPD1     N 3198   2.152   2.321  10.635 -0.0800  0.1868  0.0231
  210MPD1    H5 3199   2.147   2.277  10.544 -3.3322 -1.7635  1.1254
  210MPD1    N1 3200   2.445   2.574  10.944  0.0364  0.5492  0.7141
  210MPD1    H6 3201   2.378   2.550  11.016 -0.0742 -1.4008 -0.0429
  210MPD1    H7 3202   2.543   2.569  10.973 -0.0627 -5.5237  0.0021
  211MPD1     C 3203   0.186   1.422  16.295  0.1412  0.8541 -0.2476
  211MPD1    C1 3204   0.136   1.545  16.252 -0.4671 -0.0401 -0.3029
  211MPD1    C2 3205   0.002   1.565  16.274  0.0974  0.7548  0.1338
  211MPD1    C3 3206   4.635   1.472  16.323  0.5510 -0.1597 -0.5218
  211MPD1    C4 3207   4.687   1.356  16.379 -0.3182 -0.3110  0.2906
  211MPD1    C5 3208   0.108   1.339  16.368  0.7015  0.6192 -0.1333
  211MPD1     H 3209   4.674   1.658  16.241 -1.6648 -0.3631 -0.5662
  211MPD1    H1 3210   4.626   1.280  16.426 -0.9003  0.1709  0.3063
  211MPD1    H2 3211   0.293   1.401  16.291 -0.3117 -1.6222  0.2910
  211MPD1    H3 3212   0.162   1.255  16.410 -0.1340 -1.4085 -3.0988
  211MPD1     N 3213   4.489   1.494  16.315  0.2687 -0.4823 -0.0907
  211MPD1    H5 3214   4.466   1.583  16.272  1.9336 -0.0659 -0.0978
  211MPD1    N1 3215   0.220   1.624  16.169 -0.1731  0.4535 -0.3321
  211MPD1    H6 3216   0.321   1.620  16.179 -0.3200 -0.4459  0.7719
  211MPD1    H7 3217   0.184   1.720  16.164 -2.0895 -0.3992 -2.9169
  212MPD1     C 3218   3.092   0.153  15.969 -0.0267  0.0199 -0.3829
  212MPD1    C1 3219   3.147   0.156  16.095 -0.4064  0.4759  0.4945
  212MPD1    C2 3220   3.094   0.062  16.185 -0.1850  0.8348  0.1916
  212MPD1    C3 3221   3.024   4.667  16.137 -0.1286 -0.4657  0.0939
  212MPD1    C4 3222   2.993   4.660  16.005  0.1271 -0.9179  0.4432
  212MPD1    C5 3223   3.037   0.043  15.920 -0.0058 -0.1909  0.0964
  212MPD1     H 3224   3.120   0.072  16.290  2.1452  2.0740 -0.4963
  212MPD1    H1 3225   2.936   4.587  15.950  1.3177 -1.0458 -0.6116
  212MPD1    H2 3226   3.100   0.242  15.908  1.2873  2.1761  2.9106
  212MPD1    H3 3227   3.019   0.021  15.815 -0.2396  0.6770 -0.0420
  212MPD1     N 3228   2.977   4.554  16.219  0.7156  0.1291 -0.4799
  212MPD1    H5 3229   2.954   4.472  16.165  1.1131 -1.4877  1.8077
  212MPD1    N1 3230   3.203   0.274  16.149 -0.5804 -0.2407 -0.3631
  212MPD1    H6 3231   3.254   0.326  16.078  1.3881  0.0788  1.3066
  212MPD1    H7 3232   3.259   0.259  16.233 -0.2568  0.5130 -0.4500
  213MPD1     C 3233   1.288   1.182  15.455  1.2018  0.5327 -0.4727
  213MPD1    C1 3234   1.161   1.143  15.418 -0.2252 -0.5344  0.4811
  213MPD1    C2 3235   1.140   1.078  15.299 -0.6043 -0.2499  0.1661
  213MPD1    C3 3236   1.241   1.081  15.203 -0.4739  1.0220  0.3491
  213MPD1    C4 3237   1.356   1.148  15.235 -0.3715 -0.0522 -0.4643
  213MPD1    C5 3238   1.376   1.205  15.354 -0.4364  0.3216 -0.6183
  213MPD1     H 3239   1.051   1.019  15.280  0.5565 -3.0215  3.2870
  213MPD1    H1 3240   1.437   1.147  15.163  0.5333 -3.0625  0.6177
  213MPD1    H2 3241   1.315   1.230  15.548  0.0186 -3.1736  1.7471
  213MPD1    H3 3242   1.478   1.234  15.375 -1.3247  2.3166  0.9201
  213MPD1     N 3243   1.217   1.022  15.073  0.1490 -0.3037  0.4331
  213MPD1    H5 3244   1.136   0.964  15.058  1.3616 -1.2679 -2.3855
  213MPD1    N1 3245   1.075   1.102  15.522  0.0419 -0.5132 -0.1236
  213MPD1    H6 3246   1.085   1.161  15.604  0.2880 -0.6796 -0.0356
  213MPD1    H7 3247   0.978   1.114  15.493  0.7599  3.9550 -0.6476
  214MPD1     C 3248   0.746   0.344  14.950  0.3573 -0.1079  0.0780
  214MPD1    C1 3249   0.844   0.319  14.853  0.0398 -0.1624 -0.3548
  214MPD1    C2 3250   0.931   0.418  14.824  0.0207 -0.9195  0.3944
  214MPD1    C3 3251   0.926   0.538  14.893 -0.1336 -0.2970 -0.5743
  214MPD1    C4 3252   0.844   0.556  15.001 -0.1238 -0.4322  0.4200
  214MPD1    C5 3253   0.747   0.461  15.027  0.0630  1.2973 -0.4482
  214MPD1     H 3254   0.996   0.407  14.738  2.3941 -1.8760  2.3080
  214MPD1    H1 3255   0.837   0.648  15.059 -0.4404 -1.4528  1.9992
  214MPD1    H2 3256   0.677   0.264  14.972 -0.2467  0.9801  2.1016
  214MPD1    H3 3257   0.675   0.479  15.106  3.1762  1.5572  2.3357
  214MPD1     N 3258   1.011   0.649  14.859  0.3517 -0.7738  0.0409
  214MPD1    H5 3259   0.997   0.732  14.915  1.7529 -0.6118  0.1333
  214MPD1    N1 3260   0.843   0.194  14.791 -0.4537  0.2410 -0.1181
  214MPD1    H6 3261   0.796   0.119  14.840 -0.7159  0.2174 -0.4048
  214MPD1    H7 3262   0.937   0.155  14.777 -0.4581  0.0919  0.2899
  215MPD1     C 3263   0.839   1.389  10.283  0.1563  0.6379 -0.1568
  215MPD1    C1 3264   0.800   1.520  10.287 -0.3164  0.1960 -0.6083
  215MPD1    C2 3265   0.892   1.611  10.344  0.0547  0.3104 -0.2291
  215MPD1    C3 3266   0.999   1.561  10.417 -0.8603 -0.1227  0.3508
  215MPD1    C4 3267   1.036   1.429  10.409 -0.5450  0.1272 -0.3415
  215MPD1    C5 3268   0.952   1.348  10.340  0.9321  0.7648  0.0660
  215MPD1     H 3269   0.883   1.717  10.327  0.9347  0.7832  2.2780
  215MPD1    H1 3270   1.121   1.377  10.452 -0.4289  2.5266  2.2775
  215MPD1    H2 3271   0.784   1.314  10.226 -1.6675  1.7844  0.0768
  215MPD1    H3 3272   0.978   1.242  10.338 -1.4756  0.1349  1.9164
  215MPD1     N 3273   1.064   1.650  10.505 -0.5659  0.0198 -0.3890
  215MPD1    H5 3274   1.039   1.748  10.516  1.4192  0.2878  1.8321
  215MPD1    N1 3275   0.690   1.569  10.217  0.3083 -0.0073  0.2269
  215MPD1    H6 3276   0.638   1.646  10.260  0.2165 -0.4278  0.8823
  215MPD1    H7 3277   0.623   1.493  10.211 -0.1246  0.5372 -1.7914
  216MPD1     C 3278   3.272   4.465  16.008  0.4314 -0.1096 -0.0247
  216MPD1    C1 3279   3.282   4.349  15.935 -0.0397 -0.0382  0.5189
  216MPD1    C2 3280   3.301   4.234  16.006 -0.1441  0.2703  0.6490
  216MPD1    C3 3281   3.294   4.226  16.146  0.1273 -0.2084 -0.3209
  216MPD1    C4 3282   3.266   4.342  16.212 -0.2504 -0.9026 -0.0626
  216MPD1    C5 3283   3.261   4.457  16.145 -0.2545 -0.2437 -0.4443
  216MPD1     H 3284   3.304   4.141  15.950  0.7122  1.4427 -1.2414
  216MPD1    H1 3285   3.260   4.348  16.321 -2.7067 -2.3319 -0.1178
  216MPD1    H2 3286   3.282   4.567  15.972  2.0518 -0.4419 -0.5250
  216MPD1    H3 3287   3.255   4.555  16.191  0.2770 -1.3485  1.9268
  216MPD1     N 3288   3.320   4.099  16.205 -0.1863 -0.2402 -0.1146
  216MPD1    H5 3289   3.350   4.015  16.156 -3.8207 -1.7211  0.1601
  216MPD1    N1 3290   3.297   4.353  15.796 -0.0739  0.1189 -0.4020
  216MPD1    H6 3291   3.262   4.265  15.758 -2.1906  0.9474 -0.4143
  216MPD1    H7 3292   3.253   4.431  15.747  1.2988 -1.8651 -4.7664
  217MPD1     C 3293   4.039   0.848   7.964  0.0432  0.1196  0.2909
  217MPD1    C1 3294   3.917   0.854   8.035 -0.0449 -0.3079  0.4821
  217MPD1    C2 3295   3.929   0.834   8.173 -0.1370 -0.0862  0.6201
  217MPD1    C3 3296   4.051   0.860   8.241 -0.9584  0.4720 -0.9341
  217MPD1    C4 3297   4.165   0.872   8.169 -0.0505 -0.6054  0.6102
  217MPD1    C5 3298   4.162   0.856   8.030  0.3849 -0.7719  0.3561
  217MPD1     H 3299   3.840   0.810   8.230 -1.3366 -1.8136 -1.9484
  217MPD1    H1 3300   4.262   0.869   8.218  0.0714 -3.1957  0.2065
  217MPD1    H2 3301   4.057   0.806   7.866  0.9774 -0.9491  0.9090
  217MPD1    H3 3302   4.255   0.840   7.976 -0.7943 -2.7637 -1.0947
  217MPD1     N 3303   4.056   0.846   8.387 -0.2954 -0.0129 -0.4841
  217MPD1    H5 3304   4.147   0.848   8.432  0.1185 -0.0487 -1.3221
  217MPD1    N1 3305   3.799   0.839   7.966  0.1830  0.2354 -0.1393
  217MPD1    H6 3306   3.721   0.875   8.021 -1.1622 -2.8125 -0.0224
  217MPD1    H7 3307   3.801   0.879   7.872 -1.4214 -0.1868 -0.3673
  218MPD1     C 3308   0.442   2.311  12.939 -0.3010 -0.4332  0.5647
  218MPD1    C1 3309   0.564   2.281  12.997  0.6081  0.3646  0.6475
  218MPD1    C2 3310   0.667   2.257  12.899 -0.6020  0.4795 -0.1640
  218MPD1    C3 3311   0.638   2.244  12.763 -0.4412 -0.9015  0.5192
  218MPD1    C4 3312   0.520   2.288  12.711 -0.0113  0.3460  0.3031
  218MPD1    C5 3313   0.424   2.325  12.797  0.0180  0.7964 -0.9919
  218MPD1     H 3314   0.761   2.227  12.944  0.4503  2.2193 -1.2092
  218MPD1    H1 3315   0.495   2.282  12.606  1.0095  0.5538  0.0412
  218MPD1    H2 3316   0.358   2.339  13.002 -1.6631  0.5584 -1.6562
  218MPD1    H3 3317   0.329   2.353  12.753  1.1023 -0.1354 -3.9665
  218MPD1     N 3318   0.742   2.195  12.683  0.3658  0.0751  0.3974
  218MPD1    H5 3319   0.826   2.187  12.739  1.1957 -1.1762 -1.0122
  218MPD1    N1 3320   0.591   2.290  13.139 -0.4099 -0.3450  0.2001
  218MPD1    H6 3321   0.510   2.279  13.199 -0.1249  2.1263  1.0232
  218MPD1    H7 3322   0.660   2.220  13.166  2.0328  2.3219  0.8599
  219MPD1     C 3323   0.814   2.042  11.713 -1.3471  0.1583  0.2544
  219MPD1    C1 3324   0.949   2.059  11.744  0.0735  0.3694  0.0520
  219MPD1    C2 3325   0.998   2.064  11.876 -0.0163 -0.2170 -0.2690
  219MPD1    C3 3326   0.899   2.048  11.973  0.1340  0.4810 -0.0881
  219MPD1    C4 3327   0.774   2.025  11.938  0.2661 -0.1549  0.4849
  219MPD1    C5 3328   0.727   2.030  11.812 -0.7083 -0.2221 -0.1391
  219MPD1     H 3329   1.096   2.102  11.903 -1.3214  1.1744  2.5526
  219MPD1    H1 3330   0.704   1.997  12.015 -1.7105  0.0651 -1.2390
  219MPD1    H2 3331   0.779   2.051  11.611  1.9237  1.7410 -0.7018
  219MPD1    H3 3332   0.622   2.019  11.790 -0.9132  1.6391 -0.1204
  219MPD1     N 3333   0.917   2.056  12.107  0.7713 -0.1093  0.7210
  219MPD1    H5 3334   0.833   2.029  12.156  0.7827  0.0675  0.8394
  219MPD1    N1 3335   1.036   2.086  11.636  0.2022 -0.4460  0.6253
  219MPD1    H6 3336   0.990   2.059  11.549 -0.1148  1.3066  0.2489
  219MPD1    H7 3337   1.126   2.039  11.646  0.2250 -0.3420  0.8997
  220MPD1     C 3338   0.335   2.322   9.203 -0.1585 -0.0802 -0.0051
  220MPD1    C1 3339   0.268   2.248   9.298 -0.3526  0.0703 -0.1830
  220MPD1    C2 3340   0.344   2.212   9.408  0.2468 -0.1669  0.2190
  220MPD1    C3 3341   0.472   2.266   9.428 -0.6393 -0.4214 -0.3539
  220MPD1    C4 3342   0.530   2.347   9.331  0.1246 -0.2259  0.3536
  220MPD1    C5 3343   0.458   2.372   9.223  0.5886  0.9143  0.0746
  220MPD1     H 3344   0.306   2.139   9.479 -2.8574  1.2704  0.0402
  220MPD1    H1 3345   0.630   2.388   9.333 -0.3531  0.9062  0.7400
  220MPD1    H2 3346   0.289   2.343   9.108  0.7429 -0.6884 -0.5869
  220MPD1    H3 3347   0.497   2.433   9.142 -0.2929 -0.3874 -1.3296
  220MPD1     N 3348   0.542   2.213   9.539  0.6321  0.4852  0.3348
  220MPD1    H5 3349   0.497   2.138   9.590 -1.4358  0.9738 -0.7874
  220MPD1    N1 3350   0.152   2.184   9.263  0.4517  0.5102 -0.3603
  220MPD1    H6 3351   0.099   2.227   9.188  0.3725  2.5834  0.8801
  220MPD1    H7 3352   0.091   2.167   9.342  2.0020  1.3383  1.0236
  221MPD1     C 3353   3.472   2.205  15.679 -0.5928  0.3100 -0.1821
  221MPD1    C1 3354   3.380   2.110  15.709 -0.1078 -0.3044 -0.6933
  221MPD1    C2 3355   3.433   1.988  15.740 -0.4277 -0.5560 -0.0755
  221MPD1    C3 3356   3.572   1.962  15.756  0.6071 -0.1348 -0.5845
  221MPD1    C4 3357   3.662   2.069  15.735  0.3708  0.1751 -0.2988
  221MPD1    C5 3358   3.602   2.188  15.700 -0.2430 -1.0103  1.1117
  221MPD1     H 3359   3.363   1.905  15.736  0.8162 -1.5827 -0.8299
  221MPD1    H1 3360   3.769   2.053  15.729  0.1311 -1.7196  0.3347
  221MPD1    H2 3361   3.436   2.302  15.648  0.4801 -0.1473 -2.8001
  221MPD1    H3 3362   3.668   2.270  15.675 -1.0825 -0.6157  0.2047
  221MPD1     N 3363   3.627   1.836  15.779  0.2327 -0.7581 -0.3179
  221MPD1    H5 3364   3.728   1.829  15.775  0.2331  0.2140 -1.9270
  221MPD1    N1 3365   3.242   2.126  15.675 -0.1695  0.8862 -0.5027
  221MPD1    H6 3366   3.170   2.068  15.716  0.7414  0.5701  0.6544
  221MPD1    H7 3367   3.213   2.223  15.684 -0.5708  0.5691  1.4533
  222MPD1     C 3368   3.119   4.012  16.756  0.3749  0.5505  0.5361
  222MPD1    C1 3369   3.100   3.989  16.894 -0.5829 -0.6310 -0.0094
  222MPD1    C2 3370   3.048   4.093  16.969  0.5901 -0.1242  0.1118
  222MPD1    C3 3371   3.027   4.215  16.913 -0.0260 -0.4826  0.2737
  222MPD1    C4 3372   3.063   4.230  16.780  0.0684 -0.4097 -0.0999
  222MPD1    C5 3373   3.103   4.133  16.701 -1.0708  0.5523 -0.2058
  222MPD1     H 3374   3.004   4.070  17.065 -2.1643  0.7706 -0.9323
  222MPD1    H1 3375   3.050   4.325  16.729 -0.9122  0.2134  1.3114
  222MPD1    H2 3376   3.143   3.923  16.699 -1.5820  0.9442 -0.8969
  222MPD1    H3 3377   3.128   4.148  16.597 -0.4195 -2.8571 -0.5334
  222MPD1     N 3378   2.971   4.324  16.984  0.0421 -0.3677 -0.1730
  222MPD1    H5 3379   2.968   4.414  16.939 -1.3088  0.5284  1.6849
  222MPD1    N1 3380   3.088   3.853  16.933  0.1949  0.1704  0.2532
  222MPD1    H6 3381   3.158   3.791  16.891 -1.0577 -0.3569 -1.0577
  222MPD1    H7 3382   3.091   3.841  17.034 -0.1446  1.3583  0.4003
  223MPD1     C 3383   2.757   0.312  16.581  0.3259  0.0068  0.0741
  223MPD1    C1 3384   2.849   0.214  16.580  0.3754 -0.3996  0.6921
  223MPD1    C2 3385   2.859   0.123  16.685  0.5869 -0.1195  0.1102
  223MPD1    C3 3386   2.769   0.121  16.787 -0.1811  0.9229 -0.1407
  223MPD1    C4 3387   2.663   0.214  16.785 -0.1076 -0.2072  0.0962
  223MPD1    C5 3388   2.669   0.311  16.683  0.1073 -0.0849  0.5039
  223MPD1     H 3389   2.936   0.048  16.678 -0.2941 -1.1752  1.7455
  223MPD1    H1 3390   2.586   0.219  16.860  0.0125  1.0632  0.1296
  223MPD1    H2 3391   2.743   0.393  16.511 -0.2970  1.6701  2.1477
  223MPD1    H3 3392   2.603   0.397  16.685  2.5624  1.8118 -0.9357
  223MPD1     N 3393   2.790   0.030  16.894 -0.6181  0.1752  0.7378
  223MPD1    H5 3394   2.860   4.676  16.878 -2.5088 -1.7248  0.9995
  223MPD1    N1 3395   2.958   0.225  16.487 -0.0766  0.0219  0.4063
  223MPD1    H6 3396   2.937   0.262  16.395  1.9314 -1.1692 -0.5406
  223MPD1    H7 3397   2.985   0.130  16.462  0.1497  0.8174 -2.2958
  224MPD1     C 3398   4.050   1.132   8.668  0.2256 -0.4310  0.2697
  224MPD1    C1 3399   3.947   1.171   8.746  0.0886 -0.5228 -0.1575
  224MPD1    C2 3400   3.958   1.141   8.881 -0.7211 -0.2055 -0.4402
  224MPD1    C3 3401   4.072   1.084   8.940  0.3464  0.1221 -0.5450
  224MPD1    C4 3402   4.180   1.056   8.861  0.7536 -0.1150 -0.2364
  224MPD1    C5 3403   4.165   1.084   8.722 -0.4240 -0.6416 -0.3563
  224MPD1     H 3404   3.881   1.173   8.950  0.4764  0.9003  0.3926
  224MPD1    H1 3405   4.272   1.015   8.900  0.8391 -0.6847 -1.0556
  224MPD1    H2 3406   4.052   1.137   8.560 -1.2785  1.2534  0.3329
  224MPD1    H3 3407   4.252   1.068   8.659  0.0807  1.1666 -0.1202
  224MPD1     N 3408   4.088   1.048   9.077 -0.3408 -0.0790 -1.0196
  224MPD1    H5 3409   4.180   1.015   9.104  0.0715  0.6802 -1.4964
  224MPD1    N1 3410   3.826   1.193   8.677 -0.6515  0.1678  0.4513
  224MPD1    H6 3411   3.766   1.255   8.729 -1.8326 -0.7230  0.1473
  224MPD1    H7 3412   3.844   1.243   8.590  1.2077  1.1195  1.3884
  225MPD1     C 3413   1.234   3.033  12.232 -0.2306 -0.1488 -0.2454
  225MPD1    C1 3414   1.234   2.968  12.114 -0.2285  0.1014 -0.8341
  225MPD1    C2 3415   1.117   2.944  12.044  0.2461  0.7205  0.1998
  225MPD1    C3 3416   1.001   3.004  12.085 -0.3253 -0.3389  0.3667
  225MPD1    C4 3417   1.001   3.074  12.203 -0.4472  0.7798  0.3470
  225MPD1    C5 3418   1.117   3.089  12.276 -0.9604  0.1307  0.1514
  225MPD1     H 3419   1.128   2.887  11.953  0.7588  0.4755  0.4108
  225MPD1    H1 3420   0.908   3.121  12.234  0.7286  4.0287 -1.1470
  225MPD1    H2 3421   1.320   3.052  12.296 -0.2095  2.6256 -1.1284
  225MPD1    H3 3422   1.118   3.153  12.363  0.5630  0.2566  0.0439
  225MPD1     N 3423   0.879   2.987  12.013 -0.2046 -0.1086 -0.0511
  225MPD1    H5 3424   0.797   3.033  12.053  0.0406  0.3031 -0.0236
  225MPD1    N1 3425   1.349   2.899  12.083  0.2469 -0.2373  0.4803
  225MPD1    H6 3426   1.432   2.933  12.131 -0.6667  0.4384  1.5524
  225MPD1    H7 3427   1.369   2.897  11.983  1.4647  1.7080  0.6862
  226MPD1     C 3428   2.374   1.303   9.676  0.0188 -0.4106 -1.2723
  226MPD1    C1 3429   2.458   1.231   9.764 -0.0298 -0.0773 -0.2573
  226MPD1    C2 3430   2.590   1.242   9.743 -0.2439  0.1250 -0.1539
  226MPD1    C3 3431   2.647   1.306   9.640  0.2815  0.4618 -0.4437
  226MPD1    C4 3432   2.564   1.365   9.548 -0.4169 -0.3809 -0.4349
  226MPD1    C5 3433   2.430   1.361   9.567 -0.7030  0.8170  0.8057
  226MPD1     H 3434   2.654   1.183   9.807  0.1054  0.7400  0.0584
  226MPD1    H1 3435   2.598   1.410   9.455 -0.6964  2.0740  0.6392
  226MPD1    H2 3436   2.266   1.305   9.689  0.4710 -0.6720  2.7534
  226MPD1    H3 3437   2.363   1.411   9.499  0.6978  1.6256  0.0038
  226MPD1     N 3438   2.787   1.295   9.617 -0.1339  0.2648 -0.1707
  226MPD1    H5 3439   2.836   1.230   9.677  1.3768  1.2366 -0.3230
  226MPD1    N1 3440   2.402   1.184   9.886  0.4327 -0.6802 -0.1996
  226MPD1    H6 3441   2.452   1.112   9.938  2.7394  2.1046  1.4369
  226MPD1    H7 3442   2.309   1.145   9.869  0.7882 -0.7709 -1.8718
  227MPD1     C 3443   3.319   0.761  10.013 -0.2859 -0.2468  0.7703
  227MPD1    C1 3444   3.185   0.793  10.008  0.4821  0.2721 -0.3409
  227MPD1    C2 3445   3.147   0.890   9.918 -0.3679  0.1703 -0.2332
  227MPD1    C3 3446   3.240   0.946   9.832 -0.1418 -0.6306  0.2795
  227MPD1    C4 3447   3.373   0.916   9.839 -0.6782  0.4999  0.2676
  227MPD1    C5 3448   3.406   0.815   9.926 -0.0105 -0.1047 -0.1697
  227MPD1     H 3449   3.042   0.917   9.913 -0.1687  0.8996 -0.5022
  227MPD1    H1 3450   3.454   0.948   9.774 -1.0844 -0.1211 -0.5526
  227MPD1    H2 3451   3.363   0.703  10.093  0.2796 -1.2200 -0.2491
  227MPD1    H3 3452   3.509   0.782   9.922  0.2660  0.8723 -1.1891
  227MPD1     N 3453   3.189   1.040   9.733  0.8998  0.7334  0.1272
  227MPD1    H5 3454   3.090   1.063   9.738  0.6178  0.0505 -2.3909
  227MPD1    N1 3455   3.103   0.760  10.115  0.1647  0.0433 -0.2075
  227MPD1    H6 3456   3.134   0.672  10.155 -0.8104 -0.0865  0.2480
  227MPD1    H7 3457   3.005   0.768  10.089 -0.0562 -1.5171  0.1459
  228MPD1     C 3458   1.867   0.286  12.010 -0.6236  0.2532 -0.0838
  228MPD1    C1 3459   1.737   0.262  11.977  0.3531  0.6400 -0.0636
  228MPD1    C2 3460   1.666   0.200  12.073 -0.3145 -0.6313  0.2828
  228MPD1    C3 3461   1.705   0.177  12.207 -0.7028  0.0929 -0.2668
  228MPD1    C4 3462   1.830   0.219  12.237  0.4468 -0.0740  0.2053
  228MPD1    C5 3463   1.911   0.262  12.135  0.5572  0.5133 -0.3246
  228MPD1     H 3464   1.565   0.173  12.045 -0.6297 -0.4193  1.2120
  228MPD1    H1 3465   1.872   0.224  12.336  1.6234  3.0440 -0.4530
  228MPD1    H2 3466   1.934   0.322  11.932 -1.4157  1.5522 -0.1638
  228MPD1    H3 3467   2.013   0.284  12.165  1.1010  0.7747 -2.3533
  228MPD1     N 3468   1.622   0.115  12.301 -0.2226  0.6367  0.2556
  228MPD1    H5 3469   1.528   0.090  12.271 -0.5451  0.8984  1.0479
  228MPD1    N1 3470   1.695   0.273  11.846  0.3463  0.2980  0.0852
  228MPD1    H6 3471   1.718   0.362  11.803  0.4666  0.4728  0.5081
  228MPD1    H7 3472   1.596   0.257  11.832  0.3120  0.0829  0.5502
  229MPD1     C 3473   1.575   3.992  13.910 -0.0042  0.0190 -0.0499
  229MPD1    C1 3474   1.603   4.052  14.033 -0.2772 -0.6217  0.4128
  229MPD1    C2 3475   1.666   3.975  14.124  0.5065  0.0715  0.5109
  229MPD1    C3 3476   1.680   3.841  14.102 -0.0285  0.1000  0.1262
  229MPD1    C4 3477   1.640   3.784  13.990  0.5429  0.5431  0.5532
  229MPD1    C5 3478   1.591   3.857  13.886  0.1678 -0.5150  0.5358
  229MPD1     H 3479   1.706   4.024  14.212  0.9578 -1.9594  1.4254
  229MPD1    H1 3480   1.650   3.677  13.973 -1.5451  0.3055  0.7209
  229MPD1    H2 3481   1.525   4.047  13.831 -3.0534  0.7407  2.3829
  229MPD1    H3 3482   1.568   3.798  13.798 -0.7393 -0.5174  0.7752
  229MPD1     N 3483   1.738   3.744  14.194 -0.1102 -0.4177  0.3577
  229MPD1    H5 3484   1.752   3.651  14.156  1.5365 -0.4891  1.1504
  229MPD1    N1 3485   1.603   4.191  14.058 -0.1592 -0.2919 -0.1278
  229MPD1    H6 3486   1.581   4.202  14.157  0.4187 -0.3541  0.0060
  229MPD1    H7 3487   1.538   4.247  14.003 -0.2663 -3.0246 -2.8062
  230MPD1     C 3488   2.198   3.431  15.172 -0.2565 -1.0256  0.1941
  230MPD1    C1 3489   2.207   3.339  15.079  0.5308 -0.4761  0.1525
  230MPD1    C2 3490   2.159   3.372  14.949  0.8425  0.2829 -0.6456
  230MPD1    C3 3491   2.116   3.501  14.914 -0.0538  0.0671 -0.2113
  230MPD1    C4 3492   2.114   3.592  15.015  0.6036  0.8994  0.0109
  230MPD1    C5 3493   2.156   3.550  15.135  0.1645 -0.4680  0.5725
  230MPD1     H 3494   2.167   3.302  14.867 -2.5373  0.4047 -1.0678
  230MPD1    H1 3495   2.083   3.695  14.999  0.7171  0.6806 -1.5598
  230MPD1    H2 3496   2.226   3.409  15.274 -0.9107 -2.7905  0.0019
  230MPD1    H3 3497   2.142   3.622  15.215 -2.2214 -0.6216  0.2869
  230MPD1     N 3498   2.090   3.532  14.781  0.6522  0.0103  0.7977
  230MPD1    H5 3499   2.087   3.454  14.717  2.3896  0.6540 -0.0738
  230MPD1    N1 3500   2.236   3.205  15.104  0.5958  0.1965  0.2141
  230MPD1    H6 3501   2.312   3.203  15.172  1.4592  1.6028 -0.7079
  230MPD1    H7 3502   2.278   3.164  15.020 -1.5242 -3.2389  0.8027
  231MPD1     C 3503   0.969   1.256  14.952 -0.3040 -0.0774  0.4486
  231MPD1    C1 3504   0.883   1.232  14.849  0.5008  0.4148  0.3030
  231MPD1    C2 3505   0.942   1.252  14.728 -0.8648  0.0596  0.3201
  231MPD1    C3 3506   1.062   1.322  14.708 -0.0169  0.5753 -0.4298
  231MPD1    C4 3507   1.139   1.358  14.817 -0.4018 -0.6315 -0.1563
  231MPD1    C5 3508   1.087   1.323  14.939  0.0622  0.1252 -0.7083
  231MPD1     H 3509   0.888   1.211  14.644 -0.7375  0.6656 -0.0565
  231MPD1    H1 3510   1.234   1.409  14.809 -0.4171 -0.5371  0.2875
  231MPD1    H2 3511   0.954   1.213  15.051  0.6181 -3.1514 -0.7673
  231MPD1    H3 3512   1.135   1.352  15.032 -1.2862  0.3998 -0.0981
  231MPD1     N 3513   1.103   1.320  14.571 -0.1849  0.2540  0.6669
  231MPD1    H5 3514   1.052   1.265  14.503  0.7328 -1.8795  1.6764
  231MPD1    N1 3515   0.757   1.161  14.863 -0.7713 -0.0448 -0.2860
  231MPD1    H6 3516   0.689   1.230  14.831 -0.1779  0.7690  0.1834
  231MPD1    H7 3517   0.727   1.162  14.961  1.0625 -0.4559  0.2841
  232MPD1     C 3518   3.321   4.198   0.329  0.4548  0.7527 -0.0947
  232MPD1    C1 3519   3.216   4.252   0.258  0.2839  0.7318 -0.3753
  232MPD1    C2 3520   3.178   4.168   0.157 -0.3322  0.4684 -0.3852
  232MPD1    C3 3521   3.216   4.034   0.147  0.0050  0.5642  0.1904
  232MPD1    C4 3522   3.316   3.990   0.225  0.0662  0.1828  0.2553
  232MPD1    C5 3523   3.365   4.072   0.314 -0.4647 -0.5362 -0.5539
  232MPD1     H 3524   3.106   4.198   0.082  0.6390  4.0779  0.1144
  232MPD1    H1 3525   3.350   3.888   0.217  1.6891  0.8301 -0.8938
  232MPD1    H2 3526   3.374   4.253   0.407 -0.0040 -0.4093  1.0394
  232MPD1    H3 3527   3.445   4.037   0.378 -0.8682  0.4198  0.4641
  232MPD1     N 3528   3.141   3.944   0.058 -0.0148 -0.5432 -0.1915
  232MPD1    H5 3529   3.086   3.990  17.659 -0.5969  0.0011  0.5951
  232MPD1    N1 3530   3.193   4.387   0.269  0.0901  0.3857 -0.0944
  232MPD1    H6 3531   3.210   4.415   0.365 -0.7519 -2.2217  0.8136
  232MPD1    H7 3532   3.099   4.405   0.233 -0.1571 -0.4784  0.1160
  233MPD1     C 3533   3.853   1.619   2.223  0.7101 -0.0701  0.2123
  233MPD1    C1 3534   3.864   1.663   2.087  0.2328 -0.1886 -0.1936
  233MPD1    C2 3535   3.991   1.703   2.037 -0.6399  1.0006 -0.6294
  233MPD1    C3 3536   4.109   1.703   2.119 -0.0734 -0.2512  0.0025
  233MPD1    C4 3537   4.089   1.647   2.244  0.3246 -0.3854 -0.0705
  233MPD1    C5 3538   3.968   1.602   2.299  0.0747  0.2928 -0.6508
  233MPD1     H 3539   3.990   1.725   1.931  2.2616 -1.9740 -1.2767
  233MPD1    H1 3540   4.172   1.630   2.311  0.3581  1.9914  0.4683
  233MPD1    H2 3541   3.757   1.601   2.269  0.8159 -0.6977  0.1907
  233MPD1    H3 3542   3.957   1.558   2.397  1.6312  1.0386 -0.1431
  233MPD1     N 3543   4.237   1.754   2.075 -0.3485 -0.4235  0.2898
  233MPD1    H5 3544   4.320   1.739   2.132 -0.5232  1.2912  0.9994
  233MPD1    N1 3545   3.750   1.676   2.005 -0.1340 -0.0488  0.0161
  233MPD1    H6 3546   3.767   1.655   1.907 -0.7708 -3.5378  0.6341
  233MPD1    H7 3547   3.671   1.620   2.037  0.9646 -1.6850 -0.1333
  234MPD1     C 3548   0.178   4.166   9.069  0.1769  0.3747  0.9716
  234MPD1    C1 3549   0.138   4.253   8.971 -0.4272 -0.6534  0.6444
  234MPD1    C2 3550   0.140   4.387   8.989 -0.2257  0.7355  0.9309
  234MPD1    C3 3551   0.164   4.446   9.111 -0.5855  0.7758 -0.1164
  234MPD1    C4 3552   0.208   4.362   9.210 -0.0205  0.2026 -0.3992
  234MPD1    C5 3553   0.215   4.228   9.186 -0.9465 -0.9249 -1.0057
  234MPD1     H 3554   0.107   4.448   8.906 -0.8107 -1.7396 -0.6859
  234MPD1    H1 3555   0.250   4.400   9.302  1.0490  1.1671 -1.2832
  234MPD1    H2 3556   0.192   4.059   9.058  1.0170  0.5971 -0.1478
  234MPD1    H3 3557   0.253   4.169   9.269  0.4931  1.2065 -0.1347
  234MPD1     N 3558   0.153   4.584   9.122  0.2819 -1.1592  0.0320
  234MPD1    H5 3559   0.090   4.625   9.054 -0.7602 -0.9713  1.1078
  234MPD1    N1 3560   0.127   4.203   8.841  0.1859 -0.3530 -0.0616
  234MPD1    H6 3561   0.116   4.102   8.833 -0.1858 -0.0253 -3.4636
  234MPD1    H7 3562   0.050   4.251   8.794  0.2542  0.0300  0.2114
  235MPD1     C 3563   1.558   2.423   9.981  0.4051 -0.4710  0.4269
  235MPD1    C1 3564   1.536   2.484   9.858  0.0962  0.5118  0.4251
  235MPD1    C2 3565   1.621   2.583   9.819  0.2699 -0.0606  0.2913
  235MPD1    C3 3566   1.737   2.617   9.886  0.2951  0.2255  0.7026
  235MPD1    C4 3567   1.763   2.548  10.001  0.2971  0.1501 -0.0799
  235MPD1    C5 3568   1.666   2.464  10.056 -0.5206 -0.1888 -0.1358
  235MPD1     H 3569   1.599   2.636   9.727  0.1761  2.6640  1.8810
  235MPD1    H1 3570   1.845   2.565  10.070  0.9538  0.2027 -0.8793
  235MPD1    H2 3571   1.502   2.341  10.025  0.0988  0.5630  1.9958
  235MPD1    H3 3572   1.688   2.411  10.148  1.9173  2.9464  1.0901
  235MPD1     N 3573   1.825   2.715   9.833  0.3906 -0.0895 -0.5148
  235MPD1    H5 3574   1.805   2.754   9.741  2.9033 -0.5327 -1.2581
  235MPD1    N1 3575   1.414   2.470   9.784  0.5380  0.2893 -0.5531
  235MPD1    H6 3576   1.428   2.498   9.687  0.8101  1.1778 -0.2577
  235MPD1    H7 3577   1.370   2.379   9.799  0.4709 -0.0038 -2.5811
  236MPD1     C 3578   0.841   3.934   9.867  0.4469 -0.3250  0.0039
  236MPD1    C1 3579   0.856   3.837   9.764  0.0053  0.9246  0.1012
  236MPD1    C2 3580   0.963   3.752   9.773 -0.0912 -0.4430 -0.3059
  236MPD1    C3 3581   1.044   3.742   9.888 -0.7947  0.1056  0.0274
  236MPD1    C4 3582   1.017   3.836   9.990 -1.0391 -0.7005 -0.1767
  236MPD1    C5 3583   0.909   3.921   9.984  0.1452  0.4605 -0.2885
  236MPD1     H 3584   0.973   3.681   9.692 -0.7095 -2.2376  1.1698
  236MPD1    H1 3585   1.087   3.845  10.071  0.3924  0.2278 -1.5109
  236MPD1    H2 3586   0.764   4.009   9.852 -1.3406 -2.0990  0.3734
  236MPD1    H3 3587   0.893   4.007  10.049 -1.2311 -0.3022  0.3793
  236MPD1     N 3588   1.141   3.649   9.909  0.5262  0.6325  0.1823
  236MPD1    H5 3589   1.196   3.661   9.994 -3.6457  1.3340  2.7666
  236MPD1    N1 3590   0.803   3.872   9.640 -0.1008 -0.7563 -0.1209
  236MPD1    H6 3591   0.795   3.789   9.582  0.1027 -0.5292 -0.4726
  236MPD1    H7 3592   0.710   3.912   9.651 -0.3007 -0.5871 -2.4676
  237MPD1     C 3593   1.038   1.468  15.502  0.0217  0.3095  0.0874
  237MPD1    C1 3594   1.019   1.525  15.375  0.2043 -0.6030 -0.7688
  237MPD1    C2 3595   0.927   1.633  15.366 -0.9299  0.0075  0.5104
  237MPD1    C3 3596   0.877   1.692  15.479  0.8927 -0.7462 -0.8459
  237MPD1    C4 3597   0.925   1.650  15.599  0.0152 -0.3554  0.4884
  237MPD1    C5 3598   1.002   1.539  15.614 -0.0869 -0.8594 -0.2528
  237MPD1     H 3599   0.899   1.675  15.270 -0.3832 -1.1027 -0.1509
  237MPD1    H1 3600   0.889   1.698  15.689 -0.4297  2.2421 -1.0716
  237MPD1    H2 3601   1.100   1.380  15.516  1.9577  1.9384  1.8242
  237MPD1    H3 3602   1.023   1.496  15.711  1.5581 -2.0075 -1.1094
  237MPD1     N 3603   0.793   1.805  15.475  0.6907 -0.2704  0.3314
  237MPD1    H5 3604   0.782   1.858  15.561 -1.3476 -2.0744  1.1638
  237MPD1    N1 3605   1.053   1.453  15.262  0.9356  0.4183  0.2609
  237MPD1    H6 3606   1.139   1.403  15.283  2.4882  2.8693 -0.1708
  237MPD1    H7 3607   1.084   1.523  15.195  1.6133 -0.2797 -0.1541
  238MPD1     C 3608   2.090   1.309  13.810 -0.0777  0.2407  0.9863
  238MPD1    C1 3609   2.014   1.322  13.926 -0.6004  0.4911 -0.8048
  238MPD1    C2 3610   1.933   1.218  13.968 -0.6912  0.5301 -0.3428
  238MPD1    C3 3611   1.937   1.091  13.902  0.6790  0.0145 -0.2877
  238MPD1    C4 3612   2.015   1.080  13.791  0.2238  0.1763  0.6963
  238MPD1    C5 3613   2.097   1.182  13.750  0.0230 -0.0146  0.0300
  238MPD1     H 3614   1.876   1.229  14.059 -2.6893  1.8263 -1.7543
  238MPD1    H1 3615   2.025   0.992  13.728  0.2153  0.6299  0.0560
  238MPD1    H2 3616   2.164   1.384  13.785  0.9951 -1.4119 -0.8290
  238MPD1    H3 3617   2.160   1.164  13.664 -0.1475  0.0657 -0.1122
  238MPD1     N 3618   1.856   0.978  13.935 -1.1349  0.9349  0.2740
  238MPD1    H5 3619   1.841   0.907  13.864 -1.3894  2.7680 -1.5187
  238MPD1    N1 3620   2.037   1.442  14.010 -0.1463 -0.0379  0.3266
  238MPD1    H6 3621   2.041   1.526  13.954 -1.9816 -0.5790 -0.6054
  238MPD1    H7 3622   1.953   1.454  14.066  1.7614  1.2255  2.9194
  239MPD1     C 3623   3.083   1.531  14.527  0.0351 -0.1717 -0.1141
  239MPD1    C1 3624   3.175   1.508  14.425  0.5356 -0.1779 -0.2572
  239MPD1    C2 3625   3.125   1.514  14.296  0.2310  0.3353  0.3459
  239MPD1    C3 3626   2.987   1.541  14.273 -0.9877  0.2626  0.0924
  239MPD1    C4 3627   2.908   1.557  14.377 -0.2958  0.0187  0.1845
  239MPD1    C5 3628   2.951   1.561  14.505  0.1959  0.0345 -0.3309
  239MPD1     H 3629   3.193   1.511  14.212 -0.4052  1.6676 -0.2224
  239MPD1    H1 3630   2.802   1.577  14.367 -0.8567 -1.6165  2.7469
  239MPD1    H2 3631   3.112   1.529  14.631 -1.3439  0.0579  0.2668
  239MPD1    H3 3632   2.880   1.589  14.582 -0.5694  0.1015 -1.0508
  239MPD1     N 3633   2.933   1.554  14.147 -0.1309  0.2745 -0.0392
  239MPD1    H5 3634   2.834   1.577  14.140 -0.2724 -0.4649 -0.5034
  239MPD1    N1 3635   3.312   1.504  14.451 -0.0982 -0.2881  0.2623
  239MPD1    H6 3636   3.356   1.445  14.381  0.2090 -1.2312  1.2412
  239MPD1    H7 3637   3.333   1.468  14.544  1.2249  0.0074  0.0766
  240MPD1     C 3638   1.945   1.505  12.859  0.8523  0.3705 -0.4547
  240MPD1    C1 3639   1.882   1.512  12.982 -0.1664  0.1590  0.2023
  240MPD1    C2 3640   1.876   1.397  13.066  0.0539  0.9374  0.7363
  240MPD1    C3 3641   1.936   1.279  13.030  0.2218 -0.1931 -0.3820
  240MPD1    C4 3642   1.999   1.278  12.907 -1.3058 -0.3983  0.5328
  240MPD1    C5 3643   2.006   1.391  12.827 -0.1065 -0.1304  0.9085
  240MPD1     H 3644   1.819   1.406  13.158  0.4316 -1.5176  1.1936
  240MPD1    H1 3645   2.035   1.183  12.868 -0.2540  0.7442 -1.2527
  240MPD1    H2 3646   1.938   1.584  12.786 -0.6916  1.7459  1.1683
  240MPD1    H3 3647   2.039   1.370  12.725 -1.2834  2.1421  0.0678
  240MPD1     N 3648   1.909   1.162  13.107  1.0125 -0.0081  0.5780
  240MPD1    H5 3649   1.851   1.166  13.190  1.8700  0.6825  1.1539
  240MPD1    N1 3650   1.816   1.627  13.010  0.2835  0.2406  0.3133
  240MPD1    H6 3651   1.834   1.712  12.956  0.0037  0.5942  0.7783
  240MPD1    H7 3652   1.804   1.642  13.110  0.5492  3.1350 -0.0930
  241MPD1     C 3653   2.392   0.274  13.304  0.8639  0.0470  0.1057
  241MPD1    C1 3654   2.260   0.243  13.300 -0.3858 -0.1113 -0.1697
  241MPD1    C2 3655   2.160   0.343  13.277  0.5727 -0.2382 -0.1997
  241MPD1    C3 3656   2.203   0.478  13.257 -0.4997  0.8779  0.6917
  241MPD1    C4 3657   2.336   0.502  13.272  0.4706  0.1337 -0.6932
  241MPD1    C5 3658   2.432   0.406  13.299 -0.5679 -0.3027  0.2231
  241MPD1     H 3659   2.057   0.311  13.270  0.1892  0.3024  2.9427
  241MPD1    H1 3660   2.372   0.600  13.245  0.3382  0.8440  1.7622
  241MPD1    H2 3661   2.469   0.199  13.314  1.1648  0.1988 -1.0881
  241MPD1    H3 3662   2.538   0.427  13.302  0.1044 -3.5855 -0.7394
  241MPD1     N 3663   2.123   0.590  13.239 -0.1193 -0.1851 -0.0495
  241MPD1    H5 3664   2.156   0.683  13.264  1.7820  0.0766 -3.4653
  241MPD1    N1 3665   2.224   0.110  13.292 -0.2191 -0.1582  0.4433
  241MPD1    H6 3666   2.128   0.094  13.321 -0.6384  0.3408 -0.6624
  241MPD1    H7 3667   2.288   0.063  13.356  0.2546  1.8151  1.4362
  242MPD1     C 3668   1.344   4.103  15.705  0.1943 -0.7600  0.2915
  242MPD1    C1 3669   1.298   4.214  15.634  0.2589 -0.2356 -0.1568
  242MPD1    C2 3670   1.313   4.221  15.495  0.5300 -0.5689 -0.3436
  242MPD1    C3 3671   1.377   4.131  15.423  0.3286  0.1459  0.1113
  242MPD1    C4 3672   1.434   4.024  15.491 -0.2965  0.0028 -0.2458
  242MPD1    C5 3673   1.410   4.006  15.626  0.1681 -0.7327  0.2566
  242MPD1     H 3674   1.293   4.318  15.449  1.0080  0.8474  2.4188
  242MPD1    H1 3675   1.493   3.952  15.435 -1.5295 -0.3263 -1.1193
  242MPD1    H2 3676   1.348   4.100  15.813 -0.0746  0.7032  0.3389
  242MPD1    H3 3677   1.442   3.914  15.672 -1.8108 -2.2565 -1.4210
  242MPD1     N 3678   1.423   4.151  15.291  0.0057  0.2883  0.4653
  242MPD1    H5 3679   1.484   4.083  15.246 -1.9018 -0.1103 -1.5264
  242MPD1    N1 3680   1.248   4.329  15.696  0.0232 -1.2726  0.5384
  242MPD1    H6 3681   1.200   4.316  15.785  0.1378  0.3531  0.8387
  242MPD1    H7 3682   1.203   4.393  15.630  0.9865 -0.7010  0.4364
  243MPD1     C 3683   4.297   2.326  16.991 -0.1479 -0.8258  0.9331
  243MPD1    C1 3684   4.160   2.317  17.013 -0.7793  0.8975 -0.2645
  243MPD1    C2 3685   4.077   2.376  16.921 -0.2650  0.3105  0.0855
  243MPD1    C3 3686   4.122   2.444  16.807  0.3002  0.7827 -0.1719
  243MPD1    C4 3687   4.260   2.452  16.785  0.7868  0.1924  0.1477
  243MPD1    C5 3688   4.344   2.388  16.882  0.1942  0.2109  0.6334
  243MPD1     H 3689   3.971   2.368  16.942  0.1335 -1.7386  1.2631
  243MPD1    H1 3690   4.306   2.496  16.697  0.7983 -0.2325 -0.0594
  243MPD1    H2 3691   4.366   2.284  17.064  1.7756 -0.3872 -0.6528
  243MPD1    H3 3692   4.452   2.389  16.871  0.1061 -1.2222 -0.3651
  243MPD1     N 3693   4.018   2.502  16.726 -0.2753  0.8205  0.2461
  243MPD1    H5 3694   3.924   2.476  16.754 -1.1351  2.9947 -0.6784
  243MPD1    N1 3695   4.104   2.240  17.117 -0.2180 -0.5191  0.4733
  243MPD1    H6 3696   4.171   2.219  17.190  1.4685 -1.2603 -1.2702
  243MPD1    H7 3697   4.017   2.280  17.152 -0.4644  0.6596 -1.4542
  244MPD1     C 3698   3.188   2.382  16.835 -0.3276 -0.2448 -0.1353
  244MPD1    C1 3699   3.301   2.314  16.851 -0.2388 -0.1430 -0.2745
  244MPD1    C2 3700   3.422   2.376  16.824  0.2511  0.1711 -0.7066
  244MPD1    C3 3701   3.416   2.499  16.755 -0.3693  0.0949 -0.3190
  244MPD1    C4 3702   3.299   2.565  16.732  0.1270 -0.2867 -0.0193
  244MPD1    C5 3703   3.191   2.502  16.780  0.6921 -0.1766 -0.3665
  244MPD1     H 3704   3.516   2.325  16.841  1.1435  2.2687  0.5926
  244MPD1    H1 3705   3.281   2.663  16.688 -2.2099  0.9567  3.7080
  244MPD1    H2 3706   3.090   2.344  16.862 -0.3681 -0.3808 -0.4715
  244MPD1    H3 3707   3.096   2.553  16.765  0.8995 -0.4279 -2.5608
  244MPD1     N 3708   3.542   2.540  16.716  0.3974  0.0613 -0.0538
  244MPD1    H5 3709   3.620   2.489  16.758 -0.1285  1.8792  3.1160
  244MPD1    N1 3710   3.302   2.213  16.948  0.3665 -0.0121 -0.1249
  244MPD1    H6 3711   3.384   2.156  16.929  0.2544  0.3075 -1.5870
  244MPD1    H7 3712   3.221   2.152  16.941  0.0110  0.2887  1.2560
  245MPD1     C 3713   0.111   3.461  13.030  0.7889  0.5282  0.4275
  245MPD1    C1 3714   0.155   3.492  13.155  0.3442  0.1719  0.3197
  245MPD1    C2 3715   0.206   3.616  13.183  0.0831  0.3925  0.4559
  245MPD1    C3 3716   0.221   3.710  13.081 -0.6583  0.0431 -0.3035
  245MPD1    C4 3717   0.172   3.683  12.952  0.4221  0.0430  0.2730
  245MPD1    C5 3718   0.132   3.551  12.931 -0.6853  0.6434  0.1233
  245MPD1     H 3719   0.235   3.631  13.287  1.3975  0.1454  0.1273
  245MPD1    H1 3720   0.182   3.759  12.875 -3.4309 -0.7211 -0.9927
  245MPD1    H2 3721   0.055   3.373  13.001  1.1135  0.3346  0.3893
  245MPD1    H3 3722   0.091   3.519  12.835  0.5214 -0.7222  0.0581
  245MPD1     N 3723   0.284   3.828  13.122  0.2985  0.7838 -0.4561
  245MPD1    H5 3724   0.308   3.834  13.220  1.6308 -1.2027 -0.6779
  245MPD1    N1 3725   0.126   3.406  13.266  0.6303  0.0039  0.4536
  245MPD1    H6 3726   0.115   3.307  13.245  1.0852 -0.0803  0.6231
  245MPD1    H7 3727   0.190   3.425  13.343 -0.8087 -0.9001  1.8848
  246MPD1     C 3728   2.155   4.679   9.665 -0.5676  0.1547 -0.2891
  246MPD1    C1 3729   2.045   4.611   9.610  0.6550 -0.0375 -0.1925
  246MPD1    C2 3730   1.926   4.681   9.607 -0.0033 -0.1168 -0.9291
  246MPD1    C3 3731   1.906   0.080   9.679 -0.0490 -0.3285 -0.7749
  246MPD1    C4 3732   2.017   0.141   9.740  0.2977  0.5421 -0.1988
  246MPD1    C5 3733   2.133   0.080   9.728  0.0912 -0.2849  0.0960
  246MPD1     H 3734   1.841   4.629   9.562 -0.6847  0.4961 -0.3467
  246MPD1    H1 3735   2.009   0.220   9.813 -0.9006 -0.2043  0.4895
  246MPD1    H2 3736   2.256   4.639   9.663 -0.7067 -0.3212  1.8570
  246MPD1    H3 3737   2.214   0.119   9.788  0.6828 -2.8421  0.9356
  246MPD1     N 3738   1.773   0.136   9.678  0.1480  0.5254  0.2328
  246MPD1    H5 3739   1.713   0.095   9.607 -3.2026  0.1307  3.2909
  246MPD1    N1 3740   2.057   4.514   9.516 -0.2318  0.8859 -0.1476
  246MPD1    H6 3741   2.130   4.447   9.540 -1.4151  0.0712  1.1644
  246MPD1    H7 3742   1.968   4.469   9.500  0.3534 -0.6379  0.8541
  247MPD1     C 3743   4.391   3.195  16.495 -0.2553  0.2652 -0.4971
  247MPD1    C1 3744   4.457   3.108  16.416  0.6836  0.9767  0.8551
  247MPD1    C2 3745   4.453   3.136  16.280 -0.2413  0.1079  0.4091
  247MPD1    C3 3746   4.391   3.245  16.225 -1.0773  0.5263 -0.6231
  247MPD1    C4 3747   4.325   3.330  16.308 -1.1995  0.0808 -0.3188
  247MPD1    C5 3748   4.340   3.312  16.439 -0.2063 -0.0131 -0.4714
  247MPD1     H 3749   4.495   3.064  16.210  0.3094 -0.7393  1.6202
  247MPD1    H1 3750   4.266   3.410  16.264 -0.0471  0.8012 -0.5466
  247MPD1    H2 3751   4.386   3.181  16.602  1.3252 -0.8817 -0.5818
  247MPD1    H3 3752   4.308   3.392  16.505 -0.8230 -2.1534  1.8091
  247MPD1     N 3753   4.388   3.277  16.088  0.1077  0.1013 -0.0134
  247MPD1    H5 3754   4.329   3.358  16.072  0.0809  0.1676  0.4115
  247MPD1    N1 3755   4.490   2.982  16.462 -0.0802 -0.3603  0.6785
  247MPD1    H6 3756   4.559   2.990  16.536 -1.5031 -0.4125  2.0146
  247MPD1    H7 3757   4.552   2.941  16.393 -1.4735 -1.1503 -0.1196
  248MPD1     C 3758   2.818   2.845   1.271 -0.4275  0.2335  0.5143
  248MPD1    C1 3759   2.893   2.936   1.196  0.4154  0.5314  1.2331
  248MPD1    C2 3760   2.936   3.045   1.265  0.1501 -0.1503  0.5127
  248MPD1    C3 3761   2.901   3.074   1.395  0.0487  0.0008 -0.0078
  248MPD1    C4 3762   2.834   2.979   1.471 -0.3450  0.0609  0.8676
  248MPD1    C5 3763   2.801   2.861   1.410 -0.0758 -0.1840  0.0340
  248MPD1     H 3764   3.004   3.107   1.208  1.8377 -1.8479  0.7088
  248MPD1    H1 3765   2.823   2.997   1.577 -2.6513  1.3243  0.4129
  248MPD1    H2 3766   2.787   2.752   1.226 -0.0149  0.7372 -0.8077
  248MPD1    H3 3767   2.759   2.777   1.465 -1.0279 -0.2400 -0.7832
  248MPD1     N 3768   2.958   3.197   1.451  0.0309  0.0527 -0.1288
  248MPD1    H5 3769   3.011   3.251   1.384  0.4246 -0.6661 -0.3941
  248MPD1    N1 3770   2.954   2.895   1.080  0.6505  0.2478 -0.3838
  248MPD1    H6 3771   2.984   2.973   1.022 -0.8125  0.0620 -1.3703
  248MPD1    H7 3772   2.906   2.833   1.016  0.6632 -0.4911  0.3227
  249MPD1     C 3773   1.599   1.543  10.485  0.0820  0.0309  0.4848
  249MPD1    C1 3774   1.507   1.563  10.383  0.4976 -0.5323  0.0085
  249MPD1    C2 3775   1.547   1.610  10.260  0.4063 -0.5920 -0.5380
  249MPD1    C3 3776   1.675   1.655  10.245  0.0131 -0.3919 -0.2055
  249MPD1    C4 3777   1.763   1.657  10.349 -0.4040  0.5368  0.2274
  249MPD1    C5 3778   1.726   1.596  10.463  0.3924 -0.0331 -0.4165
  249MPD1     H 3779   1.484   1.594  10.174 -0.5587 -2.2137  0.4647
  249MPD1    H1 3780   1.864   1.694  10.337  0.0279 -0.8512 -0.3730
  249MPD1    H2 3781   1.578   1.479  10.570 -0.9897  1.0374  0.9866
  249MPD1    H3 3782   1.800   1.580  10.540 -1.9942 -1.6728  1.5383
  249MPD1     N 3783   1.706   1.713  10.124 -0.0541 -0.0807  0.0450
  249MPD1    H5 3784   1.636   1.710  10.050 -0.2247 -0.1085  0.2068
  249MPD1    N1 3785   1.392   1.477  10.389  0.3839 -0.1289  0.4293
  249MPD1    H6 3786   1.314   1.513  10.333 -2.2923 -2.8411  2.3904
  249MPD1    H7 3787   1.363   1.461  10.485 -2.0445 -1.5527 -0.5442
  250MPD2     C 3788   4.178   2.231  13.011  0.3776 -0.0590  0.4672
  250MPD2    C1 3789   4.064   2.306  13.030  0.0826  0.2031  0.1990
  250MPD2    C2 3790   3.951   2.237  13.052 -0.2302  0.3924  0.1848
  250MPD2    C3 3791   3.950   2.097  13.072  0.0347 -0.5724  0.0522
  250MPD2    C4 3792   4.063   2.027  13.046 -0.7160 -0.0779 -0.2206
  250MPD2    C5 3793   4.177   2.096  13.021  0.2140 -0.0391 -0.3583
  250MPD2     H 3794   3.863   2.300  13.049 -0.6896 -0.3315 -1.6540
  250MPD2    H1 3795   4.072   1.919  13.043 -0.6157 -0.0693 -0.2351
  250MPD2    H2 3796   4.271   2.281  12.987  0.7980 -0.7500  0.6572
  250MPD2    H3 3797   4.273   2.046  13.013  0.6114  0.6154  0.3540
  250MPD2     N 3798   3.829   2.027  13.083 -0.0871 -0.0854 -0.4356
  250MPD2    H5 3799   3.835   1.926  13.076 -2.4865 -0.3778  1.6670
  250MPD2    N1 3800   4.068   2.447  13.008  0.2870 -0.2721 -0.3197
  250MPD2    H7 3801   4.164   2.482  13.010 -0.3654  1.4965 -0.1941
  251TMC3    C1 3802   4.003   2.669  12.985  1.1427  0.1562  0.4486
  251TMC3    C2 3803   3.895   2.758  12.981  0.2781 -0.2797  0.2200
  251TMC3    C3 3804   3.904   2.869  12.909  0.6115  0.1282  0.1147
  251TMC3    C4 3805   4.125   2.700  12.932 -0.2767 -0.0113  0.1590
  251TMC3    C5 3806   4.133   2.828  12.888  0.1748 -0.0367 -0.9647
  251TMC3    C6 3807   4.026   2.914  12.867 -0.1908  0.5617 -0.9138
  251TMC3     C 3808   3.958   2.534  12.994  0.1250 -0.0613  0.1500
  251TMC3     O 3809   3.840   2.507  12.976 -0.2027  0.2964 -0.2815
  251TMC3     H 3810   3.803   2.726  13.030 -0.5875  0.7996 -0.6963
  251TMC3    H1 3811   4.212   2.636  12.942  0.3119  0.8917  0.8605
  251TMC3    H2 3812   4.040   3.015  12.830  0.1609  0.4364 -1.1157
  251TMC3    C7 3813   4.268   2.871  12.860  0.3053  0.1331 -0.1491
  251TMC3    C8 3814   3.803   2.957  12.942 -0.0920 -0.1230 -0.3109
  251TMC3    O1 3815   4.350   2.782  12.861 -0.2163  0.7150  0.1853
  251TMC3    O2 3816   3.778   2.969  13.063  0.7369 -0.0445 -0.3440
  252TMC3    C1 3817   0.015   1.664   9.469  1.4582 -0.3702 -0.7256
  252TMC3    C2 3818   0.019   1.783   9.543  0.1794  0.2248 -0.5326
  252TMC3    C3 3819   4.646   1.885   9.518 -0.1844  0.3348 -0.2874
  252TMC3    C4 3820   4.627   1.644   9.387 -0.2436 -0.1256 -0.3876
  252TMC3    C5 3821   4.527   1.732   9.379 -0.3669 -0.4493 -0.8352
  252TMC3    C6 3822   4.532   1.858   9.446  0.2492 -0.5445  0.6229
  252TMC3     C 3823   0.122   1.572   9.461  0.4237 -0.4717  0.0716
  252TMC3     O 3824   0.110   1.486   9.374  0.5598 -0.1153  0.1773
  252TMC3     H 3825   0.107   1.810   9.600  0.3675  0.2957 -0.8582
  252TMC3    H1 3826   4.625   1.551   9.332 -1.9779  0.1638 -0.7898
  252TMC3    H2 3827   4.464   1.939   9.423  1.5704  0.8636  1.6713
  252TMC3    C7 3828   4.436   1.708   9.275 -0.2565 -0.5843  0.1291
  252TMC3    C8 3829   4.671   2.022   9.559 -0.9621 -0.4974  0.3401
  252TMC3    O1 3830   4.449   1.600   9.220 -0.8406 -0.1575 -0.1242
  252TMC3    O2 3831   4.661   2.100   9.464  0.9705  0.1137  0.5147
  253MPD2     C 3832   0.200   2.677  14.841  0.3579 -0.5917 -0.1430
  253MPD2    C1 3833   0.079   2.629  14.870 -0.2555  0.4373  0.0143
  253MPD2    C2 3834   0.055   2.580  14.996 -0.1371 -0.0859  0.3412
  253MPD2    C3 3835   0.156   2.566  15.093 -0.4231 -0.1100  0.1126
  253MPD2    C4 3836   0.287   2.591  15.051 -0.1877 -0.3891  0.4393
  253MPD2    C5 3837   0.306   2.646  14.926 -0.5303 -0.5475  0.7294
  253MPD2     H 3838   4.669   2.555  15.016  0.0262 -1.4792 -0.5335
  253MPD2    H1 3839   0.369   2.551  15.111  2.2556 -0.7162 -3.1331
  253MPD2    H2 3840   0.224   2.724  14.747 -2.9490  1.8994  0.2734
  253MPD2    H3 3841   0.407   2.668  14.895 -1.7832  1.0893 -2.2194
  253MPD2     N 3842   0.132   2.507  15.219 -0.0609  0.3017  0.2320
  253MPD2    H5 3843   0.217   2.489  15.271 -0.0730  0.2182  0.2224
  253MPD2    N1 3844   4.681   2.634  14.782 -0.1905 -1.0140 -0.3671
  253MPD2    H7 3845   4.592   2.598  14.816  0.5806 -1.6283  1.0169
  254TMC3    C1 3846   0.017   2.428  15.410  0.1882  0.0045 -0.6444
  254TMC3    C2 3847   4.609   2.418  15.470 -0.3708 -0.4839 -0.2708
  254TMC3    C3 3848   4.613   2.349  15.593  0.5431 -0.3172 -0.4872
  254TMC3    C4 3849   0.137   2.379  15.461  0.4985 -0.1537  0.0339
  254TMC3    C5 3850   0.120   2.295  15.564 -0.4295 -0.1278  0.0935
  254TMC3    C6 3851   0.008   2.289  15.640  0.9445  0.3377 -0.2079
  254TMC3     C 3852   0.006   2.498  15.284 -0.1469  0.4258  0.4143
  254TMC3     O 3853   4.610   2.498  15.239 -0.5176  0.4173 -0.3761
  254TMC3     H 3854   4.521   2.469  15.432  0.3071 -0.0680 -1.2775
  254TMC3    H1 3855   0.232   2.377  15.408  0.7892 -1.0171  0.5863
  254TMC3    H2 3856   0.008   2.208  15.712 -0.0226 -0.7823 -1.4582
  254TMC3    C7 3857   0.237   2.245  15.628 -0.5791 -0.4479 -0.9995
  254TMC3    C8 3858   4.524   2.383  15.703  0.1747  0.2230  0.1455
  254TMC3    O1 3859   0.225   2.134  15.679  0.8497  0.3775  0.1292
  254TMC3    O2 3860   4.558   2.344  15.812 -0.2629  0.3171 -0.0466
  255MPD2     C 3861   3.036   3.959  10.160 -0.5021 -0.1762 -0.6618
  255MPD2    C1 3862   3.128   4.053  10.133 -0.8704  0.8821  0.1775
  255MPD2    C2 3863   3.256   4.012  10.110 -0.2179  0.1439  0.5170
  255MPD2    C3 3864   3.291   3.880  10.108  0.8134 -0.4852  0.0838
  255MPD2    C4 3865   3.194   3.779  10.131 -0.0259  0.1214 -0.7366
  255MPD2    C5 3866   3.063   3.820  10.152 -0.5004  0.5257  0.1782
  255MPD2     H 3867   3.341   4.077  10.090 -0.9610  1.8873  3.0198
  255MPD2    H1 3868   3.212   3.674  10.110  0.6493  0.2005 -0.5587
  255MPD2    H2 3869   2.933   3.991  10.166 -0.0023  1.2483  0.3463
  255MPD2    H3 3870   2.979   3.752  10.148 -0.4455  0.3394  2.0028
  255MPD2     N 3871   3.425   3.852  10.076 -0.2383  0.1317  0.0831
  255MPD2    H5 3872   3.474   3.938  10.055 -0.1797  0.5867  2.0162
  255MPD2    N1 3873   3.080   4.183  10.122  0.4849  0.0857  0.4471
  255MPD2    H7 3874   2.980   4.197  10.128  0.4515  0.0977 -0.1559
  256TMC3    C1 3875   3.086   4.418  10.135  0.6925  0.3535  0.0461
  256TMC3    C2 3876   3.160   4.526  10.176 -0.6303 -0.6111  0.5902
  256TMC3    C3 3877   3.108   4.649  10.160 -0.1982 -0.2174  0.1497
  256TMC3    C4 3878   2.956   4.435  10.091 -0.4650 -0.3310 -0.7598
  256TMC3    C5 3879   2.912   4.563  10.064 -0.0885 -0.2478  0.4776
  256TMC3    C6 3880   2.987   4.671  10.098  0.2305  0.2112  0.1758
  256TMC3     C 3881   3.156   4.294  10.108  0.1884  0.0530 -0.3393
  256TMC3     O 3882   3.277   4.291  10.093  0.0446 -0.2405  0.3266
  256TMC3     H 3883   3.265   4.505  10.196  0.3805  1.3466 -2.6680
  256TMC3    H1 3884   2.897   4.350  10.059 -0.5894  0.3972 -2.4497
  256TMC3    H2 3885   2.957   0.055  10.076 -1.2629 -0.4249 -0.7351
  256TMC3    C7 3886   2.800   4.578   9.977 -0.0160  0.6511  0.2727
  256TMC3    C8 3887   3.209   0.039  10.172 -0.5235 -1.1696 -0.1078
  256TMC3    O1 3888   2.764   4.475   9.919  0.0270 -0.2438  0.0290
  256TMC3    O2 3889   3.288   0.044  10.268 -0.5500 -0.2341 -0.3082
  257MPD2     C 3890   2.688   2.346  13.141 -0.5161  0.6803 -0.6131
  257MPD2    C1 3891   2.643   2.292  13.026 -0.6445 -1.2714 -0.5634
  257MPD2    C2 3892   2.635   2.155  13.016 -0.3274 -0.1168  0.0726
  257MPD2    C3 3893   2.673   2.069  13.118  0.4368 -0.4429 -0.1557
  257MPD2    C4 3894   2.709   2.124  13.240  0.0654  0.0556 -0.6111
  257MPD2    C5 3895   2.721   2.260  13.248  0.3276  0.3975  0.2718
  257MPD2     H 3896   2.601   2.113  12.921  1.8239  0.0884 -0.7941
  257MPD2    H1 3897   2.729   2.061  13.326  0.3782 -0.5821 -1.1623
  257MPD2    H2 3898   2.713   2.451  13.156  1.6171  0.2859 -1.4712
  257MPD2    H3 3899   2.757   2.305  13.341  0.6717 -0.5261  0.5887
  257MPD2     N 3900   2.651   1.927  13.108  0.1149  0.0471  0.4050
  257MPD2    H5 3901   2.620   1.888  13.019 -0.1799 -0.1034  0.5730
  257MPD2    N1 3902   2.614   2.383  12.919  0.8398 -0.6353 -0.0168
  257MPD2    H7 3903   2.634   2.479  12.944 -1.3741 -0.1047 -0.2837
  258TMC3    C1 3904   2.610   1.701  13.165  0.1680  0.5489 -0.0038
  258TMC3    C2 3905   2.526   1.684  13.061 -0.5756  0.2293  0.2377
  258TMC3    C3 3906   2.464   1.561  13.042 -0.1625 -0.3967 -0.3863
  258TMC3    C4 3907   2.625   1.604  13.256 -0.1739  0.3209 -0.8417
  258TMC3    C5 3908   2.566   1.483  13.229  0.5457  0.0659  0.1418
  258TMC3    C6 3909   2.482   1.456  13.122 -0.4775 -0.2241 -0.5101
  258TMC3     C 3910   2.665   1.829  13.206  0.3225  0.5571  0.4196
  258TMC3     O 3911   2.695   1.835  13.325 -0.0508 -0.2470 -0.2126
  258TMC3     H 3912   2.495   1.767  12.999  1.6085 -1.3190 -2.9494
  258TMC3    H1 3913   2.703   1.613  13.332  2.1691 -0.4153 -3.1889
  258TMC3    H2 3914   2.426   1.364  13.111 -1.0412 -0.1235  1.5153
  258TMC3    C7 3915   2.598   1.367  13.310 -0.5410  0.0607  0.0329
  258TMC3    C8 3916   2.416   1.541  12.901 -0.0346 -0.2362  0.1118
  258TMC3    O1 3917   2.510   1.287  13.311  0.8680 -0.1759 -0.0872
  258TMC3    O2 3918   2.426   1.631  12.822  0.1652  0.4563  0.4509
  259MPD2     C 3919   1.148   3.753  17.651 -0.7560  0.2305  0.4175
  259MPD2    C1 3920   1.262   3.758   0.054 -0.7045 -0.2874 -0.8429
  259MPD2    C2 3921   1.374   3.710  17.668 -0.5065  0.0025 -0.1701
  259MPD2    C3 3922   1.377   3.655  17.548 -0.2350  0.4043 -0.0725
  259MPD2    C4 3923   1.263   3.652  17.474  0.7059 -0.1596  0.2049
  259MPD2    C5 3924   1.144   3.697  17.524 -0.3482 -0.4497 -0.3513
  259MPD2     H 3925   1.464   3.711   0.054 -1.8785  2.7679  1.8760
  259MPD2    H1 3926   1.255   3.608  17.375 -0.9833  1.1598 -0.2534
  259MPD2    H2 3927   1.057   3.788   0.025  1.4447  3.8960  1.9170
  259MPD2    H3 3928   1.052   3.693  17.466 -0.0464  3.0177 -1.0736
  259MPD2     N 3929   1.504   3.627  17.492 -0.6378 -0.2526 -0.3375
  259MPD2    H5 3930   1.587   3.651  17.545  0.6609 -1.7454 -1.6535
  259MPD2    N1 3931   1.249   3.789   0.194  0.3633 -0.1609 -0.9123
  259MPD2    H7 3932   1.154   3.795   0.230  0.0435  4.1628 -2.4512
  260TMC3    C1 3933   1.673   3.538  17.360 -0.0371 -0.1305 -0.1485
  260TMC3    C2 3934   1.758   3.629  17.411 -0.2590  0.1187  0.3874
  260TMC3    C3 3935   1.880   3.590  17.471  0.3986 -0.1777 -0.2090
  260TMC3    C4 3936   1.716   3.410  17.344 -0.1695  0.5712 -0.3266
  260TMC3    C5 3937   1.840   3.376  17.399  0.4781  0.1000 -0.3139
  260TMC3    C6 3938   1.915   3.459  17.472 -0.3713  0.0529  0.2106
  260TMC3     C 3939   1.532   3.554  17.374 -0.0102  0.2217  0.2213
  260TMC3     O 3940   1.458   3.495  17.292 -0.0728 -0.0174 -0.1915
  260TMC3     H 3941   1.737   3.733  17.388  0.2160 -0.0379 -0.7076
  260TMC3    H1 3942   1.653   3.343  17.286 -0.3643  0.9574 -0.5594
  260TMC3    H2 3943   2.007   3.423  17.515 -1.0485 -0.5705  1.1316
  260TMC3    C7 3944   1.890   3.254  17.347  0.7610 -0.3764  0.4457
  260TMC3    C8 3945   1.965   3.692  17.539  0.1252  0.3970 -0.0275
  260TMC3    O1 3946   1.838   3.209  17.245 -0.5221 -0.1422  0.2164
  260TMC3    O2 3947   1.912   3.807  17.545  0.3628 -0.2715  0.0082
  261MPD2     C 3948   3.271   2.440  12.844  1.0910 -0.1686  0.2523
  261MPD2    C1 3949   3.282   2.320  12.775  0.1853 -0.6141  0.1799
  261MPD2    C2 3950   3.286   2.324  12.639  0.1145 -0.9197  0.1033
  261MPD2    C3 3951   3.263   2.442  12.570  0.1389  0.4921  0.2995
  261MPD2    C4 3952   3.242   2.559  12.645 -0.5526 -0.2584 -0.3486
  261MPD2    C5 3953   3.243   2.557  12.782 -0.0281  0.0302  0.4398
  261MPD2     H 3954   3.306   2.232  12.585 -0.0978 -0.2242 -1.1664
  261MPD2    H1 3955   3.217   2.653  12.597 -1.7027 -1.3703 -1.9296
  261MPD2    H2 3956   3.260   2.436  12.951  1.5472 -0.3431  0.2935
  261MPD2    H3 3957   3.227   2.652  12.833 -0.9339  1.7940 -3.1310
  261MPD2     N 3958   3.250   2.422  12.433  0.3222 -0.7481 -0.4219
  261MPD2    H5 3959   3.242   2.328  12.397  2.0546 -1.2653  0.5912
  261MPD2    N1 3960   3.309   2.199  12.842  0.0278 -0.4366 -0.1213
  261MPD2    H7 3961   3.336   2.120  12.783 -2.1917 -0.0941 -1.5740
  262TMC3    C1 3962   3.170   2.478  12.212 -0.6063 -0.5187  0.4704
  262TMC3    C2 3963   3.165   2.578  12.117 -0.0658 -0.4039 -0.5563
  262TMC3    C3 3964   3.105   2.549  12.000  0.3015 -0.3613  0.0649
  262TMC3    C4 3965   3.104   2.356  12.196 -0.8024 -0.2183  0.4080
  262TMC3    C5 3966   3.051   2.333  12.073  0.1529  0.4237 -0.2541
  262TMC3    C6 3967   3.057   2.426  11.973 -0.1281  0.7447  0.2539
  262TMC3     C 3968   3.224   2.523  12.345 -0.4922 -0.7260 -0.0644
  262TMC3     O 3969   3.239   2.643  12.368 -0.8564 -0.1722  0.1656
  262TMC3     H 3970   3.202   2.677  12.137 -3.1620  0.3436  1.4517
  262TMC3    H1 3971   3.093   2.288  12.280  0.9443 -1.1091 -0.0842
  262TMC3    H2 3972   3.007   2.410  11.878 -0.0018  1.2146  0.1089
  262TMC3    C7 3973   2.976   2.211  12.044 -0.4801 -0.2200  0.3749
  262TMC3    C8 3974   3.097   2.656  11.901 -0.0336  0.5168 -0.4169
  262TMC3    O1 3975   2.932   2.152  12.140 -0.3072 -0.1108  0.6668
  262TMC3    O2 3976   3.127   2.771  11.935 -0.2281  0.0174 -0.9587
  263MPD2     C 3977   3.628   1.687  11.372 -0.1326  0.6523  0.3336
  263MPD2    C1 3978   3.755   1.671  11.325 -0.1833 -0.2611  0.0323
  263MPD2    C2 3979   3.807   1.760  11.245  0.9056  0.7936  0.3279
  263MPD2    C3 3980   3.746   1.881  11.226  0.6209 -0.3440  0.1494
  263MPD2    C4 3981   3.623   1.901  11.283  0.0706  0.5952  0.2221
  263MPD2    C5 3982   3.559   1.807  11.349 -0.8577  0.2174  0.0174
  263MPD2     H 3983   3.897   1.735  11.190  0.4196 -0.9671  0.3530
  263MPD2    H1 3984   3.577   1.998  11.268 -1.4991  0.1621  2.2372
  263MPD2    H2 3985   3.571   1.620  11.436 -0.4909 -1.2268 -1.9552
  263MPD2    H3 3986   3.457   1.823  11.381 -2.0871 -1.8291 -2.8900
  263MPD2     N 3987   3.813   1.974  11.152  0.1686  0.1950 -0.3449
  263MPD2    H5 3988   3.893   1.946  11.097 -0.0034 -0.4171 -0.2861
  263MPD2    N1 3989   3.824   1.555  11.366 -0.1181  0.1064  1.3841
  263MPD2    H7 3990   3.775   1.479  11.410 -0.9700 -0.3785 -0.3929
  264TMC3    C1 3991   3.864   2.171  11.024 -0.1817  0.0726 -0.3827
  264TMC3    C2 3992   3.863   2.309  11.018 -0.4252 -0.2946  0.0437
  264TMC3    C3 3993   3.925   2.364  10.907  0.6810  0.4170  0.2080
  264TMC3    C4 3994   3.918   2.091  10.932 -0.0684  0.3929  0.0319
  264TMC3    C5 3995   3.973   2.148  10.820  0.0482 -0.8905 -0.1145
  264TMC3    C6 3996   3.978   2.284  10.807  0.5388 -0.1181  0.2782
  264TMC3     C 3997   3.777   2.108  11.122 -0.0470 -0.6200  0.3425
  264TMC3     O 3998   3.684   2.178  11.170  0.4501 -0.2735 -0.0176
  264TMC3     H 3999   3.826   2.361  11.106 -0.7493  1.0027 -0.8745
  264TMC3    H1 4000   3.933   1.984  10.948 -1.4973  0.0330 -1.0194
  264TMC3    H2 4001   4.026   2.335  10.724  1.1733 -0.1643  0.6115
  264TMC3    C7 4002   4.011   2.078  10.697 -0.5509 -0.3887 -0.2990
  264TMC3    C8 4003   3.989   2.500  10.927  0.2844  0.1949  0.1376
  264TMC3    O1 4004   4.036   2.136  10.592 -0.0513  0.0529  0.1733
  264TMC3    O2 4005   4.074   2.542  10.845  0.1230 -0.3730  0.6520
  265MPD2     C 4006   1.201   2.052  14.615  0.3435  0.0633  1.3536
  265MPD2    C1 4007   1.319   2.087  14.664  0.6032 -0.5661  0.1771
  265MPD2    C2 4008   1.432   2.031  14.615 -1.4438 -0.4756  0.0373
  265MPD2    C3 4009   1.428   1.949  14.505  0.0763  0.3041  0.1642
  265MPD2    C4 4010   1.305   1.912  14.457 -0.1629  0.0659 -0.1614
  265MPD2    C5 4011   1.197   1.971  14.502  0.3534  0.6652 -0.5241
  265MPD2     H 4012   1.528   2.047  14.663 -1.0731 -0.7342 -0.6269
  265MPD2    H1 4013   1.298   1.843  14.374  0.7464 -0.1388 -0.0731
  265MPD2    H2 4014   1.105   2.087  14.652 -0.8747 -0.2259 -1.6129
  265MPD2    H3 4015   1.103   1.935  14.460  1.0540  1.7204 -2.9778
  265MPD2     N 4016   1.542   1.889  14.451  0.2412  0.1800  0.3910
  265MPD2    H5 4017   1.527   1.817  14.381  0.7867 -0.1804  0.6508
  265MPD2    N1 4018   1.325   2.172  14.780  0.0841 -0.5497  0.1255
  265MPD2    H7 4019   1.415   2.181  14.827  0.7203  1.4778 -1.4900
  266TMC3    C1 4020   1.275   2.349  14.933 -0.8545 -0.2370  0.5466
  266TMC3    C2 4021   1.344   2.297  15.041  0.3258 -0.1503  0.0761
  266TMC3    C3 4022   1.353   2.376  15.155 -0.3521  0.4007  0.0136
  266TMC3    C4 4023   1.238   2.481  14.929  0.0786  0.0891  0.0806
  266TMC3    C5 4024   1.263   2.560  15.040 -0.2608 -0.1281  0.2492
  266TMC3    C6 4025   1.317   2.511  15.159  0.0916 -0.1064  0.3399
  266TMC3     C 4026   1.239   2.276  14.808  0.3055 -0.6510  0.2666
  266TMC3     O 4027   1.142   2.318  14.745 -0.6096  0.2892 -0.1679
  266TMC3     H 4028   1.390   2.199  15.034 -0.1731 -0.3280 -0.6936
  266TMC3    H1 4029   1.198   2.516  14.835 -0.7297 -2.0674 -0.3792
  266TMC3    H2 4030   1.326   2.574  15.247  0.6915  0.7475 -0.3438
  266TMC3    C7 4031   1.219   2.696  15.050  0.3814  0.1503  0.3498
  266TMC3    C8 4032   1.411   2.311  15.271 -0.7235 -0.1888  0.5232
  266TMC3    O1 4033   1.259   2.763  15.143  0.0601  0.2766 -0.0107
  266TMC3    O2 4034   1.416   2.188  15.274  0.4183  0.5555  0.0613
  267MPD2     C 4035   3.438   3.557  17.153 -0.0457  0.9283 -0.2049
  267MPD2    C1 4036   3.420   3.700  17.130  0.7116  0.9090 -0.2017
  267MPD2    C2 4037   3.435   3.733  16.992 -1.0296 -0.0943 -0.0511
  267MPD2    C3 4038   3.455   3.640  16.890 -0.1907  0.4310 -0.2525
  267MPD2    C4 4039   3.464   3.507  16.922  0.2890 -0.3358 -0.2185
  267MPD2    C5 4040   3.459   3.464  17.055 -0.0287 -0.1131 -0.1522
  267MPD2     H 4041   3.430   3.836  16.959  2.2031  0.3327  0.8005
  267MPD2    H1 4042   3.476   3.428  16.847 -1.6869 -1.4903  0.6643
  267MPD2    H2 4043   3.423   3.525  17.256 -2.3847 -0.8972 -1.1151
  267MPD2    H3 4044   3.488   3.363  17.082  1.2356  0.3409  0.1614
  267MPD2     N 4045   3.454   3.680  16.748 -0.5455  0.3816 -0.6361
  267MPD2    H5 4046   3.437   3.613  16.674  0.2708  0.1815 -0.6333
  267MPD2    N1 4047   3.374   3.790  17.232 -0.2875 -0.4161  0.9383
  267MPD2    H7 4048   3.377   3.761  17.329  1.4274  2.7672  1.8356
  268TMC3    C1 4049   3.304   3.992  17.329  0.0834  0.7528  0.3224
  268TMC3    C2 4050   3.254   4.112  17.290 -0.4880  0.2558  0.3891
  268TMC3    C3 4051   3.298   4.231  17.342  0.1080  0.1783 -0.0904
  268TMC3    C4 4052   3.391   3.993  17.434  0.2429  0.2343  0.1565
  268TMC3    C5 4053   3.424   4.110  17.494  0.0547 -0.0594  1.0388
  268TMC3    C6 4054   3.376   4.233  17.448 -0.3531 -0.2780 -0.3740
  268TMC3     C 4055   3.337   3.919  17.213 -0.0988  0.4268  0.7426
  268TMC3     O 4056   3.353   3.992  17.117  0.1498  0.1995 -0.0688
  268TMC3     H 4057   3.184   4.101  17.207  1.0758  1.0948 -1.0270
  268TMC3    H1 4058   3.439   3.902  17.470  0.2981  0.8203  1.5665
  268TMC3    H2 4059   3.420   4.328  17.475  0.8313 -1.0533  0.4214
  268TMC3    C7 4060   3.510   4.109  17.610  0.2774 -1.0496  0.5790
  268TMC3    C8 4061   3.316   4.332  17.247  0.3885  0.2764 -0.0280
  268TMC3    O1 4062   3.564   4.000  17.631  0.3305 -0.1827  0.1635
  268TMC3    O2 4063   3.353   4.440  17.290 -0.1302 -0.1545 -0.5677
  269MPD2     C 4064   3.929   2.463  15.337  0.2137  0.5544 -0.4530
  269MPD2    C1 4065   3.793   2.476  15.310 -0.0626 -0.3248  0.8940
  269MPD2    C2 4066   3.745   2.589  15.257 -0.0140  0.2759  0.0174
  269MPD2    C3 4067   3.832   2.694  15.227 -0.4022  0.4501  0.2677
  269MPD2    C4 4068   3.969   2.679  15.237 -0.0617 -0.8297 -0.3713
  269MPD2    C5 4069   4.018   2.557  15.291  0.2963 -0.2161 -0.3984
  269MPD2     H 4070   3.641   2.605  15.233  0.5441 -0.9460 -3.2373
  269MPD2    H1 4071   4.046   2.755  15.231 -1.0872  0.3224  0.9083
  269MPD2    H2 4072   3.969   2.373  15.383 -0.1203  1.1255  0.9572
  269MPD2    H3 4073   4.117   2.551  15.336  0.8197  1.1940 -1.3569
  269MPD2     N 4074   3.773   2.819  15.196  0.1195 -0.2377 -0.4156
  269MPD2    H5 4075   3.674   2.833  15.209  0.3653  0.3510  0.8304
  269MPD2    N1 4076   3.715   2.363  15.333 -0.3833  0.1833  0.1479
  269MPD2    H7 4077   3.763   2.274  15.336 -0.4290  0.1650  0.3260
  270TMC3    C1 4078   3.514   2.244  15.342  0.1245  0.6467 -0.7721
  270TMC3    C2 4079   3.394   2.220  15.273 -0.0685 -0.3643  0.2345
  270TMC3    C3 4080   3.358   2.090  15.241  0.0171  0.6671  0.6659
  270TMC3    C4 4081   3.598   2.135  15.372  0.3146  0.0440  1.4934
  270TMC3    C5 4082   3.558   2.006  15.344 -0.2273  0.0606  0.5594
  270TMC3    C6 4083   3.438   1.982  15.277 -0.4070  0.0665  0.0705
  270TMC3     C 4084   3.575   2.374  15.342  0.2869  0.1071 -0.1498
  270TMC3     O 4085   3.502   2.473  15.335  0.0277 -0.0459  0.2824
  270TMC3     H 4086   3.337   2.304  15.235  1.2854 -0.0950 -1.1928
  270TMC3    H1 4087   3.681   2.149  15.441  2.3638 -0.4076 -0.8832
  270TMC3    H2 4088   3.399   1.883  15.254  1.2850 -0.2055 -1.5581
  270TMC3    C7 4089   3.652   1.903  15.388  0.3025 -0.1822  0.8406
  270TMC3    C8 4090   3.222   2.076  15.191  0.1740  0.5220 -0.0055
  270TMC3    O1 4091   3.760   1.948  15.414 -0.3563  0.0137  0.5397
  270TMC3    O2 4092   3.145   2.147  15.254 -0.2790 -0.1706 -0.5584
  271MPD2     C 4093   3.031   2.014  13.696  0.0167 -0.1252 -0.2474
  271MPD2    C1 4094   2.957   1.974  13.805 -0.8546  0.1524 -0.5760
  271MPD2    C2 4095   2.820   2.000  13.803  0.2320  0.1138 -0.5005
  271MPD2    C3 4096   2.765   2.068  13.702 -0.1673  0.0546  1.5136
  271MPD2    C4 4097   2.835   2.116  13.594  0.5794 -0.6768 -0.4361
  271MPD2    C5 4098   2.969   2.083  13.592 -0.4718  0.2800 -0.4408
  271MPD2     H 4099   2.761   1.982  13.892  2.1367  2.0195  1.1579
  271MPD2    H1 4100   2.786   2.177  13.520  0.4547 -0.1319  0.0963
  271MPD2    H2 4101   3.138   1.998  13.688  0.3845  1.1288  2.2043
  271MPD2    H3 4102   3.033   2.120  13.513 -1.3785  2.5926 -0.0861
  271MPD2     N 4103   2.636   2.128  13.705 -0.5877  0.0453  0.0499
  271MPD2    H5 4104   2.614   2.188  13.626 -1.2795 -1.7434 -1.1166
  271MPD2    N1 4105   3.002   1.923  13.926  0.4548  0.1289 -0.3576
  271MPD2    H7 4106   2.946   1.907  14.009 -0.3085 -1.2247 -1.1367
  272TMC3    C1 4107   3.163   1.876  14.095 -0.2498  0.6168  0.0480
  272TMC3    C2 4108   3.295   1.849  14.127 -0.1088  0.3614 -0.3313
  272TMC3    C3 4109   3.326   1.829  14.256  0.1378  0.7359  0.2437
  272TMC3    C4 4110   3.071   1.897  14.186  0.1234 -0.1392 -0.2210
  272TMC3    C5 4111   3.100   1.875  14.318 -0.1142 -0.2795  0.7193
  272TMC3    C6 4112   3.230   1.832  14.354  0.3356  0.0630 -0.8115
  272TMC3     C 4113   3.132   1.890  13.952  0.7987 -0.7198  0.2289
  272TMC3     O 4114   3.230   1.896  13.875  0.2254  0.3976  0.1415
  272TMC3     H 4115   3.362   1.831  14.044 -2.0960 -2.1216 -1.4007
  272TMC3    H1 4116   2.972   1.937  14.169  1.5691  3.8571  0.7454
  272TMC3    H2 4117   3.259   1.831  14.458  0.2605  0.1689 -0.7899
  272TMC3    C7 4118   3.008   1.910  14.426 -0.7309 -0.2321 -0.3847
  272TMC3    C8 4119   3.469   1.822  14.291 -0.0342 -0.4423  0.7203
  272TMC3    O1 4120   2.893   1.869  14.422  0.3918 -0.6457 -0.4538
  272TMC3    O2 4121   3.545   1.862  14.203 -0.4178 -0.4029  0.3088
  273MPD2     C 4122   0.045   0.398  11.550  0.4421 -0.1295  0.3575
  273MPD2    C1 4123   0.114   0.516  11.518  0.3634  0.1494 -0.8567
  273MPD2    C2 4124   0.117   0.554  11.385  0.0700 -0.1808  0.6485
  273MPD2    C3 4125   0.065   0.480  11.281 -0.2190 -1.0548  0.5732
  273MPD2    C4 4126   0.006   0.362  11.321  1.0477 -0.6815  0.3318
  273MPD2    C5 4127   4.708   0.327  11.451  0.3891  0.4284 -0.0151
  273MPD2     H 4128   0.168   0.648  11.366 -2.0235  0.2287 -3.0130
  273MPD2    H1 4129   4.678   0.301  11.244  1.5602 -1.8391  0.9401
  273MPD2    H2 4130   0.035   0.361  11.651  0.0363 -0.7535  0.0883
  273MPD2    H3 4131   4.663   0.232  11.477  0.7530 -0.4903 -2.7226
  273MPD2     N 4132   0.058   0.528  11.141 -0.1318 -1.1457 -0.1793
  273MPD2    H5 4133   0.033   0.454  11.077  4.0703 -1.4477 -1.4958
  273MPD2    N1 4134   0.189   0.582  11.617 -0.1728  0.4647  0.0864
  273MPD2    H7 4135   0.179   0.552  11.713 -1.6367  0.4892 -0.0589
  274TMC3    C1 4136   0.089   0.666  10.959  0.0071  0.0733  0.1893
  274TMC3    C2 4137   4.709   0.587  10.905 -0.0988 -0.1726  0.3901
  274TMC3    C3 4138   4.592   0.650  10.870  0.1254 -0.2262 -0.3402
  274TMC3    C4 4139   0.079   0.803  10.948  1.0820  0.3677 -0.2838
  274TMC3    C5 4140   4.674   0.864  10.929  1.0738 -0.6920  0.2924
  274TMC3    C6 4141   4.576   0.780  10.892  0.6398  0.0034 -0.3047
  274TMC3     C 4142   0.117   0.642  11.098 -0.3530  0.3830  0.1430
  274TMC3     O 4143   0.160   0.740  11.164  0.5838 -0.4952 -0.3526
  274TMC3     H 4144   4.713   0.481  10.927 -0.8640 -0.2424  0.1683
  274TMC3    H1 4145   0.167   0.865  10.963  1.3274 -0.3654  1.2973
  274TMC3    H2 4146   4.487   0.825  10.849  0.7206  0.0124 -0.4621
  274TMC3    C7 4147   4.619   0.952  11.033  0.1065  0.0602 -0.1304
  274TMC3    C8 4148   4.472   0.564  10.860  0.5665 -0.1454  0.2286
  274TMC3    O1 4149   4.508   0.990  11.009  0.1304  0.0151 -0.0545
  274TMC3    O2 4150   4.360   0.616  10.870 -0.1344 -0.0207 -0.3580
  275MPD2     C 4151   4.222   3.543  13.983 -0.1483  0.2656 -0.1579
  275MPD2    C1 4152   4.123   3.528  14.075 -0.0398  0.2162  0.5348
  275MPD2    C2 4153   4.036   3.418  14.061  0.2371 -0.3361  0.2779
  275MPD2    C3 4154   4.050   3.339  13.947  0.1665  0.2186 -0.6504
  275MPD2    C4 4155   4.147   3.353  13.860 -0.7306  0.2281  0.0093
  275MPD2    C5 4156   4.233   3.456  13.877  0.6321  0.7961  0.9007
  275MPD2     H 4157   3.954   3.406  14.131 -0.2228  1.5552  0.0622
  275MPD2    H1 4158   4.157   3.284  13.776 -0.1486 -0.5448  0.7200
  275MPD2    H2 4159   4.290   3.628  13.975  0.5138 -0.2457  0.0749
  275MPD2    H3 4160   4.313   3.475  13.807 -1.4252  2.1648 -1.0873
  275MPD2     N 4161   3.964   3.232  13.920  0.5306 -0.4712  0.5416
  275MPD2    H5 4162   3.968   3.172  13.838  0.9009 -0.3546  0.4725
  275MPD2    N1 4163   4.102   3.603  14.196 -0.4374  0.4594  1.0709
  275MPD2    H7 4164   4.047   3.561  14.270  0.6891 -2.0596  0.4991
  276TMC3    C1 4165   4.127   3.775  14.355 -0.2858 -0.4346 -0.1946
  276TMC3    C2 4166   4.028   3.714  14.420  0.4342  0.8318  0.4241
  276TMC3    C3 4167   4.051   3.685  14.553 -0.3905 -0.1177  0.1840
  276TMC3    C4 4168   4.237   3.821  14.422 -0.5871 -0.7517  0.0213
  276TMC3    C5 4169   4.258   3.789  14.556  0.7525  0.3617 -0.7134
  276TMC3    C6 4170   4.166   3.725  14.623 -0.1417 -0.0125  0.2905
  276TMC3     C 4171   4.174   3.720  14.229  0.7869  0.7621  0.9187
  276TMC3     O 4172   4.266   3.776  14.166 -0.2099 -0.2013 -0.2153
  276TMC3     H 4173   3.928   3.687  14.387  0.4481  1.8083 -0.4247
  276TMC3    H1 4174   4.303   3.879  14.359  0.3471 -0.8138  0.9306
  276TMC3    H2 4175   4.171   3.704  14.729 -0.5958  0.7154  0.4542
  276TMC3    C7 4176   4.392   3.777  14.609 -0.3838 -0.1404 -0.2589
  276TMC3    C8 4177   3.981   3.580  14.615  0.5894  0.0524 -0.1935
  276TMC3    O1 4178   4.414   3.783  14.728  0.2118  0.5445  0.3941
  276TMC3    O2 4179   3.858   3.591  14.609  0.4355 -0.4714  0.3712
  277MPD2     C 4180   1.766   2.068  12.830 -0.2814 -0.2035 -0.9574
  277MPD2    C1 4181   1.652   2.122  12.884 -0.1516 -0.6711 -0.2146
  277MPD2    C2 4182   1.621   2.081  13.014 -0.0103  0.1362  0.6366
  277MPD2    C3 4183   1.693   1.988  13.082  0.1795  0.8515 -0.6715
  277MPD2    C4 4184   1.810   1.943  13.031  0.2337 -0.2573 -0.6648
  277MPD2    C5 4185   1.840   1.977  12.903 -0.1541 -0.3188 -0.4826
  277MPD2     H 4186   1.533   2.119  13.064 -1.3970  1.2110 -2.6067
  277MPD2    H1 4187   1.877   1.887  13.095 -1.6627 -0.6832  0.9113
  277MPD2    H2 4188   1.801   2.105  12.735 -0.7711  0.2933 -0.9374
  277MPD2    H3 4189   1.924   1.929  12.855  0.4701 -0.5291  0.8119
  277MPD2     N 4190   1.649   1.955  13.206 -0.4376  0.3190  0.0108
  277MPD2    H5 4191   1.554   1.987  13.220 -0.4500  0.8164 -1.2439
  277MPD2    N1 4192   1.580   2.219  12.806  0.0814  0.3213 -0.1664
  277MPD2    H7 4193   1.617   2.235  12.713  0.5748 -0.4112 -0.0932
  278TMC3    C1 4194   1.603   1.826  13.394  0.7987  0.6636  0.5473
  278TMC3    C2 4195   1.601   1.695  13.435  0.2858 -0.2145 -0.4652
  278TMC3    C3 4196   1.497   1.650  13.509 -0.7291  0.1738  0.0753
  278TMC3    C4 4197   1.494   1.902  13.415 -0.2370  0.8102 -0.1366
  278TMC3    C5 4198   1.390   1.848  13.483 -0.0685 -0.5952 -0.4114
  278TMC3    C6 4199   1.388   1.727  13.537  0.4222  0.1371  1.0958
  278TMC3     C 4200   1.694   1.850  13.284  0.1245 -0.2531  0.2552
  278TMC3     O 4201   1.791   1.774  13.277  0.0332  0.0166 -0.2604
  278TMC3     H 4202   1.680   1.629  13.401  0.2779 -1.3755  1.7961
  278TMC3    H1 4203   1.493   2.005  13.382 -1.0798 -0.3923 -3.9395
  278TMC3    H2 4204   1.310   1.687  13.600 -1.3376  0.0581 -1.1316
  278TMC3    C7 4205   1.309   1.948  13.549  0.1168  0.3417  0.3759
  278TMC3    C8 4206   1.482   1.507  13.512 -0.4245  0.0032  0.3432
  278TMC3    O1 4207   1.353   2.064  13.552  0.1978 -0.0566 -0.2284
  278TMC3    O2 4208   1.583   1.440  13.509 -0.2937  0.4078  0.6466
  279MPD2     C 4209   1.300   2.803  17.626 -0.2648  0.8251 -0.0810
  279MPD2    C1 4210   1.172   2.755  17.612  0.1472 -0.3134  0.2121
  279MPD2    C2 4211   1.140   2.665  17.514 -0.2404  0.6927 -0.4140
  279MPD2    C3 4212   1.237   2.618  17.428 -0.2892  0.1751  0.3276
  279MPD2    C4 4213   1.367   2.656  17.446 -0.0150 -0.8896 -0.2067
  279MPD2    C5 4214   1.398   2.748  17.548 -0.0482  0.4578 -0.1214
  279MPD2     H 4215   1.041   2.623  17.517  1.1884 -2.6611 -0.3326
  279MPD2    H1 4216   1.445   2.618  17.381 -0.7995 -0.0250 -1.6422
  279MPD2    H2 4217   1.333   2.881   0.020 -0.7106  1.1315 -0.2212
  279MPD2    H3 4218   1.505   2.762  17.555  0.1400 -0.2778 -1.3942
  279MPD2     N 4219   1.211   2.529  17.320 -0.3927 -0.4051  0.2001
  279MPD2    H5 4220   1.285   2.500  17.257 -0.5538 -1.3398  0.4553
  279MPD2    N1 4221   1.077   2.802   0.037  0.2215  0.4955 -1.0270
  279MPD2    H7 4222   1.112   2.865   0.108 -0.3872 -1.5998  1.1356
  280TMC3    C1 4223   0.862   2.845   0.157 -0.1057  0.1239  1.0722
  280TMC3    C2 4224   0.927   2.876   0.272 -0.5600 -0.6322  0.2807
  280TMC3    C3 4225   0.853   2.913   0.382  0.1383  0.0724 -1.0343
  280TMC3    C4 4226   0.726   2.858   0.146 -0.2946 -0.2930 -0.1820
  280TMC3    C5 4227   0.656   2.898   0.253  0.1513 -0.4813 -0.3270
  280TMC3    C6 4228   0.723   2.933   0.371  0.6341  0.4216 -0.5835
  280TMC3     C 4229   0.932   2.784   0.038 -0.1467 -0.0418 -0.1121
  280TMC3     O 4230   0.868   2.722  17.631 -0.0534  0.2781 -0.3373
  280TMC3     H 4231   1.033   2.852   0.279 -0.0125  1.3586 -1.2238
  280TMC3    H1 4232   0.668   2.828   0.059  0.0929  0.6253 -0.7548
  280TMC3    H2 4233   0.661   2.962   0.455  3.2473  0.6366  1.2573
  280TMC3    C7 4234   0.508   2.915   0.255 -0.1701  0.0233  0.1039
  280TMC3    C8 4235   0.916   3.004   0.479  0.1697 -0.0558 -0.3391
  280TMC3    O1 4236   0.463   2.979   0.350 -0.2280 -0.1983  0.6828
  280TMC3    O2 4237   1.033   3.004   0.467  0.4175  0.8819  0.0255
  281TMC3    C1 4238   4.650   2.797  13.153 -0.3993  0.0659  0.6633
  281TMC3    C2 4239   4.669   2.870  13.035  0.7419 -0.5816  0.3143
  281TMC3    C3 4240   0.035   2.829  12.936 -0.1801  0.3828 -0.1838
  281TMC3    C4 4241   0.001   2.675  13.169  0.5250 -0.6543 -0.8431
  281TMC3    C5 4242   0.076   2.625  13.068  0.8896 -0.1753  0.6264
  281TMC3    C6 4243   0.096   2.706  12.952 -0.5543 -0.0453 -0.1327
  281TMC3     C 4244   4.515   2.784  13.215 -0.4979  0.0731 -0.1084
  281TMC3     O 4245   4.493   2.683  13.280 -0.1102 -0.2384  0.6179
  281TMC3     H 4246   4.638   2.974  13.027  0.2311 -0.6534  1.3835
  281TMC3    H1 4247   4.697   2.602  13.247  2.3502  2.4606  2.5877
  281TMC3    H2 4248   0.166   2.665  12.880 -1.6632 -1.6188 -0.3231
  281TMC3    C7 4249   0.081   2.487  13.031 -0.3658  0.5340  0.5203
  281TMC3    C8 4250   0.104   2.916  12.840  0.1153 -0.2827  0.2366
  281TMC3    O1 4251   0.173   2.454  12.950  0.3846 -0.2486  0.3632
  281TMC3    O2 4252   0.221   2.883  12.809  0.5665  0.0260  0.1565
  282MPD2     C 4253   1.316   3.911  14.959  0.5681 -1.0299 -0.0564
  282MPD2    C1 4254   1.181   3.936  14.981 -0.2017  0.4959 -0.1180
  282MPD2    C2 4255   1.095   3.947  14.875  0.1201 -0.2901 -0.0309
  282MPD2    C3 4256   1.140   3.899  14.748  0.4112 -0.4204  0.4051
  282MPD2    C4 4257   1.277   3.883  14.722 -0.3239  0.4483  0.1168
  282MPD2    C5 4258   1.357   3.881  14.830  0.8181 -0.4386 -0.5338
  282MPD2     H 4259   0.989   3.958  14.892  0.2607 -1.2786  1.5562
  282MPD2    H1 4260   1.318   3.872  14.622  1.3263 -1.1638  0.9697
  282MPD2    H2 4261   1.394   3.939  15.030  0.0811  0.3098 -0.0475
  282MPD2    H3 4262   1.463   3.880  14.807  0.5634  0.1101 -1.7585
  282MPD2     N 4263   1.049   3.874  14.643 -0.0660 -0.2191 -0.1104
  282MPD2    H5 4264   0.950   3.891  14.664  0.8152  1.9941  2.3631
  282MPD2    N1 4265   1.129   3.954  15.110  0.4859  0.2239 -0.0472
  282MPD2    H7 4266   1.038   3.992  15.134 -0.5066 -2.1642  0.0214
  283TMC3    C1 4267   1.125   3.947  15.349  0.2856 -0.0970  0.5947
  283TMC3    C2 4268   1.068   4.070  15.351  0.3873  0.0709 -0.8174
  283TMC3    C3 4269   0.986   4.091  15.456 -0.6425 -0.3160 -0.1342
  283TMC3    C4 4270   1.111   3.852  15.440  0.4356  0.3407 -0.4760
  283TMC3    C5 4271   1.030   3.876  15.553 -0.2454 -1.1039 -0.4270
  283TMC3    C6 4272   0.962   3.997  15.555  0.5070  0.1288 -0.3200
  283TMC3     C 4273   1.189   3.911  15.227  0.5402  0.7252 -0.9095
  283TMC3     O 4274   1.285   3.836  15.232 -0.3820  0.2963  0.1962
  283TMC3     H 4275   1.081   4.127  15.260  2.6477  0.9953  0.0987
  283TMC3    H1 4276   1.158   3.757  15.415  0.3971  0.1996 -0.0274
  283TMC3    H2 4277   0.895   4.020  15.638  0.8604  1.1564 -0.3234
  283TMC3    C7 4278   0.959   3.767  15.613 -0.7923 -0.1594  0.6382
  283TMC3    C8 4279   0.963   4.230  15.506  0.0359  0.2287 -0.4111
  283TMC3    O1 4280   0.851   3.796  15.650  0.9151 -0.1671 -0.7477
  283TMC3    O2 4281   0.912   4.240  15.619 -0.4271  0.9441  0.2837
  284MPD2     C 4282   4.050   3.115  12.146 -0.1812  0.0404  0.4649
  284MPD2    C1 4283   4.086   3.088  12.014 -0.0237 -0.6419 -0.1916
  284MPD2    C2 4284   4.049   2.965  11.958  0.1803  0.4435  0.2321
  284MPD2    C3 4285   3.971   2.878  12.025  0.3227 -0.1180  0.1294
  284MPD2    C4 4286   3.945   2.900  12.162  0.4331 -0.2259  0.5176
  284MPD2    C5 4287   3.987   3.019  12.216  0.0075  0.3192  0.3506
  284MPD2     H 4288   4.083   2.942  11.858  0.3382 -0.8711  0.5886
  284MPD2    H1 4289   3.894   2.825  12.222 -5.2504  1.4023 -2.3345
  284MPD2    H2 4290   4.059   3.208  12.201  1.0406  0.1687  0.0378
  284MPD2    H3 4291   3.968   3.039  12.320 -0.1987 -1.2904  0.6218
  284MPD2     N 4292   3.924   2.751  11.975  0.7610  0.0615  0.0319
  284MPD2    H5 4293   3.881   2.693  12.046  2.6897  0.6965  1.6864
  284MPD2    N1 4294   4.180   3.168  11.941  0.3907  0.4128 -0.2562
  284MPD2    H7 4295   4.214   3.123  11.857 -0.8219 -0.3802 -0.3226
  285TMC3    C1 4296   4.337   3.334  11.897 -0.0469 -0.5773 -0.3072
  285TMC3    C2 4297   4.428   3.245  11.854 -0.0088 -0.1614  0.4694
  285TMC3    C3 4298   4.554   3.283  11.833  0.3264 -0.1556 -0.4170
  285TMC3    C4 4299   4.377   3.462  11.926 -0.5560 -0.1621  0.1022
  285TMC3    C5 4300   4.509   3.500  11.912 -0.3087 -0.2350  0.5983
  285TMC3    C6 4301   4.604   3.411  11.864  0.0702  0.5006 -0.6446
  285TMC3     C 4302   4.227   3.287  11.976  0.2122  0.0972  0.2757
  285TMC3     O 4303   4.204   3.357  12.076  0.0267 -0.4008 -0.6744
  285TMC3     H 4304   4.402   3.140  11.845 -0.4757  0.1342 -1.5870
  285TMC3    H1 4305   4.302   3.532  11.963 -0.8656 -0.9025  0.8843
  285TMC3    H2 4306   4.709   3.437  11.866 -0.3421  2.1397 -0.4283
  285TMC3    C7 4307   4.546   3.639  11.921 -0.2980  0.1902 -0.0718
  285TMC3    C8 4308   4.633   3.190  11.754  0.1321  0.5135 -0.1491
  285TMC3    O1 4309   4.657   3.671  11.882  0.1035 -0.4126  0.1891
  285TMC3    O2 4310   4.584   3.092  11.700  0.1388 -0.2008  0.5268
  286MPD2     C 4311   4.352   2.816   1.384  0.1157  0.7378  0.2144
  286MPD2    C1 4312   4.345   2.758   1.251 -0.1858 -0.0967  0.4376
  286MPD2    C2 4313   4.442   2.676   1.206  0.0662 -0.1422  0.4436
  286MPD2    C3 4314   4.544   2.635   1.292  0.3481 -0.3917  0.7082
  286MPD2    C4 4315   4.550   2.679   1.419 -0.2816 -0.9257  0.0825
  286MPD2    C5 4316   4.453   2.772   1.462  0.9578 -0.4223  0.5719
  286MPD2     H 4317   4.443   2.655   1.099  0.9135  3.9725 -0.3380
  286MPD2    H1 4318   4.635   2.653   1.480  1.3230  1.2845 -1.1957
  286MPD2    H2 4319   4.276   2.883   1.424 -2.7128 -1.8009 -0.8844
  286MPD2    H3 4320   4.458   2.817   1.561 -0.3757 -2.6793  1.6600
  286MPD2     N 4321   4.654   2.566   1.248 -0.2763 -0.6023 -0.0627
  286MPD2    H5 4322   0.003   2.547   1.322  1.1230  0.2053 -1.1040
  286MPD2    N1 4323   4.259   2.805   1.147  0.0070  0.5044  0.1221
  286MPD2    H7 4324   4.270   2.757   1.058  4.0296  2.8939 -0.6514
  287TMC3    C1 4325   0.055   2.426   1.086 -0.1333 -0.4574  0.0948
  287TMC3    C2 4326   0.037   2.340   0.981  0.6455  0.1772 -0.4813
  287TMC3    C3 4327   0.153   2.275   0.942  0.3902  0.2267 -0.1675
  287TMC3    C4 4328   0.173   2.451   1.149 -0.2064 -0.0567 -0.3377
  287TMC3    C5 4329   0.278   2.384   1.100 -0.2485 -0.1361  0.5747
  287TMC3    C6 4330   0.269   2.299   0.998 -0.2251 -0.3021  0.0321
  287TMC3     C 4331   4.660   2.507   1.122 -0.9157  0.2069  0.6126
  287TMC3     O 4332   4.571   2.493   1.040 -1.1294 -0.3687 -0.5619
  287TMC3     H 4333   4.663   2.333   0.922  1.0367 -0.3183 -1.0256
  287TMC3    H1 4334   0.183   2.534   1.218 -1.7282 -0.1563 -0.0044
  287TMC3    H2 4335   0.350   2.238   0.960 -0.5387 -0.5073 -0.3045
  287TMC3    C7 4336   0.404   2.402   1.174  0.3933  0.0609  0.2675
  287TMC3    C8 4337   0.154   2.199   0.816  0.4881 -0.0713 -0.0891
  287TMC3    O1 4338   0.418   2.506   1.234  0.7904 -0.2467 -0.0315
  287TMC3    O2 4339   0.262   2.192   0.763  0.2061 -0.3749 -0.0708
  288TMC3    C1 4340   2.034   1.362  13.408  0.8271  0.1302  0.4503
  288TMC3    C2 4341   1.961   1.430  13.505  0.5231 -0.3606 -0.2578
  288TMC3    C3 4342   1.961   1.567  13.492 -0.1873  0.6598 -0.3929
  288TMC3    C4 4343   2.113   1.420  13.313 -0.7527 -0.4376 -0.0955
  288TMC3    C5 4344   2.126   1.556  13.313  0.6074  1.0164 -0.3401
  288TMC3    C6 4345   2.036   1.631  13.396  0.1412  0.1485 -0.1901
  288TMC3     C 4346   2.026   1.223  13.416  0.2596 -0.1509  0.1414
  288TMC3     O 4347   1.927   1.177  13.472 -0.0810  0.2929 -0.3742
  288TMC3     H 4348   1.909   1.380  13.586  3.5322 -0.5389  1.5674
  288TMC3    H1 4349   2.163   1.363  13.236 -1.0542 -1.7224  0.6588
  288TMC3    H2 4350   2.015   1.737  13.384  0.6141  0.3080  0.3863
  288TMC3    C7 4351   2.161   1.620  13.189 -0.5630 -0.7158  0.3728
  288TMC3    C8 4352   1.919   1.644  13.609 -0.2662 -0.0345  0.2755
  288TMC3    O1 4353   2.181   1.541  13.100 -0.0758  0.0234 -0.2874
  288TMC3    O2 4354   1.960   1.759  13.622  0.0593  0.2681 -0.6026
  289MPD2     C 4355   1.656   1.115  13.689 -0.5584 -0.3015 -0.2120
  289MPD2    C1 4356   1.621   0.995  13.625 -0.7965 -0.7596 -0.1859
  289MPD2    C2 4357   1.508   0.923  13.656 -0.1201 -0.9953 -0.5832
  289MPD2    C3 4358   1.432   0.970  13.763 -0.5033 -0.1637  0.4179
  289MPD2    C4 4359   1.465   1.080  13.830 -0.2179 -0.1103  0.3814
  289MPD2    C5 4360   1.585   1.150  13.799  0.2555  0.2270 -1.2133
  289MPD2     H 4361   1.483   0.833  13.601 -0.3543 -1.5645  0.4572
  289MPD2    H1 4362   1.407   1.115  13.915 -2.4839 -1.7740 -0.5010
  289MPD2    H2 4363   1.733   1.175  13.642  0.0876 -0.5491  0.5343
  289MPD2    H3 4364   1.613   1.242  13.850 -2.0156  0.0935  0.3258
  289MPD2     N 4365   1.309   0.909  13.799  0.5982  0.1590 -0.7975
  289MPD2    H5 4366   1.252   0.975  13.850  0.9710  1.2607 -1.8158
  289MPD2    N1 4367   1.698   0.964  13.515 -0.7691 -0.8480  0.2737
  289MPD2    H7 4368   1.783   1.018  13.503 -0.4879 -1.4578 -0.4785
  290TMC3    C1 4369   1.115   0.802  13.736 -0.3596 -0.4112 -0.1200
  290TMC3    C2 4370   1.065   0.925  13.692 -0.9046  0.8263 -0.8023
  290TMC3    C3 4371   0.936   0.915  13.648 -0.1439 -0.7715  0.7733
  290TMC3    C4 4372   1.049   0.684  13.725 -0.0407 -0.3258  0.0259
  290TMC3    C5 4373   0.918   0.684  13.677 -0.0565 -0.1039 -0.1208
  290TMC3    C6 4374   0.858   0.803  13.644 -0.4159 -0.7219  0.0345
  290TMC3     C 4375   1.259   0.796  13.745 -0.2575  0.2037 -0.1712
  290TMC3     O 4376   1.309   0.705  13.683  0.1951 -0.2530 -0.3783
  290TMC3     H 4377   1.130   1.010  13.673  0.5972 -0.3797 -1.0961
  290TMC3    H1 4378   1.095   0.588  13.745 -0.5916 -0.3989  0.9434
  290TMC3    H2 4379   0.756   0.811  13.608 -0.4690  1.0410  0.6228
  290TMC3    C7 4380   0.821   0.593  13.739 -0.2808 -0.3790  0.0332
  290TMC3    C8 4381   0.861   1.036  13.612  0.0931  0.2370 -0.1690
  290TMC3    O1 4382   0.705   0.626  13.724  0.5553  0.4414 -0.4234
  290TMC3    O2 4383   0.753   1.020  13.560 -0.3427  0.4016  0.2394
  291MPD2     C 4384   0.821   0.003   0.496  0.6191 -0.0073  0.1813
  291MPD2    C1 4385   0.798   4.648   0.378  1.3713 -0.3162  0.1107
  291MPD2    C2 4386   0.905   4.604   0.296  0.4819 -0.5742  0.0764
  291MPD2    C3 4387   1.034   4.639   0.334 -0.1316 -0.4343 -0.4245
  291MPD2    C4 4388   1.056   4.703   0.452 -0.0521 -0.7699  0.4967
  291MPD2    C5 4389   0.953   0.025   0.528  0.0860 -0.3362 -0.0374
  291MPD2     H 4390   0.889   4.551   0.203 -2.4689  1.7465 -0.7540
  291MPD2    H1 4391   1.157   0.001   0.488  0.7201 -0.1609 -1.8995
  291MPD2    H2 4392   0.747   0.032   0.569 -1.2647 -0.9719 -1.3438
  291MPD2    H3 4393   0.978   0.075   0.621  0.2869 -0.5172  0.0070
  291MPD2     N 4394   1.152   4.599   0.271  0.1012 -0.4599  0.3165
  291MPD2    H5 4395   1.239   4.634   0.309  0.4179  0.8802 -1.6362
  291MPD2    N1 4396   0.668   4.624   0.324  0.6098 -0.6088  0.3698
  291MPD2    H7 4397   0.662   4.594   0.227 -1.9608  1.3168 -0.1019
  292TMC3    C1 4398   0.443   4.669   0.268 -0.1023  0.2413  0.2038
  292TMC3    C2 4399   0.354   0.050   0.261  0.0220  0.2620 -0.4604
  292TMC3    C3 4400   0.255   0.046   0.169  0.1661 -0.5172  0.3205
  292TMC3    C4 4401   0.459   4.576   0.168 -0.2448 -0.4394 -0.5425
  292TMC3    C5 4402   0.373   4.585   0.063  0.3995  0.0483  0.4508
  292TMC3    C6 4403   0.267   4.678   0.063 -0.1797 -0.4780 -0.2253
  292TMC3     C 4404   0.549   4.687   0.363 -0.8578 -0.1539 -0.0514
  292TMC3     O 4405   0.529   0.045   0.455 -0.1567  0.6072 -0.1615
  292TMC3     H 4406   0.328   0.100   0.354 -1.3299 -0.7125 -0.3074
  292TMC3    H1 4407   0.537   4.501   0.164 -0.0185 -0.0788 -2.5264
  292TMC3    H2 4408   0.188   4.679  17.662  0.0609  3.8575 -0.4163
  292TMC3    C7 4409   0.379   4.479  17.638  0.5401 -0.2871 -0.4557
  292TMC3    C8 4410   0.115   0.098   0.190 -0.1963 -0.7375 -0.1300
  292TMC3    O1 4411   0.489   4.427  17.626  0.3502  0.0130 -0.6012
  292TMC3    O2 4412   0.031   0.056   0.112  0.0716  0.1287 -0.4367
  293MPD2     C 4413   2.819   2.625  12.144 -0.3155 -0.1223 -0.2022
  293MPD2    C1 4414   2.763   2.501  12.184 -0.4955 -0.5481 -0.8365
  293MPD2    C2 4415   2.796   2.450  12.306 -0.2488 -0.0366 -0.4067
  293MPD2    C3 4416   2.872   2.519  12.399 -0.9401 -0.1175 -0.5220
  293MPD2    C4 4417   2.909   2.645  12.366  0.6664 -0.1800 -0.9733
  293MPD2    C5 4418   2.885   2.689  12.240 -0.1455  0.2553  0.0180
  293MPD2     H 4419   2.759   2.350  12.325  0.3828 -0.2516 -0.3150
  293MPD2    H1 4420   2.956   2.720  12.429  1.4458 -0.8173 -0.7874
  293MPD2    H2 4421   2.800   2.676  12.050  0.0879  0.6328  0.1321
  293MPD2    H3 4422   2.919   2.788  12.210 -0.2463 -0.0434 -1.0717
  293MPD2     N 4423   2.899   2.478  12.530  0.0493  0.1197 -0.5232
  293MPD2    H5 4424   2.944   2.547  12.589  0.2126 -2.1901  2.1153
  293MPD2    N1 4425   2.694   2.429  12.086  0.1949  0.2512 -0.1826
  293MPD2    H7 4426   2.707   2.463  11.991  0.3740  2.2491  0.5440
  294TMC3    C1 4427   2.526   2.319  11.987 -0.4405  0.0295 -0.0658
  294TMC3    C2 4428   2.386   2.326  11.990 -0.4787 -0.3895  0.2264
  294TMC3    C3 4429   2.328   2.357  11.869  0.4737 -1.0372  1.1794
  294TMC3    C4 4430   2.600   2.320  11.867  0.2269 -0.7203  0.1729
  294TMC3    C5 4431   2.530   2.332  11.747  0.3590  0.1555  0.2229
  294TMC3    C6 4432   2.395   2.362  11.745 -0.2983  0.0145  1.2313
  294TMC3     C 4433   2.590   2.346  12.115  0.2958  0.1962  0.6538
  294TMC3     O 4434   2.524   2.323  12.217 -0.0817 -0.4001 -0.4741
  294TMC3     H 4435   2.330   2.350  12.079 -0.2940  2.7217 -0.4660
  294TMC3    H1 4436   2.707   2.302  11.868  0.1338 -1.2762  0.5358
  294TMC3    H2 4437   2.347   2.417  11.665  2.0180  1.2310  0.6654
  294TMC3    C7 4438   2.610   2.362  11.632  0.5241 -0.2566  0.5151
  294TMC3    C8 4439   2.190   2.385  11.869 -0.8296 -0.1175  0.7879
  294TMC3    O1 4440   2.725   2.402  11.655  0.2852  0.0635 -0.2857
  294TMC3    O2 4441   2.147   2.463  11.785 -0.5779 -0.2205  0.9387
  295MPD2     C 4442   2.083   0.255   0.822 -0.3020  0.8433 -0.7021
  295MPD2    C1 4443   2.101   0.361   0.743  0.4834  0.0888  0.1590
  295MPD2    C2 4444   2.106   0.490   0.796  0.0760 -0.0931 -0.9272
  295MPD2    C3 4445   2.085   0.515   0.936  0.3741  0.0069 -0.4932
  295MPD2    C4 4446   2.075   0.403   1.018  0.3318  0.2159 -0.0428
  295MPD2    C5 4447   2.070   0.274   0.957  0.1400 -0.2191 -0.5062
  295MPD2     H 4448   2.137   0.568   0.728  0.6187 -0.6527 -1.3238
  295MPD2    H1 4449   2.062   0.422   1.124 -2.4801  1.2474 -0.5742
  295MPD2    H2 4450   2.077   0.151   0.789  1.9865  0.9645 -1.4383
  295MPD2    H3 4451   2.047   0.189   1.019  2.0377  0.4209  1.0816
  295MPD2     N 4452   2.087   0.643   1.001 -0.0177 -0.1726  0.6874
  295MPD2    H5 4453   2.102   0.638   1.101  1.7899 -0.9785  0.3799
  295MPD2    N1 4454   2.144   0.348   0.606 -0.2679  0.8382  0.3578
  295MPD2    H7 4455   2.149   0.430   0.547 -0.2557  0.1608 -0.5789
  296TMC3    C1 4456   2.121   0.861   1.031  0.1680  0.9349 -0.2334
  296TMC3    C2 4457   2.171   0.982   0.987  0.5901 -1.3749  0.3484
  296TMC3    C3 4458   2.161   1.092   1.069  0.5658  0.6901 -0.4748
  296TMC3    C4 4459   2.067   0.853   1.152  0.2391  0.7880 -0.0874
  296TMC3    C5 4460   2.074   0.956   1.245 -0.4462  0.0085  0.1999
  296TMC3    C6 4461   2.112   1.072   1.191  0.0664  0.1729 -0.3737
  296TMC3     C 4462   2.081   0.761   0.937  0.0124 -0.8564 -0.8204
  296TMC3     O 4463   2.071   0.781   0.816  0.6063  0.0482  0.4997
  296TMC3     H 4464   2.215   0.990   0.888 -1.7449 -1.0719 -0.6783
  296TMC3    H1 4465   2.014   0.767   1.190  1.9662 -0.0303  0.4843
  296TMC3    H2 4466   2.117   1.154   1.261 -0.5304  1.9419 -2.4109
  296TMC3    C7 4467   1.959   0.965   1.342 -0.1032  0.0882 -0.0902
  296TMC3    C8 4468   2.232   1.212   1.028  0.1529 -0.4677  0.3337
  296TMC3    O1 4469   1.915   1.077   1.359 -0.2110  0.0560  0.5454
  296TMC3    O2 4470   2.296   1.201   0.924 -0.3794  0.2617 -0.1661
  297MPD2     C 4471   0.536   2.511  16.105  0.4945  0.2927  0.2171
  297MPD2    C1 4472   0.491   2.614  16.023  0.3489  0.4707  0.5201
  297MPD2    C2 4473   0.567   2.736  16.004 -0.0431  0.1664  0.0952
  297MPD2    C3 4474   0.689   2.760  16.069  0.2004 -0.4852 -0.1635
  297MPD2    C4 4475   0.740   2.653  16.148  0.6780 -0.0846 -0.4417
  297MPD2    C5 4476   0.666   2.536  16.155 -0.1149 -0.9263 -0.4964
  297MPD2     H 4477   0.525   2.817  15.948  0.3462  0.8756  0.8269
  297MPD2    H1 4478   0.837   2.648  16.195 -0.2045 -0.2919  1.3426
  297MPD2    H2 4479   0.490   2.413  16.105 -1.2130  1.0923  0.5939
  297MPD2    H3 4480   0.721   2.457  16.204  0.4550 -0.6803 -0.7374
  297MPD2     N 4481   0.763   2.882  16.055 -0.0632 -0.0954  0.0676
  297MPD2    H5 4482   0.718   2.941  15.986 -3.7898 -1.0756  1.6470
  297MPD2    N1 4483   0.370   2.609  15.951  0.7356  0.0734 -0.6741
  297MPD2    H7 4484   0.366   2.674  15.873  0.0786 -0.9662 -1.5098
  298TMC3    C1 4485   0.151   2.552  15.898  0.1771 -0.5922  0.2685
  298TMC3    C2 4486   0.172   2.594  15.774 -1.0981  0.6360 -0.5804
  298TMC3    C3 4487   0.073   2.678  15.717  0.1076 -0.2934 -0.6086
  298TMC3    C4 4488   0.034   2.572  15.959 -0.0177 -0.0957 -0.1650
  298TMC3    C5 4489   4.648   2.645  15.902 -0.1014 -0.0686  0.0647
  298TMC3    C6 4490   4.671   2.709  15.779 -0.4666  0.0203 -0.3182
  298TMC3     C 4491   0.269   2.520  15.977  0.3433 -0.7135  0.6973
  298TMC3     O 4492   0.260   2.442  16.074  0.7201 -0.1354  0.4154
  298TMC3     H 4493   0.262   2.565  15.720 -1.8320 -2.2056 -0.2735
  298TMC3    H1 4494   0.021   2.516  16.051 -2.6134  1.7441  0.6022
  298TMC3    H2 4495   4.602   2.775  15.729 -0.1840  1.4810  1.2359
  298TMC3    C7 4496   4.536   2.681  15.987  0.0097  0.1429 -0.1280
  298TMC3    C8 4497   0.111   2.737  15.588 -0.1198 -0.2524 -0.2628
  298TMC3    O1 4498   4.525   2.634  16.098 -0.0569 -0.5180  0.5279
  298TMC3    O2 4499   0.200   2.683  15.525 -0.3339 -0.2503 -0.5246
  299MPD2     C 4500   0.947   2.634   9.876 -0.1836 -0.1203  0.5286
  299MPD2    C1 4501   0.910   2.604  10.001  0.1054  0.8166  0.0536
  299MPD2    C2 4502   0.772   2.586  10.027 -0.6390  0.2338  0.0576
  299MPD2    C3 4503   0.679   2.597   9.926 -0.0411  0.5982  0.1868
  299MPD2    C4 4504   0.720   2.625   9.795 -0.2729  0.6977  0.2167
  299MPD2    C5 4505   0.857   2.641   9.772  0.7797 -0.1249  0.3736
  299MPD2     H 4506   0.735   2.575  10.128  1.0592 -2.1037  0.4291
  299MPD2    H1 4507   0.647   2.623   9.715 -0.4629 -0.1631  0.4141
  299MPD2    H2 4508   1.053   2.640   9.851 -0.1150 -0.9550  0.6396
  299MPD2    H3 4509   0.890   2.662   9.671 -0.8558 -0.2034 -0.1794
  299MPD2     N 4510   0.541   2.585   9.943 -0.4661  0.2586 -0.4412
  299MPD2    H5 4511   0.479   2.616   9.868  0.9365 -0.1185 -1.7737
  299MPD2    N1 4512   1.012   2.605  10.103  0.2325 -0.4087 -0.1666
  299MPD2    H7 4513   1.110   2.613  10.079  0.0358  0.4454 -0.6978
  300TMC3    C1 4514   0.334   2.565  10.069  0.2062  0.0135 -0.0106
  300TMC3    C2 4515   0.293   2.697  10.039  0.0182 -0.1739  0.5765
  300TMC3    C3 4516   0.188   2.748  10.120  0.6096  0.1186  0.4896
  300TMC3    C4 4517   0.267   2.483  10.152  0.2246  0.2310 -0.0796
  300TMC3    C5 4518   0.151   2.532  10.211  0.6453 -0.4172 -0.1292
  300TMC3    C6 4519   0.114   2.661  10.201 -0.0353 -1.3850  0.5918
  300TMC3     C 4520   0.479   2.533  10.054  0.6193  0.9404 -0.4451
  300TMC3     O 4521   0.538   2.484  10.151 -0.1991  0.7778 -0.3028
  300TMC3     H 4522   0.360   2.769   9.992  0.3265 -0.6844  0.2426
  300TMC3    H1 4523   0.310   2.389  10.186  1.4567 -0.0325 -2.3816
  300TMC3    H2 4524   0.030   2.693  10.262 -0.9656 -0.6099 -1.1248
  300TMC3    C7 4525   0.125   2.467  10.338  0.8353  0.2063  0.9895
  300TMC3    C8 4526   0.224   2.863  10.200 -0.0339 -0.2563  0.2228
  300TMC3    O1 4527   0.113   2.349  10.342  0.0119  0.6800 -0.1628
  300TMC3    O2 4528   0.206   2.861  10.321 -0.1777  0.2384 -0.0767
  301MPD2     C 4529   2.966   3.783   1.269 -0.0498  0.3145 -0.2443
  301MPD2    C1 4530   2.916   3.735   1.151  0.4942  0.5986 -0.0343
  301MPD2    C2 4531   2.998   3.660   1.073  0.0877 -0.2252  0.6919
  301MPD2    C3 4532   3.128   3.636   1.118  0.3052 -0.3321 -0.2557
  301MPD2    C4 4533   3.182   3.685   1.233  0.0617 -0.0637  0.3758
  301MPD2    C5 4534   3.093   3.752   1.312  0.2004 -0.0359  0.4425
  301MPD2     H 4535   2.974   3.637   0.970 -0.5653  2.1095  0.3457
  301MPD2    H1 4536   3.279   3.661   1.276  0.5445 -0.8530 -1.1428
  301MPD2    H2 4537   2.892   3.818   1.340  1.5256  0.0886  1.4998
  301MPD2    H3 4538   3.115   3.777   1.415  0.7999 -0.3200  0.3839
  301MPD2     N 4539   3.222   3.584   1.028 -0.1758  0.0067  0.3432
  301MPD2    H5 4540   3.319   3.611   1.038 -0.1462  0.0836 -0.1299
  301MPD2    N1 4541   2.783   3.757   1.110 -0.6848  0.2124 -0.8473
  301MPD2    H7 4542   2.750   3.704   1.029 -0.7431 -2.7209  1.0997
  302TMC3    C1 4543   3.280   3.481   0.823  0.0503  0.8468 -0.0602
  302TMC3    C2 4544   3.312   3.356   0.783 -0.1125  0.0968  0.4378
  302TMC3    C3 4545   3.350   3.341   0.650  0.7726  0.0526 -0.2882
  302TMC3    C4 4546   3.281   3.595   0.740 -0.2712  0.2583 -0.4361
  302TMC3    C5 4547   3.316   3.577   0.609 -0.6759 -0.4872 -0.0423
  302TMC3    C6 4548   3.347   3.450   0.560 -0.2498 -0.0794  0.5591
  302TMC3     C 4549   3.191   3.485   0.930  0.4804  0.4366 -0.9421
  302TMC3     O 4550   3.111   3.396   0.923 -0.2094 -0.2648  0.5194
  302TMC3     H 4551   3.308   3.275   0.855 -0.2093 -0.0299  0.2893
  302TMC3    H1 4552   3.245   3.690   0.780  0.6051  0.9089 -1.1901
  302TMC3    H2 4553   3.372   3.429   0.457  0.4789  0.0671  0.7111
  302TMC3    C7 4554   3.226   3.650   0.517  0.2970 -0.1400  0.9454
  302TMC3    C8 4555   3.433   3.224   0.617 -0.3413 -0.5438 -0.0474
  302TMC3    O1 4556   3.218   3.772   0.534 -0.3435 -1.3139 -0.0095
  302TMC3    O2 4557   3.463   3.216   0.498 -0.6370 -0.2301 -0.2057
  303MPD2     C 4558   3.054   1.589  10.155 -0.1608  0.2177  0.0253
  303MPD2    C1 4559   2.962   1.492  10.139 -0.2075  0.3486  0.8702
  303MPD2    C2 4560   2.869   1.510  10.038  0.1873 -0.4408  0.3067
  303MPD2    C3 4561   2.878   1.610   9.949 -0.0907  0.8271 -0.4680
  303MPD2    C4 4562   2.979   1.707   9.962 -0.2305  1.3744 -1.2755
  303MPD2    C5 4563   3.068   1.690  10.066  0.3105  0.2055  0.1271
  303MPD2     H 4564   2.801   1.430  10.010  0.3402 -0.5182  0.1534
  303MPD2    H1 4565   2.992   1.793   9.897  0.6406  0.8425 -1.8188
  303MPD2    H2 4566   3.116   1.585  10.244  0.0828 -1.5488 -0.2297
  303MPD2    H3 4567   3.124   1.781  10.086  0.3516  0.8311 -2.8645
  303MPD2     N 4568   2.780   1.638   9.846  0.3395 -0.2896  0.4129
  303MPD2    H5 4569   2.797   1.719   9.787  1.1703  0.2080  1.3347
  303MPD2    N1 4570   2.963   1.379  10.226 -0.2988 -0.5913  0.5385
  303MPD2    H7 4571   3.019   1.385  10.310 -0.2328  2.3008  0.2892
  304TMC3    C1 4572   2.925   1.156  10.294 -0.2447  0.5921 -0.0019
  304TMC3    C2 4573   2.856   1.196  10.404  0.5287  0.3663 -0.4215
  304TMC3    C3 4574   2.794   1.098  10.481 -0.4959  0.0928 -0.2419
  304TMC3    C4 4575   2.926   1.029  10.246  0.0966  1.4861  0.4404
  304TMC3    C5 4576   2.854   0.935  10.313  0.2604  0.9953 -0.7358
  304TMC3    C6 4577   2.798   0.963  10.442  0.3507  0.0505 -0.6999
  304TMC3     C 4578   2.930   1.251  10.184  0.0747 -0.4267  0.0333
  304TMC3     O 4579   2.879   1.208  10.079 -0.1504  0.4264 -0.3419
  304TMC3     H 4580   2.837   1.302  10.415 -2.2983 -0.4657  2.7804
  304TMC3    H1 4581   2.960   1.001  10.147 -0.1343  2.5030  0.0690
  304TMC3    H2 4582   2.751   0.881  10.496  0.8245  0.7846  0.8307
  304TMC3    C7 4583   2.772   0.846  10.232  0.0502 -0.1425  0.0996
  304TMC3    C8 4584   2.650   1.122  10.524 -0.7130 -0.8338  0.5799
  304TMC3    O1 4585   2.811   0.780  10.141 -0.7393 -0.0302  0.1714
  304TMC3    O2 4586   2.577   1.027  10.509 -0.3740  0.1812  0.4263
  305MPD2     C 4587   0.912   3.860  13.696  0.7121  0.7943 -0.0973
  305MPD2    C1 4588   1.016   3.770  13.704 -0.4882  0.9101  0.6142
  305MPD2    C2 4589   1.051   3.700  13.590  0.2479  0.9251 -0.6865
  305MPD2    C3 4590   0.980   3.718  13.475 -0.1323  0.1817  0.2011
  305MPD2    C4 4591   0.872   3.803  13.471 -0.3835  1.2400  0.9091
  305MPD2    C5 4592   0.837   3.875  13.579 -0.5154  0.2045  0.5277
  305MPD2     H 4593   1.153   3.661  13.593  0.2048  0.9304  1.0909
  305MPD2    H1 4594   0.820   3.814  13.377  0.5222 -1.7086  0.0532
  305MPD2    H2 4595   0.896   3.932  13.776 -1.5571  0.4633 -0.2427
  305MPD2    H3 4596   0.763   3.954  13.583  0.5993  1.2982 -0.1548
  305MPD2     N 4597   1.024   3.656  13.358  0.4690  0.8379  0.0391
  305MPD2    H5 4598   0.979   3.676  13.269 -0.3091 -0.2755  0.1776
  305MPD2    N1 4599   1.100   3.772  13.815  0.0569 -0.4489 -0.9718
  305MPD2    H7 4600   1.070   3.833  13.890 -0.4359  0.8683 -2.2318
  306TMC3    C1 4601   1.274   3.746  13.966  0.2684 -0.3036  0.2985
  306TMC3    C2 4602   1.340   3.650  14.044  0.3996  0.5283 -0.3385
  306TMC3    C3 4603   1.361   3.680  14.177 -0.5972 -1.0009 -0.0462
  306TMC3    C4 4604   1.248   3.875  14.014  0.4409  0.0742 -0.8640
  306TMC3    C5 4605   1.276   3.895  14.144  0.4232 -0.1061  0.2991
  306TMC3    C6 4606   1.330   3.802  14.231  0.0169  1.0134 -0.1108
  306TMC3     C 4607   1.201   3.687  13.851  0.4339  0.2797  0.1168
  306TMC3     O 4608   1.240   3.585  13.798 -0.3763  0.1038  0.4312
  306TMC3     H 4609   1.375   3.553  14.009 -0.6732 -0.1412  0.4472
  306TMC3    H1 4610   1.207   3.955  13.954  3.6759  1.7759 -0.7922
  306TMC3    H2 4611   1.349   3.832  14.333 -0.5916  2.3090 -0.3733
  306TMC3    C7 4612   1.207   4.012  14.191 -0.8007 -0.0024  0.4066
  306TMC3    C8 4613   1.453   3.594  14.247 -0.7020  0.1339  0.0307
  306TMC3    O1 4614   1.102   4.050  14.134 -0.3648 -0.4894 -0.4138
  306TMC3    O2 4615   1.506   3.497  14.190 -0.2182  0.4560 -0.8520
  307MPD2     C 4616   3.910   1.654  17.359  0.4235  0.1732 -0.2826
  307MPD2    C1 4617   3.870   1.739  17.457  0.3309  0.0104 -0.0042
  307MPD2    C2 4618   3.854   1.706  17.591  0.1182  0.0311  0.2341
  307MPD2    C3 4619   3.873   1.577  17.629  1.0319  0.3267  0.2644
  307MPD2    C4 4620   3.919   1.490  17.532  0.3308 -0.0176  0.5841
  307MPD2    C5 4621   3.944   1.528  17.398  0.2596  0.4240  0.7520
  307MPD2     H 4622   3.816   1.774  17.665 -2.8421 -3.0811  1.5603
  307MPD2    H1 4623   3.957   1.391  17.554 -0.1689 -0.2752  0.2877
  307MPD2    H2 4624   3.926   1.675  17.254  1.7264  0.0467 -0.1140
  307MPD2    H3 4625   3.974   1.454  17.325 -1.2871 -0.0949  0.6564
  307MPD2     N 4626   3.844   1.554   0.090  0.0331  0.4845 -1.5158
  307MPD2    H5 4627   3.800   1.626   0.146  2.3985  1.8478 -1.4243
  307MPD2    N1 4628   3.831   1.875  17.424 -0.6587 -0.2597 -0.1222
  307MPD2    H7 4629   3.797   1.937  17.497 -1.1869 -1.0872  0.3310
  308TMC3    C1 4630   3.590   1.463   0.351 -0.3870  1.0694  0.2124
  308TMC3    C2 4631   3.601   1.582   0.416 -0.4025  0.0767 -0.2547
  308TMC3    C3 4632   3.725   1.639   0.405  0.2972  0.1557 -0.2894
  308TMC3    C4 4633   3.697   1.388   0.294  0.0170 -0.0731  0.3104
  308TMC3    C5 4634   3.810   1.457   0.291 -0.4584 -0.0041  0.1360
  308TMC3    C6 4635   3.825   1.583   0.342  0.1008  0.0234  0.7253
  308TMC3     C 4636   3.457   1.412   0.308  0.1378  0.4765  0.7699
  308TMC3     O 4637   3.444   1.289   0.316  0.1241 -0.0611 -0.8303
  308TMC3     H 4638   3.523   1.626   0.477  1.5679  2.2725  0.6737
  308TMC3    H1 4639   3.674   1.300   0.236  0.7583 -0.5271  0.7187
  308TMC3    H2 4640   3.924   1.624   0.353  0.3825 -0.2781 -0.7626
  308TMC3    C7 4641   3.877   1.443   0.162 -0.3578 -0.1465  0.9804
  308TMC3    C8 4642   3.768   1.741   0.496  0.3091  0.1289  0.3382
  308TMC3    O1 4643   3.923   1.335   0.128 -0.0112 -0.6371 -0.0488
  308TMC3    O2 4644   3.873   1.738   0.560 -0.1847 -0.1424 -0.6180
  309MPD2     C 4645   2.856   2.017  16.582  0.3693 -0.2957  0.0648
  309MPD2    C1 4646   2.913   2.128  16.528  1.0165  0.3756  0.3652
  309MPD2    C2 4647   2.886   2.248  16.593 -0.1104  0.7685 -0.2675
  309MPD2    C3 4648   2.798   2.255  16.698  0.0365  0.0701 -0.1727
  309MPD2    C4 4649   2.752   2.132  16.747  0.2502  0.9956  1.2932
  309MPD2    C5 4650   2.779   2.015  16.694 -1.0666  1.1389 -0.2735
  309MPD2     H 4651   2.930   2.339  16.554 -0.5185  0.6388 -1.0161
  309MPD2    H1 4652   2.695   2.138  16.839  0.1295 -1.4278  1.3529
  309MPD2    H2 4653   2.873   1.921  16.533  1.0479 -0.0225 -0.2400
  309MPD2    H3 4654   2.733   1.925  16.735  0.4101  0.5667  0.1394
  309MPD2     N 4655   2.753   2.378  16.763 -0.4770  0.7517 -0.6378
  309MPD2    H5 4656   2.692   2.365  16.843  0.8423  1.5650  0.5251
  309MPD2    N1 4657   2.997   2.117  16.411  0.4074  0.4862 -0.2439
  309MPD2    H7 4658   3.035   2.200  16.367  1.8400 -0.4886 -0.8793
  310TMC3    C1 4659   3.154   2.045  16.251  0.4219  0.0561 -0.4992
  310TMC3    C2 4660   3.128   2.152  16.164  0.0740  0.0502 -0.4485
  310TMC3    C3 4661   3.221   2.184  16.069  0.6436 -0.3101 -0.1402
  310TMC3    C4 4662   3.273   1.976  16.243 -0.0163 -0.5867  0.8131
  310TMC3    C5 4663   3.361   2.017  16.150 -0.6795  0.3255  0.0458
  310TMC3    C6 4664   3.340   2.119  16.060  0.7858 -0.0847 -0.6653
  310TMC3     C 4665   3.066   2.009  16.361 -0.2857  0.0199  0.1989
  310TMC3     O 4666   3.087   1.902  16.416 -0.5611  0.4967 -0.1786
  310TMC3     H 4667   3.038   2.212  16.173  1.1825  1.6946 -0.2628
  310TMC3    H1 4668   3.295   1.899  16.316  0.1083 -0.6063  0.7546
  310TMC3    H2 4669   3.407   2.138  15.977  3.6868  1.7200  2.0633
  310TMC3    C7 4670   3.487   1.954  16.148 -0.3538 -0.7830  0.2104
  310TMC3    C8 4671   3.186   2.288  15.974  0.2876  0.4806  0.3014
  310TMC3    O1 4672   3.493   1.836  16.181 -0.7942 -0.1247  0.2058
  310TMC3    O2 4673   3.072   2.305  15.939 -0.2301 -0.1532  0.0616
  311MPD2     C 4674   0.165   3.452  12.491  0.0596 -0.0825  0.3461
  311MPD2    C1 4675   0.178   3.583  12.524  0.3063  0.5092  0.7585
  311MPD2    C2 4676   0.076   3.659  12.569  0.8052  0.3512  0.6288
  311MPD2    C3 4677   4.668   3.603  12.587 -0.3718 -0.2785 -0.1081
  311MPD2    C4 4678   4.648   3.470  12.558 -0.1030  0.2538  0.0649
  311MPD2    C5 4679   0.039   3.399  12.509  0.0223 -0.1947  0.1116
  311MPD2     H 4680   0.091   3.759  12.607 -0.4831  1.1050 -0.8445
  311MPD2    H1 4681   4.556   3.417  12.578  0.0021 -0.1252 -0.4365
  311MPD2    H2 4682   0.242   3.387  12.452 -0.4840 -0.1186 -0.6685
  311MPD2    H3 4683   0.023   3.298  12.474 -0.9786 -1.0768  3.1542
  311MPD2     N 4684   4.564   3.688  12.629 -0.2511  0.1580  0.8770
  311MPD2    H5 4685   4.596   3.783  12.645 -1.8092  1.0642 -1.4161
  311MPD2    N1 4686   0.301   3.659  12.506  0.7470 -0.1853 -0.0739
  311MPD2    H7 4687   0.306   3.757  12.533  1.0966 -0.6482  1.5461
  312TMC3    C1 4688   4.351   3.775  12.696 -0.5132  0.0544 -0.5008
  312TMC3    C2 4689   4.220   3.802  12.659  0.8874 -0.1931  0.1503
  312TMC3    C3 4690   4.171   3.929  12.684 -0.0488  0.1203 -0.5796
  312TMC3    C4 4691   4.425   3.865  12.775  0.2891  0.6754 -0.2381
  312TMC3    C5 4692   4.365   3.979  12.812  0.5771 -0.0638  0.0013
  312TMC3    C6 4693   4.246   4.016  12.751 -0.5873 -0.7226  0.0990
  312TMC3     C 4694   4.432   3.658  12.642 -0.5341 -1.1301 -0.4036
  312TMC3     O 4695   4.374   3.558  12.599 -0.1730 -0.2193  0.1771
  312TMC3     H 4696   4.164   3.730  12.600  0.6950 -0.4600  0.6593
  312TMC3    H1 4697   4.526   3.836  12.798 -0.2736 -0.2404  1.0510
  312TMC3    H2 4698   4.210   4.115  12.777  0.9592  0.1395 -1.0879
  312TMC3    C7 4699   4.435   4.055  12.911  0.2591 -0.2401  0.2174
  312TMC3    C8 4700   4.030   3.943  12.653 -0.3490  0.6423 -0.1035
  312TMC3    O1 4701   4.412   4.174  12.918  0.6060 -0.2808  0.1925
  312TMC3    O2 4702   3.965   3.843  12.615 -0.0142 -0.0045 -0.7415
  313MPD2     C 4703   4.542   2.695  10.480  0.5805 -0.3140 -0.0472
  313MPD2    C1 4704   4.537   2.771  10.362 -0.4916 -0.0268  0.2122
  313MPD2    C2 4705   4.500   2.703  10.246 -1.2171  0.2697  0.3193
  313MPD2    C3 4706   4.467   2.566  10.244  0.3970 -0.0678  0.1314
  313MPD2    C4 4707   4.475   2.500  10.356  0.0979 -1.7058 -1.0516
  313MPD2    C5 4708   4.509   2.564  10.477  0.1272  0.3827 -0.1028
  313MPD2     H 4709   4.508   2.766  10.158  0.8148  0.7230  0.8275
  313MPD2    H1 4710   4.466   2.393  10.370 -2.3507 -0.8757  3.6231
  313MPD2    H2 4711   4.572   2.739  10.574  0.9166 -1.0908  0.2078
  313MPD2    H3 4712   4.509   2.504  10.568  0.4117  1.7975  0.8279
  313MPD2     N 4713   4.426   2.512  10.119  0.4304  0.6654  0.9908
  313MPD2    H5 4714   4.403   2.575  10.043  0.7754 -0.0703  0.2748
  313MPD2    N1 4715   4.587   2.900  10.359  0.8860 -0.0370  0.2460
  313MPD2    H7 4716   4.620   2.939  10.272 -1.5968  3.3883  0.8465
  314TMC3    C1 4717   4.687   3.101  10.428  0.3591 -0.3279 -0.6004
  314TMC3    C2 4718   0.038   3.173  10.528 -0.6009 -0.1027  0.0127
  314TMC3    C3 4719   0.096   3.294  10.508  0.0225 -0.5846 -0.0754
  314TMC3    C4 4720   4.679   3.150  10.301 -0.3078 -0.8222  0.2999
  314TMC3    C5 4721   0.019   3.275  10.288 -0.1334  0.0999  0.4325
  314TMC3    C6 4722   0.072   3.357  10.390  0.3919  0.7176  0.7138
  314TMC3     C 4723   4.616   2.977  10.464  0.0748 -0.3308  0.0520
  314TMC3     O 4724   4.595   2.962  10.583  0.1826  0.6360  0.0374
  314TMC3     H 4725   0.035   3.131  10.628  0.1489 -0.1795  0.0018
  314TMC3    H1 4726   4.610   3.116  10.225 -0.0571 -0.8694  0.0893
  314TMC3    H2 4727   0.110   3.455  10.366 -0.2538  0.7193 -0.3413
  314TMC3    C7 4728   0.011   3.330  10.155  0.1681  0.2773 -0.1733
  314TMC3    C8 4729   0.131   3.377  10.622  0.1495  0.3024 -0.0123
  314TMC3    O1 4730   0.036   3.448  10.155 -0.2951 -0.3920 -0.2477
  314TMC3    O2 4731   0.115   3.500  10.621  0.4571  0.2415  0.3820
  315MPD2     C 4732   4.092   1.911  17.667  0.3051 -0.6071 -0.3678
  315MPD2    C1 4733   4.085   2.026   0.073 -0.2268 -0.1519  1.3385
  315MPD2    C2 4734   4.145   2.141   0.027  0.1329 -0.3368  0.1596
  315MPD2    C3 4735   4.211   2.150  17.576 -0.3974  0.1158 -0.0723
  315MPD2    C4 4736   4.203   2.037  17.499 -0.1336  0.7120  0.2417
  315MPD2    C5 4737   4.150   1.921  17.547  0.3241  0.1461  0.0492
  315MPD2     H 4738   4.120   2.235   0.074  1.4967  0.9106 -1.6213
  315MPD2    H1 4739   4.251   2.031  17.402 -1.2902 -0.5574 -0.2404
  315MPD2    H2 4740   4.058   1.811   0.020  1.4255 -0.7487  0.5772
  315MPD2    H3 4741   4.154   1.839  17.476 -2.7124 -1.8489  2.1891
  315MPD2     N 4742   4.268   2.271  17.533 -0.4683  0.2450  0.0689
  315MPD2    H5 4743   4.265   2.350  17.597  2.4786  1.2692 -1.0487
  315MPD2    N1 4744   4.042   2.029   0.204  0.3700  0.0585 -0.3683
  315MPD2    H7 4745   4.074   2.114   0.249 -1.6889  0.3759  0.4841
  316TMC3    C1 4746   4.428   2.407  17.431  0.0223  0.0131 -0.8622
  316TMC3    C2 4747   4.478   2.444  17.551 -0.6192  0.4940  0.2228
  316TMC3    C3 4748   4.567   2.548  17.563 -0.5994  0.0958 -0.7095
  316TMC3    C4 4749   4.474   2.462  17.312 -0.2646  0.1562 -0.5529
  316TMC3    C5 4750   4.565   2.558  17.328  0.8071  0.0166 -0.4475
  316TMC3    C6 4751   4.608   2.605  17.445 -0.0711  0.5501 -0.1451
  316TMC3     C 4752   4.343   2.286  17.424  0.4517  0.4344  0.1812
  316TMC3     O 4753   4.359   2.219  17.324  0.3289  0.0575 -0.5199
  316TMC3     H 4754   4.450   2.395  17.643 -0.6516  0.6704  0.3085
  316TMC3    H1 4755   4.431   2.429  17.219 -1.0485 -1.9432  0.5442
  316TMC3    H2 4756   4.667   2.696  17.445  2.3007 -0.9891  1.9586
  316TMC3    C7 4757   4.566   2.648  17.211  0.0628  0.3808 -0.3340
  316TMC3    C8 4758   4.624   2.580   0.018 -0.5503  0.0247 -0.2937
  316TMC3    O1 4759   4.532   2.766  17.230 -0.1928 -0.2179  0.0213
  316TMC3    O2 4760   4.608   2.503   0.114 -0.3075  0.5090  0.3304
  317MPD2     C 4761   1.049   0.991  12.456  0.0567 -0.1836  0.1058
  317MPD2    C1 4762   1.069   0.854  12.439  0.0313 -0.2197 -0.4417
  317MPD2    C2 4763   1.153   0.784  12.523 -0.3136 -1.3473  0.1552
  317MPD2    C3 4764   1.238   0.849  12.616  0.4394  0.2668  0.7655
  317MPD2    C4 4765   1.229   0.986  12.613 -0.5249  0.5150  0.1190
  317MPD2    C5 4766   1.132   1.051  12.547 -0.4265  0.0729 -0.4617
  317MPD2     H 4767   1.174   0.678  12.511 -0.1107 -1.2154 -0.6632
  317MPD2    H1 4768   1.297   1.044  12.674  0.1107 -0.7943  0.6610
  317MPD2    H2 4769   0.990   1.049  12.386  0.4930  0.7336  0.5061
  317MPD2    H3 4770   1.124   1.159  12.543 -0.5308  0.0451 -1.0065
  317MPD2     N 4771   1.329   0.780  12.699 -0.1719 -0.4758  0.0174
  317MPD2    H5 4772   1.316   0.680  12.709 -1.3006 -0.4070 -0.8983
  317MPD2    N1 4773   0.995   0.781  12.340 -0.3774  0.0355 -0.1179
  317MPD2    H7 4774   0.994   0.680  12.350 -0.2131  0.0170 -0.2838
  318TMC3    C1 4775   1.499   0.734  12.851 -0.0128  0.3038  1.0332
  318TMC3    C2 4776   1.437   0.623  12.900  0.5483 -0.6368  1.0595
  318TMC3    C3 4777   1.510   0.524  12.963  0.2699  0.3079 -0.5241
  318TMC3    C4 4778   1.634   0.753  12.875  0.0623  0.2511 -0.3950
  318TMC3    C5 4779   1.704   0.645  12.927 -0.4687  0.0047  0.5210
  318TMC3    C6 4780   1.644   0.533  12.987  0.2530  0.0933  0.0508
  318TMC3     C 4781   1.427   0.834  12.776 -0.2735  0.3387 -0.2497
  318TMC3     O 4782   1.479   0.942  12.765  0.2963 -0.1644 -0.0356
  318TMC3     H 4783   1.329   0.614  12.901  0.4820 -0.1489 -1.9083
  318TMC3    H1 4784   1.677   0.849  12.850  1.4396 -0.2116  0.1930
  318TMC3    H2 4785   1.693   0.450  13.037 -0.5659 -0.7691 -0.5835
  318TMC3    C7 4786   1.837   0.636  12.867  0.4526  0.0835 -0.3771
  318TMC3    C8 4787   1.434   0.413  13.022  0.7207 -0.7610 -0.1582
  318TMC3    O1 4788   1.848   0.714  12.772  0.6364  0.2704  0.2898
  318TMC3    O2 4789   1.474   0.360  13.128  0.3254  0.5203 -0.2604
  319MPD2     C 4790   2.733   1.689  16.031  0.8500  0.0636  0.6781
  319MPD2    C1 4791   2.624   1.653  16.106 -0.0608  0.3421 -0.5278
  319MPD2    C2 4792   2.500   1.637  16.041 -0.0717  0.2551 -0.7949
  319MPD2    C3 4793   2.496   1.654  15.900  0.0681  0.0922  0.7693
  319MPD2    C4 4794   2.608   1.684  15.828  0.7881 -1.1913  0.1122
  319MPD2    C5 4795   2.723   1.705  15.892 -0.1473  0.0406 -0.5828
  319MPD2     H 4796   2.420   1.596  16.102 -0.3840  1.8682 -0.1178
  319MPD2    H1 4797   2.618   1.704  15.722  0.8592 -0.2023  0.3025
  319MPD2    H2 4798   2.829   1.699  16.081  0.5436 -0.1458  1.3115
  319MPD2    H3 4799   2.809   1.747  15.842 -0.1660 -1.1322 -1.6097
  319MPD2     N 4800   2.383   1.611  15.822  0.6127  0.4977 -0.0231
  319MPD2    H5 4801   2.403   1.619  15.723  1.8597 -0.3451  0.1649
  319MPD2    N1 4802   2.618   1.643  16.245  0.3049  0.3493  0.1567
  319MPD2    H7 4803   2.531   1.603  16.280  0.0027  1.1138  0.2676
  320TMC3    C1 4804   2.170   1.588  15.752  0.2768  0.0027 -0.1483
  320TMC3    C2 4805   2.179   1.693  15.666  0.4952  0.2922  0.0178
  320TMC3    C3 4806   2.073   1.738  15.589 -0.4203  0.3739 -0.2846
  320TMC3    C4 4807   2.049   1.529  15.764 -0.0987 -0.0743  0.0327
  320TMC3    C5 4808   1.946   1.570  15.684  0.2346  0.7313  0.3229
  320TMC3    C6 4809   1.953   1.674  15.598  0.3608 -0.0031  0.6625
  320TMC3     C 4810   2.256   1.588  15.868 -0.2859  0.5627  0.6585
  320TMC3     O 4811   2.211   1.588  15.980 -0.0586  0.4155 -0.0764
  320TMC3     H 4812   2.269   1.754  15.663  0.0258  0.9093 -1.6491
  320TMC3    H1 4813   2.044   1.442  15.829 -2.1490  0.5411  0.7077
  320TMC3    H2 4814   1.862   1.692  15.541 -1.2680  1.4444  3.6990
  320TMC3    C7 4815   1.826   1.496  15.690 -0.2273 -0.2163  0.0035
  320TMC3    C8 4816   2.078   1.872  15.541  0.9561 -0.0643 -0.7692
  320TMC3    O1 4817   1.720   1.553  15.668 -0.0274 -0.4442 -0.0226
  320TMC3    O2 4818   2.166   1.944  15.584  0.1433  0.3036  0.3978
  321TMC3    C1 4819   2.690   1.649  16.476  1.0505  0.7287  0.2857
  321TMC3    C2 4820   2.551   1.645  16.513  0.1822 -0.3152  0.2153
  321TMC3    C3 4821   2.528   1.655  16.646  0.3432 -0.6992  0.2367
  321TMC3    C4 4822   2.792   1.653  16.563 -0.1847 -0.1122  0.1327
  321TMC3    C5 4823   2.760   1.662  16.699  0.3616 -0.9326  0.1971
  321TMC3    C6 4824   2.631   1.669  16.736  0.9643  0.3165  0.4144
  321TMC3     C 4825   2.725   1.663  16.331  0.3104 -0.1110 -0.0769
  321TMC3     O 4826   2.843   1.699  16.312  0.3237 -0.2153 -0.1057
  321TMC3     H 4827   2.470   1.630  16.443 -0.2347 -0.6715  0.7806
  321TMC3    H1 4828   2.891   1.647  16.519 -0.1816 -1.3203  0.3096
  321TMC3    H2 4829   2.618   1.666  16.844 -1.2888  0.9582  0.1439
  321TMC3    C7 4830   2.831   1.569  16.793  0.4700  0.2498 -0.5388
  321TMC3    C8 4831   2.425   1.570  16.699  0.2199  0.2378 -0.5426
  321TMC3    O1 4832   2.760   1.474  16.824 -0.0764  0.3872  0.3023
  321TMC3    O2 4833   2.305   1.611  16.702  0.2016  0.0584 -0.0302
  322MPD2     C 4834   1.108   3.105  13.437  0.2540  0.3717  0.8477
  322MPD2    C1 4835   1.133   3.020  13.538  0.0123  0.1364 -0.3038
  322MPD2    C2 4836   1.150   2.877  13.520  0.4730 -0.2821 -0.6779
  322MPD2    C3 4837   1.147   2.834  13.389  0.3652 -0.4319 -0.3229
  322MPD2    C4 4838   1.114   2.924  13.293  0.9007 -0.1632 -0.0692
  322MPD2    C5 4839   1.091   3.056  13.317 -0.4551  0.3790  0.1952
  322MPD2     H 4840   1.161   2.808  13.604  2.2395  1.5662  0.6028
  322MPD2    H1 4841   1.097   2.888  13.192 -0.6434 -1.6604  0.7268
  322MPD2    H2 4842   1.096   3.212  13.448  2.7599  1.0607 -3.0387
  322MPD2    H3 4843   1.059   3.108  13.228 -0.9269 -0.6681 -0.2499
  322MPD2     N 4844   1.164   2.692  13.366 -0.1437  0.7154 -0.6636
  322MPD2    H5 4845   1.166   2.627  13.444  2.6489  0.5973 -0.8374
  322MPD2    N1 4846   1.144   3.087  13.664  0.9317  0.6919 -0.3977
  322MPD2    H7 4847   1.150   3.187  13.647 -0.3899  0.7774 -0.3534
  323TMC3    C1 4848   1.222   3.108  13.888 -0.6093 -0.3133 -0.4318
  323TMC3    C2 4849   1.285   3.222  13.862 -0.6085  0.7060  0.0433
  323TMC3    C3 4850   1.371   3.276  13.960 -1.1828 -0.3184  0.6501
  323TMC3    C4 4851   1.248   3.044  14.009  0.0446 -0.2976 -0.3109
  323TMC3    C5 4852   1.333   3.096  14.100  0.1680  0.2694 -0.0126
  323TMC3    C6 4853   1.401   3.211  14.077  0.3926  0.2625  0.3657
  323TMC3     C 4854   1.161   3.030  13.786 -0.0963 -0.3715  0.2003
  323TMC3     O 4855   1.136   2.915  13.813  0.0668 -0.0705 -0.1261
  323TMC3     H 4856   1.268   3.279  13.771 -0.7830  0.1053 -0.3045
  323TMC3    H1 4857   1.203   2.948  14.033 -0.4685  0.7678  3.0098
  323TMC3    H2 4858   1.475   3.253  14.145  1.4452 -0.0246 -0.5912
  323TMC3    C7 4859   1.395   3.009  14.194 -0.1108 -0.0724 -0.6460
  323TMC3    C8 4860   1.493   3.329  13.910 -0.4035 -0.5985 -0.1308
  323TMC3    O1 4861   1.422   2.892  14.156 -0.3403 -0.1018  0.5105
  323TMC3    O2 4862   1.600   3.301  13.969 -0.5099  0.4391  0.2696
  324MPD2     C 4863   2.678   4.084  14.341  0.5545  0.2498  0.0050
  324MPD2    C1 4864   2.724   4.174  14.247  0.1235 -0.7156 -0.0809
  324MPD2    C2 4865   2.659   4.190  14.124 -0.4516 -0.4786  0.5205
  324MPD2    C3 4866   2.536   4.122  14.103  0.5043  0.1966 -0.4961
  324MPD2    C4 4867   2.493   4.031  14.196  0.2295 -0.2833 -0.7369
  324MPD2    C5 4868   2.559   4.014  14.316  0.0743  0.5970 -0.2929
  324MPD2     H 4869   2.703   4.262  14.057 -1.6977  0.9675  1.2503
  324MPD2    H1 4870   2.391   3.995  14.195  0.3633 -0.6448 -1.8362
  324MPD2    H2 4871   2.733   4.061  14.432 -0.2657  0.1056  0.4565
  324MPD2    H3 4872   2.516   3.957  14.398 -2.4573 -0.5978 -2.4283
  324MPD2     N 4873   2.456   4.145  13.990  0.5545  0.3629  0.5112
  324MPD2    H5 4874   2.370   4.091  13.983 -0.8121  2.3862  1.7155
  324MPD2    N1 4875   2.840   4.250  14.266  0.4849 -0.2944 -0.2735
  324MPD2    H7 4876   2.852   4.323  14.197  1.3348 -0.5071 -0.3503
  325TMC3    C1 4877   2.397   4.215  13.769 -0.1394 -0.4280  0.6403
  325TMC3    C2 4878   2.295   4.122  13.748  1.0429  0.0471  0.0378
  325TMC3    C3 4879   2.175   4.164  13.704 -0.1332 -0.6888 -0.0064
  325TMC3    C4 4880   2.387   4.342  13.730  0.7416  0.3718  0.5030
  325TMC3    C5 4881   2.271   4.375  13.671  0.3484 -0.3916 -0.0364
  325TMC3    C6 4882   2.166   4.294  13.655 -0.0469 -0.8030 -0.6840
  325TMC3     C 4883   2.501   4.202  13.872 -0.6026  0.6308 -0.2969
  325TMC3     O 4884   2.607   4.259  13.848 -0.3374 -0.4200  0.4313
  325TMC3     H 4885   2.312   4.020  13.782  1.4629  0.8944  2.3394
  325TMC3    H1 4886   2.458   4.415  13.767  0.3111  1.4523 -0.7961
  325TMC3    H2 4887   2.080   4.331  13.600 -0.1738  3.4597  2.4045
  325TMC3    C7 4888   2.261   4.509  13.616  0.0362 -0.1056  0.0461
  325TMC3    C8 4889   2.074   4.073  13.665  0.1553  0.0054 -0.6664
  325TMC3    O1 4890   2.373   4.555  13.590  0.0976 -0.8016 -0.1403
  325TMC3    O2 4891   2.098   3.960  13.629 -0.0721  0.3564  0.3295
  326MPD2     C 4892   4.234   0.539  11.294 -0.0031 -0.8052 -0.2283
  326MPD2    C1 4893   4.117   0.582  11.234 -0.3023  1.2238 -0.5338
  326MPD2    C2 4894   4.125   0.702  11.163 -0.5402 -0.4396 -0.3504
  326MPD2    C3 4895   4.242   0.766  11.139 -0.9153  0.5548 -0.4907
  326MPD2    C4 4896   4.360   0.721  11.192 -0.1729  0.2990  1.0999
  326MPD2    C5 4897   4.352   0.606  11.266 -0.0657  0.4211  0.0017
  326MPD2     H 4898   4.036   0.725  11.107  0.1802 -0.7007 -1.6081
  326MPD2    H1 4899   4.454   0.770  11.170 -0.5203  0.7777  0.6888
  326MPD2    H2 4900   4.231   0.444  11.347  0.7712 -1.3034 -1.0705
  326MPD2    H3 4901   4.443   0.557  11.297 -0.3368  0.5177  0.9566
  326MPD2     N 4902   4.250   0.876  11.046  0.5180  0.1124  0.7417
  326MPD2    H5 4903   4.342   0.915  11.024  1.0858 -0.6904  1.6995
  326MPD2    N1 4904   3.999   0.503  11.222  0.1273 -0.1325 -0.3490
  326MPD2    H7 4905   3.935   0.543  11.155  1.6470  0.8002 -1.2428
  327TMC3    C1 4906   3.901   0.294  11.180 -0.4083  0.0730 -0.2993
  327TMC3    C2 4907   3.794   0.355  11.123 -0.2800 -0.0840  0.0031
  327TMC3    C3 4908   3.762   0.301  11.002 -0.7567  0.5795 -0.0126
  327TMC3    C4 4909   3.961   0.185  11.130  0.6079  0.8890 -0.4413
  327TMC3    C5 4910   3.924   0.131  11.011  0.0386  0.0389 -0.1974
  327TMC3    C6 4911   3.823   0.196  10.946 -0.4490  0.5661 -0.5380
  327TMC3     C 4912   3.988   0.372  11.268 -0.9226 -0.3207  0.1697
  327TMC3     O 4913   4.060   0.312  11.349 -0.2033 -0.1656  0.2913
  327TMC3     H 4914   3.745   0.435  11.178  0.1151  0.0800  0.1163
  327TMC3    H1 4915   4.049   0.145  11.179 -0.6986  0.0132  1.1843
  327TMC3    H2 4916   3.811   0.158  10.845  0.3726  1.9603 -1.1439
  327TMC3    C7 4917   4.027   0.095  10.921 -0.4668 -0.6670  0.1349
  327TMC3    C8 4918   3.673   0.375  10.911  0.6913  0.5554  0.8216
  327TMC3    O1 4919   4.070   4.697  10.910 -0.3260 -0.5571  0.2439
  327TMC3    O2 4920   3.704   0.378  10.790  0.0563  0.4137 -0.2064
  328MPD2     C 4921   1.812   0.483  16.640 -0.3798 -0.0392 -0.3276
  328MPD2    C1 4922   1.696   0.419  16.678  0.4373 -0.3563 -0.4837
  328MPD2    C2 4923   1.596   0.496  16.739  0.7471 -0.1348 -0.2180
  328MPD2    C3 4924   1.621   0.633  16.766  0.2960 -0.2903 -0.1956
  328MPD2    C4 4925   1.744   0.686  16.740 -0.2970 -0.0509  0.6231
  328MPD2    C5 4926   1.829   0.620  16.659  0.0522  0.2205  0.9672
  328MPD2     H 4927   1.503   0.448  16.765  0.5845  0.5278  0.4474
  328MPD2    H1 4928   1.754   0.793  16.753 -0.5389  0.1029 -0.4302
  328MPD2    H2 4929   1.891   0.428  16.590  0.4006 -0.0015  0.8632
  328MPD2    H3 4930   1.926   0.662  16.635 -0.9030  0.4855 -2.3382
  328MPD2     N 4931   1.525   0.720  16.815 -0.5071  0.0469 -0.2446
  328MPD2    H5 4932   1.539   0.820  16.810 -0.0239 -0.0491 -0.8467
  328MPD2    N1 4933   1.686   0.282  16.637 -0.1411  0.2012 -0.3797
  328MPD2    H7 4934   1.749   0.240  16.569 -1.0249  0.1392 -1.1534
  329TMC3    C1 4935   1.616   0.071  16.650  0.2123  0.8638 -0.1944
  329TMC3    C2 4936   1.562   4.684  16.723 -0.1705 -0.3684 -0.7695
  329TMC3    C3 4937   1.567   4.555  16.664 -0.9152 -0.3075  0.4101
  329TMC3    C4 4938   1.649   0.052  16.518 -0.4947  1.0030  0.5892
  329TMC3    C5 4939   1.651   4.645  16.463 -0.4023  0.9087 -0.1964
  329TMC3    C6 4940   1.616   4.530  16.531 -0.1531 -0.1927  0.2254
  329TMC3     C 4941   1.606   0.200  16.699 -0.0409 -0.0745  0.4346
  329TMC3     O 4942   1.544   0.221  16.808  0.1420  0.3191 -0.1123
  329TMC3     H 4943   1.525   4.700  16.823 -1.3914  0.6797 -1.3949
  329TMC3    H1 4944   1.668   0.128  16.442 -0.7730 -0.0997 -0.5949
  329TMC3    H2 4945   1.637   4.427  16.502  2.7390  0.3902  0.2168
  329TMC3    C7 4946   1.730   4.635  16.348 -0.2990 -0.6144  0.4616
  329TMC3    C8 4947   1.546   4.441  16.749  0.2977 -1.2749  0.3883
  329TMC3    O1 4948   1.805   0.011  16.317  0.1141 -0.3083  0.7773
  329TMC3    O2 4949   1.580   4.328  16.707 -0.4767 -0.1571  0.0078
  330TMC3    C1 4950   4.629   4.599   9.455  0.1306 -0.4582  0.7747
  330TMC3    C2 4951   4.582   4.488   9.384  0.7269 -0.4102 -0.2032
  330TMC3    C3 4952   4.632   4.369   9.422 -0.1161  0.6828 -0.4356
  330TMC3    C4 4953   0.001   4.582   9.559  0.4167  0.9979 -0.1997
  330TMC3    C5 4954   0.056   4.459   9.585 -0.5725 -0.3208 -0.3843
  330TMC3    C6 4955   0.010   4.349   9.519  0.2580  0.0427 -0.7841
  330TMC3     C 4956   4.570   0.017   9.442  0.4810  0.5159 -0.2306
  330TMC3     O 4957   4.622   0.099   9.518 -0.3400  0.4236  0.1482
  330TMC3     H 4958   4.498   4.489   9.316  1.2948  0.6232 -0.8844
  330TMC3    H1 4959   0.030   4.665   9.622 -2.5893  0.8888  1.3491
  330TMC3    H2 4960   0.043   4.249   9.543  1.2569  1.0164  1.8759
  330TMC3    C7 4961   0.091   4.437   9.725 -0.2950 -0.6588  0.7584
  330TMC3    C8 4962   4.600   4.255   9.329  0.0117 -0.5018 -0.1938
  330TMC3    O1 4963   0.097   4.318   9.761 -0.1862 -0.0667  0.1603
  330TMC3    O2 4964   4.554   4.282   9.220 -0.0793 -0.1273  0.2803
  331MPD2     C 4965   2.017   3.892  12.036 -0.1154 -0.2172 -1.1385
  331MPD2    C1 4966   2.053   3.953  11.915 -0.3107 -0.5921  0.1484
  331MPD2    C2 4967   2.158   3.900  11.837 -0.5283  0.4072 -0.1275
  331MPD2    C3 4968   2.232   3.792  11.887 -0.0879  0.2050  0.3216
  331MPD2    C4 4969   2.191   3.731  12.006 -0.7284  1.0275 -0.0614
  331MPD2    C5 4970   2.079   3.773  12.073  0.8571  0.0030  0.3505
  331MPD2     H 4971   2.172   3.943  11.738  0.4910 -0.4089 -0.3496
  331MPD2    H1 4972   2.253   3.651  12.043  1.2851  2.9933  0.8127
  331MPD2    H2 4973   1.941   3.931  12.102  1.9198  0.6147  0.7437
  331MPD2    H3 4974   2.039   3.724  12.160 -1.7548  2.0186  0.2775
  331MPD2     N 4975   2.344   3.739  11.827 -0.0699 -0.2169 -0.5719
  331MPD2    H5 4976   2.380   3.647  11.853  1.9560 -0.1653 -3.2347
  331MPD2    N1 4977   1.982   4.068  11.875 -0.7069  0.0562  0.9832
  331MPD2    H7 4978   1.956   4.114  11.962 -1.7086  0.6553  0.3641
  332TMC3    C1 4979   2.500   3.708  11.653 -0.5664 -0.0946  0.5406
  332TMC3    C2 4980   2.526   3.723  11.514  0.3648 -0.6026 -0.3548
  332TMC3    C3 4981   2.648   3.685  11.462 -0.2436 -0.0396  0.1899
  332TMC3    C4 4982   2.593   3.639  11.726  0.3251 -1.0015 -0.2513
  332TMC3    C5 4983   2.705   3.587  11.665  0.4442 -0.4546  0.2278
  332TMC3    C6 4984   2.729   3.607  11.532 -0.5009  0.5054  0.0988
  332TMC3     C 4985   2.401   3.786  11.713 -0.6365  0.2287  0.2953
  332TMC3     O 4986   2.369   3.885  11.651 -0.2983 -0.1736 -0.2586
  332TMC3     H 4987   2.466   3.798  11.464  0.7557  0.7994  1.2688
  332TMC3    H1 4988   2.570   3.598  11.824  0.1992 -0.7785 -0.1895
  332TMC3    H2 4989   2.831   3.585  11.503 -0.1564 -0.1611  1.8143
  332TMC3    C7 4990   2.779   3.497  11.749 -0.0253 -0.2580 -0.1092
  332TMC3    C8 4991   2.720   3.788  11.386  1.0447 -0.8840 -0.0257
  332TMC3    O1 4992   2.820   3.396  11.705  0.6440 -0.0528 -0.0944
  332TMC3    O2 4993   2.845   3.796  11.387  0.4034 -0.2071 -0.1994
  333MPD2     C 4994   2.389   3.982  10.746 -0.6167 -0.1094  0.3000
  333MPD2    C1 4995   2.478   3.885  10.716  0.4551  0.1873  0.1711
  333MPD2    C2 4996   2.488   3.777  10.811  0.4726  0.6762  0.1865
  333MPD2    C3 4997   2.410   3.767  10.926  0.2015  0.6918  0.4344
  333MPD2    C4 4998   2.323   3.873  10.951 -0.0374 -0.5214  0.3678
  333MPD2    C5 4999   2.315   3.978  10.865  0.2568  0.1257 -0.3068
  333MPD2     H 5000   2.558   3.695  10.799 -1.1934 -0.4967 -1.5204
  333MPD2    H1 5001   2.267   3.883  11.043  0.5926 -0.7144  0.7716
  333MPD2    H2 5002   2.383   4.072  10.686 -0.2729 -1.8969 -2.4085
  333MPD2    H3 5003   2.257   4.062  10.900 -1.4288 -1.2278  0.1565
  333MPD2     N 5004   2.448   3.659  11.006  0.2913 -0.2012  0.1072
  333MPD2    H5 5005   2.517   3.597  10.964  0.6982 -1.1667  2.1822
  333MPD2    N1 5006   2.573   3.915  10.617  0.5915  0.6864  0.3529
  333MPD2    H7 5007   2.567   4.008  10.576 -0.4842  0.8199  0.8211
  334TMC3    C1 5008   2.775   3.902  10.503  0.0951  0.2158 -0.0734
  334TMC3    C2 5009   2.882   3.828  10.482 -0.3332 -0.4562 -0.0195
  334TMC3    C3 5010   3.004   3.883  10.472  0.1414  0.1146 -0.2425
  334TMC3    C4 5011   2.785   4.044  10.510  0.5078 -0.5339  0.2712
  334TMC3    C5 5012   2.912   4.090  10.491  0.4729  0.0257  0.1391
  334TMC3    C6 5013   3.024   4.020  10.474 -1.0167 -0.6416  0.7439
  334TMC3     C 5014   2.665   3.828  10.562  0.0369  0.4267  0.3067
  334TMC3     O 5015   2.672   3.709  10.573 -0.0312 -0.0165  0.0609
  334TMC3     H 5016   2.876   3.720  10.477  1.2320 -0.4692 -1.5429
  334TMC3    H1 5017   2.710   4.111  10.552 -1.0758 -2.4810  0.5933
  334TMC3    H2 5018   3.115   4.079  10.467 -0.8624 -1.1271 -1.4113
  334TMC3    C7 5019   2.928   4.234  10.455  0.3205 -0.6855  0.0091
  334TMC3    C8 5020   3.117   3.797  10.481 -0.1029  0.4665  0.5337
  334TMC3    O1 5021   3.038   4.284  10.469  0.4352  0.5240 -0.6224
  334TMC3    O2 5022   3.095   3.675  10.486  0.2379 -0.1912 -0.6081
  335TMC3    C1 5023   2.230   0.589  17.164 -0.5555 -0.4937  0.2476
  335TMC3    C2 5024   2.204   0.506  17.059  0.3443 -0.0815  0.1645
  335TMC3    C3 5025   2.312   0.491  16.975 -0.3207 -0.5472 -0.4899
  335TMC3    C4 5026   2.357   0.637  17.199  0.5797  0.2993 -0.3855
  335TMC3    C5 5027   2.454   0.618  17.101  0.1515  0.3672 -0.5351
  335TMC3    C6 5028   2.436   0.542  16.992  0.5698 -0.3238 -0.1753
  335TMC3     C 5029   2.123   0.590  17.255  0.0999 -0.1520 -0.7309
  335TMC3     O 5030   2.007   0.586  17.211  0.2902  0.0796  0.3105
  335TMC3     H 5031   2.103   0.474  17.037 -0.2162  0.7666  1.4977
  335TMC3    H1 5032   2.365   0.697  17.289  1.6268 -1.1124  0.4442
  335TMC3    H2 5033   2.520   0.521  16.926 -2.0537 -0.9864 -3.2954
  335TMC3    C7 5034   2.585   0.660  17.133 -0.4671 -0.0453  0.1121
  335TMC3    C8 5035   2.288   0.408  16.854 -0.1740  0.6718  1.1058
  335TMC3    O1 5036   2.667   0.661  17.040 -0.3450  0.0896 -1.0403
  335TMC3    O2 5037   2.359   0.424  16.758 -0.5144  0.0879 -0.5755
  336MPD2     C 5038   2.137   2.879  16.118 -0.0290 -0.6346  0.7596
  336MPD2    C1 5039   2.211   2.847  16.005 -0.2445 -0.2252  0.4575
  336MPD2    C2 5040   2.244   2.713  15.992 -0.3144 -0.6754 -0.0709
  336MPD2    C3 5041   2.211   2.610  16.076 -0.1495  0.0740  0.5144
  336MPD2    C4 5042   2.135   2.650  16.188 -0.1336 -0.2376  0.3663
  336MPD2    C5 5043   2.102   2.780  16.210  0.3688  0.6048 -0.1471
  336MPD2     H 5044   2.288   2.685  15.897  2.0885 -1.1178  1.1654
  336MPD2    H1 5045   2.110   2.586  16.272  3.4215  0.1214  1.6979
  336MPD2    H2 5046   2.095   2.976  16.141 -1.1395 -1.0798  0.6239
  336MPD2    H3 5047   2.034   2.810  16.289 -0.3837  1.4840 -1.1282
  336MPD2     N 5048   2.237   2.481  16.038 -0.4194  0.0695 -1.0117
  336MPD2    H5 5049   2.276   2.475  15.944  0.3505  1.9657 -0.8214
  336MPD2    N1 5050   2.252   2.942  15.908  0.3901 -0.0342  0.1980
  336MPD2    H7 5051   2.314   2.906  15.836  0.9071  0.4613  0.3960
  337TMC3    C1 5052   2.244   3.142  15.782  0.5512 -0.1754 -0.4561
  337TMC3    C2 5053   2.163   3.247  15.748 -0.7563 -0.1433  0.9291
  337TMC3    C3 5054   2.140   3.261  15.616 -0.9760 -0.0619 -1.0197
  337TMC3    C4 5055   2.317   3.071  15.692 -0.4145  0.2881  0.9311
  337TMC3    C5 5056   2.289   3.090  15.557  0.0508 -0.2027  0.5873
  337TMC3    C6 5057   2.199   3.182  15.518  0.2576  0.1002  0.2624
  337TMC3     C 5058   2.205   3.072  15.907 -0.4238 -0.6671  0.1387
  337TMC3     O 5059   2.119   3.130  15.979  0.4029  0.3408  0.2563
  337TMC3     H 5060   2.115   3.303  15.828 -0.5657  1.8900 -0.3937
  337TMC3    H1 5061   2.395   3.003  15.724 -0.4930 -0.5489 -0.6550
  337TMC3    H2 5062   2.189   3.203  15.412  1.9593  1.4246  0.3561
  337TMC3    C7 5063   2.385   3.042  15.453 -0.2530 -0.5088 -0.3221
  337TMC3    C8 5064   2.068   3.380  15.578  0.0106 -0.4219  0.1257
  337TMC3    O1 5065   2.361   3.054  15.332 -0.3534 -0.2435 -0.2886
  337TMC3    O2 5066   2.060   3.473  15.660 -0.8169 -0.0301 -0.6689
  338MPD2     C 5067   2.926   2.260   0.644  0.9582  0.4364 -1.0425
  338MPD2    C1 5068   2.856   2.315   0.541 -0.1464 -0.1486  0.3635
  338MPD2    C2 5069   2.812   2.448   0.545  0.0745 -0.0416  0.4379
  338MPD2    C3 5070   2.834   2.522   0.658  0.2746 -0.1859 -0.2452
  338MPD2    C4 5071   2.893   2.458   0.764 -0.7079 -0.3247 -0.6704
  338MPD2    C5 5072   2.932   2.329   0.762 -0.5333  0.3854 -0.6141
  338MPD2     H 5073   2.761   2.487   0.457  0.3079 -0.8401 -0.0518
  338MPD2    H1 5074   2.917   2.510   0.856 -0.1184 -2.7776  0.5403
  338MPD2    H2 5075   2.979   2.165   0.639 -0.6515 -0.4186 -1.5671
  338MPD2    H3 5076   2.997   2.287   0.838 -1.7312 -0.4854 -0.0746
  338MPD2     N 5077   2.807   2.663   0.653 -0.2230 -0.2192  0.5014
  338MPD2    H5 5078   2.768   2.693   0.564 -1.1854 -1.5963  0.4565
  338MPD2    N1 5079   2.843   2.249   0.415 -0.1644  0.1980  0.2901
  338MPD2    H7 5080   2.782   2.290   0.344  2.8435  1.1237 -1.7594
  339TMC3    C1 5081   2.772   2.884   0.719  0.8717 -1.0211  0.1827
  339TMC3    C2 5082   2.738   2.978   0.814  0.1067  0.6496  0.5922
  339TMC3    C3 5083   2.716   3.108   0.775 -1.0489  0.2062 -0.4762
  339TMC3    C4 5084   2.789   2.920   0.586  0.1838  0.0086 -0.2365
  339TMC3    C5 5085   2.774   3.056   0.551 -0.3773 -0.5568 -0.2842
  339TMC3    C6 5086   2.738   3.150   0.651  0.3262  0.7036 -0.5590
  339TMC3     C 5087   2.820   2.758   0.760  0.2971  0.6426  0.1611
  339TMC3     O 5088   2.852   2.741   0.871  0.4649  0.5006  0.2329
  339TMC3     H 5089   2.726   2.946   0.917  1.8999  3.2826  1.6258
  339TMC3    H1 5090   2.827   2.855   0.508  2.6288  0.7370  0.3520
  339TMC3    H2 5091   2.725   3.252   0.619 -1.2181  0.6888  0.0021
  339TMC3    C7 5092   2.792   3.099   0.418 -0.4284  0.1057 -0.1925
  339TMC3    C8 5093   2.700   3.213   0.880 -0.1243 -0.6583 -0.3653
  339TMC3    O1 5094   2.805   3.220   0.412  0.1048  0.4569 -0.1076
  339TMC3    O2 5095   2.746   3.326   0.866  0.3597  0.0102 -0.3231
  340MPD2     C 5096   2.594   0.161   9.638 -0.7090 -0.9073  0.0957
  340MPD2    C1 5097   2.666   0.048   9.615 -0.6980  0.0446 -0.0869
  340MPD2    C2 5098   2.703   4.689   9.728 -0.2969 -0.1865 -0.3353
  340MPD2    C3 5099   2.690   0.037   9.852  0.5346 -0.7812  0.3390
  340MPD2    C4 5100   2.626   0.156   9.871  0.0274  0.6211 -0.3606
  340MPD2    C5 5101   2.574   0.218   9.759 -0.1079 -0.3772 -0.0799
  340MPD2     H 5102   2.760   4.598   9.711  1.4417  0.8188  0.1235
  340MPD2    H1 5103   2.606   0.195   9.970  1.0130  1.0338 -0.3139
  340MPD2    H2 5104   2.551   0.218   9.558 -1.0960 -0.6323  0.5006
  340MPD2    H3 5105   2.507   0.303   9.770  0.3235  0.1686 -1.6820
  340MPD2     N 5106   2.756   4.704   9.966  0.1147 -0.0952 -0.7742
  340MPD2    H5 5107   2.777   0.057  10.037 -1.8770  0.1392 -0.4227
  340MPD2    N1 5108   2.697   4.713   9.486  0.2412 -0.2276 -0.1113
  340MPD2    H7 5109   2.731   4.618   9.476 -1.5043 -0.8592 -0.1910
  341TMC3    C1 5110   2.747   0.002   9.258 -1.2001  0.2909 -0.1792
  341TMC3    C2 5111   2.721   4.583   9.246  0.3363  0.2641  0.4277
  341TMC3    C3 5112   2.816   4.509   9.185 -0.1665 -0.2246 -0.0185
  341TMC3    C4 5113   2.862   0.061   9.204 -0.4891 -0.0280  0.2420
  341TMC3    C5 5114   2.955   4.695   9.137  0.0467  0.5006 -0.3516
  341TMC3    C6 5115   2.932   4.562   9.139 -0.3491 -0.1306 -0.1621
  341TMC3     C 5116   2.693   0.074   9.373  0.0688  0.5672 -0.0366
  341TMC3     O 5117   2.699   0.196   9.361  0.0759  0.0246 -0.0183
  341TMC3     H 5118   2.627   4.542   9.282 -0.8259  3.0301  0.5753
  341TMC3    H1 5119   2.889   0.165   9.220 -0.7146  0.1645 -0.6546
  341TMC3    H2 5120   3.004   4.491   9.098 -2.1374 -1.8954 -0.2829
  341TMC3    C7 5121   3.100   4.716   9.150  0.8009  0.0010 -0.2061
  341TMC3    C8 5122   2.784   4.369   9.166 -0.2459  0.5277  0.3023
  341TMC3    O1 5123   3.174   4.618   9.178  0.0271 -0.0975 -0.1886
  341TMC3    O2 5124   2.672   4.332   9.185  0.2746  0.0576  0.2357
  342MPD2     C 5125   0.434   3.244  16.683 -0.7781 -0.7312  0.2631
  342MPD2    C1 5126   0.476   3.218  16.809  0.9271  1.1624  0.5739
  342MPD2    C2 5127   0.488   3.326  16.893  0.4666  0.4396  0.2892
  342MPD2    C3 5128   0.464   3.457  16.859 -0.0458  1.1032 -0.2634
  342MPD2    C4 5129   0.434   3.480  16.732  0.1753 -0.2748  0.6042
  342MPD2    C5 5130   0.422   3.375  16.642  0.5285  0.1913 -0.3856
  342MPD2     H 5131   0.492   3.304  17.000 -0.0216  0.1891  0.2534
  342MPD2    H1 5132   0.439   3.582  16.698 -0.9118 -0.4775 -0.1722
  342MPD2    H2 5133   0.409   3.168  16.610  0.2097 -1.5975  0.8240
  342MPD2    H3 5134   0.395   3.383  16.537  1.1594  1.4291 -0.4565
  342MPD2     N 5135   0.490   3.564  16.946 -0.3371 -0.0962 -0.4459
  342MPD2    H5 5136   0.469   3.656  16.908 -1.6596  0.6263  2.1120
  342MPD2    N1 5137   0.472   3.089  16.868  0.8728  0.4079  0.2450
  342MPD2    H7 5138   0.474   3.085  16.969 -2.9377 -2.2552  0.2161
  343TMC3    C1 5139   0.491   2.859  16.871  0.9049 -0.5286 -0.6498
  343TMC3    C2 5140   0.604   2.785  16.857 -0.1740  0.1325  0.3574
  343TMC3    C3 5141   0.658   2.707  16.957 -0.8876 -0.1014  0.2145
  343TMC3    C4 5142   0.430   2.858  17.001  0.6588  0.0942 -0.2759
  343TMC3    C5 5143   0.480   2.773  17.095  0.2838 -0.6977  0.5092
  343TMC3    C6 5144   0.599   2.700  17.079 -0.2888  0.9038  0.5451
  343TMC3     C 5145   0.487   2.979  16.793  0.2228  0.1569  0.0373
  343TMC3     O 5146   0.533   2.962  16.681 -0.6138 -0.7828 -0.7434
  343TMC3     H 5147   0.667   2.806  16.771 -1.4560  1.7136 -0.1949
  343TMC3    H1 5148   0.347   2.922  17.030  1.8062  2.3023 -1.8417
  343TMC3    H2 5149   0.620   2.615  17.143 -2.0519  1.9985  2.5834
  343TMC3    C7 5150   0.378   2.713  17.171  0.3584 -0.3069 -0.4921
  343TMC3    C8 5151   0.788   2.639  16.956  0.4805  0.2058  0.5340
  343TMC3    O1 5152   0.263   2.717  17.126  0.5829  0.6613 -0.3289
  343TMC3    O2 5153   0.845   2.627  17.061  0.4818  1.0073  0.2440
  344MPD2     C 5154   1.623   2.961  10.247  0.0675  0.0642 -0.4317
  344MPD2    C1 5155   1.542   2.889  10.159 -0.2428  0.6906 -0.3544
  344MPD2    C2 5156   1.559   2.914  10.019  0.1334 -0.0194 -0.1785
  344MPD2    C3 5157   1.651   3.016   9.978  0.2489  0.1775 -0.1581
  344MPD2    C4 5158   1.735   3.071  10.071  0.1444 -0.0652  0.2522
  344MPD2    C5 5159   1.719   3.045  10.205  0.2832 -0.6780  0.3902
  344MPD2     H 5160   1.500   2.856   9.949  0.6878 -0.4331 -0.3014
  344MPD2    H1 5161   1.807   3.147  10.040  0.0594 -0.2002 -0.2663
  344MPD2    H2 5162   1.617   2.951  10.355 -0.4453 -0.7695 -0.5327
  344MPD2    H3 5163   1.791   3.088  10.273  1.6001  0.5746 -1.8018
  344MPD2     N 5164   1.670   3.060   9.846  0.2649  0.6711  0.3169
  344MPD2    H5 5165   1.731   3.140   9.832  3.0397 -1.1991  1.7619
  344MPD2    N1 5166   1.451   2.792  10.203 -0.5000 -0.5028 -0.1721
  344MPD2    H7 5167   1.393   2.753  10.129 -2.3540  1.7258  0.1032
  345TMC3    C1 5168   1.631   3.133   9.627  0.2900 -0.3052  0.1633
  345TMC3    C2 5169   1.762   3.171   9.605  0.0180 -0.1378 -0.2516
  345TMC3    C3 5170   1.772   3.280   9.524 -0.3132 -0.8874  0.0198
  345TMC3    C4 5171   1.520   3.195   9.580 -0.3312  0.4196 -0.4239
  345TMC3    C5 5172   1.538   3.299   9.494 -0.1384 -0.3928  0.1267
  345TMC3    C6 5173   1.663   3.339   9.460 -0.4476 -0.5145  0.4134
  345TMC3     C 5174   1.599   3.034   9.728  0.1628  0.2350  0.0648
  345TMC3     O 5175   1.499   2.969   9.714  0.4543  0.2601  0.0434
  345TMC3     H 5176   1.849   3.119   9.643  0.2622 -0.7897 -1.7121
  345TMC3    H1 5177   1.420   3.167   9.611  0.0253  1.4464  1.6428
  345TMC3    H2 5178   1.670   3.437   9.415  1.7366 -0.3066  1.1973
  345TMC3    C7 5179   1.455   3.407   9.531  0.5510 -0.7450 -0.2100
  345TMC3    C8 5180   1.890   3.354   9.517 -0.2845  0.3513  0.0329
  345TMC3    O1 5181   1.509   3.491   9.602 -0.2513  0.6427 -0.2568
  345TMC3    O2 5182   1.968   3.332   9.610  0.0353 -0.7869  0.2581
  346MPD2     C 5183   0.878   4.466  13.642  0.0219 -0.2098 -0.3144
  346MPD2    C1 5184   0.994   4.420  13.590  1.1391 -0.1212  0.5854
  346MPD2    C2 5185   1.107   4.479  13.637 -0.1894  0.0187  0.2285
  346MPD2    C3 5186   1.105   4.601  13.706  0.8078 -0.1827 -0.6542
  346MPD2    C4 5187   0.985   4.652  13.746  1.0129  0.8569 -0.0980
  346MPD2    C5 5188   0.871   4.582  13.715  0.0130 -0.2188  0.1611
  346MPD2     H 5189   1.202   4.429  13.623 -0.7483 -1.2964  1.2255
  346MPD2    H1 5190   0.972   0.007  13.825  0.6923  1.3553 -0.6000
  346MPD2    H2 5191   0.793   4.401  13.625 -0.8304  1.3347 -1.9071
  346MPD2    H3 5192   0.775   4.615  13.753 -0.3549  2.1078 -2.7450
  346MPD2     N 5193   1.229   4.656  13.754 -0.3906  0.0287  0.6512
  346MPD2    H5 5194   1.311   4.618  13.707 -2.8225 -2.7794 -1.4015
  346MPD2    N1 5195   0.998   4.303  13.515  0.1917  0.5074 -0.4351
  346MPD2    H7 5196   1.087   4.280  13.472  0.2445  1.2706 -0.7396
  347TMC3    C1 5197   1.364   0.090  13.866 -0.5211 -0.1815 -0.3403
  347TMC3    C2 5198   1.445   0.106  13.759 -0.1256  0.2822 -0.2086
  347TMC3    C3 5199   1.566   0.173  13.779  0.4249  0.1510  0.5817
  347TMC3    C4 5200   1.394   0.126  13.996  0.1333 -0.2079  0.6265
  347TMC3    C5 5201   1.513   0.187  14.001 -0.7788 -0.0791 -0.3138
  347TMC3    C6 5202   1.602   0.215  13.901 -0.2400  0.2547  0.1175
  347TMC3     C 5203   1.238   0.031  13.857 -0.6389  0.4270  0.3424
  347TMC3     O 5204   1.150   0.072  13.926  0.5648 -0.4618 -0.2179
  347TMC3     H 5205   1.422   0.070  13.659  1.4007 -0.7848 -0.1697
  347TMC3    H1 5206   1.325   0.115  14.078  0.6139  1.5807  1.2749
  347TMC3    H2 5207   1.689   0.278  13.917 -1.0500  1.1963  0.7711
  347TMC3    C7 5208   1.547   0.239  14.132 -0.7433 -1.0322  0.4192
  347TMC3    C8 5209   1.680   0.112  13.712 -0.7426  0.3286 -0.0151
  347TMC3    O1 5210   1.457   0.297  14.194  0.3570 -0.3452 -0.4194
  347TMC3    O2 5211   1.674   4.713  13.684  0.3334 -0.8041  0.2008
  348MPD2     C 5212   0.135   4.391  11.848 -0.0455 -0.4041 -0.4621
  348MPD2    C1 5213   0.249   4.404  11.769  0.8701 -0.0950  0.1514
  348MPD2    C2 5214   0.250   4.483  11.655  0.2090  0.6066 -0.0423
  348MPD2    C3 5215   0.143   4.548  11.610 -0.8302 -0.1629  0.0969
  348MPD2    C4 5216   0.027   4.537  11.683  0.5703  0.0777  0.1389
  348MPD2    C5 5217   0.027   4.449  11.791 -0.6697  0.8756 -0.4841
  348MPD2     H 5218   0.334   4.481  11.586 -0.5012 -1.2856 -0.8476
  348MPD2    H1 5219   4.653   4.587  11.652  0.7024 -1.5868 -2.9515
  348MPD2    H2 5220   0.127   4.352  11.949  0.8331 -2.4852 -1.1925
  348MPD2    H3 5221   4.650   4.428  11.841 -0.4607 -0.5492 -0.6788
  348MPD2     N 5222   0.157   4.628  11.499 -0.0216  0.0754 -0.0192
  348MPD2    H5 5223   0.243   4.624  11.445 -0.6590  1.8119 -1.1862
  348MPD2    N1 5224   0.367   4.342  11.813  0.2666 -0.3658  0.0575
  348MPD2    H7 5225   0.451   4.362  11.760  0.4644 -0.5071  0.3165
  349TMC3    C1 5226   0.496   4.169  11.912  0.5126  0.4353  1.1215
  349TMC3    C2 5227   0.479   4.036  11.944  0.3916 -1.2038  0.1271
  349TMC3    C3 5228   0.578   3.951  11.902  0.5574 -0.0437  0.0150
  349TMC3    C4 5229   0.597   4.217  11.837 -1.4855  0.3701 -0.3568
  349TMC3    C5 5230   0.694   4.129  11.800  0.5743 -0.1422  0.3429
  349TMC3    C6 5231   0.688   4.000  11.831  0.2885  0.2714 -0.1298
  349TMC3     C 5232   0.375   4.251  11.918 -0.7293  0.3876  0.1112
  349TMC3     O 5233   0.282   4.209  11.994  0.0554 -0.2479 -0.1486
  349TMC3     H 5234   0.403   4.002  12.013 -0.4138 -2.8937 -1.5813
  349TMC3    H1 5235   0.615   4.324  11.834  4.0155 -0.5429  0.4280
  349TMC3    H2 5236   0.781   3.946  11.814  1.1669  2.1930 -1.5026
  349TMC3    C7 5237   0.820   4.176  11.745  0.3150  0.3093 -0.7368
  349TMC3    C8 5238   0.586   3.832  11.985  0.4959  0.2345  0.6941
  349TMC3    O1 5239   0.924   4.138  11.794  0.6452 -0.2222  1.1459
  349TMC3    O2 5240   0.498   3.816  12.071  0.3126 -0.2205  0.0069
  350MPD2     C 5241   3.584   2.124  10.088  0.0316  0.0369  0.8815
  350MPD2    C1 5242   3.641   2.044   9.995  0.0811 -0.2032 -0.1282
  350MPD2    C2 5243   3.746   2.098   9.930 -0.0417 -0.0470  0.4501
  350MPD2    C3 5244   3.801   2.220   9.957 -0.3143  0.1084  0.0636
  350MPD2    C4 5245   3.738   2.305  10.046  0.3383 -0.4671  0.2260
  350MPD2    C5 5246   3.623   2.253  10.103  0.0487 -0.4981  0.2730
  350MPD2     H 5247   3.804   2.041   9.858 -1.5903 -0.0653 -0.7705
  350MPD2    H1 5248   3.770   2.405  10.073  0.8443 -0.5396 -0.1003
  350MPD2    H2 5249   3.503   2.085  10.149 -0.3722 -0.1365  0.2323
  350MPD2    H3 5250   3.568   2.308  10.179 -2.2614 -1.7837 -0.4707
  350MPD2     N 5251   3.918   2.263   9.888 -0.8392  0.0898 -0.2256
  350MPD2    H5 5252   3.955   2.189   9.828  1.5828 -0.2075  1.6273
  350MPD2    N1 5253   3.595   1.907   9.964  0.4071 -0.2732 -0.2524
  350MPD2    H7 5254   3.648   1.844   9.905 -2.0647 -1.9524 -0.6753
  351TMC3    C1 5255   3.506   1.703  10.039 -0.3852  0.2724 -0.3940
  351TMC3    C2 5256   3.605   1.628   9.965 -0.5525 -0.6287 -0.2077
  351TMC3    C3 5257   3.640   1.499  10.010  0.0002 -0.4960 -0.0931
  351TMC3    C4 5258   3.448   1.648  10.148 -0.1843  0.9967  0.2023
  351TMC3    C5 5259   3.489   1.525  10.184 -0.3395  0.4991 -0.3709
  351TMC3    C6 5260   3.591   1.450  10.130 -0.8415 -0.6244  0.4582
  351TMC3     C 5261   3.489   1.847  10.028  0.2647 -0.0491 -0.1076
  351TMC3     O 5262   3.386   1.892  10.073 -0.0538 -0.1804 -0.3019
  351TMC3     H 5263   3.657   1.671   9.880 -0.1910  0.9964  0.8358
  351TMC3    H1 5264   3.370   1.699  10.204 -1.4004  0.5271 -1.0587
  351TMC3    H2 5265   3.621   1.364  10.188 -0.0106 -1.1286 -0.7302
  351TMC3    C7 5266   3.401   1.460  10.281 -0.1501 -0.4832  0.2768
  351TMC3    C8 5267   3.757   1.446   9.954  0.6372 -0.3155 -0.2837
  351TMC3    O1 5268   3.380   1.507  10.389 -0.2252  0.2480  0.3718
  351TMC3    O2 5269   3.773   1.446   9.830 -0.2234 -0.0117  0.0482
  352MPD2     C 5270   2.118   4.560   1.199 -0.5409  0.3051 -0.4421
  352MPD2    C1 5271   2.105   4.503   1.076  0.5358 -0.3886  0.0265
  352MPD2    C2 5272   2.178   4.393   1.049 -0.9084 -0.4576  0.1434
  352MPD2    C3 5273   2.271   4.340   1.144  0.1456 -1.1213  0.4554
  352MPD2    C4 5274   2.295   4.409   1.266  0.0850 -0.0755  0.1276
  352MPD2    C5 5275   2.219   4.517   1.291  0.1278 -0.0795 -0.3434
  352MPD2     H 5276   2.169   4.340   0.955 -2.0562 -1.7567  0.9823
  352MPD2    H1 5277   2.376   4.373   1.328 -1.4025  0.7538  2.5454
  352MPD2    H2 5278   2.059   4.644   1.233 -0.7490 -1.0426  2.4898
  352MPD2    H3 5279   2.224   4.564   1.389 -0.0453 -1.4953  0.3413
  352MPD2     N 5280   2.346   4.221   1.115  0.0374 -0.3882 -0.2720
  352MPD2    H5 5281   2.389   4.190   1.202 -0.5798  0.6189  0.3850
  352MPD2    N1 5282   2.015   4.553   0.970 -0.0482  0.9979  0.1111
  352MPD2    H7 5283   1.944   4.624   0.986 -0.4496  0.4147  0.9174
  353TMC3    C1 5284   2.401   4.011   1.013 -0.5256  0.1499 -0.3422
  353TMC3    C2 5285   2.512   3.997   1.090 -0.5975 -0.3109  0.6368
  353TMC3    C3 5286   2.569   3.868   1.101 -0.9801  0.6739  0.3187
  353TMC3    C4 5287   2.346   3.904   0.954 -0.7652  0.4496 -0.1257
  353TMC3    C5 5288   2.395   3.778   0.975  0.3253  0.3970  0.1219
  353TMC3    C6 5289   2.503   3.756   1.052 -0.4844  0.2219 -0.2704
  353TMC3     C 5290   2.339   4.139   0.999  0.3341 -0.2128 -0.6634
  353TMC3     O 5291   2.257   4.149   0.904 -0.2697  0.3211  0.4694
  353TMC3     H 5292   2.551   4.087   1.136  0.8721  0.3231 -1.8639
  353TMC3    H1 5293   2.252   3.906   0.900 -1.5924  1.6621  1.3450
  353TMC3    H2 5294   2.552   3.659   1.055  0.4497  0.7261  0.6605
  353TMC3    C7 5295   2.363   3.678   0.884 -0.6097 -0.1094 -0.9058
  353TMC3    C8 5296   2.701   3.856   1.159 -0.0602 -0.1775 -0.1186
  353TMC3    O1 5297   2.321   3.710   0.773 -0.6066  0.4018  0.7568
  353TMC3    O2 5298   2.735   3.945   1.238  0.0987  0.5867 -0.1242
  354TMC3    C1 5299   4.167   0.838  13.219  0.2174  0.4682  0.0875
  354TMC3    C2 5300   4.217   0.966  13.244 -0.3263  0.2152 -0.0505
  354TMC3    C3 5301   4.329   0.999  13.181  0.4932 -0.5097 -0.9662
  354TMC3    C4 5302   4.203   0.757  13.120  0.2651 -0.7456  0.2617
  354TMC3    C5 5303   4.314   0.796  13.057  0.5437  0.1896 -0.2179
  354TMC3    C6 5304   4.371   0.913  13.081 -0.4160  0.1224  0.7079
  354TMC3     C 5305   4.080   0.777  13.315  0.3136  0.5421  0.7468
  354TMC3     O 5306   3.997   0.696  13.269 -0.6187  0.1399  0.3561
  354TMC3     H 5307   4.169   1.031  13.317  0.3115  1.4784 -0.7515
  354TMC3    H1 5308   4.156   0.660  13.114  1.2936 -1.2431  0.2960
  354TMC3    H2 5309   4.454   0.953  13.024 -2.0245  0.2772 -1.5498
  354TMC3    C7 5310   4.360   0.719  12.939 -0.6666 -0.3258  0.1663
  354TMC3    C8 5311   4.365   1.140  13.157  0.4898  0.5458  0.1869
  354TMC3    O1 5312   4.299   0.615  12.915 -0.2977 -0.0051  0.1149
  354TMC3    O2 5313   4.271   1.215  13.134 -0.7857 -0.2544 -0.2255
  355MPD2     C 5314   4.248   1.565  11.831 -0.6136 -0.3293 -0.6691
  355MPD2    C1 5315   4.221   1.640  11.724 -0.2924 -0.6192  0.0905
  355MPD2    C2 5316   4.321   1.697  11.654  0.0939  0.8575  0.0928
  355MPD2    C3 5317   4.451   1.673  11.698  0.2089  0.1163 -0.2471
  355MPD2    C4 5318   4.474   1.612  11.813  0.0850 -0.5602 -0.8568
  355MPD2    C5 5319   4.372   1.560  11.887 -0.1550  0.5277  0.4062
  355MPD2     H 5320   4.300   1.754  11.564 -0.2620 -1.6071 -1.4089
  355MPD2    H1 5321   4.579   1.598  11.839 -0.0303 -0.4388 -0.3309
  355MPD2    H2 5322   4.167   1.529  11.892 -1.2046  0.9864 -0.6839
  355MPD2    H3 5323   4.396   1.512  11.981  1.1921  1.4674  0.5454
  355MPD2     N 5324   4.557   1.746  11.641  0.2901  0.1502 -0.2636
  355MPD2    H5 5325   4.647   1.741  11.688  1.1516 -2.4068 -2.1224
  355MPD2    N1 5326   4.081   1.668  11.695 -0.3101 -0.0377 -0.4830
  355MPD2    H7 5327   4.022   1.602  11.743  0.4951 -1.6560 -1.6765
  356TMC3    C1 5328   4.649   1.933  11.552  0.5542  0.2785 -0.3417
  356TMC3    C2 5329   4.694   1.995  11.440  0.0576 -0.7435  0.6998
  356TMC3    C3 5330   0.053   2.109  11.453  0.4286  0.2445 -0.1364
  356TMC3    C4 5331   4.684   1.978  11.681 -0.7632 -0.3736 -0.6713
  356TMC3    C5 5332   0.033   2.101  11.688 -0.0913 -0.5648  0.8375
  356TMC3    C6 5333   0.080   2.165  11.578  1.1124 -0.3801  0.0652
  356TMC3     C 5334   4.546   1.837  11.545  0.0418 -0.4621  0.7738
  356TMC3     O 5335   4.470   1.842  11.450 -0.1834  0.1048  0.3292
  356TMC3     H 5336   4.664   1.955  11.343 -0.0965  0.1049  0.3973
  356TMC3    H1 5337   4.637   1.938  11.770  5.0035 -4.7600  0.4112
  356TMC3    H2 5338   0.141   2.254  11.582 -2.3304  1.9784  0.2022
  356TMC3    C7 5339   0.047   2.153  11.825 -0.8315 -0.0110  0.2191
  356TMC3    C8 5340   0.134   2.153  11.340 -0.4509  0.3592  0.1120
  356TMC3    O1 5341   0.007   2.090  11.923 -0.2032  0.2351 -0.0361
  356TMC3    O2 5342   0.144   2.073  11.245 -0.4651 -0.3463  0.3473
  357MPD2     C 5343   4.396   1.827   1.102  0.1140  0.5336 -0.3260
  357MPD2    C1 5344   4.519   1.859   1.150 -0.6201  0.8774 -0.5366
  357MPD2    C2 5345   4.538   1.874   1.290  0.1905  0.3807  0.0063
  357MPD2    C3 5346   4.430   1.859   1.375  0.4551 -0.4145 -0.1903
  357MPD2    C4 5347   4.304   1.837   1.326 -0.3155 -0.3315  0.3612
  357MPD2    C5 5348   4.288   1.821   1.189 -0.0683 -0.1963 -0.3408
  357MPD2     H 5349   4.636   1.895   1.331  0.7536 -1.9622 -0.1684
  357MPD2    H1 5350   4.220   1.829   1.394 -0.9547  1.7199 -0.1631
  357MPD2    H2 5351   4.383   1.807   0.996  1.1086  0.1751 -0.3858
  357MPD2    H3 5352   4.198   1.787   1.140  0.2803  1.1003 -1.8744
  357MPD2     N 5353   4.444   1.860   1.516 -0.4414  0.4683  0.4933
  357MPD2    H5 5354   4.357   1.833   1.561 -0.0248 -3.0106 -0.8038
  357MPD2    N1 5355   4.622   1.863   1.060 -0.4187  0.0051  0.9615
  357MPD2    H7 5356   4.598   1.826   0.968 -0.0397  2.2210 -0.0258
  358TMC3    C1 5357   0.135   1.852   0.997  0.7357 -0.1565  0.2409
  358TMC3    C2 5358   0.121   1.735   0.937 -0.4591  0.6738  0.8062
  358TMC3    C3 5359   0.233   1.670   0.892  0.4693  0.1867  0.0015
  358TMC3    C4 5360   0.251   1.920   0.996  0.8368  0.0608  0.2006
  358TMC3    C5 5361   0.357   1.857   0.933 -1.3220  0.6881  0.1855
  358TMC3    C6 5362   0.353   1.723   0.886  0.2525 -0.1203 -0.4780
  358TMC3     C 5363   0.029   1.908   1.082  0.4825 -0.3829 -0.5073
  358TMC3     O 5364   0.062   2.001   1.157  0.1109  0.1353  0.1005
  358TMC3     H 5365   0.031   1.676   0.940 -0.5877  0.8298  0.0143
  358TMC3    H1 5366   0.260   2.015   1.046 -0.3096  0.3379 -0.1358
  358TMC3    H2 5367   0.440   1.667   0.855  2.1045  1.5233  1.7360
  358TMC3    C7 5368   0.489   1.925   0.935 -0.3995  0.0149  0.0073
  358TMC3    C8 5369   0.200   1.567   0.793 -0.4056 -0.5714  0.7665
  358TMC3    O1 5370   0.483   2.036   0.982  0.4526 -0.1516 -0.4312
  358TMC3    O2 5371   0.093   1.562   0.743  0.3977 -0.2782  0.1093
  359MPD2     C 5372   4.595   0.964  12.101 -0.0749  0.5393 -0.1612
  359MPD2    C1 5373   4.677   0.854  12.092 -0.0461  0.8361  0.3701
  359MPD2    C2 5374   4.644   0.733  12.141  0.0949  0.2931  0.0002
  359MPD2    C3 5375   4.520   0.718  12.207 -0.4092  0.0624 -0.2619
  359MPD2    C4 5376   4.439   0.833  12.221  0.2950 -0.0321 -0.2269
  359MPD2    C5 5377   4.481   0.949  12.164  0.0188 -0.3057  0.2948
  359MPD2     H 5378   4.716   0.654  12.126 -1.0747 -0.8119  0.1584
  359MPD2    H1 5379   4.342   0.853  12.266  0.1611 -0.0175 -0.5223
  359MPD2    H2 5380   4.611   1.059  12.052  0.9788 -0.2027 -1.2626
  359MPD2    H3 5381   4.409   1.028  12.184 -3.3286 -3.1189 -0.5243
  359MPD2     N 5382   4.463   0.598  12.262  0.3768 -0.1094 -0.4568
  359MPD2    H5 5383   4.374   0.600  12.311  0.9447  3.6262  0.4342
  359MPD2    N1 5384   0.069   0.855  12.005 -0.0972 -0.1852  0.3544
  359MPD2    H7 5385   0.111   0.767  11.978  0.0681  0.4427 -1.4863
  360TMC3    C1 5386   0.215   0.925  11.828  0.0654  0.1827  0.1909
  360TMC3    C2 5387   0.316   1.017  11.795  0.0334 -0.1474  0.3641
  360TMC3    C3 5388   0.425   0.965  11.737 -0.1908 -0.1777  0.4038
  360TMC3    C4 5389   0.199   0.806  11.766  0.6624  0.8784  0.4516
  360TMC3    C5 5390   0.310   0.757  11.702 -0.3543 -0.1185  0.4106
  360TMC3    C6 5391   0.424   0.831  11.696 -1.0464 -0.0078  0.0977
  360TMC3     C 5392   0.121   0.958  11.933  0.3277 -0.6818 -0.0106
  360TMC3     O 5393   0.112   1.079  11.952  0.2955  0.2953 -0.6698
  360TMC3     H 5394   0.314   1.115  11.842 -1.3564  0.5461 -1.1417
  360TMC3    H1 5395   0.099   0.764  11.769  1.0703 -0.2090 -0.9979
  360TMC3    H2 5396   0.505   0.770  11.657  1.0095  2.0838  1.0331
  360TMC3    C7 5397   0.288   0.675  11.585  0.5556  0.4038 -0.0694
  360TMC3    C8 5398   0.503   1.052  11.657  1.7148  0.0354 -0.0295
  360TMC3    O1 5399   0.339   0.714  11.485 -0.1255  0.0108  0.3768
  360TMC3    O2 5400   0.463   1.167  11.650  0.3892 -0.0827 -0.0524
  361MPD2     C 5401   1.362   3.917  16.532 -0.6561 -0.9851  0.8323
  361MPD2    C1 5402   1.391   3.954  16.661 -0.3553  0.1752 -0.1687
  361MPD2    C2 5403   1.504   3.906  16.723  0.4483 -0.2916 -0.5011
  361MPD2    C3 5404   1.596   3.835  16.651  0.0124  0.1864 -0.1774
  361MPD2    C4 5405   1.575   3.806  16.520  0.2044 -0.1934 -0.1836
  361MPD2    C5 5406   1.457   3.840  16.462  0.0907 -0.4490 -0.0518
  361MPD2     H 5407   1.511   3.936  16.827  0.1592  0.3691 -0.6713
  361MPD2    H1 5408   1.653   3.760  16.459  0.3451  0.5102 -0.5356
  361MPD2    H2 5409   1.277   3.949  16.473  0.3878  0.4171  0.0839
  361MPD2    H3 5410   1.421   3.802  16.368  0.6829  0.9072 -0.8345
  361MPD2     N 5411   1.716   3.781  16.704 -0.0159  0.3257 -0.0568
  361MPD2    H5 5412   1.779   3.730  16.642 -1.5082 -2.5769  0.8133
  361MPD2    N1 5413   1.309   4.037  16.743  0.3188  0.6162  0.0682
  361MPD2    H7 5414   1.345   4.054  16.837 -0.2871  1.3691  0.1683
  362TMC3    C1 5415   1.107   4.132  16.825  0.8239  0.0042  0.1863
  362TMC3    C2 5416   0.983   4.093  16.851 -0.2929 -0.1484 -0.4376
  362TMC3    C3 5417   0.930   4.132  16.968 -0.8578  0.1369  0.4946
  362TMC3    C4 5418   1.180   4.220  16.901 -0.6773  0.3144 -1.2932
  362TMC3    C5 5419   1.118   4.267  17.014  0.0699 -0.7874  0.2400
  362TMC3    C6 5420   0.991   4.216  17.056 -0.4361  0.2369 -0.0481
  362TMC3     C 5421   1.177   4.078  16.715 -0.8942  0.0187 -0.6204
  362TMC3     O 5422   1.111   4.050  16.615 -0.1888 -0.3442 -0.8453
  362TMC3     H 5423   0.942   4.010  16.795  0.5577  0.6073 -2.1796
  362TMC3    H1 5424   1.259   4.277  16.852  0.5347  1.0279  1.5314
  362TMC3    H2 5425   0.948   4.244  17.152 -1.0905 -0.9921  0.0185
  362TMC3    C7 5426   1.115   4.411  17.040 -0.9213  0.3234 -0.1314
  362TMC3    C8 5427   0.787   4.128  16.971  0.1022 -0.3382 -0.0776
  362TMC3    O1 5428   1.112   4.477  16.935 -0.8382 -1.0541  0.1493
  362TMC3    O2 5429   0.735   4.049  16.891 -0.1061 -0.7915  0.0955
  363TMC3    C1 5430   4.245   1.348   9.131 -0.0306 -0.0238  0.6453
  363TMC3    C2 5431   4.323   1.334   9.236  1.1614 -1.2932  0.0609
  363TMC3    C3 5432   4.269   1.361   9.358  0.4721 -0.2330 -0.5747
  363TMC3    C4 5433   4.110   1.382   9.140 -0.2751 -0.3303  0.2825
  363TMC3    C5 5434   4.061   1.416   9.263  0.0073  0.2607 -0.3418
  363TMC3    C6 5435   4.142   1.405   9.371 -0.5752 -0.7459  0.1181
  363TMC3     C 5436   4.300   1.351   8.998 -1.2175  0.2727  0.5996
  363TMC3     O 5437   4.231   1.399   8.911  0.5155 -0.3563 -0.0218
  363TMC3     H 5438   4.428   1.313   9.219  1.7162  1.4913  0.1230
  363TMC3    H1 5439   4.053   1.385   9.048 -1.7272 -2.0879  1.1131
  363TMC3    H2 5440   4.097   1.406   9.469 -3.0153 -1.3771 -0.9942
  363TMC3    C7 5441   3.917   1.431   9.289  0.4371 -0.0730 -0.0112
  363TMC3    C8 5442   4.345   1.322   9.479 -0.3368 -0.0121  0.7728
  363TMC3    O1 5443   3.874   1.414   9.400  0.1608 -0.7448 -0.0582
  363TMC3    O2 5444   4.302   1.362   9.585 -0.2210  0.1208  0.0608
  364MPD2     C 5445   3.342   0.763  10.924  0.1450  0.1928  0.3277
  364MPD2    C1 5446   3.424   0.713  10.821  0.2371  0.1541 -0.5286
  364MPD2    C2 5447   3.485   0.592  10.838  0.1550 -0.4957  0.1617
  364MPD2    C3 5448   3.486   0.535  10.962 -0.2717  0.7615 -0.1353
  364MPD2    C4 5449   3.392   0.568  11.058 -0.2838  0.3354  0.3497
  364MPD2    C5 5450   3.314   0.684  11.031  0.2951 -0.7340 -0.0577
  364MPD2     H 5451   3.552   0.558  10.760  0.2942 -2.6570  1.2287
  364MPD2    H1 5452   3.378   0.526  11.157 -0.9344  0.4301  0.3012
  364MPD2    H2 5453   3.287   0.855  10.909 -0.1757  0.4585  3.0782
  364MPD2    H3 5454   3.245   0.733  11.098  1.2693 -0.3935  0.6897
  364MPD2     N 5455   3.576   0.432  10.990  0.1228  0.2397 -0.6462
  364MPD2    H5 5456   3.564   0.385  11.079  0.7264  0.6150 -0.3729
  364MPD2    N1 5457   3.450   0.803  10.717  0.5357 -0.5021  0.4136
  364MPD2    H7 5458   3.406   0.893  10.736  0.8728 -0.1200 -0.5711
  365TMC3    C1 5459   3.539   0.905  10.531  0.1110  0.4422 -0.5566
  365TMC3    C2 5460   3.581   0.885  10.404  0.0787  0.5913 -0.9734
  365TMC3    C3 5461   3.637   0.988  10.334  0.7285 -0.3676 -0.3218
  365TMC3    C4 5462   3.558   1.027  10.600  0.1216 -0.8086 -0.4134
  365TMC3    C5 5463   3.613   1.128  10.523 -0.1898 -0.2595 -0.6597
  365TMC3    C6 5464   3.653   1.110  10.393 -0.1236 -0.2787 -0.2226
  365TMC3     C 5465   3.528   0.777  10.607 -1.2563  0.2082 -0.5092
  365TMC3     O 5466   3.578   0.670  10.564  0.2806 -0.3678  0.9343
  365TMC3     H 5467   3.553   0.790  10.360 -0.0103 -0.9693  2.4330
  365TMC3    H1 5468   3.551   1.036  10.708  0.4776  1.3349 -0.5646
  365TMC3    H2 5469   3.712   1.184  10.341  1.7127 -0.4567  1.6161
  365TMC3    C7 5470   3.658   1.244  10.595 -0.1058  0.1351 -0.0270
  365TMC3    C8 5471   3.665   0.982  10.190  0.3173  0.0225 -0.9371
  365TMC3    O1 5472   3.748   1.310  10.547 -0.2859  0.0156 -0.0470
  365TMC3    O2 5473   3.685   1.091  10.134  0.8415 -0.5547  0.6271
  366MPD2     C 5474   1.696   1.868  14.894 -0.4718  0.2459 -0.0760
  366MPD2    C1 5475   1.803   1.946  14.928  0.5550 -0.2280 -0.0880
  366MPD2    C2 5476   1.918   1.885  14.973 -0.4510  0.1257  0.1026
  366MPD2    C3 5477   1.932   1.749  14.975 -0.5055 -0.0572  0.3171
  366MPD2    C4 5478   1.823   1.674  14.954  0.2574  0.2782  0.3746
  366MPD2    C5 5479   1.710   1.729  14.906 -0.0368 -0.7177  0.1059
  366MPD2     H 5480   2.009   1.940  14.995 -0.1768  0.0271 -0.7550
  366MPD2    H1 5481   1.822   1.566  14.963 -1.0245  0.3492  1.0888
  366MPD2    H2 5482   1.598   1.907  14.868  0.1676  1.1133 -1.1843
  366MPD2    H3 5483   1.624   1.665  14.901 -0.5363 -0.1476  1.5512
  366MPD2     N 5484   2.048   1.687  15.024  0.2996  0.0791  0.2132
  366MPD2    H5 5485   2.123   1.752  15.046  1.4607 -1.2888  0.2729
  366MPD2    N1 5486   1.810   2.085  14.931 -0.6494 -0.6072  0.3565
  366MPD2    H7 5487   1.896   2.126  14.965 -1.2769 -0.7391  2.0959
  367TMC3    C1 5488   1.758   2.313  14.881 -0.3220  0.5127 -0.8154
  367TMC3    C2 5489   1.877   2.349  14.939 -0.1999  0.5536  0.0116
  367TMC3    C3 5490   1.890   2.468  14.988 -0.0943  0.3582  0.0191
  367TMC3    C4 5491   1.656   2.402  14.866 -0.1241  0.2458  0.4299
  367TMC3    C5 5492   1.674   2.521  14.928  0.0504  0.1126 -0.8109
  367TMC3    C6 5493   1.792   2.562  14.982  0.2760  0.1075  0.0733
  367TMC3     C 5494   1.719   2.172  14.883 -0.7272 -0.2992 -0.6937
  367TMC3     O 5495   1.601   2.149  14.851  0.1265  0.0039 -0.3560
  367TMC3     H 5496   1.968   2.291  14.931  0.1299  1.2001 -0.9423
  367TMC3    H1 5497   1.559   2.373  14.829  0.5577 -1.5518  0.0687
  367TMC3    H2 5498   1.818   2.661  15.017  3.5002  0.2375 -2.6356
  367TMC3    C7 5499   1.588   2.636  14.915  0.4383  0.4829 -0.0662
  367TMC3    C8 5500   2.018   2.499  15.049 -0.2282  0.9999 -0.9126
  367TMC3    O1 5501   1.601   2.728  14.993  0.5300 -0.3965 -0.1850
  367TMC3    O2 5502   2.113   2.444  14.997 -0.8101  0.1070  0.1818
  368MPD2     C 5503   2.936   4.445  13.041 -0.4778 -0.0888  0.1585
  368MPD2    C1 5504   2.935   4.527  12.931  0.3212 -0.1849  0.2207
  368MPD2    C2 5505   3.054   4.593  12.901  0.3597 -0.1195 -0.9040
  368MPD2    C3 5506   3.170   4.551  12.962  0.5435  0.1851 -0.3883
  368MPD2    C4 5507   3.174   4.464  13.067 -0.0094  0.8288 -0.3049
  368MPD2    C5 5508   3.055   4.410  13.113  0.2729 -0.1336  0.2314
  368MPD2     H 5509   3.065   4.658  12.815  0.5598 -0.0223 -0.8054
  368MPD2    H1 5510   3.265   4.430  13.115 -1.6653 -1.3087  1.2850
  368MPD2    H2 5511   2.855   4.391  13.088 -0.5678  1.1805  1.4786
  368MPD2    H3 5512   3.061   4.336  13.191  0.7650  0.3054  0.6079
  368MPD2     N 5513   3.293   4.597  12.914  0.2309 -0.2176 -0.3899
  368MPD2    H5 5514   3.371   4.538  12.938  0.8409  1.4449  1.7952
  368MPD2    N1 5515   2.817   4.552  12.863 -0.1547 -0.5711 -0.6932
  368MPD2    H7 5516   2.736   4.499  12.892  1.1113 -0.7883  2.3820
  369TMC3    C1 5517   2.658   4.656  12.708 -0.3212 -0.2075  0.4226
  369TMC3    C2 5518   2.641   0.039  12.614  0.0325 -1.1052 -0.2017
  369TMC3    C3 5519   2.515   0.070  12.579 -0.0329 -0.0710  1.0715
  369TMC3    C4 5520   2.564   4.567  12.747 -0.4563  0.8678  0.3594
  369TMC3    C5 5521   2.432   4.607  12.711 -0.1992  0.6719 -0.0584
  369TMC3    C6 5522   2.412   0.003  12.635  0.6356  0.1794 -0.1018
  369TMC3     C 5523   2.807   4.639  12.754  0.5241 -0.2928 -0.5183
  369TMC3     O 5524   2.891   4.703  12.692 -0.8015 -0.6255  0.1692
  369TMC3     H 5525   2.726   0.103  12.596 -2.0019  0.6745 -3.5195
  369TMC3    H1 5526   2.566   4.487  12.821  1.5019 -1.2118 -1.9716
  369TMC3    H2 5527   2.309   0.035  12.623  1.0748  1.3203 -0.8124
  369TMC3    C7 5528   2.332   4.505  12.739 -0.8020 -0.0466  0.7662
  369TMC3    C8 5529   2.487   0.168  12.476 -0.4276 -0.0377 -0.8466
  369TMC3    O1 5530   2.362   4.416  12.818 -0.2696  0.0197  0.1396
  369TMC3    O2 5531   2.369   0.189  12.454 -0.2940  0.1611 -0.5831
  370TMC3    C1 5532   2.207   4.677  16.113 -0.5098  0.5328 -0.7205
  370TMC3    C2 5533   2.195   4.582  16.210 -0.3190  0.0809  0.2758
  370TMC3    C3 5534   2.206   4.453  16.162  0.1048  0.1375 -0.1786
  370TMC3    C4 5535   2.229   4.652  15.986  0.4575  0.0897  0.7464
  370TMC3    C5 5536   2.255   4.521  15.949 -0.0325 -0.5479  0.3522
  370TMC3    C6 5537   2.246   4.421  16.039  0.2086  0.7981  0.5923
  370TMC3     C 5538   2.291   0.060  16.166  0.8746  0.3902 -0.1224
  370TMC3     O 5539   2.300   0.068  16.289  0.7742 -0.2450 -0.3547
  370TMC3     H 5540   2.143   4.612  16.300  1.2379 -0.3987  1.3256
  370TMC3    H1 5541   2.236   0.009  15.908 -3.3026 -0.1937  0.1518
  370TMC3    H2 5542   2.249   4.317  16.006  2.0387  0.6646  1.1833
  370TMC3    C7 5543   2.270   4.486  15.806 -0.7259  0.4030 -0.4208
  370TMC3    C8 5544   2.204   4.342  16.258  0.0734  0.5111  0.8115
  370TMC3    O1 5545   2.195   4.530  15.724  0.5237 -0.2713  0.0117
  370TMC3    O2 5546   2.210   4.225  16.222  0.0178  0.3899  0.4116
  371TMC3    C1 5547   3.760   3.038  15.117 -0.2639  0.5475  0.3534
  371TMC3    C2 5548   3.642   3.044  15.189  0.4539 -0.0906 -0.4477
  371TMC3    C3 5549   3.580   3.169  15.201  0.2038  0.3162 -0.9208
  371TMC3    C4 5550   3.814   3.148  15.053  0.0026 -0.4685  0.0482
  371TMC3    C5 5551   3.735   3.263  15.059 -0.2204 -0.5195  0.4818
  371TMC3    C6 5552   3.615   3.272  15.120  0.3294 -0.0229  0.9954
  371TMC3     C 5553   3.845   2.921  15.130  0.1849 -0.3319 -0.0711
  371TMC3     O 5554   3.960   2.924  15.089 -0.2859 -0.2864  0.3516
  371TMC3     H 5555   3.617   2.971  15.265  0.2655  0.9114  0.4400
  371TMC3    H1 5556   3.908   3.142  15.001 -1.2985  2.1035 -2.5863
  371TMC3    H2 5557   3.557   3.364  15.121  1.5108  0.7307 -0.7860
  371TMC3    C7 5558   3.785   3.397  15.016  0.3657  1.3396 -0.2634
  371TMC3    C8 5559   3.436   3.158  15.238 -0.0881  0.5075  0.4256
  371TMC3    O1 5560   3.715   3.500  15.022 -0.1349  0.4792  0.3063
  371TMC3    O2 5561   3.371   3.057  15.223 -0.0839 -0.0750  0.4100
  372MPD2     C 5562   3.888   0.086  13.250  0.6825  0.3387 -0.2630
  372MPD2    C1 5563   3.919   4.709  13.349  0.2801 -0.2515  0.3739
  372MPD2    C2 5564   3.826   4.602  13.376  0.3738  0.1753  0.1428
  372MPD2    C3 5565   3.715   4.595  13.296 -0.2162  0.0284  0.3041
  372MPD2    C4 5566   3.695   4.677  13.196  0.7048  0.4751 -0.4284
  372MPD2    C5 5567   3.778   0.064  13.175  0.5173  0.5947  0.0071
  372MPD2     H 5568   3.839   4.528  13.455 -1.9979  1.2109  1.5021
  372MPD2    H1 5569   3.608   4.671  13.132 -0.7257 -0.9784  1.6512
  372MPD2    H2 5570   3.952   0.166  13.216 -1.3476  1.9269 -0.2859
  372MPD2    H3 5571   3.760   0.134  13.094 -0.6277  1.2516  0.8291
  372MPD2     N 5572   3.615   4.497  13.329  0.5330  0.7113  0.2807
  372MPD2    H5 5573   3.618   4.456  13.422 -1.0065 -2.0244 -0.8781
  372MPD2    N1 5574   4.037   4.716  13.428 -0.3093  0.1980 -0.5112
  372MPD2    H7 5575   4.031   4.662  13.513 -0.7509  1.1191  0.0421
  373TMC3    C1 5576   3.430   4.361  13.291  0.1778  0.2041  0.6233
  373TMC3    C2 5577   3.372   4.390  13.412 -0.1249  0.5011  0.6105
  373TMC3    C3 5578   3.310   4.290  13.479  0.2603  0.4763 -0.5594
  373TMC3    C4 5579   3.433   4.234  13.240 -0.2873 -0.4496  0.0840
  373TMC3    C5 5580   3.369   4.131  13.311 -0.7017  0.4076 -1.1946
  373TMC3    C6 5581   3.309   4.160  13.433  0.5269 -0.3640  0.1332
  373TMC3     C 5582   3.520   4.456  13.238 -0.4365 -0.3255 -0.2365
  373TMC3     O 5583   3.518   4.462  13.113  0.5419  0.4807 -0.9202
  373TMC3     H 5584   3.365   4.493  13.442  0.3885  1.0136 -1.0371
  373TMC3    H1 5585   3.494   4.211  13.154  0.7288  0.3777  0.5866
  373TMC3    H2 5586   3.264   4.079  13.489  0.0231  0.8910  1.5391
  373TMC3    C7 5587   3.432   4.003  13.300  0.6416 -0.3790 -0.0938
  373TMC3    C8 5588   3.293   4.316  13.623  0.4143 -0.5325 -0.1569
  373TMC3    O1 5589   3.381   3.912  13.232  0.4386  0.2058 -0.2179
  373TMC3    O2 5590   3.348   4.418  13.665 -0.0279 -0.1799  0.1873
  374TMC3    C1 5591   4.205   3.882   9.376 -0.2112  0.3543 -0.7205
  374TMC3    C2 5592   4.217   4.012   9.408 -0.3156  0.8325 -0.1644
  374TMC3    C3 5593   4.242   4.100   9.308 -0.2868 -0.1831  0.4721
  374TMC3    C4 5594   4.208   3.837   9.252  0.4443  0.0439  0.5122
  374TMC3    C5 5595   4.237   3.928   9.152  0.0566 -0.1439 -0.5404
  374TMC3    C6 5596   4.249   4.062   9.175  0.5956 -0.5267 -0.4173
  374TMC3     C 5597   4.152   3.790   9.476 -0.6584  0.1914  0.0715
  374TMC3     O 5598   4.097   3.687   9.431  0.1273  0.1354 -0.2823
  374TMC3     H 5599   4.194   4.056   9.504 -2.1461 -1.2836  0.3755
  374TMC3    H1 5600   4.174   3.737   9.229 -0.3336 -0.0637  2.1411
  374TMC3    H2 5601   4.288   4.128   9.098  0.5185  1.0525  0.9030
  374TMC3    C7 5602   4.203   3.899   9.012  0.0558 -0.5339  0.1143
  374TMC3    C8 5603   4.243   4.245   9.334 -0.1335  0.2999 -0.2694
  374TMC3    O1 5604   4.200   3.999   8.940 -1.1696 -0.1886 -0.2851
  374TMC3    O2 5605   4.238   4.321   9.239  0.1578 -0.3151 -0.4622
  375MPD2     C 5606   3.826   0.707  17.113  0.0465  0.5503  0.4477
  375MPD2    C1 5607   3.755   0.717  16.993 -0.2997 -0.4284  0.2634
  375MPD2    C2 5608   3.811   0.658  16.884  0.5532  0.5792 -0.1354
  375MPD2    C3 5609   3.928   0.581  16.894 -0.0771  0.2867 -0.1262
  375MPD2    C4 5610   3.998   0.581  17.011  0.3987  0.1488 -0.5017
  375MPD2    C5 5611   3.947   0.649  17.118 -0.3549 -0.6100  0.1810
  375MPD2     H 5612   3.754   0.657  16.791  1.0284  1.3212 -0.4325
  375MPD2    H1 5613   4.087   0.520  17.022 -0.1285 -0.6263 -0.5207
  375MPD2    H2 5614   3.781   0.740  17.207 -1.7183  1.6910 -0.8068
  375MPD2    H3 5615   4.004   0.641  17.210  0.6523  1.9804 -0.2217
  375MPD2     N 5616   3.977   0.511  16.787 -0.2872 -0.0778 -0.0643
  375MPD2    H5 5617   4.075   0.484  16.791 -0.3292 -0.5376 -2.1228
  375MPD2    N1 5618   3.630   0.778  16.979  0.0135  0.8691 -0.6776
  375MPD2    H7 5619   3.582   0.762  16.891 -0.9987  0.8387 -0.1116
  376TMC3    C1 5620   3.992   0.403  16.574 -0.7093 -0.1823 -0.5985
  376TMC3    C2 5621   4.121   0.435  16.564  0.4591  0.6782 -0.8315
  376TMC3    C3 5622   4.184   0.408  16.446  0.6081 -0.7840  0.5246
  376TMC3    C4 5623   3.924   0.336  16.472  0.0797  0.0268 -0.0755
  376TMC3    C5 5624   3.994   0.310  16.354  0.3069 -0.1662 -0.3597
  376TMC3    C6 5625   4.123   0.351  16.337 -0.3134  0.2962 -0.4314
  376TMC3     C 5626   3.910   0.475  16.671 -0.0035  0.0282 -0.6320
  376TMC3     O 5627   3.788   0.494  16.647  0.1274 -0.2958  0.3592
  376TMC3     H 5628   4.179   0.492  16.636 -0.2484 -0.5645  0.7132
  376TMC3    H1 5629   3.823   0.300  16.486  0.8412 -1.8369  0.5887
  376TMC3    H2 5630   4.176   0.315  16.250  0.0508  1.1419 -0.5507
  376TMC3    C7 5631   3.931   0.238  16.251  0.1499  0.2334 -0.3685
  376TMC3    C8 5632   4.329   0.421  16.434 -0.1768 -0.1110  0.1340
  376TMC3    O1 5633   3.839   0.161  16.283  0.4162 -0.1575  0.2575
  376TMC3    O2 5634   4.377   0.402  16.325  0.3355 -0.3274 -0.1266
  377MPD2     C 5635   1.640   4.602  11.950  0.2430 -0.0803 -0.2548
  377MPD2    C1 5636   1.719   4.567  12.052 -0.3533  0.0048 -0.4058
  377MPD2    C2 5637   1.661   4.489  12.159 -0.7423  0.1623  0.3440
  377MPD2    C3 5638   1.526   4.459  12.174  0.2402  0.2187 -0.0464
  377MPD2    C4 5639   1.451   4.504  12.067 -0.4418 -0.6728  1.2897
  377MPD2    C5 5640   1.510   4.565  11.955  0.7011  0.2091 -0.2517
  377MPD2     H 5641   1.723   4.458  12.243 -1.3441  0.0179  0.7349
  377MPD2    H1 5642   1.348   4.475  12.048 -0.6128  1.7685 -1.5211
  377MPD2    H2 5643   1.685   4.657  11.868 -0.0794  1.1544  0.4041
  377MPD2    H3 5644   1.439   4.596  11.879  0.0869 -0.5101  0.0209
  377MPD2     N 5645   1.462   4.401  12.291  0.2284  0.2905  0.3141
  377MPD2    H5 5646   1.361   4.408  12.302  0.1486  2.1028 -1.6355
  377MPD2    N1 5647   1.858   4.607  12.043 -0.1732 -0.0274 -0.1771
  377MPD2    H7 5648   1.877   4.660  11.958  0.3878 -1.7554 -1.1199
  378TMC3    C1 5649   2.235   0.064  12.015  0.2220  0.0204  0.2864
  378TMC3    C2 5650   2.107   0.018  12.021 -0.2578  0.4203 -0.1326
  378TMC3    C3 5651   2.089   4.630  12.109  0.5148  0.3725  0.0937
  378TMC3    C4 5652   2.344   0.021  12.100 -0.5318  0.1312  0.8540
  378TMC3    C5 5653   2.309   4.636  12.184  0.8417  0.4249  0.1126
  378TMC3    C6 5654   2.185   4.580  12.193  0.2419  0.4669  0.5867
  378TMC3     C 5655   2.274   0.138  11.897 -0.0646  0.3153  0.5113
  378TMC3     O 5656   2.184   0.189  11.826  0.0456  0.3176 -0.2749
  378TMC3     H 5657   2.028   0.064  11.963 -0.1323 -1.4521 -1.8155
  378TMC3    H1 5658   2.441   0.069  12.103  0.1513 -1.3767  3.2576
  378TMC3    H2 5659   2.156   4.503  12.265 -0.2430  0.3073  0.2226
  378TMC3    C7 5660   2.412   4.573  12.264  0.5007  0.1073  0.1976
  378TMC3    C8 5661   1.957   4.570  12.131  0.5829  0.3115 -0.2336
  378TMC3    O1 5662   2.367   4.483  12.331  0.1542 -0.2352  0.6422
  378TMC3    O2 5663   1.950   4.488  12.220 -0.1327  0.8705 -0.0950
  379MPD2     C 5664   3.370   2.602  15.610  0.4011  0.1401 -0.6730
  379MPD2    C1 5665   3.238   2.562  15.638  0.0782  0.1661  0.7935
  379MPD2    C2 5666   3.219   2.496  15.759 -0.2279  0.0098  0.0480
  379MPD2    C3 5667   3.316   2.455  15.847 -0.5994 -0.0439 -0.0395
  379MPD2    C4 5668   3.444   2.504  15.814 -0.4546  0.6722 -0.3954
  379MPD2    C5 5669   3.465   2.577  15.704 -0.0924 -0.3981  0.2180
  379MPD2     H 5670   3.116   2.482  15.789  0.1513  1.3990  2.0671
  379MPD2    H1 5671   3.528   2.486  15.881 -0.3953  0.2037 -0.5905
  379MPD2    H2 5672   3.395   2.652  15.517  2.6206  0.4092  0.0617
  379MPD2    H3 5673   3.565   2.617  15.693  0.0669 -0.5506  1.0794
  379MPD2     N 5674   3.299   2.362  15.954  0.2166 -0.3404  0.0261
  379MPD2    H5 5675   3.376   2.341  16.016  0.7357  1.2393 -0.0793
  379MPD2    N1 5676   3.131   2.600  15.554  0.1505 -0.1515 -0.0250
  379MPD2    H7 5677   3.157   2.644  15.466  2.0134 -1.8691 -0.3077
  380TMC3    C1 5678   2.905   2.613  15.472 -0.0550 -0.0881  0.1148
  380TMC3    C2 5679   2.948   2.628  15.338  0.1021  0.2692 -0.2960
  380TMC3    C3 5680   2.848   2.616  15.248  0.0987  0.5795 -0.3841
  380TMC3    C4 5681   2.773   2.592  15.511 -0.5465 -0.4541 -0.1114
  380TMC3    C5 5682   2.687   2.582  15.412  0.3277 -0.0316 -0.2475
  380TMC3    C6 5683   2.720   2.607  15.280  0.2577 -0.0269  0.0757
  380TMC3     C 5684   3.003   2.560  15.569 -0.2012  0.7625 -0.1687
  380TMC3     O 5685   2.947   2.504  15.661 -0.6973  0.8352  0.1693
  380TMC3     H 5686   3.051   2.642  15.308 -0.3503  3.1859 -0.4760
  380TMC3    H1 5687   2.748   2.580  15.616 -0.6064 -1.7867 -0.2848
  380TMC3    H2 5688   2.647   2.627  15.202 -0.4344 -1.7580  0.2721
  380TMC3    C7 5689   2.548   2.597  15.454 -0.4701  0.3687 -0.0865
  380TMC3    C8 5690   2.884   2.622  15.107  1.2023  0.0092 -0.3661
  380TMC3    O1 5691   2.527   2.613  15.571  0.4777 -0.1674 -0.2931
  380TMC3    O2 5692   2.995   2.663  15.084  0.0711  1.0045  0.2460
  381TMC3    C1 5693   2.384   3.695  15.966 -0.0902  0.6597 -0.7423
  381TMC3    C2 5694   2.416   3.822  15.933 -0.1230 -0.3965  0.0711
  381TMC3    C3 5695   2.407   3.920  16.030 -0.6794 -0.2865 -0.3302
  381TMC3    C4 5696   2.337   3.655  16.089 -0.2621 -0.0930  0.5726
  381TMC3    C5 5697   2.309   3.759  16.176  0.3884 -0.4463 -0.1650
  381TMC3    C6 5698   2.343   3.895  16.151 -0.4026  0.0415 -0.0825
  381TMC3     C 5699   2.427   3.587  15.877  0.1749 -0.0012  0.0552
  381TMC3     O 5700   2.467   3.484  15.935  0.4019  0.1862  0.3697
  381TMC3     H 5701   2.478   3.838  15.845 -0.4739 -0.7836 -0.2423
  381TMC3    H1 5702   2.308   3.552  16.106  0.8159 -0.3491  0.9005
  381TMC3    H2 5703   2.324   3.970  16.226 -2.8172 -0.4988 -0.1405
  381TMC3    C7 5704   2.303   3.712  16.314  0.0364 -0.2763  0.2643
  381TMC3    C8 5705   2.481   4.045  16.001 -0.6940 -0.3787  1.1664
  381TMC3    O1 5706   2.351   3.604  16.345  0.0207  0.1376 -0.1707
  381TMC3    O2 5707   2.522   4.064  15.885 -0.1710  0.0674 -0.2666
  382MPD2     C 5708   2.035   1.625   0.003  0.1062  0.9725 -0.0714
  382MPD2    C1 5709   2.064   1.616  17.545 -0.2734  0.6478 -0.4907
  382MPD2    C2 5710   2.024   1.503  17.475 -0.1608  0.1516 -0.8211
  382MPD2    C3 5711   1.938   1.415  17.537  0.9125 -0.1046  0.0756
  382MPD2    C4 5712   1.911   1.425  17.668 -0.6015 -0.5016  0.5241
  382MPD2    C5 5713   1.959   1.532   0.065 -0.6250 -0.6351  0.5045
  382MPD2     H 5714   2.055   1.498  17.371 -2.1364  1.4024 -1.4907
  382MPD2    H1 5715   1.831   1.365   0.036  0.2965 -2.2292 -0.2910
  382MPD2    H2 5716   2.077   1.701   0.068 -0.2612  2.5471 -1.6692
  382MPD2    H3 5717   1.930   1.549   0.168 -0.7544  1.3831  0.1384
  382MPD2     N 5718   1.884   1.308  17.459 -0.2393  0.3872  0.0633
  382MPD2    H5 5719   1.824   1.243  17.510 -1.2931  0.4890 -1.0365
  382MPD2    N1 5720   2.146   1.708  17.471  0.5002 -0.7324 -0.0271
  382MPD2    H7 5721   2.155   1.684  17.373  0.0762  1.5903 -0.6298
  383TMC3    C1 5722   1.820   1.177  17.278  0.1917 -0.3176 -0.0960
  383TMC3    C2 5723   1.690   1.152  17.318 -0.0995  0.2350  0.1840
  383TMC3    C3 5724   1.639   1.029  17.291  0.2064 -0.6533  0.8760
  383TMC3    C4 5725   1.885   1.104  17.185 -0.0244 -0.0928  0.7676
  383TMC3    C5 5726   1.824   0.979  17.158  0.4214 -0.4671 -0.2258
  383TMC3    C6 5727   1.705   0.943  17.206  0.0292 -0.3095  0.4130
  383TMC3     C 5728   1.892   1.292  17.326  0.1491  0.1107 -0.3794
  383TMC3     O 5729   1.950   1.360  17.239  0.0876  0.0827  0.1297
  383TMC3     H 5730   1.637   1.221  17.383 -0.9948 -1.0272  0.7921
  383TMC3    H1 5731   1.982   1.136  17.149 -1.1027  0.4914 -1.6405
  383TMC3    H2 5732   1.665   0.846  17.179  0.0819 -0.1001 -0.4188
  383TMC3    C7 5733   1.895   0.892  17.062  0.0106 -0.3952 -0.1960
  383TMC3    C8 5734   1.499   0.990  17.321  0.2885  0.0684  0.4283
  383TMC3    O1 5735   1.827   0.827  16.982 -0.3156  0.1845  0.3944
  383TMC3    O2 5736   1.419   1.085  17.321 -0.1392 -0.1226 -0.0914
  384MPD2     C 5737   3.439   2.767  11.908  0.1577  0.4397  0.1391
  384MPD2    C1 5738   3.465   2.715  12.034  0.1398  0.2079 -0.0654
  384MPD2    C2 5739   3.478   2.584  12.052 -0.0445  0.2597  0.3805
  384MPD2    C3 5740   3.499   2.498  11.942  0.4201  0.6435  0.1430
  384MPD2    C4 5741   3.478   2.552  11.814 -0.7818  0.1884 -0.0841
  384MPD2    C5 5742   3.449   2.684  11.802 -0.2788 -0.6262 -0.5717
  384MPD2     H 5743   3.482   2.554  12.156  0.3150 -2.1923 -0.3441
  384MPD2    H1 5744   3.492   2.490  11.726 -1.5027 -0.3257  0.1639
  384MPD2    H2 5745   3.409   2.871  11.896 -0.6039  0.4782  2.4398
  384MPD2    H3 5746   3.431   2.721  11.702  0.5759  0.5986 -0.2817
  384MPD2     N 5747   3.523   2.362  11.951  0.3144  0.5011 -0.3222
  384MPD2    H5 5748   3.509   2.305  11.868 -0.9017  3.2982 -2.0267
  384MPD2    N1 5749   3.458   2.788  12.150 -0.0110  1.2141 -0.5961
  384MPD2    H7 5750   3.490   2.740  12.233  0.9768  1.4583 -0.8249
  385TMC3    C1 5751   3.575   2.155  12.065  0.2461 -0.4537  0.3224
  385TMC3    C2 5752   3.471   2.088  12.017  0.0032  0.4014 -0.2408
  385TMC3    C3 5753   3.423   1.990  12.098  0.2407  0.0792  0.5554
  385TMC3    C4 5754   3.647   2.118  12.172 -0.2764  0.2432  0.1235
  385TMC3    C5 5755   3.600   2.021  12.256  0.7648 -0.6213  0.1030
  385TMC3    C6 5756   3.482   1.968  12.218 -0.5601 -0.0582 -0.3661
  385TMC3     C 5757   3.568   2.300  12.069 -0.5559  0.5175 -0.3605
  385TMC3     O 5758   3.612   2.356  12.171  0.0570  0.3719 -0.0218
  385TMC3     H 5759   3.409   2.126  11.936  0.5480 -2.3799 -1.9358
  385TMC3    H1 5760   3.739   2.167  12.199 -0.1464 -0.6516  1.3137
  385TMC3    H2 5761   3.429   1.901  12.284  0.1578 -0.0079  0.2693
  385TMC3    C7 5762   3.606   2.061  12.398 -0.4189 -0.7850  0.0453
  385TMC3    C8 5763   3.300   1.913  12.058  0.3764  0.8038 -0.1535
  385TMC3    O1 5764   3.588   1.975  12.484  0.6960  0.5545 -0.1121
  385TMC3    O2 5765   3.225   1.894  12.153 -0.0391 -0.1742 -0.1903
  386TMC3    C1 5766   3.243   0.380  11.665 -0.1644 -0.0070  0.4540
  386TMC3    C2 5767   3.282   0.320  11.546 -0.3986 -0.3366 -0.3481
  386TMC3    C3 5768   3.198   0.329  11.439 -0.6259  0.9827  0.0436
  386TMC3    C4 5769   3.128   0.445  11.684  0.0289  0.0422 -0.4437
  386TMC3    C5 5770   3.049   0.449  11.576 -0.2616 -0.1234  0.4792
  386TMC3    C6 5771   3.079   0.392  11.456  0.3309  0.1916  0.4942
  386TMC3     C 5772   3.337   0.383  11.778 -0.6767  0.0430 -0.3239
  386TMC3     O 5773   3.306   0.456  11.873 -0.4132 -0.4168 -0.5158
  386TMC3     H 5774   3.385   0.292  11.528 -0.5044 -1.7524  1.2919
  386TMC3    H1 5775   3.103   0.483  11.782  0.2164 -0.4706 -0.2024
  386TMC3    H2 5776   3.000   0.386  11.383 -0.9603  0.1487  1.8932
  386TMC3    C7 5777   2.929   0.534  11.586 -0.3060 -0.1304 -0.2805
  386TMC3    C8 5778   3.232   0.293  11.309  0.3788 -0.3261  0.5548
  386TMC3    O1 5779   2.878   0.543  11.699  0.5927  0.2281 -0.4167
  386TMC3    O2 5780   3.164   0.344  11.217 -0.2986 -0.4409 -0.2108
  387MPD2     C 5781   0.943   0.170   9.821  0.3551 -0.1649 -0.4550
  387MPD2    C1 5782   1.041   0.100   9.895  0.2128 -0.0091 -0.4467
  387MPD2    C2 5783   1.068   4.688   9.867  0.5766  0.5069 -0.2087
  387MPD2    C3 5784   1.001   4.625   9.768  0.7689  0.0994  0.3485
  387MPD2    C4 5785   0.905   4.688   9.693 -0.7142 -0.4681  0.0778
  387MPD2    C5 5786   0.874   0.101   9.718 -0.6094  0.2899  0.6068
  387MPD2     H 5787   1.143   4.626   9.915 -1.1915 -1.6821 -0.2391
  387MPD2    H1 5788   0.847   4.627   9.625 -0.8873  0.7954 -0.9188
  387MPD2    H2 5789   0.911   0.271   9.842  0.4722  0.0562 -1.3560
  387MPD2    H3 5790   0.798   0.158   9.666 -0.5886  0.8912  1.2284
  387MPD2     N 5791   1.037   4.487   9.748 -0.3814 -0.1406 -0.0822
  387MPD2    H5 5792   1.113   4.467   9.813  0.3663  0.0517 -0.8926
  387MPD2    N1 5793   1.128   0.165   9.986 -0.0815  0.4605  0.0647
  387MPD2    H7 5794   1.195   0.109  10.038 -0.7666  0.0574  0.5076
  388TMC3    C1 5795   1.253   0.314  10.094  0.0255  0.5803  0.2050
  388TMC3    C2 5796   1.261   0.411  10.190  0.3696  0.1635 -0.1331
  388TMC3    C3 5797   1.382   0.424  10.255 -0.7593  0.6860  0.0718
  388TMC3    C4 5798   1.362   0.226  10.069  0.0413 -0.5908  0.2385
  388TMC3    C5 5799   1.475   0.234  10.152  0.5799 -0.2195 -0.3337
  388TMC3    C6 5800   1.489   0.333  10.240 -0.1732  0.0601 -0.0586
  388TMC3     C 5801   1.135   0.299  10.015 -1.5070  0.3899  0.7885
  388TMC3     O 5802   1.060   0.394   9.994 -0.6256 -0.0844 -0.1661
  388TMC3     H 5803   1.180   0.482  10.207 -0.1430 -0.8946  1.8325
  388TMC3    H1 5804   1.369   0.156   9.986  2.0121 -0.3585  0.2108
  388TMC3    H2 5805   1.579   0.337  10.301  0.1578 -2.1538 -0.3713
  388TMC3    C7 5806   1.581   0.130  10.123 -0.1914 -0.2766  0.0666
  388TMC3    C8 5807   1.398   0.535  10.351  0.3611  0.2731 -0.5519
  388TMC3    O1 5808   1.699   0.165  10.114 -0.1497 -0.3465 -0.2085
  388TMC3    O2 5809   1.309   0.622  10.356  0.1270 -0.8382 -0.7259
  389MPD2     C 5810   0.731   3.135  11.197 -0.5679 -0.6735  0.4611
  389MPD2    C1 5811   0.667   3.063  11.104 -0.2538 -0.3078 -0.1191
  389MPD2    C2 5812   0.564   2.976  11.135 -0.6757 -0.4232 -0.3623
  389MPD2    C3 5813   0.515   2.983  11.267 -0.8464 -0.0089  0.5241
  389MPD2    C4 5814   0.580   3.060  11.364  0.6564 -0.1783 -0.4926
  389MPD2    C5 5815   0.688   3.136  11.328 -0.6225  0.0863  0.0558
  389MPD2     H 5816   0.503   2.920  11.066 -0.0416 -0.6540 -0.7403
  389MPD2    H1 5817   0.561   3.055  11.470 -0.6290 -0.0649 -0.7274
  389MPD2    H2 5818   0.816   3.200  11.178 -0.3728 -0.3291  2.4757
  389MPD2    H3 5819   0.748   3.189  11.401  0.6613 -1.8836  0.4351
  389MPD2     N 5820   0.399   2.906  11.315  0.2409 -0.1089 -0.6853
  389MPD2    H5 5821   0.389   2.894  11.416 -1.0452 -0.2282 -0.8237
  389MPD2    N1 5822   0.708   3.086  10.972  0.1853  0.2210  0.2228
  389MPD2    H7 5823   0.789   3.147  10.968  0.4219 -0.0957  0.2450
  390TMC3    C1 5824   0.194   2.788  11.281  1.0208 -0.6322  0.1433
  390TMC3    C2 5825   0.203   2.731  11.405 -0.1315 -0.0756 -1.0343
  390TMC3    C3 5826   0.090   2.684  11.466  0.5398 -0.5453 -0.4606
  390TMC3    C4 5827   0.077   2.787  11.212 -0.3492  0.3266  0.1370
  390TMC3    C5 5828   4.677   2.756  11.283  0.2869  0.1907 -0.4080
  390TMC3    C6 5829   4.690   2.691  11.404  0.1421 -0.3375  0.2534
  390TMC3     C 5830   0.308   2.866  11.226 -0.0312  0.1004  0.4299
  390TMC3     O 5831   0.280   2.913  11.116 -0.2176 -0.0690 -0.2607
  390TMC3     H 5832   0.296   2.716  11.457 -1.2885  0.4095  1.1529
  390TMC3    H1 5833   0.072   2.818  11.108 -1.0719 -0.4150 -0.0525
  390TMC3    H2 5834   4.605   2.636  11.441 -1.6444  1.4635 -1.1781
  390TMC3    C7 5835   4.571   2.703  11.200 -0.3200 -0.6912 -0.0484
  390TMC3    C8 5836   0.095   2.577  11.559 -0.6313 -0.6194 -0.0835
  390TMC3    O1 5837   4.608   2.674  11.084 -0.0742 -0.3036 -0.0448
  390TMC3    O2 5838   0.144   2.470  11.535  0.0362 -0.6239  0.0716
  391MPD2     C 5839   4.435   4.412  10.886 -0.3108  0.4456  0.7900
  391MPD2    C1 5840   4.552   4.476  10.852 -0.1066  0.3388 -0.6096
  391MPD2    C2 5841   4.569   4.516  10.722 -0.8280  0.5597  1.0494
  391MPD2    C3 5842   4.477   4.489  10.626  0.1326  0.2039  0.0755
  391MPD2    C4 5843   4.363   4.425  10.662  0.5292 -0.8462  0.5623
  391MPD2    C5 5844   4.338   4.391  10.791 -0.2695  0.3957  0.1310
  391MPD2     H 5845   4.654   4.573  10.686 -0.7259  0.5882  1.3405
  391MPD2    H1 5846   4.283   4.413  10.590  0.0401  0.4904  0.8850
  391MPD2    H2 5847   4.419   4.389  10.991 -0.6698 -4.3909 -0.3312
  391MPD2    H3 5848   4.253   4.326  10.811  0.4755 -1.7799 -3.7626
  391MPD2     N 5849   4.496   4.544  10.496  0.5108  0.3844 -0.5210
  391MPD2    H5 5850   4.569   4.614  10.483  0.9152 -0.2277 -1.5559
  391MPD2    N1 5851   4.646   4.502  10.959 -0.9676 -0.4165 -0.2464
  391MPD2    H7 5852   4.611   4.456  11.042  0.5995  0.6370  0.9943
  392TMC3    C1 5853   4.439   4.597  10.273  0.5615  1.0581  0.2624
  392TMC3    C2 5854   4.407   4.542  10.150  0.2992  0.0315  0.3187
  392TMC3    C3 5855   4.426   4.607  10.031 -0.1590  0.3852  0.0545
  392TMC3    C4 5856   4.499   0.004  10.277 -0.0871 -0.5536 -0.5767
  392TMC3    C5 5857   4.517   0.065  10.159  0.3377  0.6407  0.4778
  392TMC3    C6 5858   4.488   0.010  10.033 -0.6687 -0.5016 -0.7099
  392TMC3     C 5859   4.416   4.515  10.389 -0.1706 -0.2304  0.2990
  392TMC3     O 5860   4.345   4.421  10.372  0.1949 -0.0760 -0.3687
  392TMC3     H 5861   4.393   4.435  10.145  4.4734 -0.4257 -1.8297
  392TMC3    H1 5862   4.520   0.059  10.368 -1.6030 -0.5697 -0.2208
  392TMC3    H2 5863   4.503   0.062   9.939 -0.7887 -1.0714 -1.0435
  392TMC3    C7 5864   4.604   0.187  10.170 -0.5338  0.0745  0.3531
  392TMC3    C8 5865   4.395   4.529   9.916 -0.0417  0.7573  0.0761
  392TMC3    O1 5866   4.620   0.224  10.285  0.1546 -0.1228  0.6033
  392TMC3    O2 5867   4.412   4.408   9.924 -0.1011  0.3040 -0.0412
  393TMC3    C1 5868   3.661   2.108  10.513 -0.2396 -0.3763  0.1388
  393TMC3    C2 5869   3.524   2.092  10.517  0.0997 -0.9025  0.2703
  393TMC3    C3 5870   3.476   1.967  10.496  0.0167  0.8983 -0.0589
  393TMC3    C4 5871   3.742   2.016  10.469 -0.1897  0.0514  0.1639
  393TMC3    C5 5872   3.691   1.893  10.437  0.3669 -0.5596  0.2840
  393TMC3    C6 5873   3.555   1.863  10.447 -0.1689  0.7089  1.0256
  393TMC3     C 5874   3.702   2.248  10.500  0.2892  0.1958 -0.0459
  393TMC3     O 5875   3.615   2.333  10.520  0.1383 -0.1890 -0.3314
  393TMC3     H 5876   3.463   2.175  10.550 -0.1582 -0.0004 -2.5245
  393TMC3    H1 5877   3.850   2.021  10.469 -0.1824 -0.0639 -0.5362
  393TMC3    H2 5878   3.507   1.774  10.407  2.1356 -2.1210  4.5052
  393TMC3    C7 5879   3.775   1.813  10.356  0.3914 -0.5307  0.5769
  393TMC3    C8 5880   3.332   1.954  10.488 -0.9748  0.2756  0.7102
  393TMC3    O1 5881   3.736   1.699  10.325  0.1377 -0.1651  0.3893
  393TMC3    O2 5882   3.272   2.048  10.441 -0.1407 -0.1983  0.0266
  394TMC3    C1 5883   0.691   3.126  10.736 -0.4188  0.5294 -0.0059
  394TMC3    C2 5884   0.603   3.210  10.676  0.3176 -0.3455 -1.0469
  394TMC3    C3 5885   0.658   3.312  10.598  0.1366  0.4486 -0.5479
  394TMC3    C4 5886   0.825   3.130  10.717 -0.4005 -0.1260 -0.4220
  394TMC3    C5 5887   0.875   3.223  10.631 -0.2110  0.0341 -0.2534
  394TMC3    C6 5888   0.795   3.320  10.574 -0.7481 -0.2361 -0.4526
  394TMC3     C 5889   0.649   3.053  10.854  0.1795  0.3066 -0.6765
  394TMC3     O 5890   0.539   2.993  10.841  0.0958  0.5696 -0.2511
  394TMC3     H 5891   0.497   3.200  10.698  0.8684 -2.2590  0.7937
  394TMC3    H1 5892   0.894   3.053  10.750  1.2432  0.1258 -3.2167
  394TMC3    H2 5893   0.839   3.383  10.498  1.3657 -0.2982  0.7224
  394TMC3    C7 5894   0.980   3.174  10.544 -0.0236  0.2047  0.0818
  394TMC3    C8 5895   0.571   3.359  10.488  0.2943  0.1163 -0.6063
  394TMC3    O1 5896   1.082   3.239  10.544  0.9424 -0.2264  0.7548
  394TMC3    O2 5897   0.602   3.460  10.430  0.1565  0.0175 -0.4209
  395TMC3    C1 5898   0.548   0.486  14.440 -0.6187  0.7205 -0.0096
  395TMC3    C2 5899   0.556   0.522  14.579  1.5084  0.0804  0.4512
  395TMC3    C3 5900   0.650   0.598  14.633 -0.6374  0.3061 -0.2930
  395TMC3    C4 5901   0.647   0.530  14.355  0.2363  0.6756 -0.1815
  395TMC3    C5 5902   0.748   0.601  14.415 -0.0182 -0.7323  0.0747
  395TMC3    C6 5903   0.753   0.633  14.549 -0.0709  0.2587 -0.2608
  395TMC3     C 5904   0.426   0.438  14.371 -0.3545 -0.1556  0.2850
  395TMC3     O 5905   0.429   0.429  14.251 -0.4400  0.1284 -0.4015
  395TMC3     H 5906   0.484   0.474  14.645  2.1620 -1.6640 -0.1157
  395TMC3    H1 5907   0.638   0.509  14.249  1.0448 -1.6277  0.1942
  395TMC3    H2 5908   0.828   0.704  14.582 -0.4723  0.3634  0.4290
  395TMC3    C7 5909   0.847   0.665  14.334 -0.0418  0.4925 -0.0635
  395TMC3    C8 5910   0.601   0.697  14.725  0.6823  0.3046  0.4450
  395TMC3    O1 5911   0.942   0.711  14.394 -0.5074  0.9865 -1.0188
  395TMC3    O2 5912   0.665   0.779  14.789  0.3170 -0.1926  0.6793
  396MPD2     C 5913   4.536   1.671  16.593  0.5580  0.2224  0.2540
  396MPD2    C1 5914   4.646   1.626  16.666  0.3698  0.2445 -0.0071
  396MPD2    C2 5915   0.050   1.676  16.626  0.1528  0.7864 -0.1242
  396MPD2    C3 5916   0.057   1.779  16.534 -0.3630 -0.2738  0.4746
  396MPD2    C4 5917   4.657   1.816  16.465 -0.1855 -0.3510  0.1365
  396MPD2    C5 5918   4.540   1.755  16.491 -0.4816  0.6383  0.2140
  396MPD2     H 5919   0.136   1.632  16.676 -1.2490 -0.9789  0.7371
  396MPD2    H1 5920   4.652   1.899  16.396  0.2241 -0.0848  0.4256
  396MPD2    H2 5921   4.443   1.623  16.624  0.8621  0.7523  2.0311
  396MPD2    H3 5922   4.450   1.785  16.438 -0.3839  0.3983 -0.0842
  396MPD2     N 5923   0.177   1.835  16.502 -0.2822  0.1022 -0.5058
  396MPD2    H5 5924   0.251   1.829  16.571 -1.2294 -3.5467  0.1741
  396MPD2    N1 5925   4.618   1.526  16.767 -0.1563  0.0925 -0.7463
  396MPD2    H7 5926   4.526   1.487  16.780  0.4995 -0.8889  0.9049
  397TMC3    C1 5927   4.669   1.383  16.960  0.0116  0.3579 -0.4089
  397TMC3    C2 5928   4.614   1.280  16.878 -0.0028 -0.3361  0.0630
  397TMC3    C3 5929   4.648   1.152  16.912 -0.8817 -0.2767 -0.0902
  397TMC3    C4 5930   0.044   1.354  17.054  0.2140  0.0332 -0.0477
  397TMC3    C5 5931   0.061   1.221  17.089 -0.2431 -0.2144  0.2561
  397TMC3    C6 5932   0.011   1.117  17.013 -0.4718  0.1431 -0.6826
  397TMC3     C 5933   4.709   1.487  16.866  0.1808  0.6421 -0.3664
  397TMC3     O 5934   0.108   1.516  16.878  0.2031 -0.0612 -0.0002
  397TMC3     H 5935   4.520   1.302  16.828 -0.6042 -1.2691  0.7814
  397TMC3    H1 5936   0.095   1.435  17.106  0.2221 -0.5262  0.8263
  397TMC3    H2 5937   0.012   1.014  17.045 -0.0507  1.3216  3.0142
  397TMC3    C7 5938   0.151   1.170  17.184 -0.3174 -0.3122  0.5289
  397TMC3    C8 5939   4.636   1.075  16.791  0.6771  0.1122  0.0628
  397TMC3    O1 5940   0.202   1.060  17.161 -0.1530  0.5372  0.1685
  397TMC3    O2 5941   4.573   1.122  16.703 -0.0435  0.1969  0.1299
  398MPD2     C 5942   3.020   2.375  17.508 -0.2561  0.3143  0.3269
  398MPD2    C1 5943   3.094   2.271  17.567 -0.5858  0.3875  0.8722
  398MPD2    C2 5944   3.123   2.285   0.028  0.2364 -0.0439  0.2011
  398MPD2    C3 5945   3.086   2.399   0.095  0.7192 -0.4773 -0.2672
  398MPD2    C4 5946   3.018   2.498   0.031  0.2586 -0.3990  0.4277
  398MPD2    C5 5947   2.979   2.483  17.576  0.5256 -0.5624  0.0300
  398MPD2     H 5948   3.187   2.217   0.082  0.1784  0.0667  0.4078
  398MPD2    H1 5949   2.987   2.585   0.088  0.2433 -0.2919  0.2558
  398MPD2    H2 5950   3.004   2.387  17.401 -2.0942  0.0430  0.5848
  398MPD2    H3 5951   2.928   2.561  17.520 -0.0108  0.6383  2.1991
  398MPD2     N 5952   3.135   2.411   0.229  0.0919  0.1728  0.5614
  398MPD2    H5 5953   3.211   2.350   0.256  1.9722  1.9573 -0.6268
  398MPD2    N1 5954   3.118   2.140  17.520  0.1549  0.5172  0.4216
  398MPD2    H7 5955   3.153   2.075  17.589  1.8232 -0.2907 -1.1917
  399TMC3    C1 5956   3.095   1.954  17.384 -0.7548  0.7439 -0.0513
  399TMC3    C2 5957   3.177   1.878  17.461 -0.1903 -0.6927 -0.2841
  399TMC3    C3 5958   3.149   1.749  17.495  0.3315  0.2201 -0.0979
  399TMC3    C4 5959   2.978   1.898  17.343  0.3533 -0.0324  1.3862
  399TMC3    C5 5960   2.941   1.771  17.393 -0.5118 -0.5969 -0.6323
  399TMC3    C6 5961   3.033   1.689  17.454 -0.4527  0.1712 -0.6644
  399TMC3     C 5962   3.107   2.098  17.391  0.1421 -0.3352  0.0987
  399TMC3     O 5963   3.078   2.154  17.288 -0.1574 -0.0176  0.3122
  399TMC3     H 5964   3.274   1.921  17.485  0.0036 -0.1476 -2.0062
  399TMC3    H1 5965   2.901   1.959  17.298  0.8457 -0.8649 -0.5487
  399TMC3    H2 5966   3.003   1.586  17.468  1.2122 -0.0917  0.8778
  399TMC3    C7 5967   2.824   1.713  17.329 -1.4872 -0.9120 -0.4143
  399TMC3    C8 5968   3.254   1.673  17.562 -0.3559 -0.5046  0.0422
  399TMC3    O1 5969   2.789   1.764  17.223 -0.5036  0.9460  0.3651
  399TMC3    O2 5970   3.348   1.735  17.605  0.2764  0.1083 -0.5902
  400TMC3    C1 5971   1.329   0.807  16.905  0.1713 -0.0478  0.3959
  400TMC3    C2 5972   1.206   0.837  16.852 -0.4614 -0.5462 -0.4074
  400TMC3    C3 5973   1.159   0.966  16.869  0.1284  0.0856  0.0778
  400TMC3    C4 5974   1.412   0.897  16.971 -0.2825 -0.1243  0.3414
  400TMC3    C5 5975   1.362   1.024  16.977 -0.2132  1.2101  0.6288
  400TMC3    C6 5976   1.239   1.065  16.927  0.5361  0.0073  0.4567
  400TMC3     C 5977   1.393   0.691  16.845  0.1102 -1.1055 -1.4688
  400TMC3     O 5978   1.323   0.595  16.835  0.1494 -0.4381  0.1347
  400TMC3     H 5979   1.147   0.770  16.791  0.8027  0.3084 -2.5720
  400TMC3    H1 5980   1.509   0.869  17.010 -0.9893 -0.8924  1.5441
  400TMC3    H2 5981   1.197   1.164  16.937  2.4271  0.7937  0.5676
  400TMC3    C7 5982   1.458   1.131  17.007 -0.5537 -0.3577  0.3556
  400TMC3    C8 5983   1.019   0.987  16.852 -0.0622 -0.0254  0.0760
  400TMC3    O1 5984   1.570   1.102  16.970 -0.1144  0.5447  0.2396
  400TMC3    O2 5985   0.983   1.104  16.832  0.0554 -0.0988 -0.6823
  401MPD2     C 5986   3.803   4.479   0.874 -0.0822  0.2831 -0.1144
  401MPD2    C1 5987   3.894   4.390   0.829 -0.0915 -0.5557  0.2267
  401MPD2    C2 5988   3.920   4.285   0.911 -0.2488 -0.0017 -0.2930
  401MPD2    C3 5989   3.860   4.277   1.038 -0.8618 -0.4148 -0.2943
  401MPD2    C4 5990   3.762   4.364   1.081 -0.3354  0.7111 -0.3028
  401MPD2    C5 5991   3.728   4.460   0.986 -0.2090 -0.0421 -0.2767
  401MPD2     H 5992   3.990   4.206   0.887 -0.8567 -1.1635  1.7574
  401MPD2    H1 5993   3.709   4.359   1.176 -1.5184 -0.4222 -1.0080
  401MPD2    H2 5994   3.779   4.569   0.818  0.6281  1.5710  1.6654
  401MPD2    H3 5995   3.646   4.529   1.006  0.3349 -0.1036  2.1230
  401MPD2     N 5996   3.916   4.189   1.134 -0.0824  0.0599 -0.1208
  401MPD2    H5 5997   4.005   4.145   1.111 -0.0568 -1.4978  3.0138
  401MPD2    N1 5998   3.958   4.395   0.706 -0.4848 -0.5864 -0.5255
  401MPD2    H7 5999   4.014   4.321   0.666 -2.3362 -2.3263  0.0964
  402TMC3    C1 6000   3.947   4.054   1.328 -0.0947  0.3826  0.2771
  402TMC3    C2 6001   4.079   4.085   1.331 -0.4679  0.0020 -0.5282
  402TMC3    C3 6002   4.167   3.987   1.374 -0.4648  0.3903 -0.4204
  402TMC3    C4 6003   3.896   3.942   1.387  0.7112 -0.1832  0.0944
  402TMC3    C5 6004   3.984   3.840   1.421 -0.0648  0.6110 -0.2629
  402TMC3    C6 6005   4.121   3.864   1.417  0.3821 -0.5381  0.6698
  402TMC3     C 6006   3.863   4.142   1.251  0.0351 -0.2965 -0.0298
  402TMC3     O 6007   3.745   4.148   1.274  0.1519  0.2616  0.3817
  402TMC3     H 6008   4.122   4.172   1.284  0.9951  0.3458  1.4291
  402TMC3    H1 6009   3.788   3.931   1.394  0.3658  2.3062 -1.4548
  402TMC3    H2 6010   4.189   3.785   1.444  1.3898  0.3034  0.6218
  402TMC3    C7 6011   3.939   3.702   1.423  0.1783 -0.5678  1.1792
  402TMC3    C8 6012   4.304   4.004   1.341 -0.2086  0.0129 -0.0866
  402TMC3    O1 6013   4.027   3.621   1.424  0.2092  0.3713 -0.3040
  402TMC3    O2 6014   4.376   3.906   1.325 -0.5072 -0.1272  0.0514
  403MPD2     C 6015   2.917   2.872  12.963  0.5863  0.0978  0.2635
  403MPD2    C1 6016   2.959   2.760  13.032 -0.5394  0.3573 -0.1516
  403MPD2    C2 6017   3.006   2.775  13.159 -0.2521  0.3119 -0.0808
  403MPD2    C3 6018   3.022   2.905  13.210 -0.4101 -0.4543  0.5155
  403MPD2    C4 6019   2.982   3.014  13.138  0.2784  0.1629 -1.2978
  403MPD2    C5 6020   2.924   2.996  13.012 -0.0820 -0.2913 -0.4977
  403MPD2     H 6021   3.047   2.695  13.219  1.0921  0.1559 -1.2200
  403MPD2    H1 6022   3.000   3.115  13.171  1.4596 -0.3199 -0.4677
  403MPD2    H2 6023   2.862   2.849  12.873 -0.2862 -1.6641  1.2464
  403MPD2    H3 6024   2.873   3.074  12.957  0.2349  0.3544  0.1157
  403MPD2     N 6025   3.103   2.909  13.328  0.1057  0.7194 -0.0820
  403MPD2    H5 6026   3.158   2.827  13.349 -1.8972 -0.5534  0.2696
  403MPD2    N1 6027   2.935   2.639  12.962 -0.4010 -0.1333  0.2955
  403MPD2    H7 6028   2.889   2.650  12.872 -0.8392 -0.3409  0.4934
  404TMC3    C1 6029   2.953   2.403  12.931 -0.9689  0.4796  0.2517
  404TMC3    C2 6030   2.963   2.281  12.985 -0.1094 -0.0655 -0.1337
  404TMC3    C3 6031   2.953   2.179  12.890  0.6101 -0.1576  0.2799
  404TMC3    C4 6032   2.950   2.435  12.795  0.3334 -0.7087 -0.0525
  404TMC3    C5 6033   2.937   2.328  12.708 -0.4136  0.1652 -0.1530
  404TMC3    C6 6034   2.938   2.201  12.754 -0.1132  0.3193  0.6415
  404TMC3     C 6035   2.960   2.515  13.020 -0.6031  1.0370 -0.1590
  404TMC3     O 6036   2.994   2.489  13.136  0.2400 -0.1316  0.3274
  404TMC3     H 6037   2.963   2.274  13.093 -0.6365  0.6432 -0.0894
  404TMC3    H1 6038   2.942   2.534  12.752 -1.7875 -1.9705 -2.5879
  404TMC3    H2 6039   2.922   2.119  12.685 -1.1136  0.0413  1.1923
  404TMC3    C7 6040   2.876   2.355  12.577  0.2248  0.0923  0.0599
  404TMC3    C8 6041   3.003   2.043  12.920 -0.8720  0.2999 -0.2199
  404TMC3    O1 6042   2.833   2.259  12.512  0.3798  0.3617 -0.3986
  404TMC3    O2 6043   3.073   1.993  12.830 -0.1961  0.2654  0.2119
  405MPD2     C 6044   3.170   3.045  14.193 -0.1462  0.1932 -0.3896
  405MPD2    C1 6045   3.153   2.941  14.106 -0.3039 -0.1003 -0.3820
  405MPD2    C2 6046   3.064   2.949  14.003  0.3350  1.0075 -0.1339
  405MPD2    C3 6047   3.000   3.060  13.968 -0.4615  0.1723  0.5443
  405MPD2    C4 6048   3.014   3.167  14.055  0.0809  0.0290 -0.3234
  405MPD2    C5 6049   3.100   3.164  14.167  0.5270 -0.3412  0.5360
  405MPD2     H 6050   3.040   2.861  13.945  2.6958  0.0427  0.3715
  405MPD2    H1 6051   2.990   3.268  14.022 -0.5823 -0.1995 -0.5407
  405MPD2    H2 6052   3.238   3.037  14.276  1.1474  0.9804 -1.3818
  405MPD2    H3 6053   3.108   3.248  14.235  0.9883 -0.6448  0.8585
  405MPD2     N 6054   2.933   3.055  13.850 -0.1828 -0.0339 -0.1081
  405MPD2    H5 6055   2.957   2.981  13.786 -1.4126 -0.0193 -0.5922
  405MPD2    N1 6056   3.213   2.814  14.132  0.1518  0.5927  0.4643
  405MPD2    H7 6057   3.251   2.799  14.224  1.5852 -2.5900 -0.6566
  406TMC3    C1 6058   2.558   3.059  13.604  0.2927  0.5805  0.1145
  406TMC3    C2 6059   2.614   2.966  13.520  0.3941 -1.0284  0.0060
  406TMC3    C3 6060   2.748   2.952  13.524 -0.1446  0.5952 -0.4243
  406TMC3    C4 6061   2.633   3.122  13.705  0.5129 -0.6774 -0.3949
  406TMC3    C5 6062   2.763   3.113  13.701  0.3293 -0.3509 -0.1112
  406TMC3    C6 6063   2.826   3.023  13.616 -0.1600 -1.4710 -0.0900
  406TMC3     C 6064   2.409   3.050  13.620 -0.2475  0.6231  0.0564
  406TMC3     O 6065   2.336   3.021  13.522 -0.0436  0.4656 -0.0115
  406TMC3     H 6066   2.546   2.909  13.457 -1.8120  1.2323  0.3353
  406TMC3    H1 6067   2.588   3.189  13.777 -0.0583 -1.3064 -0.1642
  406TMC3    H2 6068   2.934   3.012  13.614  0.0941  0.8406  0.9865
  406TMC3    C7 6069   2.831   3.148  13.825  0.2025 -0.6880  0.4432
  406TMC3    C8 6070   2.808   2.825  13.469  0.1918  0.4107  0.4248
  406TMC3    O1 6071   2.786   3.223  13.911  0.1999 -0.5860  0.3548
  406TMC3    O2 6072   2.773   2.778  13.359  0.1924  0.3214  0.4780
  407MPD2     C 6073   0.645   4.047   9.199 -0.5276  0.1839 -0.6163
  407MPD2    C1 6074   0.761   4.073   9.268  0.1060  0.2249 -0.2538
  407MPD2    C2 6075   0.749   4.144   9.383  0.7922 -0.8291  0.2816
  407MPD2    C3 6076   0.627   4.193   9.438 -0.7247  0.2996  0.5749
  407MPD2    C4 6077   0.511   4.158   9.370 -0.0529  0.4532 -0.4317
  407MPD2    C5 6078   0.526   4.083   9.251 -0.1435  0.8889  0.6770
  407MPD2     H 6079   0.820   4.160   9.463  0.7335  0.6891  0.0487
  407MPD2    H1 6080   0.411   4.190   9.397  0.7054  1.8855  0.6718
  407MPD2    H2 6081   0.655   3.997   9.104 -3.2613 -1.0405 -0.2557
  407MPD2    H3 6082   0.434   4.062   9.199  0.3279  2.3522 -0.7322
  407MPD2     N 6083   0.630   4.266   9.566  0.3502  0.5285 -0.1348
  407MPD2    H5 6084   0.717   4.296   9.609  0.8488  1.0456 -1.5297
  407MPD2    N1 6085   0.897   4.052   9.228 -0.0385 -0.7280 -0.2524
  407MPD2    H7 6086   0.966   4.070   9.300  0.6171 -3.2167 -0.2408
  408TMC3    C1 6087   1.066   4.058   9.083 -0.1672 -0.2704  0.4821
  408TMC3    C2 6088   1.165   3.970   9.099  0.1019  0.0917  0.4092
  408TMC3    C3 6089   1.281   4.008   9.157  0.9086  0.8449  0.3603
  408TMC3    C4 6090   1.072   4.179   9.150 -0.6229  0.0210  0.5479
  408TMC3    C5 6091   1.198   4.214   9.212  0.6742 -0.0176 -0.7332
  408TMC3    C6 6092   1.302   4.128   9.220 -0.4791  0.0097  0.2403
  408TMC3     C 6093   0.936   3.996   9.105 -0.2586 -0.1189  0.2422
  408TMC3     O 6094   0.883   3.935   9.018  0.4552  0.7714 -0.1276
  408TMC3     H 6095   1.157   3.863   9.081  0.8681  0.1975 -0.5958
  408TMC3    H1 6096   0.991   4.250   9.133 -0.1518  0.2957 -0.5092
  408TMC3    H2 6097   1.397   4.169   9.253  0.3957 -0.6300 -1.4829
  408TMC3    C7 6098   1.206   4.331   9.295  0.3354 -0.4235 -0.3779
  408TMC3    C8 6099   1.371   3.904   9.190 -0.1117 -0.0944 -0.1629
  408TMC3    O1 6100   1.309   4.371   9.349 -0.1933  0.5538 -0.4103
  408TMC3    O2 6101   1.408   3.820   9.110  0.5928  0.4579  0.6117
  409MPD2     C 6102   0.185   0.523  17.150 -0.0749  0.1169 -0.3409
  409MPD2    C1 6103   0.270   0.524  17.248  0.0313 -0.1540  0.0794
  409MPD2    C2 6104   0.343   0.637  17.280 -0.6334 -0.1619 -0.3861
  409MPD2    C3 6105   0.330   0.752  17.203  0.0399  0.3450  0.0845
  409MPD2    C4 6106   0.252   0.750  17.096 -0.3638 -0.4339 -0.1488
  409MPD2    C5 6107   0.176   0.638  17.070  0.2060 -0.0135 -0.3112
  409MPD2     H 6108   0.409   0.637  17.366 -1.6886 -1.0809  0.4210
  409MPD2    H1 6109   0.226   0.839  17.038 -1.4599 -0.5073  0.2351
  409MPD2    H2 6110   0.120   0.438  17.131 -1.7502  1.2481  0.3064
  409MPD2    H3 6111   0.108   0.633  16.986  0.4629  2.8898 -0.6972
  409MPD2     N 6112   0.417   0.863  17.215 -0.0989  0.2112 -0.3097
  409MPD2    H5 6113   0.388   0.933  17.147  1.8157  0.7200 -0.5982
  409MPD2    N1 6114   0.299   0.406  17.329 -0.1350  0.0440  0.9793
  409MPD2    H7 6115   0.356   0.416  17.412  0.3773 -1.5195  0.8263
  410TMC3    C1 6116   0.618   0.979  17.269 -0.6223  0.1488 -0.7208
  410TMC3    C2 6117   0.751   0.957  17.275 -0.0189  0.7773 -0.2997
  410TMC3    C3 6118   0.839   1.042  17.212  0.5558  0.0541  0.5176
  410TMC3    C4 6119   0.564   1.084  17.198 -0.5005 -0.5754  0.3070
  410TMC3    C5 6120   0.651   1.171  17.134  0.8133  0.4385  0.3471
  410TMC3    C6 6121   0.792   1.150  17.146  0.5176  0.3006  0.5134
  410TMC3     C 6122   0.526   0.872  17.304  0.1010 -0.8051 -0.3266
  410TMC3     O 6123   0.576   0.795  17.381  0.8801  0.0535  0.0222
  410TMC3     H 6124   0.779   0.882  17.348  0.7900  1.3271 -0.0454
  410TMC3    H1 6125   0.457   1.092  17.193 -0.5344  0.4074  2.9391
  410TMC3    H2 6126   0.858   1.225  17.102  0.1378 -1.2645 -2.6772
  410TMC3    C7 6127   0.594   1.242  17.032 -0.1543  0.4512 -0.3303
  410TMC3    C8 6128   0.979   1.009  17.226  0.3500  0.1920  0.1066
  410TMC3    O1 6129   0.475   1.268  17.039 -0.1348 -0.1272 -0.5414
  410TMC3    O2 6130   1.068   1.084  17.191 -0.2786 -0.1637  0.3292
  411MPD2     C 6131   0.890   1.558  14.252  0.1354  0.0855  0.3669
  411MPD2    C1 6132   0.864   1.581  14.385  0.3272 -0.3199  0.8633
  411MPD2    C2 6133   0.809   1.475  14.457 -0.7205  0.8120  0.8305
  411MPD2    C3 6134   0.772   1.356  14.389  0.3046  0.4331  0.0226
  411MPD2    C4 6135   0.813   1.334  14.258 -0.0173  0.7857 -0.0516
  411MPD2    C5 6136   0.862   1.443  14.189  0.1375 -0.1814  1.2789
  411MPD2     H 6137   0.797   1.468  14.564  1.2821  0.4619  1.0456
  411MPD2    H1 6138   0.790   1.241  14.208  0.5117  0.0668  1.0372
  411MPD2    H2 6139   0.917   1.641  14.187  1.5134 -0.6947 -0.0482
  411MPD2    H3 6140   0.893   1.427  14.086 -2.2383 -0.6492  0.6400
  411MPD2     N 6141   0.699   1.251  14.444  0.0483  0.3313 -0.3181
  411MPD2    H5 6142   0.681   1.175  14.381  0.0704  0.5824 -0.6265
  411MPD2    N1 6143   0.876   1.713  14.430  0.1417 -0.2051 -0.3350
  411MPD2    H7 6144   0.894   1.784  14.359  0.0634  1.3962  1.2672
  412TMC3    C1 6145   0.509   1.163  14.557 -0.5462 -0.0793 -0.0034
  412TMC3    C2 6146   0.389   1.232  14.556 -0.2433  0.0244  0.3069
  412TMC3    C3 6147   0.279   1.167  14.507  0.0596  0.5490 -0.2314
  412TMC3    C4 6148   0.530   1.043  14.495  0.0292  0.0635 -0.6441
  412TMC3    C5 6149   0.418   0.975  14.455 -0.9461 -0.6462 -0.3704
  412TMC3    C6 6150   0.296   1.035  14.468  0.5630  0.4843 -0.1120
  412TMC3     C 6151   0.624   1.254  14.562  0.1482 -0.1256  0.8675
  412TMC3     O 6152   0.615   1.342  14.645  0.5980 -0.0020 -0.2220
  412TMC3     H 6153   0.375   1.339  14.569 -0.6515  0.0324 -0.1711
  412TMC3    H1 6154   0.622   0.987  14.504 -0.1783 -0.3382 -1.0214
  412TMC3    H2 6155   0.203   0.998  14.426  1.8647 -0.5999 -2.0528
  412TMC3    C7 6156   0.437   0.877  14.355  0.3107 -0.7049  0.2672
  412TMC3    C8 6157   0.219   1.254  14.408  0.5422  0.0693 -0.0569
  412TMC3    O1 6158   0.391   0.769  14.388  0.5725 -0.5466 -0.0540
  412TMC3    O2 6159   0.293   1.297  14.319 -0.3659 -0.4963  0.4747
  413MPD2     C 6160   2.023   4.241  15.279 -0.1971  0.4396 -0.1208
  413MPD2    C1 6161   1.967   4.219  15.155  0.4317 -1.2205  0.1236
  413MPD2    C2 6162   2.029   4.145  15.057 -0.4104 -0.1751 -0.3097
  413MPD2    C3 6163   2.146   4.080  15.092 -0.3422 -0.4130  0.2604
  413MPD2    C4 6164   2.198   4.098  15.215  0.3954  0.1039  0.2772
  413MPD2    C5 6165   2.141   4.180  15.308 -0.1528  1.0563  0.2016
  413MPD2     H 6166   1.993   4.127  14.957 -0.5705  1.8404 -0.6100
  413MPD2    H1 6167   2.296   4.058  15.238  1.5064  0.9227 -2.9849
  413MPD2    H2 6168   1.973   4.300  15.355 -1.4608 -0.8809  0.0763
  413MPD2    H3 6169   2.185   4.189  15.407 -0.5164 -0.9994  0.5604
  413MPD2     N 6170   2.207   3.982  15.000 -0.1473  0.2375  0.1252
  413MPD2    H5 6171   2.165   3.970  14.909 -2.6296 -3.7766  1.7798
  413MPD2    N1 6172   1.847   4.287  15.129 -0.0330 -0.1697  0.1064
  413MPD2    H7 6173   1.805   4.322  15.215 -0.9925  0.9274 -0.8093
  414TMC3    C1 6174   2.351   3.807  14.926 -0.8368  0.4139  0.1113
  414TMC3    C2 6175   2.403   3.682  14.956  0.3727 -0.4965 -0.3933
  414TMC3    C3 6176   2.417   3.594  14.856 -0.1947  0.2328 -0.8756
  414TMC3    C4 6177   2.327   3.845  14.797 -0.2010 -0.4416 -0.4021
  414TMC3    C5 6178   2.359   3.758  14.694 -0.9512 -0.2421  0.0828
  414TMC3    C6 6179   2.397   3.631  14.723  0.3518 -0.4413  0.8150
  414TMC3     C 6180   2.295   3.881  15.034  0.2749 -0.0637 -0.6000
  414TMC3     O 6181   2.323   3.846  15.147  0.3922  0.0017 -0.8033
  414TMC3     H 6182   2.436   3.665  15.058 -0.7936  0.2193  0.0968
  414TMC3    H1 6183   2.301   3.948  14.776 -1.0498 -0.0144  2.8024
  414TMC3    H2 6184   2.422   3.553  14.652 -0.3803 -0.4811  0.5953
  414TMC3    C7 6185   2.341   3.803  14.554 -0.6596 -0.0367 -0.6185
  414TMC3    C8 6186   2.538   3.512  14.854 -0.2219 -0.0335  0.6732
  414TMC3    O1 6187   2.246   3.882  14.547 -0.1793 -0.1817 -0.6213
  414TMC3    O2 6188   2.534   3.411  14.782 -0.7182  0.1113 -0.3576
  415TMC3    C1 6189   2.585   1.647   9.728  0.4538 -0.0309  0.1368
  415TMC3    C2 6190   2.657   1.675   9.617  0.0060  0.1758 -0.1836
  415TMC3    C3 6191   2.584   1.729   9.510 -0.3147 -0.1191  0.1967
  415TMC3    C4 6192   2.448   1.666   9.732  0.1503 -0.0539  0.2397
  415TMC3    C5 6193   2.382   1.705   9.623 -0.3041  0.2692 -0.3614
  415TMC3    C6 6194   2.448   1.747   9.514  0.0627  0.6772  0.0453
  415TMC3     C 6195   2.652   1.592   9.841 -0.3823  0.4919 -0.5360
  415TMC3     O 6196   2.591   1.524   9.919  0.4782 -0.1836  0.2054
  415TMC3     H 6197   2.763   1.651   9.614  0.2250  1.1300 -0.0141
  415TMC3    H1 6198   2.399   1.619   9.817  0.8000 -1.5631 -0.2117
  415TMC3    H2 6199   2.400   1.806   9.436 -4.6380  0.1109  2.5100
  415TMC3    C7 6200   2.251   1.654   9.594 -0.7258 -0.8549 -0.4423
  415TMC3    C8 6201   2.665   1.776   9.392 -0.0174 -0.2968  0.0844
  415TMC3    O1 6202   2.211   1.672   9.476 -0.1123 -0.2459  0.1750
  415TMC3    O2 6203   2.601   1.793   9.289  0.3729  0.2874 -0.1787
  416MPD2     C 6204   4.600   1.074  11.532  0.4928 -0.0364  0.6189
  416MPD2    C1 6205   4.511   1.100  11.431  0.5237  0.1817 -0.0818
  416MPD2    C2 6206   4.545   1.056  11.306  0.2394  0.4788 -0.1079
  416MPD2    C3 6207   4.660   0.982  11.280 -0.2081 -0.2698 -0.9509
  416MPD2    C4 6208   0.020   0.944  11.390  0.1290  0.1133 -0.2712
  416MPD2    C5 6209   4.712   1.002  11.511  0.0059  0.1057 -1.0456
  416MPD2     H 6210   4.485   1.087  11.222 -0.5653  0.3197  0.4159
  416MPD2    H1 6211   0.118   0.899  11.381 -0.2132 -0.5204 -0.7757
  416MPD2    H2 6212   4.586   1.116  11.631  0.9706  0.7550  0.3466
  416MPD2    H3 6213   0.059   0.968  11.591 -0.3113  0.7722 -0.5140
  416MPD2     N 6214   4.697   0.945  11.148 -0.3349 -0.1129 -0.1561
  416MPD2    H5 6215   0.068   0.895  11.151 -0.9996 -1.2530  0.0475
  416MPD2    N1 6216   4.401   1.179  11.454 -0.0451 -0.0230 -1.0777
  416MPD2    H7 6217   4.400   1.219  11.547  2.6124 -2.1877 -0.1310
  417TMC3    C1 6218   4.192   1.277  11.446 -0.0350 -0.2967  0.2527
  417TMC3    C2 6219   4.160   1.247  11.571 -0.0730 -0.0275 -0.5595
  417TMC3    C3 6220   4.046   1.314  11.616  1.0064  0.6311 -0.1813
  417TMC3    C4 6221   4.113   1.346  11.365 -0.1533 -0.4576  0.2656
  417TMC3    C5 6222   4.008   1.407  11.414  0.6527  0.0677 -0.5161
  417TMC3    C6 6223   3.970   1.392  11.542  0.1215 -0.4032  0.4603
  417TMC3     C 6224   4.297   1.210  11.373 -0.7019  0.1563  0.7135
  417TMC3     O 6225   4.270   1.174  11.261  0.0567 -0.0738 -0.3289
  417TMC3     H 6226   4.224   1.176  11.621  0.1626  0.8799  0.4152
  417TMC3    H1 6227   4.149   1.370  11.266 -1.5538 -0.4686 -0.2445
  417TMC3    H2 6228   3.899   1.459  11.590  0.7481 -1.9660  3.5246
  417TMC3    C7 6229   3.959   1.528  11.352 -0.2447  0.3313  0.1751
  417TMC3    C8 6230   4.025   1.305  11.762  0.2845  0.0291  0.0435
  417TMC3    O1 6231   4.048   1.602  11.310  0.0829 -0.1715 -0.3597
  417TMC3    O2 6232   3.972   1.402  11.820 -0.0287  0.0289 -0.4710
  418TMC3    C1 6233   3.415   2.611   0.451 -0.1362  0.3601 -0.9652
  418TMC3    C2 6234   3.290   2.631   0.411  0.1187  0.2405  0.1284
  418TMC3    C3 6235   3.198   2.530   0.418 -0.0808  0.8884  0.1433
  418TMC3    C4 6236   3.453   2.493   0.509 -0.0081 -0.2821  0.0112
  418TMC3    C5 6237   3.353   2.401   0.524 -0.2675  0.3405 -1.0136
  418TMC3    C6 6238   3.226   2.415   0.482 -0.3536 -0.2709  0.3654
  418TMC3     C 6239   3.513   2.676   0.365 -0.4862 -0.7662 -0.5031
  418TMC3     O 6240   3.480   2.789   0.331 -0.5369 -0.3002 -0.5224
  418TMC3     H 6241   3.262   2.720   0.356  2.8830 -0.0117 -1.7359
  418TMC3    H1 6242   3.557   2.470   0.529  0.5569  2.4309  0.1733
  418TMC3    H2 6243   3.153   2.336   0.489  0.3601 -0.8936  0.7353
  418TMC3    C7 6244   3.393   2.270   0.568  0.1306  0.0431 -0.6571
  418TMC3    C8 6245   3.105   2.516   0.315  0.4842  0.4262 -0.0674
  418TMC3    O1 6246   3.334   2.170   0.523 -0.3592 -0.2388  0.0712
  418TMC3    O2 6247   3.031   2.616   0.306 -0.3729  0.3054  0.0549
  419MPD2     C 6248   1.848   1.319  12.315  0.1869 -0.1130 -0.8783
  419MPD2    C1 6249   1.763   1.424  12.343 -0.1097 -0.7018 -0.1968
  419MPD2    C2 6250   1.712   1.432  12.474  0.3833 -0.5363 -0.3700
  419MPD2    C3 6251   1.756   1.338  12.568 -0.0239 -0.4923 -0.2947
  419MPD2    C4 6252   1.850   1.242  12.541  0.0863 -0.7408  1.1539
  419MPD2    C5 6253   1.889   1.233  12.411 -0.2180  0.2841 -0.1715
  419MPD2     H 6254   1.637   1.504  12.506 -0.5308 -1.6609 -0.0019
  419MPD2    H1 6255   1.898   1.179  12.615  1.9772 -1.5811 -0.7910
  419MPD2    H2 6256   1.894   1.313  12.217  1.3437  0.4789 -0.3706
  419MPD2    H3 6257   1.961   1.158  12.379 -0.9204  0.0302 -1.1323
  419MPD2     N 6258   1.689   1.343  12.688 -0.0221 -0.4570  0.0761
  419MPD2    H5 6259   1.618   1.415  12.703 -0.4027 -1.1498  1.5678
  419MPD2    N1 6260   1.711   1.511  12.254  0.6068 -0.3344 -0.0208
  419MPD2    H7 6261   1.667   1.594  12.292  0.3466  0.6330 -2.4342
  420TMC3    C1 6262   1.619   1.273  12.895  0.6678 -0.3152 -0.5857
  420TMC3    C2 6263   1.568   1.403  12.920 -0.5572 -0.0210 -0.8577
  420TMC3    C3 6264   1.486   1.410  13.027  0.0995  0.1420 -0.1753
  420TMC3    C4 6265   1.577   1.164  12.965 -0.3056  0.2984 -0.3294
  420TMC3    C5 6266   1.495   1.182  13.069 -0.1954 -0.3039 -0.2325
  420TMC3    C6 6267   1.449   1.306  13.099  0.2054 -0.5541 -0.5610
  420TMC3     C 6268   1.695   1.243  12.778  0.1450  0.8563 -0.4088
  420TMC3     O 6269   1.726   1.126  12.761  0.1602  0.9866  0.1855
  420TMC3     H 6270   1.623   1.490  12.885 -1.4696  1.1156  0.4815
  420TMC3    H1 6271   1.610   1.064  12.941 -0.9561 -0.1013  0.4024
  420TMC3    H2 6272   1.381   1.326  13.181  2.1521 -1.8814  1.3710
  420TMC3    C7 6273   1.406   1.066  13.094  0.1556  0.5395 -0.1207
  420TMC3    C8 6274   1.446   1.538  13.087  0.4542 -0.6691  0.1283
  420TMC3    O1 6275   1.460   0.966  13.138  0.6075 -0.7290 -0.2523
  420TMC3    O2 6276   1.438   1.550  13.209  0.0767 -0.1467 -0.2174
  421TMC3    C1 6277   3.220   3.012  13.510  0.0202 -0.1595  0.2515
  421TMC3    C2 6278   3.195   3.096  13.618  0.3423  0.1681 -0.1594
  421TMC3    C3 6279   3.298   3.105  13.712 -0.0345  0.0218  0.5426
  421TMC3    C4 6280   3.317   2.922  13.517 -0.2916  1.0328  0.1221
  421TMC3    C5 6281   3.404   2.917  13.626 -0.3044  0.6768 -0.1928
  421TMC3    C6 6282   3.401   3.015  13.724  0.4580 -0.0672 -0.3030
  421TMC3     C 6283   3.117   3.017  13.407  0.0343 -0.0813  0.4534
  421TMC3     O 6284   3.062   3.126  13.399 -0.1017  0.3388 -0.2132
  421TMC3     H 6285   3.120   3.174  13.611  1.7785  1.5484 -0.3343
  421TMC3    H1 6286   3.348   2.882  13.421  1.2234 -0.4077  1.2022
  421TMC3    H2 6287   3.480   3.024  13.797 -1.8779  0.2142  2.1567
  421TMC3    C7 6288   3.505   2.811  13.645 -0.1271  0.3823  0.0257
  421TMC3    C8 6289   3.293   3.223  13.797 -0.3095  0.6620 -0.2189
  421TMC3    O1 6290   3.602   2.837  13.716 -0.0325  0.1830 -0.4720
  421TMC3    O2 6291   3.186   3.279  13.813 -0.5044 -0.5387 -0.4899
  422TMC3    C1 6292   0.749   3.755  12.427  0.0558  0.2602 -0.4248
  422TMC3    C2 6293   0.725   3.889  12.445  0.2133 -0.2836  0.1802
  422TMC3    C3 6294   0.598   3.934  12.441 -0.4588  0.2471  0.4276
  422TMC3    C4 6295   0.646   3.669  12.410  0.2754 -0.2231  0.2538
  422TMC3    C5 6296   0.516   3.711  12.440 -0.0838 -0.3473 -0.4849
  422TMC3    C6 6297   0.491   3.846  12.444  0.6069  0.3539  0.2799
  422TMC3     C 6298   0.873   3.730  12.344  0.3632  0.4722  0.8365
  422TMC3     O 6299   0.917   3.836  12.310 -0.1975  0.2464 -0.0986
  422TMC3     H 6300   0.799   3.968  12.441  0.3938 -0.4994 -0.6984
  422TMC3    H1 6301   0.667   3.566  12.386 -0.5924 -0.5409  0.8515
  422TMC3    H2 6302   0.391   3.887  12.447  0.0418 -0.9626 -0.5077
  422TMC3    C7 6303   0.416   3.615  12.447  0.1113 -0.1482 -0.0235
  422TMC3    C8 6304   0.561   4.071  12.443 -0.1288  0.7694 -0.2996
  422TMC3    O1 6305   0.436   3.505  12.405  0.5874 -0.4013 -0.4265
  422TMC3    O2 6306   0.625   4.138  12.521  0.0596  0.0775 -0.0935
  423MPD2     C 6307   1.971   0.132   0.185 -0.1598  0.4577 -0.1008
  423MPD2    C1 6308   1.984   0.004   0.234  0.0655 -0.2742 -0.3459
  423MPD2    C2 6309   2.029   4.622   0.148  0.2297  0.1512 -0.0336
  423MPD2    C3 6310   2.072   4.655   0.026 -0.2960  0.5712 -0.2832
  423MPD2    C4 6311   2.061   0.068  17.650 -0.8502  0.2523 -0.2852
  423MPD2    C5 6312   2.012   0.162   0.061 -0.4559  0.1198  0.3797
  423MPD2     H 6313   2.024   4.522   0.189  0.9573 -0.0580 -0.4539
  423MPD2    H1 6314   2.099   0.103  17.555 -0.8068  1.0353  0.0156
  423MPD2    H2 6315   1.923   0.212   0.240 -0.5122  3.2620 -4.4906
  423MPD2    H3 6316   1.997   0.262   0.021 -1.0174 -0.6521 -1.3093
  423MPD2     N 6317   2.124   4.569  17.609  0.4664 -0.1524  0.4384
  423MPD2    H5 6318   2.161   4.605  17.522  0.6517  0.2334  0.6756
  423MPD2    N1 6319   1.947   4.692   0.369 -0.4910  0.2172 -0.1789
  423MPD2    H7 6320   1.964   4.596   0.399  2.9815  0.5795 -0.9464
  424TMC3    C1 6321   1.853   0.002   0.586 -0.1506 -0.6030  0.0568
  424TMC3    C2 6322   1.940   4.624   0.643  0.0502  0.0591  0.3846
  424TMC3    C3 6323   1.915   4.592   0.774  0.3636 -0.3533  0.1672
  424TMC3    C4 6324   1.748   0.053   0.655 -0.3775 -0.0627 -0.2593
  424TMC3    C5 6325   1.721   4.713   0.778  0.0088 -1.2764 -0.8097
  424TMC3    C6 6326   1.804   4.627   0.844 -0.5597  0.4931  0.2055
  424TMC3     C 6327   1.876   0.058   0.451 -0.0606  0.0739  0.4988
  424TMC3     O 6328   1.820   0.167   0.429  0.2301  0.0803  0.1825
  424TMC3     H 6329   2.031   4.591   0.595  0.6521  1.9042  0.2540
  424TMC3    H1 6330   1.669   0.104   0.600 -1.8782 -0.9811  1.0510
  424TMC3    H2 6331   1.774   4.582   0.938  2.1453 -2.0282 -0.1563
  424TMC3    C7 6332   1.587   0.016   0.835 -0.2640  0.0663  0.2900
  424TMC3    C8 6333   2.014   4.507   0.845 -0.4478  0.2746  0.8125
  424TMC3    O1 6334   1.526   4.637   0.872  0.3497  0.3409 -0.4443
  424TMC3    O2 6335   2.100   4.452   0.781  0.1830 -0.3645 -0.3649
  425MPD2     C 6336   1.359   3.891  17.172  0.4820  0.4695 -0.0819
  425MPD2    C1 6337   1.302   3.818  17.070  0.0373 -0.1555  0.2057
  425MPD2    C2 6338   1.166   3.815  17.072  0.3362 -0.1560 -0.7470
  425MPD2    C3 6339   1.095   3.878  17.171 -0.2075 -0.1194 -0.1111
  425MPD2    C4 6340   1.156   3.925  17.284  0.1345  0.7693  0.5357
  425MPD2    C5 6341   1.294   3.940  17.283  0.5927  1.3671 -0.4203
  425MPD2     H 6342   1.107   3.762  16.997  0.3787  0.2816 -1.0875
  425MPD2    H1 6343   1.090   3.951  17.365 -0.3005  1.8076 -0.1600
  425MPD2    H2 6344   1.466   3.896  17.190  0.7491 -1.8614 -1.0076
  425MPD2    H3 6345   1.339   3.982  17.372  2.4257  0.3235 -0.8583
  425MPD2     N 6346   0.956   3.855  17.166 -0.5917 -0.3124 -0.2028
  425MPD2    H5 6347   0.924   3.803  17.085 -1.0077  1.3161 -1.0923
  425MPD2    N1 6348   1.379   3.750  16.970  0.0334  0.8236 -0.3049
  425MPD2    H7 6349   1.477   3.733  16.987 -0.0801 -1.5022 -1.9329
  426TMC3    C1 6350   1.409   3.573  16.831  0.2719  0.0847 -0.8300
  426TMC3    C2 6351   1.418   3.524  16.704 -0.3164 -0.2297 -0.1147
  426TMC3    C3 6352   1.500   3.417  16.683  0.1027  0.2322  0.1229
  426TMC3    C4 6353   1.473   3.507  16.939  0.5087 -0.1895 -0.4428
  426TMC3    C5 6354   1.546   3.397  16.915  0.2577 -0.1326 -0.0551
  426TMC3    C6 6355   1.566   3.355  16.785 -0.2908  0.1754  0.1706
  426TMC3     C 6356   1.323   3.684  16.865  0.2630  0.1572  0.2548
  426TMC3     O 6357   1.212   3.704  16.812  0.5472  0.2856 -0.1342
  426TMC3     H 6358   1.353   3.565  16.628  0.7709  0.1934 -0.8185
  426TMC3    H1 6359   1.451   3.533  17.042  0.6570  0.5200 -0.5894
  426TMC3    H2 6360   1.618   3.260  16.777  0.1165  0.5434 -1.4400
  426TMC3    C7 6361   1.528   3.284  17.007 -1.5011 -0.1814  0.0238
  426TMC3    C8 6362   1.512   3.364  16.553 -0.0269 -0.2808  0.0892
  426TMC3    O1 6363   1.625   3.213  17.029  0.0754  0.5689 -0.0790
  426TMC3    O2 6364   1.414   3.372  16.480  0.2653 -0.7496 -0.2918
  427MPD2     C 6365   4.410   1.649  15.133 -0.1095  0.7639 -0.6254
  427MPD2    C1 6366   4.374   1.516  15.138  0.2014 -0.0373  0.3292
  427MPD2    C2 6367   4.243   1.485  15.163 -0.4010  0.2618  0.2108
  427MPD2    C3 6368   4.144   1.578  15.196  0.0342 -0.1908 -0.3810
  427MPD2    C4 6369   4.181   1.712  15.187  0.4854  0.8480  0.2969
  427MPD2    C5 6370   4.312   1.743  15.162 -0.3523  0.5952  0.6159
  427MPD2     H 6371   4.226   1.378  15.173  0.9552 -0.1791 -2.0907
  427MPD2    H1 6372   4.118   1.797  15.210  0.1447  0.6702  0.0081
  427MPD2    H2 6373   4.505   1.688  15.098 -0.1407  2.0125  0.6549
  427MPD2    H3 6374   4.333   1.849  15.155  0.1396  0.3778 -1.2206
  427MPD2     N 6375   4.009   1.547  15.199  0.3244  0.4222  0.0963
  427MPD2    H5 6376   3.942   1.621  15.182 -0.8608 -1.2292 -2.3705
  427MPD2    N1 6377   4.462   1.410  15.098  0.1966  0.0218  0.4876
  427MPD2    H7 6378   4.427   1.315  15.105  0.4145 -0.2554 -2.2696
  428TMC3    C1 6379   4.667   1.317  15.029  0.3655  0.0109 -0.3792
  428TMC3    C2 6380   4.605   1.195  15.028  0.0902  0.3725  0.7371
  428TMC3    C3 6381   4.682   1.083  15.052  0.4509  0.7075 -0.1363
  428TMC3    C4 6382   0.082   1.337  15.054 -0.7316 -0.3113  0.5792
  428TMC3    C5 6383   0.144   1.223  15.092  0.3535  0.1466 -1.0598
  428TMC3    C6 6384   0.094   1.099  15.085  0.0470  0.1537  0.0581
  428TMC3     C 6385   4.586   1.435  15.044 -0.2107 -0.0232 -0.3480
  428TMC3     O 6386   4.634   1.540  14.999  0.2529 -0.5611  0.1756
  428TMC3     H 6387   4.505   1.172  14.991  0.5403 -0.6002  0.1205
  428TMC3    H1 6388   0.118   1.435  15.086 -2.2273  1.2388 -2.4716
  428TMC3    H2 6389   0.155   1.012  15.108  0.0354  0.1159 -0.0533
  428TMC3    C7 6390   0.287   1.233  15.128 -0.2176  0.1926 -0.1534
  428TMC3    C8 6391   4.621   0.952  15.061 -0.1451 -0.3035  1.3058
  428TMC3    O1 6392   0.333   1.149  15.205  0.2241 -0.0596  0.7236
  428TMC3    O2 6393   4.502   0.956  15.043  0.7782 -0.1161  0.0906
  429MPD2     C 6394   0.727   1.324  17.463  0.1228 -0.8402 -0.0692
  429MPD2    C1 6395   0.866   1.331  17.454  0.2521  0.1687  0.5448
  429MPD2    C2 6396   0.929   1.442  17.404 -0.4915  0.4253 -0.7179
  429MPD2    C3 6397   0.852   1.552  17.363  0.0573  0.2028  0.4011
  429MPD2    C4 6398   0.708   1.544  17.362  0.7575  0.1279 -0.3730
  429MPD2    C5 6399   0.652   1.434  17.422  0.6860 -0.8895  0.4699
  429MPD2     H 6400   1.035   1.439  17.382 -0.1598  1.2560  0.7543
  429MPD2    H1 6401   0.643   1.628  17.342  0.9341  0.1361 -0.8976
  429MPD2    H2 6402   0.680   1.233  17.499  0.8260 -0.4337  1.9244
  429MPD2    H3 6403   0.546   1.433  17.444  0.6590  1.3208  0.4396
  429MPD2     N 6404   0.917   1.658  17.301 -0.4595  0.7300  0.3604
  429MPD2    H5 6405   1.018   1.656  17.311 -0.4455 -0.9727 -0.1831
  429MPD2    N1 6406   0.951   1.224  17.493  0.1730 -0.5420 -0.5450
  429MPD2    H7 6407   1.046   1.224  17.459  0.3171  0.1511 -0.1489
  430TMC3    C1 6408   0.967   1.841  17.175 -0.3092  0.0795 -0.0914
  430TMC3    C2 6409   0.966   1.842  17.041 -0.0476  0.3286  0.8456
  430TMC3    C3 6410   1.085   1.856  16.974 -0.0152 -1.0746  0.2756
  430TMC3    C4 6411   1.087   1.837  17.245  0.1148  0.1755  0.6172
  430TMC3    C5 6412   1.199   1.827  17.175  0.9591  0.3772 -0.0476
  430TMC3    C6 6413   1.201   1.858  17.040 -0.7211  0.1713 -0.0909
  430TMC3     C 6414   0.857   1.761  17.224  0.4314  0.1198  0.2318
  430TMC3     O 6415   0.741   1.762  17.173  0.2885  0.0180 -0.3666
  430TMC3     H 6416   0.870   1.851  16.990  0.1018 -0.4817  0.4172
  430TMC3    H1 6417   1.088   1.821  17.352  1.0584 -1.8311  0.3144
  430TMC3    H2 6418   1.296   1.869  16.988 -0.1760  0.8176  1.0214
  430TMC3    C7 6419   1.268   1.711  17.221 -0.1053 -0.3250 -0.3382
  430TMC3    C8 6420   1.078   1.854  16.828 -0.1287 -0.6770 -0.3916
  430TMC3    O1 6421   1.208   1.626  17.285  0.1717 -0.0081 -0.2734
  430TMC3    O2 6422   0.993   1.782  16.775  0.2506  0.5381 -0.9737
  431MPD2     C 6423   1.900   2.414  11.909  0.9615 -0.6984 -0.3858
  431MPD2    C1 6424   1.974   2.306  11.949  0.5589 -0.7563 -0.3381
  431MPD2    C2 6425   1.917   2.186  11.985  0.0117 -0.3813 -0.3488
  431MPD2    C3 6426   1.778   2.176  11.970  0.9577  0.4892  0.3230
  431MPD2    C4 6427   1.706   2.280  11.922 -0.1510 -0.8525 -0.0217
  431MPD2    C5 6428   1.765   2.403  11.898  0.0233  0.6709  0.6937
  431MPD2     H 6429   1.974   2.095  12.000 -1.9982 -1.2105  2.1728
  431MPD2    H1 6430   1.601   2.257  11.909 -0.4437  0.4020  0.0496
  431MPD2    H2 6431   1.936   2.513  11.882  1.4358 -0.6148  0.5621
  431MPD2    H3 6432   1.705   2.476  11.845 -0.6584 -1.6091 -1.6815
  431MPD2     N 6433   1.709   2.049  11.972 -0.6972 -0.6571  0.2400
  431MPD2    H5 6434   1.611   2.049  11.945 -0.3682 -2.0829 -0.9025
  431MPD2    N1 6435   2.112   2.302  11.947 -0.4189  0.0317 -0.9877
  431MPD2    H7 6436   2.152   2.227  12.003 -2.6733  0.6425  1.4514
  432TMC3    C1 6437   1.669   1.831  12.011 -0.5688 -0.0362 -0.1356
  432TMC3    C2 6438   1.622   1.817  11.881 -0.5244 -0.3820  0.2172
  432TMC3    C3 6439   1.604   1.688  11.833 -0.1286  0.0519  0.2184
  432TMC3    C4 6440   1.695   1.725  12.092 -0.4151 -0.2068 -0.4047
  432TMC3    C5 6441   1.665   1.601  12.045 -0.0990  0.2537  0.5507
  432TMC3    C6 6442   1.622   1.583  11.914  0.1721  0.4245  0.0901
  432TMC3     C 6443   1.758   1.934  12.031 -0.0975 -0.7517 -0.4857
  432TMC3     O 6444   1.866   1.915  12.083  0.4960 -0.3289  0.3572
  432TMC3     H 6445   1.626   1.889  11.800  0.9220  0.3261  0.9281
  432TMC3    H1 6446   1.730   1.748  12.192  2.3180  0.1023 -1.4395
  432TMC3    H2 6447   1.606   1.480  11.885  0.3542  0.8898 -1.6556
  432TMC3    C7 6448   1.708   1.486  12.121 -0.2134 -0.6968  0.0734
  432TMC3    C8 6449   1.658   1.669  11.701 -0.5272  0.1990 -0.1882
  432TMC3    O1 6450   1.744   1.388  12.053 -0.1150 -0.5214 -0.0007
  432TMC3    O2 6451   1.584   1.686  11.602  0.2646 -0.3806  0.3249
  433MPD2     C 6452   0.565   0.220  10.415  0.1823  0.4124  0.1422
  433MPD2    C1 6453   0.565   0.143  10.529 -0.3645  0.1936 -0.8306
  433MPD2    C2 6454   0.602   0.205  10.649 -0.3238  0.5221  0.6201
  433MPD2    C3 6455   0.647   0.337  10.655 -0.5536 -0.2414  0.0584
  433MPD2    C4 6456   0.646   0.407  10.541 -0.1095  0.7125 -0.1169
  433MPD2    C5 6457   0.609   0.349  10.420  0.1835 -0.6054  0.0210
  433MPD2     H 6458   0.596   0.148  10.741  0.2304  0.3468  0.5450
  433MPD2    H1 6459   0.679   0.511  10.540  0.5492  0.4748 -2.4913
  433MPD2    H2 6460   0.539   0.177  10.319  0.5099  3.1605 -1.1872
  433MPD2    H3 6461   0.610   0.416  10.335  2.4849 -1.7648 -0.8716
  433MPD2     N 6462   0.676   0.392  10.780  0.3240  0.2526  0.1177
  433MPD2    H5 6463   0.675   0.325  10.856  0.7206 -0.5650 -0.5997
  433MPD2    N1 6464   0.516   0.014  10.522 -0.2370  0.4649 -0.4777
  433MPD2    H7 6465   0.487   4.698  10.431  0.9015  1.3419 -1.1602
  434TMC3    C1 6466   0.482   4.505  10.590  0.7495  0.3610 -0.2027
  434TMC3    C2 6467   0.525   4.415  10.684 -0.4960  0.9027 -0.3459
  434TMC3    C3 6468   0.578   4.292  10.646  0.0803 -0.6557 -0.3527
  434TMC3    C4 6469   0.487   4.474  10.455 -0.1148 -0.2141  0.2125
  434TMC3    C5 6470   0.523   4.347  10.420 -0.3720 -0.2146  0.1184
  434TMC3    C6 6471   0.578   4.261  10.510 -0.1314 -0.4042 -0.3110
  434TMC3     C 6472   0.517   4.639  10.629  0.5746 -0.5278  0.2614
  434TMC3     O 6473   0.552   4.654  10.744 -0.0461  0.7903 -0.0187
  434TMC3     H 6474   0.534   4.436  10.790  1.7707 -1.5833 -0.0344
  434TMC3    H1 6475   0.431   4.542  10.391  2.9334  1.2049 -0.9290
  434TMC3    H2 6476   0.619   4.163  10.487 -0.0801 -0.4004 -0.2377
  434TMC3    C7 6477   0.501   4.309  10.281  0.5541  0.0147 -0.1616
  434TMC3    C8 6478   0.706   4.266  10.715 -0.1214 -0.9477  0.5034
  434TMC3    O1 6479   0.480   4.407  10.206 -0.1786  0.2929  0.0799
  434TMC3    O2 6480   0.754   4.355  10.783 -0.4078  0.4227  0.3228
  435MPD2     C 6481   2.154   4.696  15.269 -0.0468  0.5691  0.3991
  435MPD2    C1 6482   2.180   4.715  15.403  0.3644  0.2295  0.3415
  435MPD2    C2 6483   2.307   4.712  15.449 -0.2337  0.1341 -0.0733
  435MPD2    C3 6484   2.412   4.684  15.366  0.1261  0.2074  0.9103
  435MPD2    C4 6485   2.390   4.677  15.230 -0.0322 -0.1575  0.5130
  435MPD2    C5 6486   2.266   4.694  15.185  0.5925  1.2290  0.3663
  435MPD2     H 6487   2.331   4.716  15.555 -0.1327  0.5110 -0.1109
  435MPD2    H1 6488   2.471   4.655  15.160 -0.9606  0.3970 -0.7266
  435MPD2    H2 6489   2.054   4.706  15.229  0.6516  1.3610 -1.1599
  435MPD2    H3 6490   2.246   4.676  15.080  3.4698 -0.1412  0.0322
  435MPD2     N 6491   2.530   4.663  15.432 -0.2657  0.0140  0.4574
  435MPD2    H5 6492   2.527   4.666  15.534  0.9523 -0.9399  0.5190
  435MPD2    N1 6493   2.081   0.016  15.502  0.3086 -0.0517 -0.4705
  435MPD2    H7 6494   2.108   4.716  15.598  3.6937  1.1594 -1.2014
  436TMC3    C1 6495   1.886   0.176  15.819  0.5076  0.2968 -0.2408
  436TMC3    C2 6496   1.956   0.122  15.712 -0.4211  0.0291  0.6398
  436TMC3    C3 6497   1.882   0.062  15.617  0.6110  0.3391  0.1756
  436TMC3    C4 6498   1.754   0.140  15.855 -0.5227 -0.5646  0.2361
  436TMC3    C5 6499   1.693   0.067  15.766 -0.4951  0.1946 -1.0150
  436TMC3    C6 6500   1.752   0.036  15.644  0.3370 -0.5298 -0.0922
  436TMC3     C 6501   1.971   0.241  15.920  0.4825  0.1709  0.7715
  436TMC3     O 6502   2.093   0.227  15.915  0.6611 -0.4277  0.1291
  436TMC3     H 6503   2.049   0.174  15.691  0.8618 -1.5343  2.3792
  436TMC3    H1 6504   1.711   0.179  15.947 -0.9466 -1.4172  0.4015
  436TMC3    H2 6505   1.697   4.700  15.568  2.1235 -2.1692 -0.2269
  436TMC3    C7 6506   1.611   4.673  15.816 -0.2481  0.7417 -0.2578
  436TMC3    C8 6507   1.947   0.031  15.482 -0.7093 -0.3382 -0.3065
  436TMC3    O1 6508   1.616   4.573  15.745  0.0787  0.5334  0.2192
  436TMC3    O2 6509   1.881   0.003  15.382  0.0068  0.7288  0.0289
  437TMC3    C1 6510   1.611   2.255  12.351  0.0739  0.4730 -0.0304
  437TMC3    C2 6511   1.476   2.274  12.373  0.5802  0.9381 -0.1506
  437TMC3    C3 6512   1.436   2.397  12.336 -0.1238  0.2203 -0.2821
  437TMC3    C4 6513   1.699   2.347  12.294 -0.2414 -0.8042 -0.0832
  437TMC3    C5 6514   1.641   2.458  12.248 -0.0428  0.6011 -0.1745
  437TMC3    C6 6515   1.514   2.488  12.269  0.0362 -0.1107  0.4110
  437TMC3     C 6516   1.664   2.123  12.390  0.1208  0.0142 -0.0905
  437TMC3     O 6517   1.584   2.028  12.387  0.1489 -0.6734 -0.3624
  437TMC3     H 6518   1.415   2.192  12.408 -0.6257  2.3163  0.9467
  437TMC3    H1 6519   1.795   2.306  12.264 -1.0511 -1.6666 -1.4974
  437TMC3    H2 6520   1.490   2.593  12.260  1.6202  0.4489  2.5968
  437TMC3    C7 6521   1.731   2.551  12.184  0.2586  0.0496 -0.7730
  437TMC3    C8 6522   1.299   2.422  12.395 -0.3376  0.5811 -0.8862
  437TMC3    O1 6523   1.682   2.640  12.116 -0.6121  0.1614 -0.2639
  437TMC3    O2 6524   1.241   2.330  12.449 -0.6309 -0.4337 -0.5867
  438MPD2     C 6525   3.490   2.257  16.439  0.1163  0.2894 -0.5418
  438MPD2    C1 6526   3.592   2.173  16.476 -0.1044 -0.2420 -0.3004
  438MPD2    C2 6527   3.557   2.069  16.553 -0.9757 -0.0700 -0.3560
  438MPD2    C3 6528   3.434   2.050  16.608  0.1559 -0.5062  0.8100
  438MPD2    C4 6529   3.337   2.136  16.576 -0.5481 -1.1186 -0.1892
  438MPD2    C5 6530   3.370   2.238  16.491 -0.3650 -0.5347  0.4894
  438MPD2     H 6531   3.634   1.994  16.568 -1.7334 -1.1015 -1.6263
  438MPD2    H1 6532   3.235   2.125  16.610 -1.1634  0.7001 -1.5130
  438MPD2    H2 6533   3.508   2.350  16.387  1.4165 -0.1242 -0.8520
  438MPD2    H3 6534   3.294   2.313  16.475  1.3052  0.4613 -2.7819
  438MPD2     N 6535   3.399   1.948  16.702  0.0943 -0.6284  0.0427
  438MPD2    H5 6536   3.314   1.964  16.755  0.7678  0.5714  0.7664
  438MPD2    N1 6537   3.732   2.185  16.444 -0.2369  0.1658  0.4158
  438MPD2    H7 6538   3.785   2.105  16.475  1.5490  1.1444 -0.1416
  439TMC3    C1 6539   3.934   2.280  16.360 -0.0267 -0.1251 -0.2090
  439TMC3    C2 6540   3.988   2.365  16.270  0.1011  0.3225  0.2462
  439TMC3    C3 6541   4.122   2.381  16.266  0.3361  0.1046  0.4246
  439TMC3    C4 6542   4.010   2.236  16.462 -0.1959 -0.2462 -0.5699
  439TMC3    C5 6543   4.139   2.259  16.455 -0.2304 -0.3883  0.0779
  439TMC3    C6 6544   4.206   2.325  16.353 -0.1488  0.3205  0.5556
  439TMC3     C 6545   3.787   2.284  16.366  0.1231  0.2129 -0.4206
  439TMC3     O 6546   3.736   2.378  16.310 -0.2170 -0.1996  0.2149
  439TMC3     H 6547   3.931   2.381  16.179 -1.6874  0.4939  1.4007
  439TMC3    H1 6548   3.965   2.164  16.529 -1.1443  1.2791  0.4215
  439TMC3    H2 6549   4.312   2.344  16.344 -0.3761  1.5036  0.3554
  439TMC3    C7 6550   4.219   2.197  16.558  0.8916 -0.2084  0.3458
  439TMC3    C8 6551   4.178   2.394  16.136  0.2818  0.5243  0.4478
  439TMC3    O1 6552   4.162   2.146  16.655 -0.1247  0.2818 -0.0138
  439TMC3    O2 6553   4.260   2.307  16.106  0.1664  0.3463  0.0582
  440MPD2     C 6554   2.350   3.335  14.120 -1.1154  0.2597  1.0835
  440MPD2    C1 6555   2.360   3.340  14.256 -0.8884 -0.3281 -0.0210
  440MPD2    C2 6556   2.470   3.285  14.324 -0.2909 -0.1455  0.2327
  440MPD2    C3 6557   2.564   3.211  14.251 -0.9585  0.8483  0.2023
  440MPD2    C4 6558   2.547   3.199  14.116 -0.1861  0.2506  0.4507
  440MPD2    C5 6559   2.447   3.271  14.053 -0.2497 -0.1543 -0.1107
  440MPD2     H 6560   2.482   3.297  14.431 -1.9676  1.5464  0.2435
  440MPD2    H1 6561   2.617   3.149  14.051  1.2174  0.7909  1.5387
  440MPD2    H2 6562   2.272   3.385  14.065 -0.4069 -0.4945 -0.6187
  440MPD2    H3 6563   2.449   3.262  13.945  2.1689  0.8827 -0.1604
  440MPD2     N 6564   2.684   3.155  14.297  0.1381 -0.3958 -0.1567
  440MPD2    H5 6565   2.752   3.124  14.228 -0.1782 -0.6818 -0.3393
  440MPD2    N1 6566   2.261   3.408  14.335  0.0309 -0.0865  0.4693
  440MPD2    H7 6567   2.264   3.407  14.437 -1.4620  0.8147  0.5141
  441TMC3    C1 6568   2.862   3.121  14.426 -0.4758  0.4367 -0.3174
  441TMC3    C2 6569   2.949   3.219  14.465  0.6452 -0.1869 -0.6045
  441TMC3    C3 6570   3.058   3.191  14.534 -1.2857 -0.4693 -0.1548
  441TMC3    C4 6571   2.885   2.993  14.459 -0.7234 -0.0149 -0.7720
  441TMC3    C5 6572   3.002   2.960  14.520 -1.0810  0.8849  0.4122
  441TMC3    C6 6573   3.094   3.057  14.555 -0.3288 -0.8799  0.0684
  441TMC3     C 6574   2.731   3.166  14.420 -0.0087 -0.8363  0.1188
  441TMC3     O 6575   2.698   3.241  14.510 -0.8729 -0.1173 -0.2812
  441TMC3     H 6576   2.926   3.319  14.431 -0.2733 -0.0675  0.3555
  441TMC3    H1 6577   2.798   2.930  14.443 -1.4503  0.6059  0.7002
  441TMC3    H2 6578   3.168   3.032  14.630  0.7505 -1.6178 -1.2442
  441TMC3    C7 6579   3.003   2.856  14.623  0.3215  0.4532  0.2453
  441TMC3    C8 6580   3.086   3.276  14.644  0.4866  0.4426  0.1036
  441TMC3    O1 6581   3.061   2.868  14.735 -0.0774  0.7183  0.4134
  441TMC3    O2 6582   3.197   3.266  14.699 -0.2565  0.3374 -0.1706
  442MPD2     C 6583   0.991   3.903  15.974 -0.2070  0.4494  0.2500
  442MPD2    C1 6584   0.880   3.829  16.004 -0.5954 -0.0091  0.8923
  442MPD2    C2 6585   0.882   3.692  16.008 -0.1380 -0.7308 -0.8544
  442MPD2    C3 6586   0.993   3.624  15.962  0.4082 -0.5857 -0.5115
  442MPD2    C4 6587   1.108   3.699  15.927 -0.6343 -0.4092  0.0859
  442MPD2    C5 6588   1.108   3.833  15.934 -0.7595  0.4021  0.5581
  442MPD2     H 6589   0.788   3.640  16.021  0.0178 -0.4866  1.1790
  442MPD2    H1 6590   1.199   3.657  15.885  1.8446  0.8601  4.1974
  442MPD2    H2 6591   0.996   4.010  15.963 -2.1693  0.4240 -0.8093
  442MPD2    H3 6592   1.197   3.889  15.910  0.3805 -1.7328 -0.1860
  442MPD2     N 6593   1.005   3.487  15.945 -0.1719 -0.2589 -0.4536
  442MPD2    H5 6594   1.099   3.450  15.934 -0.5840 -1.5438  0.3740
  442MPD2    N1 6595   0.754   3.890  16.040 -0.3228 -0.2053 -0.5421
  442MPD2    H7 6596   0.684   3.835  16.089  1.6769 -0.9439  1.4650
  443TMC3    C1 6597   0.589   4.065  16.053  0.3986  0.4560 -0.2033
  443TMC3    C2 6598   0.532   4.134  15.950 -0.8394 -0.1326 -0.6848
  443TMC3    C3 6599   0.391   4.155  15.952  0.8317 -0.3950  0.2643
  443TMC3    C4 6600   0.510   4.013  16.156  0.7428  0.0332 -0.1881
  443TMC3    C5 6601   0.380   4.044  16.166  0.4911 -0.0501 -0.3746
  443TMC3    C6 6602   0.313   4.102  16.056  0.1046  0.5530  0.6338
  443TMC3     C 6603   0.729   4.024  16.032 -0.4716 -0.4953 -0.7169
  443TMC3     O 6604   0.798   4.103  15.969 -0.3512  0.5117 -0.0362
  443TMC3     H 6605   0.592   4.189  15.879 -0.6466  1.5318  0.7500
  443TMC3    H1 6606   0.565   3.968  16.238 -0.0888 -1.8999 -0.7079
  443TMC3    H2 6607   0.205   4.104  16.066  0.1717 -0.0685  1.4723
  443TMC3    C7 6608   0.310   3.976  16.270 -0.3074 -0.0413 -0.6645
  443TMC3    C8 6609   0.336   4.141  15.819  0.3629 -0.1574 -0.0490
  443TMC3    O1 6610   0.356   3.867  16.307 -0.2639 -0.4252 -0.4605
  443TMC3    O2 6611   0.366   4.232  15.745  0.4896 -0.1270  0.7827
  444MPD2     C 6612   1.064   2.581  16.869  0.8073  0.2471  0.2293
  444MPD2    C1 6613   0.945   2.530  16.805 -0.6146 -0.3274  0.0337
  444MPD2    C2 6614   0.954   2.438  16.703  0.1930 -0.3331  0.2998
  444MPD2    C3 6615   1.080   2.391  16.667  0.4105  0.7122  0.0550
  444MPD2    C4 6616   1.191   2.443  16.726  0.0972 -0.6054 -0.9524
  444MPD2    C5 6617   1.187   2.538  16.824 -0.1340  0.6335 -0.6479
  444MPD2     H 6618   0.862   2.398  16.663 -0.9112  2.4147  0.0550
  444MPD2    H1 6619   1.287   2.414  16.686  0.5408  0.5654 -0.7377
  444MPD2    H2 6620   1.068   2.650  16.953  0.5302  2.1615 -1.3208
  444MPD2    H3 6621   1.279   2.578  16.864 -0.0778 -1.7095  1.5488
  444MPD2     N 6622   1.094   2.290  16.567  0.0617 -0.1686 -0.1853
  444MPD2    H5 6623   1.008   2.262  16.522 -0.5416  1.5482 -0.1000
  444MPD2    N1 6624   0.817   2.587  16.833  0.5613  0.3296 -0.5696
  444MPD2    H7 6625   0.745   2.576  16.763 -1.0635  2.2330  0.7988
  445TMC3    C1 6626   1.172   2.169  16.387  0.6971  0.6909 -0.2411
  445TMC3    C2 6627   1.072   2.073  16.390 -0.8014  0.4809 -1.0121
  445TMC3    C3 6628   1.060   1.990  16.283  0.1536 -0.1979 -0.3607
  445TMC3    C4 6629   1.265   2.168  16.284  0.5426 -0.0882 -0.4658
  445TMC3    C5 6630   1.246   2.079  16.181 -0.4202  0.0365  0.1557
  445TMC3    C6 6631   1.142   1.989  16.172 -0.6630 -0.2801  0.1344
  445TMC3     C 6632   1.203   2.236  16.506  0.1365 -0.0365 -0.2244
  445TMC3     O 6633   1.319   2.263  16.529 -0.3506  0.5545  0.7468
  445TMC3     H 6634   0.995   2.063  16.465  0.1806  0.0704 -0.0583
  445TMC3    H1 6635   1.354   2.228  16.292 -0.6047  1.9224 -2.8319
  445TMC3    H2 6636   1.137   1.921  16.088  1.2953  1.1012 -1.1297
  445TMC3    C7 6637   1.357   2.068  16.086 -0.8588 -0.0919  0.4604
  445TMC3    C8 6638   0.950   1.885  16.277  0.2691 -0.1525 -0.3483
  445TMC3    O1 6639   1.434   2.159  16.098  0.8843 -0.7711  0.3849
  445TMC3    O2 6640   0.941   1.845  16.165  0.2297  0.4972 -0.7169
  446MPD2     C 6641   0.765   4.124  11.267  0.7071  0.4404 -0.2476
  446MPD2    C1 6642   0.683   4.170  11.165 -0.7309 -0.1007  0.8734
  446MPD2    C2 6643   0.730   4.268  11.076  0.5299  0.2292 -0.4428
  446MPD2    C3 6644   0.840   4.343  11.114  0.0726  0.6076  0.3993
  446MPD2    C4 6645   0.909   4.302  11.227  0.0575  0.4200  0.0703
  446MPD2    C5 6646   0.876   4.192  11.302 -0.1300 -0.0059  0.1854
  446MPD2     H 6647   0.665   4.296  10.995 -0.1714  0.5544  0.2381
  446MPD2    H1 6648   1.001   4.352  11.256  0.9368 -1.0499 -0.1945
  446MPD2    H2 6649   0.743   4.037  11.328  1.6124 -0.5562 -1.3223
  446MPD2    H3 6650   0.931   4.174  11.394 -1.3502  0.2497  0.9580
  446MPD2     N 6651   0.869   4.455  11.044  0.0068 -0.7907 -0.6811
  446MPD2    H5 6652   0.798   4.462  10.972 -1.8186 -1.2708  1.0336
  446MPD2    N1 6653   0.554   4.114  11.143 -0.0411  0.1794  0.1762
  446MPD2    H7 6654   0.509   4.149  11.059 -1.1548 -2.8054 -0.4702
  447TMC3    C1 6655   1.004   4.611  10.924 -0.1453  0.0735 -0.6123
  447TMC3    C2 6656   0.907   4.614  10.836 -0.4968  0.4335 -0.3140
  447TMC3    C3 6657   0.936   4.683  10.724 -0.5849 -0.9396 -0.0033
  447TMC3    C4 6658   1.134   4.656  10.906  0.0263 -0.3688 -0.2052
  447TMC3    C5 6659   1.155   0.008  10.789  0.0651 -0.4948 -0.2729
  447TMC3    C6 6660   1.050   0.031  10.704 -0.4288 -0.2891 -0.0423
  447TMC3     C 6661   0.984   4.533  11.047  0.0003  0.4853  0.5206
  447TMC3     O 6662   1.072   4.538  11.135  0.9309  0.0413  0.3199
  447TMC3     H 6663   0.808   4.578  10.859  0.1009 -1.1620 -0.2354
  447TMC3    H1 6664   1.213   4.636  10.978 -1.3556  1.1436  1.7026
  447TMC3    H2 6665   1.064   0.093  10.616 -2.4217  0.9940  0.5284
  447TMC3    C7 6666   1.273   4.671  10.723 -0.1568 -0.4690  0.0742
  447TMC3    C8 6667   0.876   4.638  10.602 -0.1022  0.5969  0.3631
  447TMC3    O1 6668   1.373   4.656  10.792  0.1966 -0.1320  0.1710
  447TMC3    O2 6669   0.856   0.007  10.518 -0.6336  0.1800 -0.0248
  448TMC3    C1 6670   3.784   4.020  16.343 -0.3348  0.2407  0.2300
  448TMC3    C2 6671   3.843   3.918  16.418  0.3658  0.0413 -0.6779
  448TMC3    C3 6672   3.841   3.921  16.551 -0.1648  0.0607 -0.8565
  448TMC3    C4 6673   3.698   4.110  16.406 -0.2966 -0.4073 -0.0339
  448TMC3    C5 6674   3.699   4.104  16.540 -0.4115 -0.5182 -0.2837
  448TMC3    C6 6675   3.750   4.005  16.618  0.0502 -0.5585 -0.1051
  448TMC3     C 6676   3.726   3.970  16.217 -0.2844 -0.4135  0.2659
  448TMC3     O 6677   3.729   3.851  16.208  0.2070 -0.3997  0.3217
  448TMC3     H 6678   3.905   3.850  16.362  0.4997  1.7927 -2.6299
  448TMC3    H1 6679   3.651   4.193  16.354 -2.2577 -0.2269  2.0180
  448TMC3    H2 6680   3.759   4.017  16.725 -1.1361  0.2415 -0.0993
  448TMC3    C7 6681   3.660   4.221  16.613  0.2557  1.1762 -0.8691
  448TMC3    C8 6682   3.873   3.794  16.604  0.0119 -0.0036 -0.2846
  448TMC3    O1 6683   3.676   4.327  16.560 -0.1493 -0.4429 -0.1366
  448TMC3    O2 6684   3.927   3.718  16.530 -0.0218 -0.0222  0.2619
  449MPD2     C 6685   0.626   2.198  13.446  0.3091 -0.3542 -0.5818
  449MPD2    C1 6686   0.546   2.304  13.473  0.4729  0.1453 -0.5404
  449MPD2    C2 6687   0.416   2.286  13.490 -0.0310  0.2239  0.1110
  449MPD2    C3 6688   0.352   2.170  13.467 -0.1704  0.8308  1.3016
  449MPD2    C4 6689   0.428   2.056  13.435 -0.0121 -0.8763 -0.1685
  449MPD2    C5 6690   0.564   2.079  13.427 -0.1196 -0.1530  0.0277
  449MPD2     H 6691   0.354   2.371  13.517  1.0864  1.1655 -0.3003
  449MPD2    H1 6692   0.389   1.957  13.415 -0.2100 -0.4360 -1.9792
  449MPD2    H2 6693   0.734   2.200  13.436  0.1993  0.2902 -1.6616
  449MPD2    H3 6694   0.635   1.997  13.420 -0.8419 -0.7189 -0.5952
  449MPD2     N 6695   0.212   2.179  13.466  0.6056 -0.0585  0.1439
  449MPD2    H5 6696   0.173   2.269  13.493  1.7170  0.4794 -0.0286
  449MPD2    N1 6697   0.593   2.434  13.488 -0.0651 -0.3438 -0.4314
  449MPD2    H7 6698   0.522   2.504  13.508 -0.3951 -1.6682  3.0253
  450TMC3    C1 6699   0.724   2.617  13.511  0.0212 -0.0772  1.6162
  450TMC3    C2 6700   0.775   2.689  13.408  0.0821 -0.7391  0.2976
  450TMC3    C3 6701   0.712   2.811  13.381 -0.4281  0.0226  0.0782
  450TMC3    C4 6702   0.619   2.659  13.587 -0.0543 -0.6511  0.3570
  450TMC3    C5 6703   0.552   2.773  13.554  0.3529  0.1019  0.3070
  450TMC3    C6 6704   0.596   2.849  13.446  0.3971 -0.4239  0.4990
  450TMC3     C 6705   0.722   2.474  13.484 -0.3866  0.4158  0.3418
  450TMC3     O 6706   0.827   2.409  13.486  0.0890 -0.8603  0.2444
  450TMC3     H 6707   0.865   2.663  13.354  0.9700  1.1543  0.8829
  450TMC3    H1 6708   0.598   2.612  13.682  1.7912 -1.0236  0.5732
  450TMC3    H2 6709   0.541   2.931  13.401  1.5471  0.2251  0.2685
  450TMC3    C7 6710   0.411   2.738  13.552  0.0289  0.7445 -0.8304
  450TMC3    C8 6711   0.748   2.891  13.267 -0.3744  0.3616  0.3810
  450TMC3    O1 6712   0.392   2.616  13.545 -0.2400  0.1275  0.4332
  450TMC3    O2 6713   0.701   3.001  13.252 -0.0653 -0.0642 -0.7034
  451MPD2     C 6714   2.017   2.447   0.771 -0.5285 -0.5903  0.2658
  451MPD2    C1 6715   1.974   2.439   0.900 -1.2785 -0.4231 -0.7213
  451MPD2    C2 6716   1.948   2.318   0.954  0.2780  0.1427 -0.0197
  451MPD2    C3 6717   1.978   2.200   0.884  0.0667  0.1097 -0.1970
  451MPD2    C4 6718   2.013   2.208   0.752  0.0069  0.0326 -0.2988
  451MPD2    C5 6719   2.021   2.334   0.697  0.2963 -0.0365  0.6166
  451MPD2     H 6720   1.923   2.321   1.059  1.6819  0.3728  0.3021
  451MPD2    H1 6721   2.045   2.120   0.699  1.1955 -0.8339  1.8473
  451MPD2    H2 6722   2.045   2.542   0.726 -0.9945 -0.4567  0.2591
  451MPD2    H3 6723   2.053   2.350   0.594 -2.6747  0.5634 -0.2103
  451MPD2     N 6724   1.983   2.072   0.935  0.3690  0.4425 -0.1145
  451MPD2    H5 6725   2.025   2.005   0.872  1.4037  1.2118 -0.2536
  451MPD2    N1 6726   1.963   2.559   0.973  0.2778  0.1782  0.0189
  451MPD2    H7 6727   1.991   2.642   0.922  0.1431  0.6918  0.7749
  452TMC3    C1 6728   1.988   1.892   1.086 -0.4125 -0.5341  0.2274
  452TMC3    C2 6729   1.949   1.841   1.210  1.0587 -0.2428  0.4248
  452TMC3    C3 6730   1.958   1.707   1.218  0.4865  0.0789  0.3928
  452TMC3    C4 6731   2.016   1.818   0.973  0.1037  0.3668 -0.3630
  452TMC3    C5 6732   2.009   1.680   0.986 -0.9627  0.4872  0.3157
  452TMC3    C6 6733   1.974   1.627   1.108  0.6177  0.2082 -0.0033
  452TMC3     C 6734   1.979   2.037   1.066  0.0114 -0.4416 -0.7281
  452TMC3     O 6735   1.943   2.100   1.166  0.3515 -0.0225  0.2162
  452TMC3     H 6736   1.937   1.905   1.297 -0.0643  1.9095 -1.3019
  452TMC3    H1 6737   2.068   1.852   0.884 -0.0435  1.2759 -0.1015
  452TMC3    H2 6738   2.006   1.528   1.139  0.1470 -0.3081 -1.1361
  452TMC3    C7 6739   2.020   1.592   0.872 -0.0596  0.1467 -0.0421
  452TMC3    C8 6740   1.955   1.647   1.354  0.8172 -0.6941 -0.0747
  452TMC3    O1 6741   2.026   1.642   0.761 -0.1275  0.3693 -0.3148
  452TMC3    O2 6742   1.907   1.535   1.363  0.3566 -0.3253  0.7558
  453TMC3    C1 6743   3.118   3.427  11.602 -0.2225 -0.1672  1.0137
  453TMC3    C2 6744   3.121   3.291  11.584  0.4744  0.4861 -0.3920
  453TMC3    C3 6745   3.095   3.249  11.457  0.1972  0.1875  0.2613
  453TMC3    C4 6746   3.096   3.516  11.502  0.0573 -0.0680  0.6738
  453TMC3    C5 6747   3.086   3.474  11.371 -0.0398 -0.5219 -0.0207
  453TMC3    C6 6748   3.067   3.337  11.346  0.0798  0.1024  0.0965
  453TMC3     C 6749   3.156   3.488  11.727 -0.5379 -0.2575  0.2624
  453TMC3     O 6750   3.141   3.610  11.734  0.7342  0.2512  0.0472
  453TMC3     H 6751   3.157   3.222  11.660  0.0075  1.8238  1.0577
  453TMC3    H1 6752   3.115   3.622  11.516  0.8740 -0.0559 -0.5574
  453TMC3    H2 6753   3.069   3.305  11.242 -3.3083  0.6871 -0.1589
  453TMC3    C7 6754   3.062   3.571  11.265 -0.3221  0.0889  0.5858
  453TMC3    C8 6755   3.083   3.112  11.425 -0.4711 -1.0310 -0.1603
  453TMC3    O1 6756   3.133   3.669  11.267 -0.9034 -0.2633  0.8943
  453TMC3    O2 6757   3.040   3.089  11.313 -0.1881  0.3473  0.6494
  454MPD2     C 6758   1.774   2.325  16.222 -0.3962 -0.0133 -0.7832
  454MPD2    C1 6759   1.725   2.441  16.170  0.1045 -0.5049  0.5741
  454MPD2    C2 6760   1.626   2.504  16.238 -0.2559  0.1779  0.0198
  454MPD2    C3 6761   1.546   2.436  16.331  0.1177 -0.1110 -0.0666
  454MPD2    C4 6762   1.598   2.324  16.390 -0.2913  0.9905  0.4907
  454MPD2    C5 6763   1.707   2.263  16.326 -0.0220  0.5635 -1.0997
  454MPD2     H 6764   1.597   2.608  16.229 -0.4113  0.0042 -1.3539
  454MPD2    H1 6765   1.549   2.277  16.474 -1.7901 -1.2642 -1.6420
  454MPD2    H2 6766   1.862   2.281  16.177 -1.0410 -1.2532 -0.8349
  454MPD2    H3 6767   1.748   2.172  16.369 -0.0713  0.8660 -0.4257
  454MPD2     N 6768   1.421   2.473  16.374 -0.0411 -0.4652  0.1065
  454MPD2    H5 6769   1.394   2.417  16.454  0.5206 -1.1935 -0.2187
  454MPD2    N1 6770   1.800   2.501  16.064  0.1844  0.0807 -0.1242
  454MPD2    H7 6771   1.795   2.602  16.052  3.3329  0.5403  2.3733
  455TMC3    C1 6772   1.348   2.628  16.200  0.2149 -0.2741  0.5719
  455TMC3    C2 6773   1.361   2.759  16.220  0.0737  0.8676 -0.0454
  455TMC3    C3 6774   1.405   2.839  16.123  0.2823 -0.2625 -0.0151
  455TMC3    C4 6775   1.379   2.572  16.078 -0.3332 -1.0054  0.6112
  455TMC3    C5 6776   1.438   2.658  15.989 -0.4769  0.2267 -0.0030
  455TMC3    C6 6777   1.449   2.787  16.009 -0.0591 -0.1264 -0.0234
  455TMC3     C 6778   1.321   2.557  16.318 -0.3975 -0.3597 -0.0347
  455TMC3     O 6779   1.206   2.578  16.355  0.3209  0.2738  0.0543
  455TMC3     H 6780   1.332   2.793  16.319  1.0685 -1.0198  0.8940
  455TMC3    H1 6781   1.352   2.469  16.058 -1.6811 -0.7366  1.0285
  455TMC3    H2 6782   1.500   2.851  15.937 -0.2308  1.7896  1.5333
  455TMC3    C7 6783   1.453   2.607  15.856 -0.6161 -0.0247  0.2204
  455TMC3    C8 6784   1.431   2.984  16.158  0.3888 -0.4295 -0.0444
  455TMC3    O1 6785   1.468   2.688  15.769  0.3676 -0.6682  0.0688
  455TMC3    O2 6786   1.348   3.024  16.233  0.1332  0.1159 -0.9940
  456MPD2     C 6787   4.244   2.881  15.888 -0.6831 -0.0841  0.1095
  456MPD2    C1 6788   4.334   2.828  15.978 -0.2005 -0.1196 -0.6204
  456MPD2    C2 6789   4.312   2.839  16.115 -0.0715 -0.2837  0.1962
  456MPD2    C3 6790   4.200   2.901  16.162 -0.5100  0.0329  0.3511
  456MPD2    C4 6791   4.105   2.950  16.068 -0.0482 -0.2688  0.3165
  456MPD2    C5 6792   4.127   2.934  15.931 -0.0540  0.9224 -0.4324
  456MPD2     H 6793   4.396   2.814  16.180  0.9315  1.7008 -0.3117
  456MPD2    H1 6794   4.010   2.997  16.093  1.0870  1.3717  1.5273
  456MPD2    H2 6795   4.258   2.883  15.781 -0.7731  1.0468  0.1215
  456MPD2    H3 6796   4.063   2.967  15.851  1.2141  1.9889 -1.0023
  456MPD2     N 6797   4.170   2.898  16.303  0.3759  0.7264 -0.7659
  456MPD2    H5 6798   4.244   2.852  16.354 -1.4012 -0.8036  0.4242
  456MPD2    N1 6799   4.448   2.766  15.921 -0.1753 -0.3076 -0.2895
  456MPD2    H7 6800   4.465   2.785  15.823  1.3909  0.8831  0.2096
  457TMC3    C1 6801   4.091   2.977  16.497  0.3484 -0.3795 -0.5216
  457TMC3    C2 6802   4.038   3.090  16.544  0.0483 -0.4299 -0.1711
  457TMC3    C3 6803   4.072   3.143  16.662  0.4617 -0.7906 -0.5581
  457TMC3    C4 6804   4.183   2.913  16.575 -0.0970  0.8269 -0.2318
  457TMC3    C5 6805   4.206   2.959  16.701  0.5038  0.1237  0.6577
  457TMC3    C6 6806   4.151   3.073  16.752  1.1375  0.4388 -0.4250
  457TMC3     C 6807   4.064   2.956  16.359 -0.0678 -0.2973  0.3415
  457TMC3     O 6808   3.955   2.993  16.318  0.2343 -0.7682 -0.3998
  457TMC3     H 6809   3.980   3.155  16.479 -0.2581  0.3871  0.9120
  457TMC3    H1 6810   4.236   2.825  16.538 -0.0124  1.0690 -0.6787
  457TMC3    H2 6811   4.194   3.122  16.838  0.3421  1.1354 -0.4316
  457TMC3    C7 6812   4.301   2.897  16.784  0.6291  0.2040 -0.0901
  457TMC3    C8 6813   4.056   3.282  16.685 -0.3474 -0.2263 -0.8144
  457TMC3    O1 6814   4.307   2.925  16.904 -0.0772  0.1825 -0.4009
  457TMC3    O2 6815   4.064   3.352  16.583  0.4825 -0.2928  0.2184
  458MPD2     C 6816   2.215   2.726  12.119  0.3708  0.4467  0.0005
  458MPD2    C1 6817   2.218   2.642  12.226 -0.8935  0.0429 -0.7945
  458MPD2    C2 6818   2.095   2.588  12.254 -0.3092 -0.1856 -0.1233
  458MPD2    C3 6819   1.980   2.607  12.180  0.3660 -0.3807  0.2810
  458MPD2    C4 6820   1.979   2.706  12.092  0.9706 -0.1169 -0.5684
  458MPD2    C5 6821   2.098   2.759  12.058  0.0733  0.6577  0.4380
  458MPD2     H 6822   2.097   2.537  12.349 -1.1203 -0.1348 -0.0764
  458MPD2    H1 6823   1.894   2.735  12.031  1.2516 -0.0322 -0.9209
  458MPD2    H2 6824   2.298   2.783  12.079  1.7812 -0.8258  1.1304
  458MPD2    H3 6825   2.101   2.827  11.974  2.0351  0.2737  0.2043
  458MPD2     N 6826   1.861   2.532  12.224 -0.2298 -0.1378  0.1988
  458MPD2    H5 6827   1.875   2.466  12.300  0.9175 -3.8291 -3.1888
  458MPD2    N1 6828   2.341   2.622  12.302 -0.2749 -0.2986 -0.2488
  458MPD2    H7 6829   2.427   2.666  12.270 -0.6052  0.4016 -0.1795
  459TMC3    C1 6830   2.471   2.534  12.490 -0.0521  0.1813 -0.0353
  459TMC3    C2 6831   2.540   2.652  12.506 -0.0113  0.0229  0.6334
  459TMC3    C3 6832   2.610   2.671  12.619 -0.3481 -0.9192 -0.1872
  459TMC3    C4 6833   2.478   2.438  12.588 -0.1430 -0.4977 -0.3411
  459TMC3    C5 6834   2.553   2.459  12.699  0.0715 -0.1090 -0.3777
  459TMC3    C6 6835   2.615   2.580  12.725  0.2167 -0.2206 -0.1078
  459TMC3     C 6836   2.351   2.524  12.410  0.2427  0.1234 -0.0612
  459TMC3     O 6837   2.267   2.450  12.457 -0.5072 -0.8367 -0.3778
  459TMC3     H 6838   2.541   2.724  12.424  0.2441 -0.5709  0.1195
  459TMC3    H1 6839   2.434   2.340  12.571 -1.9948  0.5988 -1.8677
  459TMC3    H2 6840   2.675   2.608  12.811 -1.4862  0.8533  0.7323
  459TMC3    C7 6841   2.547   2.351  12.799  0.2009  0.3555  0.5302
  459TMC3    C8 6842   2.723   2.760  12.620  0.2147 -0.3834 -0.2875
  459TMC3    O1 6843   2.497   2.244  12.769  0.5125 -0.0079 -0.2994
  459TMC3    O2 6844   2.822   2.728  12.679  0.2824  0.1493 -0.1511
  460MPD2     C 6845   0.956   4.313  10.467 -0.7430 -0.1432 -0.3440
  460MPD2    C1 6846   0.891   4.434  10.465  0.6038 -0.5985  0.2815
  460MPD2    C2 6847   0.838   4.478  10.349 -0.2070 -0.1501 -0.1713
  460MPD2    C3 6848   0.850   4.399  10.235 -0.3405 -0.0286 -0.2288
  460MPD2    C4 6849   0.926   4.281  10.237  0.1460  0.4093 -0.0282
  460MPD2    C5 6850   0.976   4.236  10.357  0.7245 -0.8559  0.1945
  460MPD2     H 6851   0.784   4.572  10.352  2.1666  1.2227 -0.8815
  460MPD2    H1 6852   0.937   4.215  10.152  1.0595  0.0630  0.3568
  460MPD2    H2 6853   0.990   4.274  10.562  0.8718  2.4747  0.1667
  460MPD2    H3 6854   1.033   4.145  10.365  3.7338  0.7826 -2.5050
  460MPD2     N 6855   0.786   4.444  10.111  0.0355 -0.1989 -0.0381
  460MPD2    H5 6856   0.723   4.524  10.117 -0.2269 -0.5560  2.2761
  460MPD2    N1 6857   0.897   4.508  10.584 -0.1383  0.1015  0.0924
  460MPD2    H7 6858   0.928   4.457  10.666 -0.1438 -0.5893 -0.3412
  461TMC3    C1 6859   0.705   4.429   9.899 -0.3199 -0.3047 -0.3310
  461TMC3    C2 6860   0.660   4.344   9.805  0.3487 -0.5154  0.6287
  461TMC3    C3 6861   0.543   4.377   9.742  0.0639 -0.4375  0.4440
  461TMC3    C4 6862   0.652   4.553   9.914 -0.1413 -0.6901  0.5964
  461TMC3    C5 6863   0.546   4.594   9.841 -0.1747  0.2875 -0.3448
  461TMC3    C6 6864   0.498   4.507   9.747  0.6069 -0.0447  0.3101
  461TMC3     C 6865   0.799   4.377   9.991  0.5483  0.1566 -0.5717
  461TMC3     O 6866   0.868   4.284   9.953  0.4494 -0.0656 -0.1503
  461TMC3     H 6867   0.696   4.243   9.797 -0.9222 -0.9070 -0.0485
  461TMC3    H1 6868   0.715   4.623   9.967  0.0761  0.4059 -1.1142
  461TMC3    H2 6869   0.411   4.536   9.689  0.4055 -2.3932 -0.5497
  461TMC3    C7 6870   0.524   0.024   9.832  0.0891 -0.9352  0.4154
  461TMC3    C8 6871   0.510   4.312   9.624  0.2167  0.1164 -0.4260
  461TMC3    O1 6872   0.490   0.068   9.722  0.0765 -0.0773  0.2096
  461TMC3    O2 6873   0.395   4.284   9.598 -0.4786  0.3593  0.0356
  462TMC3    C1 6874   1.438   4.685   0.005  0.2717 -0.4196 -0.6118
  462TMC3    C2 6875   1.444   4.613  17.563  0.1779 -0.4713  0.2264
  462TMC3    C3 6876   1.378   4.490  17.560 -0.2356 -0.0389  0.5646
  462TMC3    C4 6877   1.354   4.658   0.108  0.0495  0.2501 -0.0733
  462TMC3    C5 6878   1.290   4.533   0.098 -0.4883  0.4505  0.6581
  462TMC3    C6 6879   1.311   4.449  17.667 -0.2858  0.2148 -0.0269
  462TMC3     C 6880   1.485   0.103   0.003  0.5138 -0.3114  0.0847
  462TMC3     O 6881   1.505   0.153  17.565 -0.3528  0.3857 -0.6960
  462TMC3     H 6882   1.513   4.645  17.486  0.3582 -2.1582 -0.3246
  462TMC3    H1 6883   1.328   0.021   0.176 -3.0598 -1.9998  1.3754
  462TMC3    H2 6884   1.259   4.354  17.665  0.7932 -0.3397 -1.1862
  462TMC3    C7 6885   1.152   4.537   0.148  1.7923 -0.7152 -0.1927
  462TMC3    C8 6886   1.406   4.388  17.458 -1.1233 -0.3505 -0.4905
  462TMC3    O1 6887   1.063   4.496   0.075  0.8766 -0.4560  0.1437
  462TMC3    O2 6888   1.369   4.277  17.494 -0.3515 -0.1822  0.2926
  463MPD2     C 6889   2.170   4.349   1.793 -0.0609 -0.4480  0.1074
  463MPD2    C1 6890   2.095   4.427   1.712  0.0937  0.2356 -0.1509
  463MPD2    C2 6891   2.073   4.564   1.749  0.2733  0.3374 -0.4063
  463MPD2    C3 6892   2.125   4.608   1.874  0.3398  0.0888  0.0962
  463MPD2    C4 6893   2.188   4.524   1.960 -0.1079  0.2248  0.2779
  463MPD2    C5 6894   2.208   4.400   1.914  0.6358 -0.3699  0.1776
  463MPD2     H 6895   2.013   4.634   1.694  0.0667  2.3366  2.3457
  463MPD2    H1 6896   2.223   4.555   2.058 -1.5024 -1.8800  1.4459
  463MPD2    H2 6897   2.202   4.250   1.764 -1.4266 -0.3663 -1.6883
  463MPD2    H3 6898   2.257   4.334   1.984 -2.0449 -2.7937 -0.1971
  463MPD2     N 6899   2.109   0.019   1.924  0.2560  1.2571 -0.0925
  463MPD2    H5 6900   2.130   0.025   2.023  0.2898 -0.0606 -0.0312
  463MPD2    N1 6901   2.037   4.388   1.588  0.2905  0.4942  0.3158
  463MPD2    H7 6902   1.982   4.454   1.534  1.1120  0.5532 -0.4480
  464TMC3    C1 6903   1.980   4.247   1.415  0.8615  0.0990  0.3758
  464TMC3    C2 6904   1.882   4.339   1.370  0.3257 -1.6422  0.5162
  464TMC3    C3 6905   1.847   4.331   1.239 -0.2173 -1.2269  0.4427
  464TMC3    C4 6906   2.032   4.151   1.336 -0.3118 -0.2445  0.2018
  464TMC3    C5 6907   1.990   4.141   1.206 -0.0288 -0.1260  0.4475
  464TMC3    C6 6908   1.896   4.231   1.158  0.5588 -0.6460  0.1302
  464TMC3     C 6909   2.051   4.260   1.540 -0.5745 -0.5038 -0.2408
  464TMC3     O 6910   2.120   4.169   1.572  0.5016  0.0760  0.0341
  464TMC3     H 6911   1.832   4.400   1.444 -0.4113 -3.0352  1.1741
  464TMC3    H1 6912   2.105   4.082   1.377 -0.2059  1.0128  2.1417
  464TMC3    H2 6913   1.850   4.226   1.060  1.9838  3.3584 -0.7411
  464TMC3    C7 6914   2.009   4.012   1.139 -0.7012  0.0030  1.1803
  464TMC3    C8 6915   1.735   4.406   1.184 -0.0253 -0.2971  0.2412
  464TMC3    O1 6916   2.107   3.949   1.161 -0.5714 -0.6121 -0.4215
  464TMC3    O2 6917   1.679   4.368   1.080  0.5624  0.5098 -0.2961
  465MPD2     C 6918   3.789   2.854  15.980 -0.2466 -0.8420  0.1591
  465MPD2    C1 6919   3.676   2.803  16.048  0.5657 -0.6477 -0.4963
  465MPD2    C2 6920   3.545   2.826  16.001 -0.1208  0.5177  0.8010
  465MPD2    C3 6921   3.528   2.894  15.883 -0.1103 -0.2400 -0.2680
  465MPD2    C4 6922   3.641   2.930  15.814  0.1031 -0.3893 -0.3407
  465MPD2    C5 6923   3.766   2.907  15.857 -0.2579  0.9002  0.4904
  465MPD2     H 6924   3.466   2.785  16.062  1.7374 -2.4976  1.1675
  465MPD2    H1 6925   3.640   2.997  15.728 -0.9854 -0.1153 -0.1165
  465MPD2    H2 6926   3.894   2.851  16.007 -0.3773  0.6638  0.8275
  465MPD2    H3 6927   3.850   2.954  15.807 -0.3475  0.3646 -0.1551
  465MPD2     N 6928   3.400   2.932  15.839  0.4698  0.2227 -0.0123
  465MPD2    H5 6929   3.327   2.898  15.899  0.1473  0.8589 -0.0436
  465MPD2    N1 6930   3.687   2.735  16.169 -0.2815 -0.0795  0.1556
  465MPD2    H7 6931   3.611   2.734  16.235  0.5809 -0.7399  1.1422
  466TMC3    C1 6932   3.011   2.963  15.815  0.0264 -0.7395 -0.2943
  466TMC3    C2 6933   2.957   3.089  15.809 -0.0366 -0.2659 -0.5526
  466TMC3    C3 6934   3.043   3.179  15.750  0.7791 -0.6247 -0.4205
  466TMC3    C4 6935   3.136   2.928  15.775  0.3089  0.1161  0.5427
  466TMC3    C5 6936   3.223   3.025  15.722  0.3621 -0.4826  0.1297
  466TMC3    C6 6937   3.170   3.154  15.715 -0.1700 -0.1842 -0.5135
  466TMC3     C 6938   2.937   2.867  15.894 -0.3115  0.0756  0.1713
  466TMC3     O 6939   3.001   2.766  15.927  0.1512 -0.4631 -0.6301
  466TMC3     H 6940   2.877   3.120  15.874  1.5458 -1.3782  1.8992
  466TMC3    H1 6941   3.171   2.829  15.803 -2.0541 -0.4034  1.7242
  466TMC3    H2 6942   3.235   3.239  15.696  0.1952 -0.0908  1.1619
  466TMC3    C7 6943   3.372   3.026  15.747 -0.0205  0.3107 -0.0179
  466TMC3    C8 6944   3.002   3.320  15.748 -0.0096  0.2972 -0.0247
  466TMC3    O1 6945   3.436   3.105  15.679 -0.1058 -0.1220 -0.1453
  466TMC3    O2 6946   3.051   3.393  15.665 -0.8232 -0.1201 -0.3577
  467TMC3    C1 6947   4.236   1.814  13.513 -0.1603 -0.0026 -0.0191
  467TMC3    C2 6948   4.309   1.886  13.427  0.1930  0.4672 -0.5201
  467TMC3    C3 6949   4.249   1.994  13.372 -0.3112  0.5020  0.1328
  467TMC3    C4 6950   4.113   1.850  13.555  0.1475 -0.4704 -0.0423
  467TMC3    C5 6951   4.051   1.950  13.490  0.3174  0.5527  0.2815
  467TMC3    C6 6952   4.120   2.025  13.397 -0.1744  0.8607 -0.6517
  467TMC3     C 6953   4.322   1.732  13.592 -0.4466 -0.2344 -0.2291
  467TMC3     O 6954   4.358   1.788  13.693 -0.1310  0.2916  0.4312
  467TMC3     H 6955   4.413   1.863  13.408 -0.4716 -2.7275 -0.4279
  467TMC3    H1 6956   4.059   1.786  13.624  0.4637 -2.1469 -1.3585
  467TMC3    H2 6957   4.078   2.104  13.336 -2.4055 -0.0976 -0.3253
  467TMC3    C7 6958   3.907   1.964  13.483  0.5189 -0.6081 -0.2454
  467TMC3    C8 6959   4.327   2.090  13.301  0.0910  0.0419  0.1244
  467TMC3    O1 6960   3.878   2.068  13.425  0.4184  0.5611  0.2066
  467TMC3    O2 6961   4.282   2.203  13.300 -0.1168  0.0121 -0.1552
  468MPD2     C 6962   2.728   4.681  10.344 -0.3722 -0.1469  0.1219
  468MPD2    C1 6963   2.844   4.658  10.407 -0.4373  0.0166  0.6574
  468MPD2    C2 6964   2.872   4.527  10.433  0.5806  0.2294  0.8791
  468MPD2    C3 6965   2.788   4.422  10.389 -0.1049 -1.0873 -0.0553
  468MPD2    C4 6966   2.667   4.456  10.329 -0.0174 -0.2405  0.2170
  468MPD2    C5 6967   2.643   4.586  10.305  0.4728 -0.3878 -0.2730
  468MPD2     H 6968   2.968   4.500  10.478  0.6264  0.2283  0.7806
  468MPD2    H1 6969   2.609   4.385  10.270 -1.3368  1.7523 -0.8917
  468MPD2    H2 6970   2.683   0.062  10.336  0.6956  0.3612  0.2882
  468MPD2    H3 6971   2.557   4.616  10.245 -0.4998 -0.3533  1.1367
  468MPD2     N 6972   2.812   4.286  10.409 -0.6416  0.3255  0.7914
  468MPD2    H5 6973   2.738   4.221  10.389  0.5649  0.0285 -2.6884
  468MPD2    N1 6974   2.939   0.039  10.444 -0.1596  0.4729  0.0355
  468MPD2    H7 6975   3.012   0.004  10.505 -3.3964 -1.0187  3.0729
  469TMC3    C1 6976   3.034   0.252  10.496  0.2754  0.3983  0.4788
  469TMC3    C2 6977   3.150   0.195  10.543  0.4774  0.2647 -0.7186
  469TMC3    C3 6978   3.245   0.273  10.606  0.0743 -0.1418 -0.3302
  469TMC3    C4 6979   3.004   0.381  10.526 -0.5055  0.2366 -0.0169
  469TMC3    C5 6980   3.101   0.451  10.588  0.9895  0.4047  0.5860
  469TMC3    C6 6981   3.216   0.402  10.629  0.6308 -0.0488 -0.9194
  469TMC3     C 6982   2.927   0.171  10.437  1.0098  0.0952  0.1212
  469TMC3     O 6983   2.827   0.237  10.401  0.6259  0.1930 -0.4128
  469TMC3     H 6984   3.166   0.091  10.519  2.0054 -0.0088  1.4488
  469TMC3    H1 6985   2.911   0.424  10.492 -0.3799 -0.0101 -0.6720
  469TMC3    H2 6986   3.287   0.466  10.680  0.0571  1.7536 -2.3873
  469TMC3    C7 6987   3.090   0.590  10.628  0.3904  0.3917 -0.1521
  469TMC3    C8 6988   3.333   0.199  10.693 -0.2215  0.2988  0.2477
  469TMC3    O1 6989   3.182   0.672  10.615 -0.6432  0.3794  0.2498
  469TMC3    O2 6990   3.387   0.100  10.641  0.3027  0.1795 -0.3046
  470TMC3    C1 6991   1.438   1.859   0.393  0.1439  0.4132 -0.5346
  470TMC3    C2 6992   1.354   1.966   0.426  0.1929  0.8307 -0.8827
  470TMC3    C3 6993   1.322   1.980   0.556  0.6967  0.3143 -0.0966
  470TMC3    C4 6994   1.520   1.801   0.493  0.3344  0.6841  0.5598
  470TMC3    C5 6995   1.493   1.832   0.624 -0.8813  0.1980 -1.4694
  470TMC3    C6 6996   1.392   1.917   0.658  0.3101 -1.0016  0.2910
  470TMC3     C 6997   1.501   1.856   0.259 -0.4567 -0.4207  0.0669
  470TMC3     O 6998   1.472   1.953   0.188  0.0540 -0.1546 -0.3211
  470TMC3     H 6999   1.316   2.040   0.357 -0.8308  0.9219 -0.2224
  470TMC3    H1 7000   1.608   1.745   0.462 -0.4634  0.9869 -2.2355
  470TMC3    H2 7001   1.348   1.919   0.757  1.6520  1.8193  0.8273
  470TMC3    C7 7002   1.544   1.737   0.716  0.7146 -0.0120 -0.4280
  470TMC3    C8 7003   1.225   2.090   0.583  0.2012 -0.1456  0.1011
  470TMC3    O1 7004   1.588   1.634   0.671 -0.0236 -0.0132 -0.4157
  470TMC3    O2 7005   1.243   2.160   0.683  0.8419 -0.0070 -0.5621
  471MPD2     C 7006   1.358   1.797  16.408  0.1073 -0.2175 -0.7798
  471MPD2    C1 7007   1.234   1.748  16.445  0.1808  0.2724 -0.4973
  471MPD2    C2 7008   1.178   1.786  16.557  0.8437  0.4337  0.0312
  471MPD2    C3 7009   1.237   1.883  16.642  0.8484 -0.5569 -0.2066
  471MPD2    C4 7010   1.363   1.934  16.605  0.4204 -0.0021 -0.4382
  471MPD2    C5 7011   1.424   1.883  16.492  0.1584 -0.5060  0.4568
  471MPD2     H 7012   1.084   1.739  16.585 -0.1031  3.0067  1.1660
  471MPD2    H1 7013   1.423   2.000  16.666  0.7563 -1.5390  0.9056
  471MPD2    H2 7014   1.401   1.756  16.317 -2.1534 -0.3178 -1.8027
  471MPD2    H3 7015   1.522   1.917  16.459 -0.2358  0.1591 -0.0080
  471MPD2     N 7016   1.191   1.912  16.773  0.2516 -0.3392 -0.0467
  471MPD2    H5 7017   1.258   1.963  16.830  0.0989  0.7767 -0.8525
  471MPD2    N1 7018   1.181   1.636  16.390  0.1354  0.4226 -0.0448
  471MPD2    H7 7019   1.109   1.591  16.446 -0.8508  0.2734 -1.4373
  472TMC3    C1 7020   1.127   1.489  16.209 -0.2316 -0.2595 -0.2458
  472TMC3    C2 7021   1.054   1.508  16.099 -0.6024 -0.2454 -0.3171
  472TMC3    C3 7022   0.926   1.449  16.085  0.3125 -0.0480  0.1320
  472TMC3    C4 7023   1.087   1.412  16.313  0.8390  0.0980 -0.4089
  472TMC3    C5 7024   0.952   1.372  16.312 -0.4216  0.0310  0.5363
  472TMC3    C6 7025   0.876   1.376  16.194  0.2257  0.8307  0.2038
  472TMC3     C 7026   1.202   1.604  16.258  0.2700  0.0929  0.1414
  472TMC3     O 7027   1.253   1.674  16.170  0.0006 -0.1660  0.2130
  472TMC3     H 7028   1.096   1.577  16.027  2.0621 -1.3047  0.1942
  472TMC3    H1 7029   1.149   1.401  16.401 -1.4562 -2.2306  0.9140
  472TMC3    H2 7030   0.775   1.337  16.197  0.5394 -0.0807 -1.1228
  472TMC3    C7 7031   0.892   1.373  16.442  1.0370 -0.7921 -0.0333
  472TMC3    C8 7032   0.839   1.494  15.983  0.0150  0.4173  0.9933
  472TMC3    O1 7033   0.971   1.403  16.537  0.4189  0.2222 -0.0035
  472TMC3    O2 7034   0.866   1.599  15.931  0.0948  0.3191 -0.3685
  473MPD2     C 7035   0.435   4.021  13.777 -0.0989 -0.0663 -0.0164
  473MPD2    C1 7036   0.545   4.080  13.713 -0.5512  0.1521  0.4892
  473MPD2    C2 7037   0.655   4.127  13.784  0.1951  0.4203  0.1144
  473MPD2    C3 7038   0.652   4.124  13.917 -0.2568  0.6103 -0.8747
  473MPD2    C4 7039   0.545   4.062  13.981  0.4377 -0.5509 -0.6145
  473MPD2    C5 7040   0.436   4.022  13.912 -0.0189 -0.4072  0.4570
  473MPD2     H 7041   0.729   4.178  13.724  0.8143 -0.0870  0.4556
  473MPD2    H1 7042   0.526   4.053  14.088 -0.4518 -3.3110 -0.9869
  473MPD2    H2 7043   0.345   3.992  13.724 -0.7442  1.1751  0.4050
  473MPD2    H3 7044   0.345   3.988  13.960  0.5412 -1.5981  0.6690
  473MPD2     N 7045   0.755   4.182  13.991 -0.9998  0.4441  0.1369
  473MPD2    H5 7046   0.741   4.205  14.089  1.3513 -1.3825  0.8909
  473MPD2    N1 7047   0.549   4.093  13.571 -0.9982  0.0151 -0.0876
  473MPD2    H7 7048   0.610   4.165  13.533 -1.2657  0.8543  1.0629
  474TMC3    C1 7049   0.926   4.326  14.040  0.6717  0.0085 -0.5518
  474TMC3    C2 7050   0.845   4.432  14.041 -0.3972 -0.0664 -0.0586
  474TMC3    C3 7051   0.901   4.557  14.075 -0.3669 -0.3167  0.4369
  474TMC3    C4 7052   1.059   4.348  14.051  0.7410 -0.5378  0.3408
  474TMC3    C5 7053   1.110   4.467  14.085 -0.0325  1.0720 -0.4081
  474TMC3    C6 7054   1.031   4.573  14.108  1.0418  0.6655 -0.0151
  474TMC3     C 7055   0.873   4.226  13.948 -0.3139  0.0103  1.0253
  474TMC3     O 7056   0.937   4.206  13.850 -0.7228  0.0907  0.0397
  474TMC3     H 7057   0.749   4.430  13.990 -0.2926 -0.5081 -0.2385
  474TMC3    H1 7058   1.135   4.272  14.036  2.9479  1.8712 -0.8088
  474TMC3    H2 7059   1.064   4.668  14.148 -0.9207  1.2362  0.2081
  474TMC3    C7 7060   1.230   4.458  14.163 -0.5406  0.5346 -0.0268
  474TMC3    C8 7061   0.815   4.671  14.075  0.2654 -0.5135  0.4735
  474TMC3    O1 7062   1.336   4.419  14.112  0.3286  0.3780  0.0197
  474TMC3    O2 7063   0.698   4.641  14.071 -0.0887 -0.2038 -0.4463
  475MPD2     C 7064   4.089   1.800   9.937  0.7828 -0.3790 -0.2287
  475MPD2    C1 7065   4.079   1.927   9.992  0.5085 -0.1532  0.2986
  475MPD2    C2 7066   3.989   1.951  10.094 -0.0398  0.8087 -0.0928
  475MPD2    C3 7067   3.918   1.853  10.161 -0.0869 -0.0044  0.3463
  475MPD2    C4 7068   3.922   1.728  10.106 -0.6186 -0.3101  0.2437
  475MPD2    C5 7069   4.000   1.703   9.990 -0.1913 -0.2800  0.6780
  475MPD2     H 7070   3.994   2.050  10.138  2.5748  0.4270  0.4329
  475MPD2    H1 7071   3.851   1.652  10.136  1.1823 -1.6338  1.1579
  475MPD2    H2 7072   4.151   1.789   9.848  1.9828  0.4644  0.4982
  475MPD2    H3 7073   3.998   1.603   9.949 -0.5676 -0.7509  1.8346
  475MPD2     N 7074   3.853   1.892  10.281  0.2777  0.8300  0.0177
  475MPD2    H5 7075   3.860   1.991  10.298 -2.1621  0.9084  0.6478
  475MPD2    N1 7076   4.157   2.039   9.957  0.0983  0.0561  0.5565
  475MPD2    H7 7077   4.137   2.120  10.014  0.5041 -1.2414  2.5098
  476TMC3    C1 7078   4.280   2.193   9.829  0.4450  0.7403 -0.6272
  476TMC3    C2 7079   4.166   2.259   9.801 -0.2310 -0.0667  0.0988
  476TMC3    C3 7080   4.132   2.371   9.865  0.0300  0.5633  0.2177
  476TMC3    C4 7081   4.364   2.235   9.921  0.5101 -0.2936  0.1000
  476TMC3    C5 7082   4.322   2.346   9.986  0.7007 -0.4915  0.0270
  476TMC3    C6 7083   4.215   2.421   9.960 -0.5421 -0.7337  0.1708
  476TMC3     C 7084   4.239   2.059   9.850  0.4681 -0.6385 -1.0618
  476TMC3     O 7085   4.280   1.985   9.764  0.2778  0.2747  0.3193
  476TMC3     H 7086   4.104   2.239   9.715 -0.4813  1.5203 -0.0868
  476TMC3    H1 7087   4.450   2.183   9.960  0.0853  0.1929  1.7003
  476TMC3    H2 7088   4.184   2.510  10.014 -1.6781 -2.1552  1.8485
  476TMC3    C7 7089   4.405   2.380  10.096  0.4286 -0.4136  0.1746
  476TMC3    C8 7090   3.986   2.381   9.908 -0.1349  0.1387 -0.2310
  476TMC3    O1 7091   4.442   2.283  10.163 -0.4395  0.4757  0.6249
  476TMC3    O2 7092   3.947   2.481   9.967 -0.1793  0.2826  0.5452
  477MPD2     C 7093   1.623   4.276  11.795  0.1733  0.3936  0.1063
  477MPD2    C1 7094   1.601   4.176  11.695 -0.7464  0.4510  0.0376
  477MPD2    C2 7095   1.622   4.043  11.730 -0.0927 -0.0437  0.1517
  477MPD2    C3 7096   1.655   4.003  11.857 -0.1672  0.5400 -0.0841
  477MPD2    C4 7097   1.675   4.102  11.952 -0.2075  0.3625  0.0535
  477MPD2    C5 7098   1.661   4.234  11.922  0.1083 -0.2432 -0.4254
  477MPD2     H 7099   1.630   3.971  11.649 -2.4409  0.8843 -0.8983
  477MPD2    H1 7100   1.707   4.078  12.053  0.1300 -0.7585 -0.3147
  477MPD2    H2 7101   1.594   4.380  11.781  0.3846  0.3986 -0.2918
  477MPD2    H3 7102   1.674   4.311  11.997  2.2276 -1.0193  0.0070
  477MPD2     N 7103   1.672   3.870  11.895 -0.3045 -0.3579 -0.3560
  477MPD2    H5 7104   1.682   3.800  11.822  1.8912 -0.8836  0.4355
  477MPD2    N1 7105   1.553   4.219  11.565  0.4158  0.0831 -0.7082
  477MPD2    H7 7106   1.559   4.317  11.540  0.8972 -0.4163 -2.5447
  478TMC3    C1 7107   1.456   4.197  11.345 -0.5960  0.5083 -0.2657
  478TMC3    C2 7108   1.470   4.333  11.335  0.2831 -0.5876  0.0559
  478TMC3    C3 7109   1.391   4.392  11.238 -0.4333  0.0222 -0.3138
  478TMC3    C4 7110   1.373   4.124  11.260  0.0739  0.4327  0.0277
  478TMC3    C5 7111   1.300   4.190  11.160 -0.5037  0.3596  0.5460
  478TMC3    C6 7112   1.303   4.322  11.150  0.2499  0.3651 -0.0854
  478TMC3     C 7113   1.508   4.132  11.465 -0.1165  0.0133 -0.2580
  478TMC3     O 7114   1.505   4.010  11.482 -0.5421  0.4871  0.0409
  478TMC3     H 7115   1.540   4.390  11.394 -0.6468  0.3247  0.2946
  478TMC3    H1 7116   1.338   4.026  11.291 -0.6570  0.8739  0.6036
  478TMC3    H2 7117   1.265   4.368  11.059 -1.3258  1.1437  0.9686
  478TMC3    C7 7118   1.234   4.097  11.069 -0.1067 -0.0430  0.5644
  478TMC3    C8 7119   1.445   4.521  11.214 -0.5340 -0.2470 -0.6637
  478TMC3    O1 7120   1.257   3.979  11.091  0.3695 -0.1620  0.4477
  478TMC3    O2 7121   1.564   4.528  11.211  0.5098 -0.2097  0.1913
  479MPD2     C 7122   0.547   1.438  14.964  0.3357  0.9193 -0.2936
  479MPD2    C1 7123   0.492   1.347  15.047 -0.0222  0.4342  0.5267
  479MPD2    C2 7124   0.573   1.315  15.155  0.3754 -0.9607 -0.2344
  479MPD2    C3 7125   0.704   1.359  15.179  0.6427  0.0885 -0.2553
  479MPD2    C4 7126   0.754   1.455  15.094 -0.4405  0.6506 -0.7915
  479MPD2    C5 7127   0.677   1.492  14.991  0.4939 -0.1002  0.3627
  479MPD2     H 7128   0.529   1.238  15.216  0.3411 -0.4179  0.4289
  479MPD2    H1 7129   0.849   1.506  15.105 -0.3582 -0.3698  2.9528
  479MPD2    H2 7130   0.494   1.466  14.874  0.4000  0.8836 -0.3434
  479MPD2    H3 7131   0.723   1.565  14.926  1.2458 -2.2157 -1.4952
  479MPD2     N 7132   0.780   1.327  15.298 -0.1980  0.1799  1.1376
  479MPD2    H5 7133   0.878   1.352  15.303 -0.1517 -0.0448  1.3941
  479MPD2    N1 7134   0.353   1.316  15.049  0.0946 -0.2018 -0.5891
  479MPD2    H7 7135   0.300   1.367  14.980 -1.4902  0.5746  1.2219
  480TMC3    C1 7136   0.391   1.238  15.534  0.0616 -0.6343  0.3752
  480TMC3    C2 7137   0.315   1.341  15.482 -0.0333  1.0433  0.4193
  480TMC3    C3 7138   0.385   1.436  15.410  0.3899 -0.0212 -0.0405
  480TMC3    C4 7139   0.524   1.228  15.519  0.2415 -0.0941 -0.0175
  480TMC3    C5 7140   0.593   1.318  15.448 -0.6143  0.3094 -0.0101
  480TMC3    C6 7141   0.526   1.434  15.402 -0.6089  0.7234  0.2085
  480TMC3     C 7142   0.332   1.129  15.618 -0.4542 -0.0553  0.4542
  480TMC3     O 7143   0.417   1.051  15.663 -0.1817  0.6243 -0.7372
  480TMC3     H 7144   0.207   1.341  15.489  0.1456  0.5147  2.9543
  480TMC3    H1 7145   0.582   1.143  15.553  1.5002  0.0083 -1.9046
  480TMC3    H2 7146   0.583   1.515  15.356  0.3177  0.1186  0.2864
  480TMC3    C7 7147   0.734   1.290  15.419  0.8743 -0.0185  0.4094
  480TMC3    C8 7148   0.311   1.537  15.337 -0.6400 -0.0727  0.6302
  480TMC3    O1 7149   0.796   1.246  15.518 -0.0475  0.6071 -0.1157
  480TMC3    O2 7150   0.192   1.536  15.348  0.4485 -0.3548 -0.0351
  481MPD2     C 7151   1.627   0.377  13.405 -0.0508  0.5196 -0.7688
  481MPD2    C1 7152   1.516   0.408  13.478 -0.0691  0.2723  0.0164
  481MPD2    C2 7153   1.520   0.455  13.604  0.3422  0.1491  0.0244
  481MPD2    C3 7154   1.643   0.494  13.658 -0.1121  0.2202  0.2260
  481MPD2    C4 7155   1.753   0.475  13.581 -0.4568  0.0847 -0.0054
  481MPD2    C5 7156   1.746   0.410  13.461 -0.6918  0.1646 -0.0027
  481MPD2     H 7157   1.430   0.463  13.663  0.2080 -1.5789  0.0560
  481MPD2    H1 7158   1.847   0.503  13.628  0.4609 -1.2458 -1.0251
  481MPD2    H2 7159   1.620   0.330  13.307  1.0148  1.9192 -1.5306
  481MPD2    H3 7160   1.833   0.401  13.397 -0.2220 -1.6637  0.8943
  481MPD2     N 7161   1.652   0.555  13.788  0.1780 -0.0119 -0.1890
  481MPD2    H5 7162   1.743   0.585  13.820  1.5695 -2.6717 -1.6435
  481MPD2    N1 7163   1.400   0.375  13.407  0.6851  0.0778 -0.1843
  481MPD2    H7 7164   1.405   0.355  13.307 -0.1536  2.5590 -0.7330
  482TMC3    C1 7165   1.154   0.367  13.371 -0.1280 -0.4827 -0.4817
  482TMC3    C2 7166   1.049   0.302  13.421  0.2031  0.2955  0.6061
  482TMC3    C3 7167   0.940   0.296  13.338 -0.9860  0.4841 -0.2049
  482TMC3    C4 7168   1.153   0.448  13.260 -0.5617  0.3564  0.3419
  482TMC3    C5 7169   1.039   0.440  13.181  0.4741 -0.2171 -0.0873
  482TMC3    C6 7170   0.929   0.369  13.223 -0.5432 -0.0434  0.1189
  482TMC3     C 7171   1.271   0.356  13.465 -0.3602 -0.1031  0.3399
  482TMC3     O 7172   1.246   0.346  13.584  0.4032 -0.2977 -0.6070
  482TMC3     H 7173   1.041   0.258  13.520 -1.1798  1.4570  1.0147
  482TMC3    H1 7174   1.241   0.500  13.225 -0.2720 -0.1774  0.2791
  482TMC3    H2 7175   0.847   0.381  13.153  1.3662  0.3117 -2.0622
  482TMC3    C7 7176   1.015   0.536  13.075 -0.1612 -0.4294 -0.0655
  482TMC3    C8 7177   0.855   0.181  13.357  0.2940 -1.0736  0.4443
  482TMC3    O1 7178   0.917   0.519  13.002 -0.7669  0.5261 -0.3029
  482TMC3    O2 7179   0.896   0.097  13.438 -0.6342 -0.1326 -0.1754
  483TMC3    C1 7180   4.040   4.490   0.512  0.8080  0.1661 -0.5872
  483TMC3    C2 7181   4.128   4.583   0.483 -1.0231 -1.1788 -0.3211
  483TMC3    C3 7182   4.221   4.559   0.382  0.1847 -0.2508 -0.0442
  483TMC3    C4 7183   4.038   4.365   0.456  0.0339 -0.1613 -0.2937
  483TMC3    C5 7184   4.135   4.342   0.358 -0.2078 -0.5180 -0.7395
  483TMC3    C6 7185   4.225   4.437   0.320  0.3077 -0.2609  0.2726
  483TMC3     C 7186   3.966   4.509   0.631 -0.0789 -0.1438 -0.8252
  483TMC3     O 7187   3.945   4.624   0.662  0.0350  0.6749 -0.0314
  483TMC3     H 7188   4.138   4.674   0.541  0.9769 -0.7032 -1.4192
  483TMC3    H1 7189   3.972   4.285   0.486 -0.7245  0.4967 -0.1925
  483TMC3    H2 7190   4.301   4.416   0.246  1.9135 -0.5046  1.9909
  483TMC3    C7 7191   4.181   4.203   0.329 -0.5635 -0.2043 -0.3280
  483TMC3    C8 7192   4.327   4.648   0.349  0.6884  0.3478 -0.1020
  483TMC3    O1 7193   4.086   4.124   0.316  0.7034  0.5502  0.4626
  483TMC3    O2 7194   4.379   4.629   0.239 -1.0930 -0.4301  0.1363
  484MPD2     C 7195   2.705   3.104  12.507 -0.1593 -0.4843  0.0100
  484MPD2    C1 7196   2.765   2.987  12.549  0.0214  0.0451  0.6368
  484MPD2    C2 7197   2.903   2.982  12.559 -0.7327  0.1488 -1.1994
  484MPD2    C3 7198   2.985   3.085  12.520 -0.0769 -0.0900  0.5971
  484MPD2    C4 7199   2.924   3.203  12.468 -0.2172 -0.0664  1.0788
  484MPD2    C5 7200   2.791   3.197  12.457 -0.3003  0.9882 -0.1210
  484MPD2     H 7201   2.952   2.897  12.606  0.5451  1.5522 -0.0230
  484MPD2    H1 7202   2.976   3.296  12.446 -3.7955  0.8885 -3.4180
  484MPD2    H2 7203   2.598   3.121  12.507 -0.3673 -1.7993 -1.0990
  484MPD2    H3 7204   2.739   3.286  12.421  1.3601  2.1502  0.3239
  484MPD2     N 7205   3.130   3.077  12.528  0.4547 -0.2413  0.0789
  484MPD2    H5 7206   3.176   3.135  12.459 -1.7415  1.1255 -0.2702
  484MPD2    N1 7207   2.681   2.888  12.590 -0.3763  0.5106  0.2510
  484MPD2    H7 7208   2.580   2.899  12.580 -0.4871 -0.5428  0.1852
  485TMC3    C1 7209   3.316   2.944  12.503 -0.4538 -0.1163 -0.2970
  485TMC3    C2 7210   3.407   2.859  12.560 -0.5835  0.4193  1.2976
  485TMC3    C3 7211   3.524   2.830  12.488  0.2655 -0.0628 -1.0600
  485TMC3    C4 7212   3.336   3.006  12.381 -0.3808 -0.4423 -0.4884
  485TMC3    C5 7213   3.447   2.963  12.311 -0.2953  0.4963  0.0641
  485TMC3    C6 7214   3.545   2.888  12.371  0.0851 -0.1125  0.2980
  485TMC3     C 7215   3.196   2.975  12.580 -0.2331 -0.0281 -0.8461
  485TMC3     O 7216   3.173   2.914  12.682 -0.2306 -0.2667  0.1241
  485TMC3     H 7217   3.376   2.802  12.646  1.8586  0.1935  2.0353
  485TMC3    H1 7218   3.260   3.063  12.329  3.0220  4.9663  0.3940
  485TMC3    H2 7219   3.645   2.882  12.331 -0.3316 -0.4755 -0.6816
  485TMC3    C7 7220   3.429   2.922  12.171 -0.3310 -0.0793  1.0837
  485TMC3    C8 7221   3.590   2.706  12.498  0.6674  0.4912  0.5140
  485TMC3    O1 7222   3.383   3.006  12.093 -0.5128  0.1530 -0.2855
  485TMC3    O2 7223   3.619   2.663  12.388  0.5783 -0.4211  0.2155
  486MPD2     C 7224   0.473   1.697  12.558 -0.0352  0.4105 -0.2648
  486MPD2    C1 7225   0.347   1.639  12.532 -0.2778 -0.3707 -0.5995
  486MPD2    C2 7226   0.238   1.721  12.496  0.5320 -0.2126 -1.2478
  486MPD2    C3 7227   0.253   1.856  12.482  0.2960  0.8447  1.0887
  486MPD2    C4 7228   0.379   1.910  12.502  0.6522 -0.2640  0.0834
  486MPD2    C5 7229   0.485   1.834  12.541  0.1666 -0.0569  0.0698
  486MPD2     H 7230   0.137   1.682  12.493  0.5544 -0.5307  1.9846
  486MPD2    H1 7231   0.390   2.016  12.486  1.2495 -0.1893  0.9869
  486MPD2    H2 7232   0.557   1.641  12.598 -0.6327 -1.6912 -1.9408
  486MPD2    H3 7233   0.583   1.878  12.556 -0.2763  1.4782 -1.4792
  486MPD2     N 7234   0.139   1.939  12.455 -0.3364  0.1247 -0.0204
  486MPD2    H5 7235   0.051   1.889  12.448  0.3989 -1.2572  0.6786
  486MPD2    N1 7236   0.322   1.501  12.569  0.2859  1.1462 -0.2141
  486MPD2    H7 7237   0.402   1.448  12.602 -1.0392 -1.1963 -0.8048
  487TMC3    C1 7238   0.227   1.290  12.575  0.1287 -0.7219 -0.7469
  487TMC3    C2 7239   0.143   1.205  12.508 -0.3893 -0.6612  0.2057
  487TMC3    C3 7240   0.147   1.068  12.521 -0.8915 -0.5926  0.0413
  487TMC3    C4 7241   0.293   1.243  12.685  0.4513  0.1214  0.1822
  487TMC3    C5 7242   0.279   1.107  12.712  0.8778 -0.6715 -0.6075
  487TMC3    C6 7243   0.231   1.014  12.619  0.0553 -0.4118  0.5532
  487TMC3     C 7244   0.211   1.431  12.549 -0.1796 -0.5945 -0.3233
  487TMC3     O 7245   0.113   1.468  12.489 -0.0813  0.0659  0.1149
  487TMC3     H 7246   0.088   1.248  12.426 -0.5804 -1.8618 -0.2807
  487TMC3    H1 7247   0.333   1.319  12.750 -0.6266  0.3494  0.5885
  487TMC3    H2 7248   0.222   0.908  12.636  1.5790 -0.7537 -0.6787
  487TMC3    C7 7249   0.272   1.084  12.858  0.0353  0.1356  0.2373
  487TMC3    C8 7250   0.021   0.992  12.501  0.2377 -0.2498 -0.6319
  487TMC3    O1 7251   0.321   1.164  12.935  0.2243  0.0506  0.3326
  487TMC3    O2 7252   4.643   1.065  12.483 -0.3842  0.7824  0.3757
  488MPD2     C 7253   0.269   2.964  16.023  0.3922 -0.0071  0.4423
  488MPD2    C1 7254   0.219   3.093  16.016 -0.1423 -0.6973  0.1876
  488MPD2    C2 7255   0.165   3.149  16.129 -0.0810  0.1826  0.5708
  488MPD2    C3 7256   0.148   3.082  16.250  0.8624 -0.0272 -0.0678
  488MPD2    C4 7257   0.191   2.946  16.252  0.4210  0.3294  0.2861
  488MPD2    C5 7258   0.255   2.895  16.143  0.3028  0.2563  0.0222
  488MPD2     H 7259   0.135   3.253  16.128 -0.5954  0.0316 -1.8554
  488MPD2    H1 7260   0.182   2.881  16.338  1.3131 -0.4193 -0.1864
  488MPD2    H2 7261   0.323   2.914  15.943  1.2285  1.7550 -0.1000
  488MPD2    H3 7262   0.270   2.787  16.143  1.5962  0.4320  0.5709
  488MPD2     N 7263   0.103   3.154  16.369  0.6873 -0.2463 -0.5246
  488MPD2    H5 7264   0.065   3.247  16.350 -2.2826 -1.4127 -0.3115
  488MPD2    N1 7265   0.226   3.175  15.903 -0.7665 -0.1607 -0.1660
  488MPD2    H7 7266   0.197   3.271  15.916 -3.9640 -0.7871 -2.4297
  489TMC3    C1 7267   0.066   3.222  16.590  0.5431  0.1684  0.5610
  489TMC3    C2 7268   0.114   3.347  16.556  0.6127  0.0554 -0.1159
  489TMC3    C3 7269   0.044   3.460  16.608 -0.2034 -0.1056  0.4968
  489TMC3    C4 7270   4.690   3.201  16.688 -0.7662  0.1609  0.4918
  489TMC3    C5 7271   4.636   3.315  16.745 -0.0090 -0.1386 -0.6761
  489TMC3    C6 7272   4.669   3.446  16.709 -0.3959 -0.1510  0.0849
  489TMC3     C 7273   0.094   3.109  16.501  0.9321 -0.0140  0.4267
  489TMC3     O 7274   0.089   2.999  16.553 -0.2450 -0.4630 -0.0308
  489TMC3     H 7275   0.192   3.355  16.481  2.4243  0.6135  1.8263
  489TMC3    H1 7276   4.663   3.100  16.717  1.2555 -1.2341 -2.4466
  489TMC3    H2 7277   4.619   3.526  16.762 -2.4550 -1.4364  0.1129
  489TMC3    C7 7278   4.532   3.289  16.845 -0.2093 -0.1006  0.0193
  489TMC3    C8 7279   0.086   3.588  16.560 -0.0408  0.9895 -0.7084
  489TMC3    O1 7280   4.529   3.174  16.885 -0.0730 -0.6925  0.0738
  489TMC3    O2 7281   0.179   3.585  16.482  0.2291 -0.3218 -0.5240
  490MPD2     C 7282   1.588   2.172  16.792 -0.1774  0.3133  0.0248
  490MPD2    C1 7283   1.546   2.297  16.835  0.5837 -0.5583  1.0142
  490MPD2    C2 7284   1.612   2.411  16.792  0.4881  0.0742 -0.0500
  490MPD2    C3 7285   1.726   2.387  16.708  0.2443  0.3962  0.3689
  490MPD2    C4 7286   1.761   2.255  16.670 -0.2876  0.1198  0.4636
  490MPD2    C5 7287   1.694   2.142  16.713  0.2755  0.1752  0.7014
  490MPD2     H 7288   1.590   2.510  16.831  1.0064  0.1995 -0.0714
  490MPD2    H1 7289   1.851   2.248  16.610  0.9458 -0.4429  2.3799
  490MPD2    H2 7290   1.529   2.085  16.818 -0.2739  0.5447  0.5909
  490MPD2    H3 7291   1.724   2.042  16.685 -0.1914  0.6169 -1.4140
  490MPD2     N 7292   1.821   2.480  16.678 -0.7832  0.1071 -0.4960
  490MPD2    H5 7293   1.891   2.454  16.609  0.8927 -0.2170  1.3157
  490MPD2    N1 7294   1.428   2.315  16.916  0.3133 -0.4090  0.4543
  490MPD2    H7 7295   1.415   2.407  16.955  2.0433 -0.4713  1.2221
  491TMC3    C1 7296   1.208   2.273  17.012  0.6442  1.1654  0.2686
  491TMC3    C2 7297   1.213   2.364  17.113  0.4927 -0.2221 -0.3113
  491TMC3    C3 7298   1.095   2.393  17.178  0.1498 -0.2728  0.3422
  491TMC3    C4 7299   1.089   2.216  16.968 -0.1194 -0.1530  1.0768
  491TMC3    C5 7300   0.972   2.248  17.038  0.1288  0.2115  0.6396
  491TMC3    C6 7301   0.975   2.334  17.141  0.5154 -0.0093 -0.6869
  491TMC3     C 7302   1.332   2.217  16.951  0.3614  0.2627 -0.0961
  491TMC3     O 7303   1.326   2.096  16.918 -0.1600  0.9017 -0.0785
  491TMC3     H 7304   1.308   2.385  17.160  0.6698 -0.3617 -0.6043
  491TMC3    H1 7305   1.087   2.156  16.878  3.4860  0.0880  0.8308
  491TMC3    H2 7306   0.882   2.360  17.191  1.5447  0.4845  0.9611
  491TMC3    C7 7307   0.843   2.221  16.972  0.0220  0.0908  0.7072
  491TMC3    C8 7308   1.090   2.473  17.291 -0.6455  0.0975  0.7679
  491TMC3    O1 7309   0.852   2.137  16.884  0.4021 -0.0143  0.0455
  491TMC3    O2 7310   0.978   2.496  17.340 -0.0821  0.1221 -0.3016
  492MPD2     C 7311   1.425   2.531  10.935  0.3062  1.0270 -0.6114
  492MPD2    C1 7312   1.302   2.509  10.880  0.5104  0.5255  0.1010
  492MPD2    C2 7313   1.191   2.492  10.970 -0.1583 -0.6726 -0.0929
  492MPD2    C3 7314   1.208   2.491  11.109 -0.1257  0.4454  0.0519
  492MPD2    C4 7315   1.330   2.526  11.160  0.8725 -0.1022 -0.1678
  492MPD2    C5 7316   1.435   2.536  11.069  0.0107  0.0839  0.7410
  492MPD2     H 7317   1.092   2.473  10.929 -0.5825  2.9300 -0.7176
  492MPD2    H1 7318   1.358   2.553  11.261 -0.0972 -2.3786  0.7159
  492MPD2    H2 7319   1.512   2.545  10.872 -1.0554  0.5068 -2.5923
  492MPD2    H3 7320   1.532   2.565  11.107  0.0319  2.8867 -1.4803
  492MPD2     N 7321   1.108   2.455  11.201  0.2095 -0.1616 -0.2610
  492MPD2    H5 7322   1.152   2.439  11.292 -1.0478 -1.0067  0.1867
  492MPD2    N1 7323   1.296   2.519  10.738 -0.3956  0.5047  0.0112
  492MPD2    H7 7324   1.376   2.559  10.690  0.4835 -0.2618  0.8362
  493TMC3    C1 7325   1.205   2.540  10.514 -0.6388  0.5655  0.5400
  493TMC3    C2 7326   1.321   2.607  10.484  0.0800 -0.1801  0.2059
  493TMC3    C3 7327   1.325   2.660  10.358 -0.9195  0.5610 -0.0188
  493TMC3    C4 7328   1.103   2.532  10.434  0.5396 -0.6063 -0.0981
  493TMC3    C5 7329   1.106   2.595  10.313  0.0725 -0.2337  0.1523
  493TMC3    C6 7330   1.220   2.665  10.273  0.7802 -0.8507  0.5705
  493TMC3     C 7331   1.186   2.491  10.656  0.4613 -0.5628  0.0953
  493TMC3     O 7332   1.070   2.466  10.693  0.4261  0.2702 -0.2214
  493TMC3     H 7333   1.407   2.608  10.550 -0.2845  2.3440  0.6270
  493TMC3    H1 7334   1.018   2.472  10.467  0.2746 -1.4147 -2.2685
  493TMC3    H2 7335   1.205   2.742  10.198  1.5902 -1.4988 -0.2633
  493TMC3    C7 7336   0.987   2.582  10.238 -0.1238 -0.3541  0.7069
  493TMC3    C8 7337   1.446   2.745  10.335  0.2341 -0.3523 -0.3344
  493TMC3    O1 7338   0.890   2.534  10.292  0.7370  0.4497  0.4443
  493TMC3    O2 7339   1.510   2.757  10.436 -0.1172  0.1371  0.0458
  494TMC3    C1 7340   1.596   4.121   0.316  0.5884  0.0621 -0.3086
  494TMC3    C2 7341   1.666   4.010   0.352  0.0039 -0.4961 -0.1259
  494TMC3    C3 7342   1.788   3.992   0.290 -0.5831 -0.3669  0.0596
  494TMC3    C4 7343   1.641   4.214   0.227 -0.4258 -0.1734  0.3833
  494TMC3    C5 7344   1.756   4.192   0.160  0.3550  0.8742 -1.0373
  494TMC3    C6 7345   1.828   4.080   0.195  0.3645 -0.0726  0.3393
  494TMC3     C 7346   1.469   4.137   0.391 -0.2462  0.1072  0.5263
  494TMC3     O 7347   1.457   4.131   0.511 -0.2781  0.4083 -0.2486
  494TMC3     H 7348   1.626   3.938   0.424  0.9335  0.0599  0.9372
  494TMC3    H1 7349   1.581   4.300   0.196  0.5816 -0.7223 -3.1479
  494TMC3    H2 7350   1.908   4.061   0.125 -0.9542 -1.8947 -0.6690
  494TMC3    C7 7351   1.764   4.245   0.020 -0.2359 -0.2268  0.1400
  494TMC3    C8 7352   1.845   3.867   0.288  0.3822 -0.2340  0.0159
  494TMC3    O1 7353   1.783   4.163  17.608  0.4531 -0.6798 -0.2791
  494TMC3    O2 7354   1.965   3.861   0.298 -0.1393 -0.1658 -0.1706
  495TMC3    C1 7355   0.845   1.895  14.578  0.0352 -0.0118  0.0198
  495TMC3    C2 7356   0.771   1.931  14.474 -0.4264  0.0035  0.1221
  495TMC3    C3 7357   0.639   1.935  14.491  0.6068 -0.3658 -0.4384
  495TMC3    C4 7358   0.790   1.910  14.703  0.0574  0.3894 -0.2156
  495TMC3    C5 7359   0.657   1.928  14.724 -0.5513 -0.0624  0.6041
  495TMC3    C6 7360   0.578   1.931  14.611  0.4102  0.0806 -0.4993
  495TMC3     C 7361   0.869   1.753  14.559 -0.2165 -0.5190 -0.1750
  495TMC3     O 7362   0.880   1.684  14.660 -0.3924  0.0624  0.0337
  495TMC3     H 7363   0.814   1.951  14.376 -1.5372 -0.4352 -0.4501
  495TMC3    H1 7364   0.843   1.884  14.794  0.9861  2.8509 -0.0745
  495TMC3    H2 7365   0.470   1.927  14.612  0.4346 -0.1073  0.5925
  495TMC3    C7 7366   0.602   1.876  14.850 -0.1129  0.4777  0.5829
  495TMC3    C8 7367   0.556   1.887  14.384  0.5985 -0.4010 -0.1846
  495TMC3    O1 7368   0.680   1.821  14.923  0.1097 -0.0480  0.0329
  495TMC3    O2 7369   0.445   1.853  14.420  0.1119 -0.2297 -0.1123
  496MPD2     C 7370   2.425   0.847  14.623 -0.0346 -1.1853 -0.5793
  496MPD2    C1 7371   2.504   0.838  14.739  0.5954 -0.3016 -0.0574
  496MPD2    C2 7372   2.459   0.888  14.860 -0.5348  0.2880 -0.1185
  496MPD2    C3 7373   2.332   0.934  14.872 -0.5592  0.2673 -0.2661
  496MPD2    C4 7374   2.246   0.929  14.764  0.4236  0.2836  0.0147
  496MPD2    C5 7375   2.292   0.887  14.638  0.3748  0.6063  0.0073
  496MPD2     H 7376   2.526   0.902  14.944  0.4684 -2.3313 -0.4869
  496MPD2    H1 7377   2.139   0.942  14.772  0.5197  0.1693  1.5514
  496MPD2    H2 7378   2.455   0.811  14.525  0.6618 -0.3097 -0.6948
  496MPD2    H3 7379   2.214   0.876  14.563  2.0189  1.0380 -1.7677
  496MPD2     N 7380   2.260   0.977  14.990 -0.8577 -0.0505 -0.0383
  496MPD2    H5 7381   2.163   1.006  14.982 -0.8320  0.5445  1.8129
  496MPD2    N1 7382   2.631   0.783  14.727 -0.0516  0.4939 -0.1713
  496MPD2    H7 7383   2.666   0.759  14.634  0.1616 -0.5263  0.1655
  497TMC3    C1 7384   2.231   1.095  15.202 -0.5224 -0.0812  0.0663
  497TMC3    C2 7385   2.104   1.122  15.168  0.5368  0.3269  0.5705
  497TMC3    C3 7386   2.027   1.206  15.235  0.0424 -0.7993 -0.2586
  497TMC3    C4 7387   2.282   1.151  15.317  0.0775 -0.3341 -0.1210
  497TMC3    C5 7388   2.203   1.237  15.384 -0.5243  0.7192  0.3180
  497TMC3    C6 7389   2.075   1.268  15.344 -0.1699  0.3352  0.4783
  497TMC3     C 7390   2.319   1.024  15.110  0.8423 -0.2712  0.6713
  497TMC3     O 7391   2.439   1.013  15.139  0.1822 -0.3417 -0.4873
  497TMC3     H 7392   2.057   1.066  15.088  1.7645  0.2111 -0.0893
  497TMC3    H1 7393   2.388   1.144  15.336  0.4091  0.4383 -1.6379
  497TMC3    H2 7394   2.026   1.345  15.403 -0.8580  3.1867 -3.8951
  497TMC3    C7 7395   2.215   1.261  15.527  0.1274 -0.3047 -0.0365
  497TMC3    C8 7396   1.896   1.250  15.183 -0.5960  0.5428 -0.7565
  497TMC3    O1 7397   2.109   1.279  15.588  0.4866 -0.0709 -0.1285
  497TMC3    O2 7398   1.860   1.186  15.084 -0.0917 -0.4679 -0.2535
  498MPD2     C 7399   3.078   1.929   9.137  0.0659  0.2791  0.1460
  498MPD2    C1 7400   3.109   1.895   9.267 -0.2730 -0.1197  0.3607
  498MPD2    C2 7401   3.008   1.852   9.354  0.0259  0.4623  0.3936
  498MPD2    C3 7402   2.881   1.847   9.314 -0.2035  0.2648 -0.1943
  498MPD2    C4 7403   2.855   1.870   9.178  0.3322 -0.0473  0.1234
  498MPD2    C5 7404   2.955   1.906   9.086 -0.1794 -0.4295 -1.3083
  498MPD2     H 7405   3.036   1.823   9.454  0.1699 -3.3180 -0.7547
  498MPD2    H1 7406   2.758   1.860   9.131  0.5612 -0.2570 -0.3103
  498MPD2    H2 7407   3.154   1.970   9.072 -1.8253  2.8624 -0.4073
  498MPD2    H3 7408   2.941   1.922   8.980 -2.6668  0.3854 -0.8559
  498MPD2     N 7409   2.792   1.812   9.412 -0.9990 -0.2541  0.3070
  498MPD2    H5 7410   2.826   1.823   9.506  1.3484  0.5805 -0.6647
  498MPD2    N1 7411   3.239   1.899   9.325  0.3819  0.4089  0.1748
  498MPD2    H7 7412   3.235   1.870   9.422 -0.4342  1.0724  0.3401
  499TMC3    C1 7413   3.473   1.851   9.335  0.0557  0.1173  0.2413
  499TMC3    C2 7414   3.447   1.758   9.433 -0.0277  0.5335 -0.4328
  499TMC3    C3 7415   3.547   1.712   9.518  0.2341 -0.1210 -0.6761
  499TMC3    C4 7416   3.595   1.895   9.297 -0.0238 -0.7570  0.6819
  499TMC3    C5 7417   3.696   1.828   9.370 -0.1975 -0.3144 -0.0567
  499TMC3    C6 7418   3.675   1.744   9.476  0.2735  0.2510  0.3709
  499TMC3     C 7419   3.360   1.903   9.259  0.4281 -0.3072  0.1157
  499TMC3     O 7420   3.383   1.935   9.142 -0.6667  0.9856 -0.5420
  499TMC3     H 7421   3.349   1.713   9.445  0.2322 -0.1314 -0.8210
  499TMC3    H1 7422   3.612   1.967   9.217 -1.0107 -1.6351 -0.3091
  499TMC3    H2 7423   3.764   1.697   9.516  0.5631  0.4984  0.0061
  499TMC3    C7 7424   3.835   1.843   9.343  0.3130  0.2924 -0.6963
  499TMC3    C8 7425   3.525   1.591   9.590  0.6445  0.0050 -0.2623
  499TMC3    O1 7426   3.914   1.840   9.439 -0.2224 -0.3077 -0.0603
  499TMC3    O2 7427   3.615   1.513   9.580  0.0981  0.4321  0.3109
  500MPD2     C 7428   0.967   3.060   9.686  0.4489  0.4297 -0.4161
  500MPD2    C1 7429   0.849   3.124   9.715  0.2462  0.3873  0.2105
  500MPD2    C2 7430   0.727   3.086   9.670  0.4013 -0.1249 -0.5151
  500MPD2    C3 7431   0.730   2.983   9.573 -1.1573 -0.2877  0.5366
  500MPD2    C4 7432   0.850   2.928   9.530 -1.1556  0.7471  0.0431
  500MPD2    C5 7433   0.969   2.970   9.584 -0.3697 -0.1384 -0.6488
  500MPD2     H 7434   0.636   3.131   9.709  1.0386 -1.0815  2.0424
  500MPD2    H1 7435   0.849   2.847   9.457  1.9680  0.9314 -0.2052
  500MPD2    H2 7436   1.064   3.094   9.723  1.0997  0.6655 -2.3435
  500MPD2    H3 7437   1.062   2.922   9.555  0.7751  0.3862  2.1398
  500MPD2     N 7438   0.604   2.921   9.530  0.0083  0.3238  0.0029
  500MPD2    H5 7439   0.609   2.830   9.486 -1.6283  0.0945  0.2667
  500MPD2    N1 7440   0.859   3.229   9.817 -0.2141 -0.0897  0.1139
  500MPD2    H7 7441   0.953   3.249   9.852 -0.1605 -1.6111  0.8484
  501TMC3    C1 7442   0.795   3.413   9.949  0.2659 -0.1644  0.0897
  501TMC3    C2 7443   0.714   3.515   9.966 -0.2530 -0.4243 -0.1064
  501TMC3    C3 7444   0.716   3.587  10.083  0.7621  0.2939 -0.1803
  501TMC3    C4 7445   0.895   3.394  10.046  0.7039 -0.6888  0.8633
  501TMC3    C5 7446   0.897   3.472  10.158 -0.1093  0.5035  0.0019
  501TMC3    C6 7447   0.816   3.573  10.178  0.2899 -0.4440 -0.0811
  501TMC3     C 7448   0.756   3.317   9.850 -0.5634  0.4452 -0.3250
  501TMC3     O 7449   0.644   3.329   9.802 -0.4060  0.1694 -0.1840
  501TMC3     H 7450   0.638   3.534   9.891 -0.9180 -0.6276  0.5120
  501TMC3    H1 7451   0.950   3.300  10.042 -0.2059 -1.3060  2.6528
  501TMC3    H2 7452   0.821   3.646  10.258 -3.0509 -0.6206  0.3196
  501TMC3    C7 7453   1.034   3.477  10.210  0.2505 -0.4527  0.4905
  501TMC3    C8 7454   0.633   3.705  10.107  0.0884  0.6329  0.0668
  501TMC3    O1 7455   1.119   3.404  10.157 -0.0434 -0.2655  0.1653
  501TMC3    O2 7456   0.604   3.731  10.223  0.5642 -0.6237 -0.4264
  502TMC3    C1 7457   4.535   2.728  14.624  0.0052  0.2118  0.1709
  502TMC3    C2 7458   4.486   2.853  14.632 -0.0237  0.5237 -0.3948
  502TMC3    C3 7459   4.352   2.864  14.653 -0.1973  0.0432  0.0265
  502TMC3    C4 7460   4.458   2.617  14.619  0.0101  0.0282 -0.0252
  502TMC3    C5 7461   4.323   2.633  14.646  0.4570  0.1195 -0.1586
  502TMC3    C6 7462   4.268   2.758  14.661 -0.0593 -0.1392  0.3325
  502TMC3     C 7463   4.668   2.726  14.681  0.0057  0.2298  0.3605
  502TMC3     O 7464   0.028   2.820  14.658  0.5208 -0.0154 -0.5075
  502TMC3     H 7465   4.549   2.941  14.626  2.7668 -1.5099 -0.6294
  502TMC3    H1 7466   4.506   2.520  14.624  1.3882  0.5726 -2.5605
  502TMC3    H2 7467   4.161   2.763  14.646  0.0944  1.1457 -0.2855
  502TMC3    C7 7468   4.264   2.521  14.723  0.0741 -0.1957 -0.5370
  502TMC3    C8 7469   4.296   3.000  14.654  0.0821  0.4486  0.5985
  502TMC3    O1 7470   4.343   2.440  14.772 -0.5153  0.2747 -0.2424
  502TMC3    O2 7471   4.355   3.092  14.608  0.0173  0.3224 -0.1878
  503MPD2     C 7472   2.016   3.087  16.624  0.5976  0.7267 -0.2989
  503MPD2    C1 7473   2.076   3.141  16.736 -0.5337  0.9789  0.0727
  503MPD2    C2 7474   2.197   3.085  16.773 -0.1327  0.4131  0.2187
  503MPD2    C3 7475   2.249   2.974  16.712 -0.1652  0.0846  0.6054
  503MPD2    C4 7476   2.186   2.920  16.604 -1.0574 -0.0140 -0.1269
  503MPD2    C5 7477   2.071   2.980  16.554  0.2851  0.1704 -0.6933
  503MPD2     H 7478   2.244   3.129  16.861 -0.5694  1.4476 -0.0638
  503MPD2    H1 7479   2.227   2.839  16.545  0.4270  0.3161  0.4506
  503MPD2    H2 7480   1.934   3.143  16.579 -0.6538 -0.5240  0.4161
  503MPD2    H3 7481   2.025   2.946  16.462 -0.0297 -1.7499  0.1787
  503MPD2     N 7482   2.365   2.919  16.773  0.1957  0.0560  0.4685
  503MPD2    H5 7483   2.386   2.944  16.869  0.0272 -1.6583  0.9407
  503MPD2    N1 7484   2.034   3.260  16.792  0.2708  0.2645  0.0676
  503MPD2    H7 7485   2.086   3.304  16.868  0.2839 -1.2384  0.9239
  504TMC3    C1 7486   2.555   2.780  16.789  0.5859  0.0012 -0.6787
  504TMC3    C2 7487   2.544   2.763  16.925  0.4643  0.7869  0.4069
  504TMC3    C3 7488   2.611   2.664  16.995  0.0610  0.2749  0.4118
  504TMC3    C4 7489   2.642   2.699  16.721 -0.1564 -0.0324 -0.6334
  504TMC3    C5 7490   2.708   2.599  16.784 -0.2358 -0.1382  0.6959
  504TMC3    C6 7491   2.696   2.587  16.924 -0.1099 -0.0156 -0.3840
  504TMC3     C 7492   2.448   2.832  16.706 -0.0534 -0.8554  0.1954
  504TMC3     O 7493   2.463   2.819  16.584  0.2394 -0.0364 -0.2791
  504TMC3     H 7494   2.460   2.814  16.970  1.0955  2.0524  0.1818
  504TMC3    H1 7495   2.653   2.709  16.613  1.1682 -0.4071 -0.5361
  504TMC3    H2 7496   2.752   2.506  16.971 -0.8946 -0.1677  0.2891
  504TMC3    C7 7497   2.777   2.502  16.709 -0.0747  0.3244  0.5565
  504TMC3    C8 7498   2.567   2.648  17.132 -0.1482 -0.2819  0.1962
  504TMC3    O1 7499   2.832   2.541  16.606 -0.1364  0.4203 -0.3038
  504TMC3    O2 7500   2.480   2.722  17.171  0.2726 -0.0969 -0.0074
  505MPD2     C 7501   2.238   1.393  10.647 -0.2523  0.5398 -0.3616
  505MPD2    C1 7502   2.265   1.316  10.537  0.3108  0.0718 -0.5710
  505MPD2    C2 7503   2.394   1.275  10.515 -0.1304  0.9718 -0.4582
  505MPD2    C3 7504   2.495   1.300  10.602 -0.1407 -0.0044 -0.1735
  505MPD2    C4 7505   2.474   1.379  10.712 -0.3261 -0.2381  0.4923
  505MPD2    C5 7506   2.348   1.432  10.726 -1.3123 -0.7804  0.0528
  505MPD2     H 7507   2.405   1.210  10.428  0.7846  0.0940  0.3195
  505MPD2    H1 7508   2.555   1.404  10.780 -0.7345  0.6005  0.6616
  505MPD2    H2 7509   2.141   1.431  10.675 -0.9090 -1.8128  0.5507
  505MPD2    H3 7510   2.325   1.498  10.809 -0.3772 -0.5556  0.1320
  505MPD2     N 7511   2.626   1.251  10.578  0.3698  0.0036  1.1361
  505MPD2    H5 7512   2.706   1.290  10.625  0.8753  0.1374  0.1589
  505MPD2    N1 7513   2.167   1.291  10.439 -0.2399 -0.2204 -0.8727
  505MPD2    H7 7514   2.214   1.250  10.359 -0.7550  0.7846 -1.6791
  506TMC3    C1 7515   1.966   1.244  10.340  0.6381 -0.0392 -0.3141
  506TMC3    C2 7516   1.884   1.319  10.260  0.0190  0.0798  0.4364
  506TMC3    C3 7517   1.832   1.253  10.152 -0.4480 -0.7204 -0.0134
  506TMC3    C4 7518   2.013   1.117  10.320  0.6010  0.0073  0.0825
  506TMC3    C5 7519   1.966   1.064  10.208  0.4869  0.1345 -0.0504
  506TMC3    C6 7520   1.875   1.122  10.125 -0.3709 -0.3216 -0.0152
  506TMC3     C 7521   2.031   1.322  10.445  0.1628  0.3791 -0.0833
  506TMC3     O 7522   1.974   1.400  10.525  0.5957 -0.0478  0.5782
  506TMC3     H 7523   1.860   1.423  10.280  0.9907  0.4178 -0.1751
  506TMC3    H1 7524   2.078   1.068  10.390  0.3436 -1.6938 -0.8795
  506TMC3    H2 7525   1.840   1.071  10.037 -4.1960 -0.1898  1.4404
  506TMC3    C7 7526   2.061   0.968  10.138  0.1828  0.1751 -0.4121
  506TMC3    C8 7527   1.786   1.320  10.035  0.1156  0.4951  0.1685
  506TMC3    O1 7528   2.061   0.948  10.019  0.5704 -0.3016 -0.1678
  506TMC3    O2 7529   1.707   1.253   9.970  0.1831  0.7473  0.0022
  507TMC3    C1 7530   3.187   2.412  14.166 -0.6333  0.5304  0.0876
  507TMC3    C2 7531   3.223   2.337  14.053  0.1422 -0.0186 -0.0873
  507TMC3    C3 7532   3.301   2.395  13.953  0.0371  0.4579  0.2638
  507TMC3    C4 7533   3.211   2.546  14.168 -0.3363 -0.1559 -0.1485
  507TMC3    C5 7534   3.296   2.599  14.075 -0.0239  0.0710  0.0117
  507TMC3    C6 7535   3.339   2.521  13.974 -0.0975  0.2077 -0.6802
  507TMC3     C 7536   3.083   2.364  14.255  0.5290  0.3310 -0.0116
  507TMC3     O 7537   3.071   2.440  14.351  0.2194  0.0043 -0.6034
  507TMC3     H 7538   3.193   2.233  14.047  2.4547 -0.6660 -0.4272
  507TMC3    H1 7539   3.156   2.609  14.237  1.2546 -0.8685  1.7793
  507TMC3    H2 7540   3.391   2.567  13.890 -0.4907  0.0500 -1.0090
  507TMC3    C7 7541   3.247   2.729  14.028  0.4053 -0.2420  0.0280
  507TMC3    C8 7542   3.258   2.367  13.816 -0.2439  0.2180  0.4196
  507TMC3    O1 7543   3.240   2.751  13.908  0.5842  0.2903 -0.1435
  507TMC3    O2 7544   3.223   2.255  13.784  0.2629  0.2252 -1.2059
  508MPD2     C 7545   3.888   0.084  15.995  0.0777 -0.2108 -0.2224
  508MPD2    C1 7546   3.953   0.203  16.001  0.1124 -0.2583  0.1226
  508MPD2    C2 7547   3.999   0.264  15.884  0.1844  0.0624 -0.2061
  508MPD2    C3 7548   3.996   0.203  15.764 -0.1117  0.6227  0.2524
  508MPD2    C4 7549   3.928   0.081  15.757  0.4909 -0.1085  0.6651
  508MPD2    C5 7550   3.861   0.035  15.870  0.1788  0.7097 -0.0102
  508MPD2     H 7551   4.048   0.360  15.898  2.4198 -0.9092 -1.3731
  508MPD2    H1 7552   3.898   0.040  15.662 -0.2657  1.6524  0.1372
  508MPD2    H2 7553   3.836   0.054  16.085  2.3357 -1.3026  0.7052
  508MPD2    H3 7554   3.787   4.674  15.860 -0.6752  1.2028  2.4398
  508MPD2     N 7555   4.056   0.269  15.650  0.1465 -0.7396  0.3777
  508MPD2    H5 7556   4.091   0.363  15.663  0.6367 -0.6711 -1.4626
  508MPD2    N1 7557   3.972   0.274  16.124 -0.7129  0.9861 -0.4539
  508MPD2    H7 7558   4.019   0.364  16.121  1.3929 -0.0708  1.7320
  509TMC3    C1 7559   4.106   0.444  15.243  0.1070  0.7195  0.5187
  509TMC3    C2 7560   4.202   0.540  15.282 -0.6079  0.4850 -0.1993
  509TMC3    C3 7561   4.259   0.518  15.406  1.0860  0.0474  1.4855
  509TMC3    C4 7562   4.084   0.323  15.308 -0.7310 -0.1425 -0.1580
  509TMC3    C5 7563   4.139   0.317  15.437 -0.2200  0.4583  0.5967
  509TMC3    C6 7564   4.223   0.407  15.484 -0.7622  0.4581  0.0972
  509TMC3     C 7565   3.995   0.482  15.163  0.9318 -0.1800  0.0738
  509TMC3     O 7566   3.923   0.398  15.114 -0.1123 -0.1626  0.3924
  509TMC3     H 7567   4.236   0.617  15.213  3.2641  0.9892  2.2523
  509TMC3    H1 7568   4.002   0.256  15.286 -0.2441  0.1618 -2.8442
  509TMC3    H2 7569   4.265   0.399  15.584 -1.6317  1.8536  0.5684
  509TMC3    C7 7570   4.075   0.219  15.519 -0.5518 -0.3794 -0.5769
  509TMC3    C8 7571   4.370   0.600  15.447 -0.0119 -0.8117  0.2054
  509TMC3    O1 7572   4.018   0.124  15.467  0.3659  0.4046  0.4522
  509TMC3    O2 7573   4.456   0.554  15.521 -0.3569  0.0674  0.2599
  510MPD2     C 7574   2.196   1.903  13.967  0.2010  0.4584 -0.5084
  510MPD2    C1 7575   2.242   1.808  14.058  0.3050  0.0769  0.2961
  510MPD2    C2 7576   2.353   1.728  14.025  0.7421 -0.5649 -0.2876
  510MPD2    C3 7577   2.415   1.745  13.900 -0.6072  0.5220 -0.1383
  510MPD2    C4 7578   2.365   1.843  13.813 -0.8031 -0.4067 -0.4361
  510MPD2    C5 7579   2.261   1.917  13.847 -0.5097 -0.9326  0.0382
  510MPD2     H 7580   2.391   1.652  14.092  0.6509 -1.3679 -1.1502
  510MPD2    H1 7581   2.406   1.849  13.713  0.9791 -0.5621  0.2856
  510MPD2    H2 7582   2.103   1.958  13.977  0.0898  0.4048 -1.2979
  510MPD2    H3 7583   2.212   1.964  13.762  2.7399  0.6618 -0.9341
  510MPD2     N 7584   2.535   1.676  13.868 -0.1352 -0.0512 -0.0294
  510MPD2    H5 7585   2.570   1.620  13.944 -0.3674  0.8328  0.7284
  510MPD2    N1 7586   2.174   1.776  14.181 -0.1861  0.2268  0.0425
  510MPD2    H7 7587   2.207   1.699  14.238 -2.3194  0.3723  1.4383
  511TMC3    C1 7588   1.988   1.792  14.343  0.3063  0.0317 -0.5253
  511TMC3    C2 7589   1.886   1.877  14.402 -0.1275 -0.2179 -0.1738
  511TMC3    C3 7590   1.768   1.820  14.433  0.2952 -1.4424  0.6407
  511TMC3    C4 7591   1.954   1.665  14.320  0.0480  0.0440  0.6373
  511TMC3    C5 7592   1.839   1.612  14.375  0.2344  0.4318 -0.5321
  511TMC3    C6 7593   1.741   1.689  14.426 -0.3466  0.1075 -0.3874
  511TMC3     C 7594   2.066   1.855  14.232  0.1135  0.0121 -0.1792
  511TMC3     O 7595   2.047   1.974  14.206 -0.2405 -0.4338 -0.1757
  511TMC3     H 7596   1.900   1.984  14.412  0.4487 -0.3658  0.5829
  511TMC3    H1 7597   2.018   1.603  14.257 -0.3369 -0.5938  0.8686
  511TMC3    H2 7598   1.652   1.643  14.468  0.5070 -2.5970 -1.5487
  511TMC3    C7 7599   1.804   1.479  14.318 -0.5386 -0.5983  0.0824
  511TMC3    C8 7600   1.674   1.915  14.491  0.2868  0.1548  0.2430
  511TMC3    O1 7601   1.853   1.444  14.210 -0.3611  0.1430 -0.1088
  511TMC3    O2 7602   1.721   2.009  14.554  0.4146 -0.5238 -0.7138
  512TMC3    C1 7603   0.674   1.346  13.152  0.3339 -0.1743 -0.0597
  512TMC3    C2 7604   0.760   1.284  13.236  0.3737 -0.4349 -0.3689
  512TMC3    C3 7605   0.803   1.158  13.198  0.2168  0.3752 -0.1452
  512TMC3    C4 7606   0.638   1.276  13.041  0.5093  0.0351  0.2861
  512TMC3    C5 7607   0.680   1.150  13.008  0.3632 -0.4941  0.0600
  512TMC3    C6 7608   0.758   1.086  13.089 -0.0470 -0.0140  0.3069
  512TMC3     C 7609   0.640   1.486  13.162  0.0359  0.0357  0.1173
  512TMC3     O 7610   0.659   1.526  13.275 -0.0611 -0.9330  0.1372
  512TMC3     H 7611   0.781   1.326  13.334  1.0709 -4.4232  1.1524
  512TMC3    H1 7612   0.567   1.310  12.966  0.3895 -2.0864 -0.5566
  512TMC3    H2 7613   0.805   0.993  13.060 -0.9361 -1.1173  2.4058
  512TMC3    C7 7614   0.669   1.106  12.868  0.2694 -0.8878  0.0469
  512TMC3    C8 7615   0.926   1.116  13.259  0.0216 -0.0727 -0.2386
  512TMC3    O1 7616   0.671   1.200  12.789  0.0342 -0.4713  0.0069
  512TMC3    O2 7617   0.957   0.999  13.259  0.3021  0.0002  0.6153
  513MPD2     C 7618   2.573   0.994  12.933 -0.3601 -0.0957  0.3544
  513MPD2    C1 7619   2.649   0.961  12.821 -0.0361 -0.0738 -0.5248
  513MPD2    C2 7620   2.740   1.052  12.775 -0.4849 -0.0607 -1.1151
  513MPD2    C3 7621   2.777   1.163  12.844  0.3435  0.5342 -0.6741
  513MPD2    C4 7622   2.701   1.199  12.952 -0.5532 -0.2321  0.4392
  513MPD2    C5 7623   2.607   1.110  13.005  0.1294  0.1944 -0.2158
  513MPD2     H 7624   2.783   1.035  12.677  2.1190 -2.5086  0.4607
  513MPD2    H1 7625   2.729   1.282  13.016  0.1405  2.0550 -2.8265
  513MPD2    H2 7626   2.494   0.930  12.971 -0.3336 -1.5116 -2.0099
  513MPD2    H3 7627   2.563   1.130  13.102  0.6147  2.7639 -0.5169
  513MPD2     N 7628   2.886   1.233  12.791  0.5071  0.1471  0.6360
  513MPD2    H5 7629   2.929   1.192  12.709 -1.5412 -2.6900  0.9682
  513MPD2    N1 7630   2.624   0.854  12.731  0.4016  0.0605 -0.2240
  513MPD2    H7 7631   2.669   0.858  12.640 -1.4999  1.6623 -1.0934
  514TMC3    C1 7632   2.517   0.669  12.657 -0.0932  0.2834 -0.1802
  514TMC3    C2 7633   2.460   0.741  12.546 -0.0747  0.6686 -0.0540
  514TMC3    C3 7634   2.487   0.699  12.424 -0.0024  0.0141  0.4734
  514TMC3    C4 7635   2.604   0.567  12.636 -0.0346  0.0083  0.5423
  514TMC3    C5 7636   2.635   0.539  12.509  0.6696  0.3080  0.8405
  514TMC3    C6 7637   2.579   0.599  12.398 -0.1785 -0.4358  0.5927
  514TMC3     C 7638   2.544   0.749  12.767 -0.6188 -0.2333 -0.0736
  514TMC3     O 7639   2.521   0.708  12.874  0.0672  0.2488 -0.1305
  514TMC3     H 7640   2.400   0.830  12.560 -0.9174 -0.2899  2.3023
  514TMC3    H1 7641   2.650   0.518  12.721 -0.1138  1.4857  1.4506
  514TMC3    H2 7642   2.614   0.581  12.297 -0.7586  0.0634  0.2993
  514TMC3    C7 7643   2.775   0.501  12.496 -0.1428 -0.0199 -1.0557
  514TMC3    C8 7644   2.453   0.781  12.312 -0.0881 -0.6977 -0.5571
  514TMC3    O1 7645   2.796   0.388  12.538 -0.1031  0.2920  0.3167
  514TMC3    O2 7646   2.526   0.785  12.211  0.1397 -0.1522  0.0648
  515MPD2     C 7647   0.686   3.537  15.218 -0.4655  0.3360  0.7340
  515MPD2    C1 7648   0.702   3.484  15.098  0.3271 -0.3892  0.0742
  515MPD2    C2 7649   0.817   3.503  15.031  0.4306  0.3917  0.7942
  515MPD2    C3 7650   0.918   3.575  15.086 -0.7488  0.1937 -0.0482
  515MPD2    C4 7651   0.892   3.643  15.203  0.4639 -0.0217 -0.3635
  515MPD2    C5 7652   0.776   3.620  15.270 -0.3180 -0.0192 -0.4305
  515MPD2     H 7653   0.829   3.439  14.944 -1.5402 -0.8823  1.4453
  515MPD2    H1 7654   0.970   3.697  15.256  0.6031  2.2900 -2.9378
  515MPD2    H2 7655   0.598   3.517  15.278 -1.1276  1.8701  0.2639
  515MPD2    H3 7656   0.758   3.661  15.369  0.8929 -0.8426  0.1228
  515MPD2     N 7657   1.043   3.576  15.026  0.1676  0.5529  0.2155
  515MPD2    H5 7658   1.114   3.603  15.093  1.0123 -1.6086  0.1789
  515MPD2    N1 7659   0.622   3.380  15.059 -0.2677  0.2558  0.5597
  515MPD2    H7 7660   0.632   3.339  14.967  2.4539 -0.2118  1.0572
  516TMC3    C1 7661   0.491   3.197  15.060  0.0423 -0.2140 -0.2090
  516TMC3    C2 7662   0.462   3.215  14.926  0.3624 -0.2931  0.2986
  516TMC3    C3 7663   0.483   3.106  14.850  0.0502  0.2298 -0.3502
  516TMC3    C4 7664   0.530   3.076  15.118 -0.5806 -0.0338  0.0297
  516TMC3    C5 7665   0.549   2.975  15.031  0.1153  0.0170  0.7665
  516TMC3    C6 7666   0.529   2.986  14.891 -0.9672 -0.1546 -0.6709
  516TMC3     C 7667   0.529   3.322  15.132 -0.2454 -0.1271 -0.3187
  516TMC3     O 7668   0.500   3.319  15.247 -0.3397 -0.7815 -0.3995
  516TMC3     H 7669   0.434   3.312  14.885 -0.9197 -0.2123  1.3600
  516TMC3    H1 7670   0.547   3.059  15.223 -1.4058 -1.1033 -0.0110
  516TMC3    H2 7671   0.553   2.903  14.826  1.7581  0.3453 -0.3001
  516TMC3    C7 7672   0.622   2.854  15.067 -0.5001  0.1165  0.1527
  516TMC3    C8 7673   0.455   3.113  14.709 -0.2888  0.4181 -0.2395
  516TMC3    O1 7674   0.606   2.750  15.005  0.2886 -0.6615 -0.1837
  516TMC3    O2 7675   0.453   3.010  14.650 -0.1675  0.1707  0.8971
  517MPD2     C 7676   0.180   4.188  17.244  0.5127  0.2090 -0.0505
  517MPD2    C1 7677   0.305   4.195  17.301  0.0828 -0.5710 -0.1164
  517MPD2    C2 7678   0.341   4.280  17.402 -0.0816 -0.4628 -0.4310
  517MPD2    C3 7679   0.256   4.382  17.447  0.5463 -0.3745 -0.6026
  517MPD2    C4 7680   0.131   4.380  17.387  0.0364  0.2727 -1.2193
  517MPD2    C5 7681   0.096   4.291  17.287 -0.2258 -0.2812 -0.6070
  517MPD2     H 7682   0.439   4.279  17.448  0.1631 -0.2496 -0.9434
  517MPD2    H1 7683   0.053   4.442  17.430  0.2933 -0.9322  1.0006
  517MPD2    H2 7684   0.136   4.116  17.176  0.7226  0.0592 -0.0283
  517MPD2    H3 7685   4.711   4.291  17.251 -1.0023  1.8828  1.5742
  517MPD2     N 7686   0.270   4.470  17.554 -0.7189  0.8041  0.4218
  517MPD2    H5 7687   0.186   4.525  17.568 -0.3968  1.1951  0.8368
  517MPD2    N1 7688   0.405   4.098  17.268 -0.3252  0.4972 -0.2057
  517MPD2    H7 7689   0.492   4.096  17.319  0.2604 -2.8953 -1.3336
  518TMC3    C1 7690   0.503   3.904  17.173 -0.6412  0.4696 -0.4650
  518TMC3    C2 7691   0.485   3.782  17.116  0.7375  0.5834 -0.9577
  518TMC3    C3 7692   0.593   3.691  17.125 -0.0675 -0.1602  0.4763
  518TMC3    C4 7693   0.619   3.951  17.228  0.2745 -0.1805  0.1250
  518TMC3    C5 7694   0.729   3.868  17.209  0.3486 -0.2153  0.0181
  518TMC3    C6 7695   0.712   3.736  17.175  0.1515 -0.2489 -0.2733
  518TMC3     C 7696   0.386   3.997  17.173 -0.0999  0.9615 -1.3808
  518TMC3     O 7697   0.291   3.966  17.106  0.4246 -0.0219  0.0588
  518TMC3     H 7698   0.387   3.758  17.077 -0.1778  3.0506 -0.1742
  518TMC3    H1 7699   0.632   4.058  17.218  0.0328  0.0148  1.8859
  518TMC3    H2 7700   0.796   3.668  17.180 -0.2506 -0.8182 -1.3844
  518TMC3    C7 7701   0.859   3.917  17.238  0.0296 -0.0068  0.1431
  518TMC3    C8 7702   0.579   3.563  17.057 -0.1436  0.1917  0.0898
  518TMC3    O1 7703   0.866   3.996  17.329 -0.0584  0.3121  0.0940
  518TMC3    O2 7704   0.645   3.470  17.106  0.1547 -0.3490 -0.0951
  519MPD2     C 7705   1.930   2.774  14.173 -0.5717  0.2648 -1.0243
  519MPD2    C1 7706   1.918   2.778  14.037  0.3588  0.1243 -0.3247
  519MPD2    C2 7707   1.985   2.685  13.958  0.0142 -0.0930 -0.0424
  519MPD2    C3 7708   2.042   2.574  14.011  0.0486 -0.4408  0.3672
  519MPD2    C4 7709   2.041   2.569  14.153  0.2997 -0.0686  0.4579
  519MPD2    C5 7710   1.996   2.668  14.230 -0.6027 -0.4877 -0.4213
  519MPD2     H 7711   1.988   2.694  13.850  0.4066 -1.5347 -0.1528
  519MPD2    H1 7712   2.085   2.483  14.202 -0.7157 -0.5834  0.4625
  519MPD2    H2 7713   1.897   2.859  14.232 -0.3957 -1.2924  1.3202
  519MPD2    H3 7714   1.997   2.663  14.338  1.2913 -0.7799 -0.4462
  519MPD2     N 7715   2.099   2.477  13.929  0.1709  0.6081  0.5341
  519MPD2    H5 7716   2.087   2.493  13.830  0.7686  0.3854  0.4298
  519MPD2    N1 7717   1.859   2.896  13.987  0.0997  0.6528  0.3524
  519MPD2    H7 7718   1.810   2.957  14.051  0.4843  0.6138  0.6841
  520TMC3    C1 7719   2.213   2.285  13.856  0.6339 -0.3697 -0.2695
  520TMC3    C2 7720   2.170   2.295  13.726 -0.5911 -0.3589  0.3715
  520TMC3    C3 7721   2.263   2.266  13.623  0.1268  0.2111  0.6184
  520TMC3    C4 7722   2.337   2.234  13.887 -0.1310 -0.5191  0.5297
  520TMC3    C5 7723   2.426   2.202  13.782  0.5611  0.1357  1.0247
  520TMC3    C6 7724   2.386   2.216  13.656 -0.1451  0.3455  0.1989
  520TMC3     C 7725   2.159   2.358  13.968  0.0436  0.2879  0.4781
  520TMC3     O 7726   2.206   2.316  14.077 -0.8568 -0.1649  0.5213
  520TMC3     H 7727   2.070   2.330  13.708  0.5613  1.9493 -1.4385
  520TMC3    H1 7728   2.376   2.227  13.988  0.4763  0.0110  0.3340
  520TMC3    H2 7729   2.449   2.190  13.572 -0.7250 -2.1654  0.5188
  520TMC3    C7 7730   2.549   2.130  13.809  0.0054 -0.8321 -0.1779
  520TMC3    C8 7731   2.230   2.278  13.481  0.3498 -0.2510  0.2629
  520TMC3    O1 7732   2.558   2.085  13.922 -0.0404 -0.1155 -0.1811
  520TMC3    O2 7733   2.321   2.283  13.395  0.1400 -0.0980 -0.3701
  521MPD2     C 7734   2.734   0.786  17.441 -0.3692  0.3903 -0.0713
  521MPD2    C1 7735   2.724   0.767  17.302  0.5783 -0.5574 -0.8082
  521MPD2    C2 7736   2.824   0.817  17.220 -0.5584  0.3969  0.5612
  521MPD2    C3 7737   2.937   0.872  17.266  0.6641  0.1723 -0.1338
  521MPD2    C4 7738   2.943   0.891  17.397  0.1260 -0.5632  0.1296
  521MPD2    C5 7739   2.845   0.850  17.480 -0.4320  0.0790  0.3755
  521MPD2     H 7740   2.809   0.805  17.113  1.1952  1.2707  0.2163
  521MPD2    H1 7741   3.034   0.929  17.441 -1.3133  2.4366  0.4835
  521MPD2    H2 7742   2.669   0.741  17.515 -0.3088  1.6199  0.7371
  521MPD2    H3 7743   2.871   0.859  17.585 -0.6372  0.9449  0.3505
  521MPD2     N 7744   3.040   0.903  17.170  0.5363  0.2915 -0.9202
  521MPD2    H5 7745   3.021   0.877  17.074 -2.2693  2.3346 -0.9086
  521MPD2    N1 7746   2.606   0.693  17.265 -0.3767  0.2164 -0.6572
  521MPD2    H7 7747   2.534   0.674  17.334  0.7860 -0.1133  0.4657
  522TMC3    C1 7748   3.240   0.976  17.089  0.0812 -0.3187  0.3017
  522TMC3    C2 7749   3.367   0.953  17.126 -0.6167 -0.6344 -0.3568
  522TMC3    C3 7750   3.455   0.915  17.032  0.8523 -0.1658 -0.6116
  522TMC3    C4 7751   3.187   0.956  16.964 -0.5909  0.5768 -0.3106
  522TMC3    C5 7752   3.283   0.914  16.864  0.2369  1.4211  0.2412
  522TMC3    C6 7753   3.419   0.907  16.895  0.2738 -0.2237 -0.3948
  522TMC3     C 7754   3.155   0.973  17.207 -0.7740 -0.2018  0.8224
  522TMC3     O 7755   3.189   1.014  17.319  0.5358  0.8156 -0.3842
  522TMC3     H 7756   3.398   0.967  17.229  0.0767  0.5418 -0.7241
  522TMC3    H1 7757   3.090   0.998  16.943 -0.5457  1.2539  0.8222
  522TMC3    H2 7758   3.488   0.875  16.818 -0.5449  0.3552 -1.3720
  522TMC3    C7 7759   3.248   0.933  16.725 -0.5921  0.2267 -0.2067
  522TMC3    C8 7760   3.572   0.849  17.079 -1.2217 -0.6039  0.2099
  522TMC3    O1 7761   3.343   0.961  16.650  0.2362  1.0582 -0.0449
  522TMC3    O2 7762   3.577   0.841  17.202 -0.2048 -0.0953  0.0403
  523MPD2     C 7763   0.669   0.298  10.042  0.0044 -0.3770 -0.4503
  523MPD2    C1 7764   0.608   0.244   9.928  0.3981 -0.2143  0.2708
  523MPD2    C2 7765   0.572   0.326   9.819  0.5276 -0.0272  0.4661
  523MPD2    C3 7766   0.583   0.465   9.835  0.2309 -0.0885 -0.0664
  523MPD2    C4 7767   0.647   0.524   9.947 -0.6127  0.0274  0.0821
  523MPD2    C5 7768   0.689   0.440  10.048 -0.4934 -0.5484 -0.2567
  523MPD2     H 7769   0.514   0.289   9.736 -1.9858  0.1482  2.1627
  523MPD2    H1 7770   0.660   0.630   9.964  0.0537 -0.1413  0.6230
  523MPD2    H2 7771   0.683   0.240  10.133  0.1112 -0.0153 -0.2393
  523MPD2    H3 7772   0.733   0.479  10.139 -0.9293 -0.6949  0.0158
  523MPD2     N 7773   0.549   0.556   9.735  0.3046  0.2115  0.0274
  523MPD2    H5 7774   0.567   0.655   9.749  0.4719  0.3017 -0.8218
  523MPD2    N1 7775   0.584   0.104   9.930  0.1803 -1.0513 -0.0731
  523MPD2    H7 7776   0.613   0.065  10.020 -1.1694 -1.1761  0.3068
  524TMC3    C1 7777   0.446   0.639   9.532  0.6062 -0.5268  0.3352
  524TMC3    C2 7778   0.444   0.637   9.397 -0.2243  0.5310  0.1623
  524TMC3    C3 7779   0.348   0.713   9.341 -0.4240  0.5975  0.4853
  524TMC3    C4 7780   0.376   0.724   9.616 -0.0593  0.0529  0.7935
  524TMC3    C5 7781   0.287   0.805   9.556 -0.0663  0.8850  0.2470
  524TMC3    C6 7782   0.266   0.792   9.416 -0.2823  0.1551 -0.3234
  524TMC3     C 7783   0.511   0.527   9.604 -0.2551  0.2116  0.4820
  524TMC3     O 7784   0.519   0.419   9.545  0.1924 -0.2109 -0.2146
  524TMC3     H 7785   0.492   0.550   9.354  1.2692  0.9523  0.9818
  524TMC3    H1 7786   0.393   0.737   9.722  0.5608  1.3745  0.5237
  524TMC3    H2 7787   0.186   0.838   9.359  0.4154 -0.0499 -1.4502
  524TMC3    C7 7788   0.206   0.886   9.639 -0.4721  0.2109 -0.9690
  524TMC3    C8 7789   0.303   0.686   9.202  0.2217 -0.2961  0.0069
  524TMC3    O1 7790   0.209   0.853   9.758 -0.0712  0.0970 -0.3539
  524TMC3    O2 7791   0.214   0.755   9.159 -0.3412  0.6155 -0.1299
  525MPD2     C 7792   4.240   2.522  14.346 -0.4230 -0.4365 -0.6012
  525MPD2    C1 7793   4.103   2.498  14.346 -0.7522  0.1062  0.0414
  525MPD2    C2 7794   4.033   2.575  14.257 -0.3480  0.2161  0.4538
  525MPD2    C3 7795   4.095   2.682  14.186 -0.6666  0.0512 -0.1441
  525MPD2    C4 7796   4.228   2.701  14.197 -0.6484  0.5375  0.3319
  525MPD2    C5 7797   4.303   2.618  14.273 -0.1989  0.7613 -0.2923
  525MPD2     H 7798   3.926   2.558  14.252 -0.4127  0.6374  0.4419
  525MPD2    H1 7799   4.295   2.774  14.153 -0.4776  0.4759  0.4916
  525MPD2    H2 7800   4.308   2.476  14.417 -1.2022 -1.9583 -0.8350
  525MPD2    H3 7801   4.411   2.626  14.281 -0.1101  0.1044 -0.8054
  525MPD2     N 7802   4.015   2.766  14.103  0.0974  0.3485  0.3761
  525MPD2    H5 7803   4.062   2.851  14.073 -0.0354  0.1816 -0.3179
  525MPD2    N1 7804   4.057   2.386  14.420  0.2892 -0.2712  0.1334
  525MPD2    H7 7805   4.116   2.322  14.472  0.6081  0.4089  0.6114
  526TMC3    C1 7806   3.901   2.242  14.520  0.0917  0.0637  0.1555
  526TMC3    C2 7807   3.770   2.225  14.544  0.0210  0.1489 -0.1232
  526TMC3    C3 7808   3.735   2.161  14.661 -0.0818  0.8197 -0.0661
  526TMC3    C4 7809   4.000   2.201  14.611 -0.1313  0.1137 -0.7192
  526TMC3    C5 7810   3.958   2.135  14.726  0.5988 -0.1375 -0.4424
  526TMC3    C6 7811   3.828   2.117  14.756  0.6563 -0.3957  0.2340
  526TMC3     C 7812   3.924   2.356  14.436  0.2157  0.6344  0.0592
  526TMC3     O 7813   3.824   2.413  14.399  0.5075 -1.0164  0.0593
  526TMC3     H 7814   3.689   2.244  14.475 -0.4034  2.8195  1.1155
  526TMC3    H1 7815   4.105   2.225  14.600  0.3434 -1.8566 -0.4464
  526TMC3    H2 7816   3.790   2.059  14.840 -2.4959 -1.1391 -1.7224
  526TMC3    C7 7817   4.033   2.024  14.777 -0.0200 -0.6201  0.5075
  526TMC3    C8 7818   3.610   2.088  14.665  0.5077  0.0052 -0.0344
  526TMC3    O1 7819   4.006   1.992  14.893  0.2473  0.2160  0.2168
  526TMC3    O2 7820   3.568   2.056  14.555  0.0001 -0.3947 -0.1968
  527MPD2     C 7821   1.148   0.282   0.849 -0.1524 -0.4708  0.1513
  527MPD2    C1 7822   1.256   0.369   0.886  0.3655 -0.1673  0.1829
  527MPD2    C2 7823   1.389   0.321   0.885  0.2353 -0.3718 -0.1993
  527MPD2    C3 7824   1.418   0.190   0.850  0.3256  0.5667  0.3676
  527MPD2    C4 7825   1.312   0.107   0.832  0.7685 -0.0828  0.7026
  527MPD2    C5 7826   1.185   0.160   0.809  0.2716 -0.3770 -0.9544
  527MPD2     H 7827   1.470   0.391   0.899  0.1994 -0.2496 -0.5953
  527MPD2    H1 7828   1.326   0.004   0.801  1.6630  0.4446 -0.6740
  527MPD2    H2 7829   1.045   0.311   0.836 -0.3601 -1.0184  0.6143
  527MPD2    H3 7830   1.108   0.087   0.786 -0.4718 -0.4304  1.7429
  527MPD2     N 7831   1.551   0.147   0.831  0.5584  0.1116  0.2392
  527MPD2    H5 7832   1.622   0.213   0.803  0.0275  0.7945  0.5147
  527MPD2    N1 7833   1.245   0.507   0.919  0.0777  0.6436  0.8069
  527MPD2    H7 7834   1.327   0.559   0.947 -0.3364  1.2068  0.9760
  528TMC3    C1 7835   1.108   0.692   0.986 -0.4580 -0.1356 -0.7187
  528TMC3    C2 7836   1.185   0.715   1.102  0.3697  0.0168  0.9186
  528TMC3    C3 7837   1.143   0.823   1.178 -0.5054  0.1198 -0.6927
  528TMC3    C4 7838   0.993   0.760   0.958 -0.3732  0.1747 -0.0070
  528TMC3    C5 7839   0.960   0.865   1.033  0.0188  0.9814 -0.4489
  528TMC3    C6 7840   1.033   0.893   1.141  0.1155  0.3484 -0.8654
  528TMC3     C 7841   1.124   0.571   0.901 -0.4725 -0.0484  0.5008
  528TMC3     O 7842   1.030   0.535   0.837 -0.5249  0.2774  0.4576
  528TMC3     H 7843   1.267   0.647   1.123 -1.0504 -1.5215  1.4561
  528TMC3    H1 7844   0.927   0.717   0.883 -0.1284  0.0657 -0.1618
  528TMC3    H2 7845   0.997   0.967   1.213 -1.0287 -0.7304 -0.3149
  528TMC3    C7 7846   0.816   0.881   1.041 -0.2116 -0.1642 -0.8957
  528TMC3    C8 7847   1.220   0.857   1.297  0.4424  0.2245  0.8041
  528TMC3    O1 7848   0.754   0.875   0.936 -0.3073  0.5259 -0.0926
  528TMC3    O2 7849   1.212   0.976   1.330 -0.5805 -0.2934 -0.5656
  529MPD2     C 7850   3.690   4.295   0.377 -0.4940  0.5183 -0.4087
  529MPD2    C1 7851   3.696   4.171   0.321  0.3615 -0.3306  0.1103
  529MPD2    C2 7852   3.657   4.139   0.194 -0.5072 -0.2233  0.0600
  529MPD2    C3 7853   3.586   4.243   0.129 -0.4864  0.7187  0.1398
  529MPD2    C4 7854   3.589   4.369   0.182 -0.8754  0.4059  0.4120
  529MPD2    C5 7855   3.644   4.400   0.301  0.8865  0.6412 -0.6005
  529MPD2     H 7856   3.658   4.039   0.152 -1.0096 -0.7256  1.2371
  529MPD2    H1 7857   3.538   4.444   0.123 -2.2720  1.6933  3.2652
  529MPD2    H2 7858   3.718   4.319   0.479  0.1807 -2.5794  0.1533
  529MPD2    H3 7859   3.624   4.500   0.338 -2.2790 -0.2129 -0.0667
  529MPD2     N 7860   3.515   4.227   0.006  0.1499 -0.4997 -0.2219
  529MPD2    H5 7861   3.455   4.301  17.642 -2.7284 -3.1815 -0.9266
  529MPD2    N1 7862   3.761   4.061   0.386  0.3087 -0.0728  0.5811
  529MPD2    H7 7863   3.762   3.975   0.333 -2.0754  0.9771 -1.1395
  530TMC3    C1 7864   3.894   3.933   0.531 -0.4654 -0.2647 -0.1264
  530TMC3    C2 7865   3.934   3.908   0.661  0.0706  0.1519  0.0313
  530TMC3    C3 7866   3.979   3.780   0.685 -0.2858 -1.0612 -0.5088
  530TMC3    C4 7867   3.915   3.835   0.428 -0.0105  0.2159 -0.0407
  530TMC3    C5 7868   3.971   3.714   0.452  0.5220  0.4228  0.1069
  530TMC3    C6 7869   3.988   3.680   0.586 -0.0243  0.2054  0.5584
  530TMC3     C 7870   3.808   4.056   0.512 -0.3285 -0.6475 -0.0818
  530TMC3     O 7871   3.799   4.128   0.609 -0.6529 -0.3807  0.0794
  530TMC3     H 7872   3.924   3.980   0.741  2.4501 -0.0486  0.5127
  530TMC3    H1 7873   3.910   3.864   0.324 -1.1154  0.1916  0.0056
  530TMC3    H2 7874   4.036   3.584   0.602  1.0809  0.8749  1.2884
  530TMC3    C7 7875   4.039   3.644   0.338  0.2013 -0.2805  0.0032
  530TMC3    C8 7876   4.036   3.750   0.818 -0.3148 -0.8366  0.6897
  530TMC3    O1 7877   4.049   3.708   0.233  0.0327  0.4142 -0.4885
  530TMC3    O2 7878   3.969   3.793   0.909 -0.1099 -0.2125 -0.8523
  531MPD2     C 7879   3.256   0.648  12.609  0.5825  0.7565  0.4437
  531MPD2    C1 7880   3.175   0.762  12.601 -0.2626  0.4544 -0.3762
  531MPD2    C2 7881   3.049   0.734  12.563 -0.1303  0.2373  0.7118
  531MPD2    C3 7882   2.999   0.610  12.539  0.1819  0.6196 -0.0472
  531MPD2    C4 7883   3.079   0.499  12.556 -0.3859  0.2591  0.1364
  531MPD2    C5 7884   3.207   0.518  12.585  0.6098  0.6297 -0.1768
  531MPD2     H 7885   2.978   0.815  12.547  0.8677  0.9691 -0.0063
  531MPD2    H1 7886   3.045   0.396  12.543  2.1536 -0.5626 -0.0026
  531MPD2    H2 7887   3.359   0.665  12.639  1.5625 -0.8232 -2.0661
  531MPD2    H3 7888   3.271   0.432  12.602  0.2004  0.0867 -1.3909
  531MPD2     N 7889   2.859   0.608  12.508  0.3187  0.4797 -0.3263
  531MPD2    H5 7890   2.812   0.698  12.502 -2.4873 -0.9758  0.3461
  531MPD2    N1 7891   3.206   0.890  12.654 -0.2935 -0.7268 -0.3574
  531MPD2    H7 7892   3.301   0.904  12.688 -0.3911 -1.1737  0.0989
  532TMC3    C1 7893   3.185   1.115  12.711 -0.1476 -0.6340  0.5958
  532TMC3    C2 7894   3.111   1.236  12.710  0.2221  0.3593  0.1975
  532TMC3    C3 7895   3.101   1.313  12.818  0.5873 -0.2707  0.0024
  532TMC3    C4 7896   3.256   1.083  12.823 -0.6432  0.9586  0.5171
  532TMC3    C5 7897   3.252   1.171  12.927  0.0496  0.3143  0.1684
  532TMC3    C6 7898   3.173   1.282  12.931 -0.0980  0.7749 -0.2743
  532TMC3     C 7899   3.135   1.004  12.630 -0.2814  0.6992 -0.5226
  532TMC3     O 7900   3.032   1.026  12.568 -0.2639  0.2803  1.2083
  532TMC3     H 7901   3.053   1.253  12.620  2.2762 -1.2488 -1.4212
  532TMC3    H1 7902   3.327   1.001  12.836 -0.1533  1.0985 -1.3362
  532TMC3    H2 7903   3.166   1.354  13.012 -0.1627  0.4441  0.0117
  532TMC3    C7 7904   3.327   1.151  13.049  0.1172  0.7509  0.4002
  532TMC3    C8 7905   2.961   1.331  12.858  0.0038 -0.1541 -0.3831
  532TMC3    O1 7906   3.358   1.248  13.113  0.1130  0.0000 -0.8249
  532TMC3    O2 7907   2.929   1.399  12.954 -0.1015 -0.4405 -0.1961
  533TMC3    C1 7908   3.816   2.843  13.993  0.3396  0.5384  0.6384
  533TMC3    C2 7909   3.870   2.966  13.957  0.2992 -0.8288 -0.7890
  533TMC3    C3 7910   3.786   3.077  13.968 -0.2887  0.1243 -0.9202
  533TMC3    C4 7911   3.683   2.836  14.030 -1.0186  0.2137 -0.9607
  533TMC3    C5 7912   3.611   2.951  14.049 -0.2230  0.2982  0.1813
  533TMC3    C6 7913   3.662   3.076  14.025  0.0341 -0.0047 -0.9035
  533TMC3     C 7914   3.892   2.730  14.055 -0.0386  0.2071 -0.5944
  533TMC3     O 7915   3.846   2.615  14.040  0.3427  0.4897 -0.0238
  533TMC3     H 7916   3.976   2.976  13.938  0.3672 -0.0029  0.0212
  533TMC3    H1 7917   3.637   2.744  14.065 -1.9089  0.9084 -0.2966
  533TMC3    H2 7918   3.603   3.167  14.024 -0.9814 -0.6313  3.3312
  533TMC3    C7 7919   3.529   2.939  14.169  0.2548 -0.5100  0.3845
  533TMC3    C8 7920   3.858   3.197  14.001 -0.2811 -0.2348 -0.0293
  533TMC3    O1 7921   3.493   2.827  14.203 -0.0789  0.1263  0.1379
  533TMC3    O2 7922   3.819   3.250  14.103  0.9641  0.2341  0.1871
  534MPD2     C 7923   1.992   3.789   0.934  0.8425 -0.6686  0.0571
  534MPD2    C1 7924   1.890   3.879   0.958  0.0206  0.6651 -0.7385
  534MPD2    C2 7925   1.772   3.870   0.885 -0.5381  0.0243  0.4297
  534MPD2    C3 7926   1.754   3.772   0.789 -0.7892 -0.1464 -0.2144
  534MPD2    C4 7927   1.857   3.689   0.768  0.1568 -0.2863 -0.0085
  534MPD2    C5 7928   1.974   3.695   0.836 -0.0658 -0.8215 -0.4861
  534MPD2     H 7929   1.698   3.945   0.911  0.4535  0.3559  2.3747
  534MPD2    H1 7930   1.843   3.608   0.697 -0.9621  2.0102 -2.3936
  534MPD2    H2 7931   2.079   3.793   0.998 -0.0103  0.3178  1.1660
  534MPD2    H3 7932   2.054   3.625   0.815  0.5006 -0.0187 -1.0331
  534MPD2     N 7933   1.634   3.754   0.712  0.5309 -1.8426  0.1841
  534MPD2    H5 7934   1.641   3.679   0.644  1.3753 -1.6694  0.0756
  534MPD2    N1 7935   1.905   3.986   1.051  0.6234  0.1202 -1.0637
  534MPD2    H7 7936   1.820   4.041   1.057  0.4491 -0.1032 -1.4492
  535TMC3    C1 7937   1.409   3.814   0.635 -0.4341  0.4284  0.1502
  535TMC3    C2 7938   1.300   3.878   0.680 -0.5820 -0.2571 -0.0986
  535TMC3    C3 7939   1.202   3.911   0.592  0.3184  0.3919  0.8248
  535TMC3    C4 7940   1.424   3.779   0.502 -0.1130  0.0321 -0.3143
  535TMC3    C5 7941   1.318   3.809   0.418 -0.0923  0.1163  0.2952
  535TMC3    C6 7942   1.205   3.875   0.457 -0.3955 -0.0498 -0.1171
  535TMC3     C 7943   1.522   3.823   0.731 -0.2888 -0.0021  0.3869
  535TMC3     O 7944   1.497   3.893   0.829  0.2692 -0.2522  0.6243
  535TMC3     H 7945   1.276   3.893   0.785 -0.8818  1.3394 -0.3922
  535TMC3    H1 7946   1.512   3.740   0.453 -0.9883 -0.6729 -1.3092
  535TMC3    H2 7947   1.132   3.912   0.387 -1.5350 -1.9815  0.0340
  535TMC3    C7 7948   1.351   3.817   0.277 -0.5971  0.0998  0.3177
  535TMC3    C8 7949   1.073   3.950   0.645  1.1085  0.3099  0.2747
  535TMC3    O1 7950   1.470   3.819   0.248  0.7635  0.1631 -0.0578
  535TMC3    O2 7951   0.978   3.942   0.568 -0.1207 -0.4861  0.3429
  536MPD2     C 7952   0.699   2.300  15.856  0.2679 -0.0204 -0.3719
  536MPD2    C1 7953   0.584   2.232  15.902  0.1728 -0.1809  0.0480
  536MPD2    C2 7954   0.471   2.238  15.817 -0.3152 -0.9618 -0.6114
  536MPD2    C3 7955   0.470   2.312  15.698  0.3525  0.1619 -0.2131
  536MPD2    C4 7956   0.578   2.390  15.667  0.0717 -0.1543  0.1624
  536MPD2    C5 7957   0.693   2.380  15.745  0.7399 -0.1070  0.0367
  536MPD2     H 7958   0.387   2.174  15.842 -0.4904 -0.8663 -0.9618
  536MPD2    H1 7959   0.591   2.448  15.576  1.7490 -0.7301  0.0382
  536MPD2    H2 7960   0.787   2.289  15.917  1.1902 -0.6380 -1.8166
  536MPD2    H3 7961   0.782   2.430  15.707  1.5630 -2.4300 -1.0894
  536MPD2     N 7962   0.356   2.315  15.609 -0.8227 -0.1692 -0.5784
  536MPD2    H5 7963   0.352   2.392  15.542  2.8302 -0.1892 -0.8015
  536MPD2    N1 7964   0.589   2.158  16.019  0.4342 -0.4980  0.5141
  536MPD2    H7 7965   0.668   2.162  16.083  0.8957 -2.2694  0.0630
  537TMC3    C1 7966   0.509   2.022  16.204 -0.3137  1.2339  0.2460
  537TMC3    C2 7967   0.551   2.113  16.295 -0.4724  0.7511 -0.2950
  537TMC3    C3 7968   0.481   2.127  16.418 -0.3599 -0.6966  1.0173
  537TMC3    C4 7969   0.395   1.952  16.235 -0.5828 -0.5959 -0.3790
  537TMC3    C5 7970   0.341   1.949  16.358 -0.1820  1.1825  0.3793
  537TMC3    C6 7971   0.385   2.036  16.453  0.4076 -0.4187 -0.0152
  537TMC3     C 7972   0.484   2.079  16.067  0.2921 -0.3348  0.6655
  537TMC3     O 7973   0.390   2.027  16.010 -0.2206  0.1485  0.0114
  537TMC3     H 7974   0.631   2.183  16.272  1.4038 -1.3517 -0.1021
  537TMC3    H1 7975   0.372   1.876  16.161 -3.9527  2.1348 -2.1835
  537TMC3    H2 7976   0.358   2.027  16.558 -1.5461  0.5136 -0.4324
  537TMC3    C7 7977   0.208   1.888  16.376 -0.2164  0.1592 -0.1283
  537TMC3    C8 7978   0.549   2.185  16.531  0.6235  0.4270 -0.6467
  537TMC3    O1 7979   0.145   1.889  16.270 -1.0838 -0.3103 -0.0468
  537TMC3    O2 7980   0.670   2.183  16.533 -0.3553  0.2693 -0.2106
  538TMC3    C1 7981   1.320   0.516  10.847 -0.4759 -0.2905 -0.7158
  538TMC3    C2 7982   1.374   0.405  10.794  0.0594  0.1025 -0.3517
  538TMC3    C3 7983   1.319   0.352  10.681  0.5547  0.7604  0.0924
  538TMC3    C4 7984   1.207   0.582  10.792 -0.6320  0.7200 -0.7125
  538TMC3    C5 7985   1.160   0.529  10.668 -0.5122 -0.5362  0.0117
  538TMC3    C6 7986   1.224   0.423  10.608  0.2283  0.3315  0.4018
  538TMC3     C 7987   1.362   0.571  10.973  0.2380 -0.1470  0.4126
  538TMC3     O 7988   1.282   0.646  11.034  0.8290  0.2337  0.1288
  538TMC3     H 7989   1.418   0.333  10.861  1.5261 -0.0873 -1.5407
  538TMC3    H1 7990   1.153   0.658  10.847  0.9894  1.7859 -0.5733
  538TMC3    H2 7991   1.183   0.377  10.519  0.1858  0.6480  0.2591
  538TMC3    C7 7992   1.066   0.607  10.590  0.0516  0.1332 -1.2856
  538TMC3    C8 7993   1.386   0.248  10.605 -0.6579  0.1681 -0.0826
  538TMC3    O1 7994   1.011   0.549  10.496  0.1054 -0.3936  0.4143
  538TMC3    O2 7995   1.329   0.195  10.508  0.5569  0.6760  0.5991
  539MPD2     C 7996   1.480   0.084  11.253 -0.0995 -0.3575  0.2644
  539MPD2    C1 7997   1.364   0.027  11.214 -0.0361 -0.5639  0.3469
  539MPD2    C2 7998   1.263   0.112  11.175 -0.0064  0.3094  0.0516
  539MPD2    C3 7999   1.271   0.251  11.194  0.2423 -0.0558  0.9190
  539MPD2    C4 8000   1.387   0.309  11.248 -0.1529  0.1314  0.6610
  539MPD2    C5 8001   1.492   0.217  11.267  0.5751  0.0439  0.3848
  539MPD2     H 8002   1.174   0.069  11.129 -0.3541 -0.9737  1.8992
  539MPD2    H1 8003   1.393   0.410  11.285 -0.6239  0.5839 -0.5007
  539MPD2    H2 8004   1.561   0.023  11.291 -1.2832 -1.4872  0.9612
  539MPD2    H3 8005   1.580   0.265  11.307 -1.6085  2.7742  1.9428
  539MPD2     N 8006   1.166   0.341  11.163  0.0615  0.0471 -0.6446
  539MPD2    H5 8007   1.169   0.437  11.196  3.4750 -0.3228  0.0869
  539MPD2    N1 8008   1.344   4.606  11.198 -0.0613  0.1512  0.5452
  539MPD2    H7 8009   1.253   4.566  11.175 -0.4560  1.0210  0.5914
  540TMC3    C1 8010   0.973   0.427  11.069  0.1987  1.1060  0.5244
  540TMC3    C2 8011   0.882   0.405  10.969  0.2972  0.3606  0.5263
  540TMC3    C3 8012   0.800   0.514  10.948  0.5296 -1.5450  0.7941
  540TMC3    C4 8013   0.982   0.537  11.145 -0.0535 -0.5352 -0.4534
  540TMC3    C5 8014   0.891   0.636  11.116 -0.5440  0.4646 -0.6667
  540TMC3    C6 8015   0.789   0.621  11.027  0.1651 -0.5324  0.3446
  540TMC3     C 8016   1.050   0.312  11.102  0.1982 -0.1028 -0.3634
  540TMC3     O 8017   1.017   0.204  11.050  0.0537 -0.1589  0.2283
  540TMC3     H 8018   0.884   0.324  10.897  0.6718  0.3425  0.5578
  540TMC3    H1 8019   1.056   0.556  11.222 -0.7277 -1.6258  0.4652
  540TMC3    H2 8020   0.729   0.707  10.998  0.2626 -0.7442 -0.4849
  540TMC3    C7 8021   0.858   0.734  11.225 -0.0911  0.3306  0.3661
  540TMC3    C8 8022   0.736   0.515  10.817  0.2810 -0.3320  0.9619
  540TMC3    O1 8023   0.885   0.687  11.335 -0.4573 -0.2175  0.1176
  540TMC3    O2 8024   0.768   0.612  10.751 -0.0631  0.6988 -0.0238
  541MPD2     C 8025   4.687   1.263  13.013  0.2164  0.4108 -0.0182
  541MPD2    C1 8026   4.553   1.243  13.026 -0.1847  0.6310  0.1986
  541MPD2    C2 8027   4.465   1.298  12.935  0.2314  0.7073  0.2277
  541MPD2    C3 8028   4.512   1.376  12.827 -0.2087 -0.6610 -0.4236
  541MPD2    C4 8029   4.646   1.401  12.817  0.2562  0.6011 -0.1640
  541MPD2    C5 8030   0.009   1.341  12.905 -0.1215  0.0467  0.2379
  541MPD2     H 8031   4.357   1.298  12.944  0.1001 -1.1154 -1.5083
  541MPD2    H1 8032   4.694   1.464  12.742 -0.1106  0.6196 -0.3855
  541MPD2    H2 8033   0.044   1.235  13.087 -0.2742 -0.2792  0.2093
  541MPD2    H3 8034   0.114   1.362  12.884 -0.3499  1.3536  0.4688
  541MPD2     N 8035   4.434   1.425  12.726 -0.4522  1.0212  0.1297
  541MPD2    H5 8036   4.482   1.485  12.660  0.6923  0.2114  0.2358
  541MPD2    N1 8037   4.500   1.163  13.129 -0.3640 -0.5576 -0.1414
  541MPD2    H7 8038   4.562   1.115  13.193 -1.1181  1.0094  1.7708
  542TMC3    C1 8039   4.255   1.506  12.604  0.1833 -0.3981  0.8067
  542TMC3    C2 8040   4.187   1.443  12.504 -0.5441 -0.2115  0.4795
  542TMC3    C3 8041   4.122   1.527  12.415  0.5220 -0.7758 -0.1242
  542TMC3    C4 8042   4.264   1.639  12.623 -0.1801 -0.6691 -0.1192
  542TMC3    C5 8043   4.201   1.718  12.535 -0.3792  0.1491 -0.2448
  542TMC3    C6 8044   4.133   1.665  12.425 -0.6064  0.0647  0.4326
  542TMC3     C 8045   4.298   1.415  12.710  0.5691  0.1581 -0.0177
  542TMC3     O 8046   4.222   1.325  12.744 -0.0961 -0.0499 -0.0348
  542TMC3     H 8047   4.165   1.337  12.518  0.0638 -0.1347  2.1023
  542TMC3    H1 8048   4.302   1.686  12.713  0.2382 -2.5935  0.7068
  542TMC3    H2 8049   4.086   1.732  12.354  1.7038  0.4992 -0.6737
  542TMC3    C7 8050   4.170   1.857  12.583 -0.1705  0.2939  0.3153
  542TMC3    C8 8051   4.127   1.473  12.284 -0.2728  0.4758  0.9532
  542TMC3    O1 8052   4.195   1.892  12.697  0.0388  0.0957 -0.0020
  542TMC3    O2 8053   4.099   1.538  12.185 -1.1283  0.6734 -0.2147
  543TMC3    C1 8054   3.455   1.762  16.860 -0.0005  0.1283  0.3721
  543TMC3    C2 8055   3.520   1.650  16.864  0.3447 -0.5770  0.6674
  543TMC3    C3 8056   3.575   1.619  16.982 -0.2032  0.5026  0.2295
  543TMC3    C4 8057   3.438   1.846  16.966 -0.1975  0.1246  0.0866
  543TMC3    C5 8058   3.497   1.810  17.085 -0.7831 -0.3695  0.2376
  543TMC3    C6 8059   3.568   1.695  17.094 -0.1553  0.5694  0.0720
  543TMC3     C 8060   3.488   1.841  16.741  0.2787 -0.0115 -0.2330
  543TMC3     O 8061   3.585   1.796  16.678 -0.4740 -0.6839  0.1376
  543TMC3     H 8062   3.536   1.584  16.779  0.2856 -1.1577  1.1067
  543TMC3    H1 8063   3.383   1.938  16.951 -1.0047  0.2166  3.5637
  543TMC3    H2 8064   3.613   1.658  17.186  0.1092 -0.4722 -0.4757
  543TMC3    C7 8065   3.485   1.880  17.203  0.0937 -0.1656 -0.5845
  543TMC3    C8 8066   3.640   1.492  16.990  0.4084  0.3095 -0.4398
  543TMC3    O1 8067   3.489   1.804  17.299  0.3041  0.6158  0.3439
  543TMC3    O2 8068   3.676   1.447  16.885  0.0295 -0.0742 -0.3359
  544MPD2     C 8069   3.825   1.093  17.253 -0.3041  1.0904  0.1071
  544MPD2    C1 8070   3.851   1.135  17.127 -0.0825  0.3777 -0.5365
  544MPD2    C2 8071   3.787   1.243  17.077  0.4110  0.3931  0.3512
  544MPD2    C3 8072   3.692   1.310  17.147  0.4407  0.1072  0.2715
  544MPD2    C4 8073   3.669   1.267  17.273 -0.0693 -0.1531  0.0473
  544MPD2    C5 8074   3.728   1.153  17.322  0.2536  0.2298 -0.6326
  544MPD2     H 8075   3.808   1.289  16.981 -0.6546  1.5107  0.6589
  544MPD2    H1 8076   3.599   1.314  17.342  0.6184  1.0275 -0.0541
  544MPD2    H2 8077   3.883   1.018  17.307  1.8207  1.4556 -1.6401
  544MPD2    H3 8078   3.710   1.117  17.423  0.9846 -1.1725 -1.0030
  544MPD2     N 8079   3.630   1.428  17.109  0.2990  0.6618 -0.3228
  544MPD2    H5 8080   3.563   1.473  17.170  0.8858 -1.4523  1.8632
  544MPD2    N1 8081   3.944   1.056  17.056 -0.2482 -0.4049  0.1285
  544MPD2    H7 8082   3.996   0.992  17.116  1.9011  0.6183 -0.6460
  545TMC3    C1 8083   4.065   0.964  16.866  0.2526  0.0647 -0.2086
  545TMC3    C2 8084   4.058   0.938  16.733  0.5002 -0.2797  0.2940
  545TMC3    C3 8085   4.174   0.878  16.682 -0.2419 -0.2163 -0.6566
  545TMC3    C4 8086   4.171   0.946  16.948 -0.2606  0.0115  0.6914
  545TMC3    C5 8087   4.272   0.870  16.893 -0.2948 -1.1825  0.3445
  545TMC3    C6 8088   4.281   0.843  16.754 -0.5564 -0.2596 -0.2024
  545TMC3     C 8089   3.957   1.052  16.915 -0.1819 -0.2353 -0.1137
  545TMC3     O 8090   3.879   1.106  16.839 -0.0699  0.4824  0.7867
  545TMC3     H 8091   3.975   0.973  16.674  1.8516  0.0611 -1.3812
  545TMC3    H1 8092   4.175   0.958  17.056 -1.7378  1.2686  0.6005
  545TMC3    H2 8093   4.372   0.797  16.717  1.7962  2.5556  2.0151
  545TMC3    C7 8094   4.385   0.822  16.973 -0.3942  0.3690  0.5339
  545TMC3    C8 8095   4.162   0.805  16.557  0.2069  0.5515 -0.9647
  545TMC3    O1 8096   4.449   0.726  16.926 -0.1673  0.2753 -0.0183
  545TMC3    O2 8097   4.257   0.768  16.494  0.0260  0.2525 -0.1781
  546MPD2     C 8098   0.221   2.397  17.550 -0.8726 -0.7219  0.0447
  546MPD2    C1 8099   0.181   2.404  17.422  0.5667 -0.1356  0.3424
  546MPD2    C2 8100   0.235   2.493  17.330  0.4210 -0.3417  0.0644
  546MPD2    C3 8101   0.344   2.572  17.370 -0.2739  0.0035  0.2610
  546MPD2    C4 8102   0.375   2.559  17.501 -0.3761  0.2122  1.2422
  546MPD2    C5 8103   0.328   2.466  17.588  0.0675 -0.3445 -0.1361
  546MPD2     H 8104   0.200   2.501  17.228  0.1817  3.1382  0.4310
  546MPD2    H1 8105   0.459   2.616  17.538  0.1142  0.2548  0.0616
  546MPD2    H2 8106   0.171   2.329  17.618 -1.5483  0.8993  1.1890
  546MPD2    H3 8107   0.374   2.458   0.013 -0.5808 -0.9569  0.1182
  546MPD2     N 8108   0.420   2.652  17.285  0.1530  0.0361  0.3457
  546MPD2    H5 8109   0.516   2.664  17.315  0.8353 -2.1407 -0.9875
  546MPD2    N1 8110   0.086   2.304  17.391 -0.7062 -1.3884  0.0459
  546MPD2    H7 8111   0.054   2.248  17.469  0.8607 -1.8403  0.3474
  547TMC3    C1 8112   4.675   2.163  17.260  0.2217 -0.1537  0.5124
  547TMC3    C2 8113   4.631   2.126  17.137  0.1475 -0.3745 -0.1566
  547TMC3    C3 8114   4.554   2.015  17.130 -0.1486  0.0386  0.6170
  547TMC3    C4 8115   4.657   2.087  17.377  0.9507 -0.8459 -0.9052
  547TMC3    C5 8116   4.579   1.974  17.360  0.4561  1.1264  0.4346
  547TMC3    C6 8117   4.508   1.945  17.240  0.7751 -0.7526  0.2255
  547TMC3     C 8118   0.037   2.282  17.268 -0.3166 -0.1274 -0.3730
  547TMC3     O 8119   0.030   2.356  17.172  0.3666 -0.2585 -0.1712
  547TMC3     H 8120   4.645   2.196  17.056  1.8518  0.7306  1.1026
  547TMC3    H1 8121   4.703   2.100  17.474 -2.7381 -0.7536  0.8055
  547TMC3    H2 8122   4.447   1.857  17.224  2.2963 -1.4374 -1.8479
  547TMC3    C7 8123   4.542   1.908  17.485  0.4332  0.5939  0.3780
  547TMC3    C8 8124   4.506   1.991  16.991 -0.3243 -0.1568  0.0780
  547TMC3    O1 8125   4.553   1.984  17.577 -0.3436  0.2400  0.3785
  547TMC3    O2 8126   4.388   1.958  16.973  0.4186 -0.2938  0.0206
  548MPD2     C 8127   0.148   3.509  12.107 -0.4722  0.4418 -0.6734
  548MPD2    C1 8128   0.090   3.381  12.123 -0.5526 -0.5931  0.5825
  548MPD2    C2 8129   0.161   3.275  12.073  0.6461 -0.3244  0.5057
  548MPD2    C3 8130   0.270   3.290  11.993 -0.0338  0.3966 -0.5882
  548MPD2    C4 8131   0.321   3.417  11.980  0.0571 -0.6224 -0.4348
  548MPD2    C5 8132   0.259   3.522  12.031 -0.2214 -0.7126 -0.6329
  548MPD2     H 8133   0.119   3.177  12.092  0.4236 -0.2675  0.3062
  548MPD2    H1 8134   0.412   3.436  11.923  0.3829  0.3225  0.4187
  548MPD2    H2 8135   0.105   3.596  12.154  0.4617 -0.1555  1.2668
  548MPD2    H3 8136   0.296   3.624  12.025  0.6136 -0.9193  0.8658
  548MPD2     N 8137   0.325   3.177  11.931  0.4243  0.1689 -0.3882
  548MPD2    H5 8138   0.289   3.089  11.965  0.1181  0.6084  0.4401
  548MPD2    N1 8139   4.684   3.364  12.199 -0.2431 -0.2296 -0.0446
  548MPD2    H7 8140   4.638   3.449  12.231 -1.3181 -1.0259  0.4859
  549TMC3    C1 8141   4.489   3.268  12.297  0.1702  0.9442 -0.6265
  549TMC3    C2 8142   4.412   3.382  12.277  0.6116  0.0960  0.1141
  549TMC3    C3 8143   4.298   3.391  12.348  0.1409 -0.4496 -0.4899
  549TMC3    C4 8144   4.433   3.159  12.367  0.0188 -0.0831 -0.9419
  549TMC3    C5 8145   4.309   3.169  12.425  0.2795 -0.2863  0.7495
  549TMC3    C6 8146   4.248   3.289  12.428  0.0160  0.1745  0.5197
  549TMC3     C 8147   4.614   3.248  12.224 -0.4281 -0.7367 -0.3253
  549TMC3     O 8148   4.654   3.133  12.207  0.1326 -0.2370 -0.1142
  549TMC3     H 8149   4.457   3.462  12.219  2.5190 -0.4892  0.8132
  549TMC3    H1 8150   4.503   3.081  12.395  0.7018  1.5468  1.9689
  549TMC3    H2 8151   4.149   3.308  12.469  0.1637 -0.3603  1.1202
  549TMC3    C7 8152   4.247   3.054  12.485 -1.0932  0.5201 -0.1784
  549TMC3    C8 8153   4.217   3.515  12.336  0.2514 -1.1728  0.5021
  549TMC3    O1 8154   4.128   3.069  12.517  0.0884 -0.5440  0.0057
  549TMC3    O2 8155   4.096   3.509  12.362 -0.0258  0.3605  0.0596
  550TMC3    C1 8156   3.630   1.326  12.034 -0.6980 -0.7808 -0.2531
  550TMC3    C2 8157   3.654   1.388  12.159 -0.4294 -0.0912 -0.2236
  550TMC3    C3 8158   3.553   1.458  12.217 -0.1105  0.0824  0.3858
  550TMC3    C4 8159   3.505   1.325  11.984 -0.1247  0.6383 -0.0340
  550TMC3    C5 8160   3.403   1.392  12.052  0.0265  0.4485  0.3608
  550TMC3    C6 8161   3.436   1.476  12.161  0.0575  0.5652 -0.2500
  550TMC3     C 8162   3.711   1.204  12.013  0.6295 -0.5476 -0.0867
  550TMC3     O 8163   3.768   1.150  12.108  0.6793 -0.5087 -0.1722
  550TMC3     H 8164   3.754   1.385  12.201 -0.7179  2.3386  0.6506
  550TMC3    H1 8165   3.480   1.253  11.907  1.1992  0.3692 -0.2137
  550TMC3    H2 8166   3.355   1.523  12.215 -0.6961 -0.3401 -0.5829
  550TMC3    C7 8167   3.279   1.421  11.983 -0.5602 -0.5201  0.4476
  550TMC3    C8 8168   3.571   1.540  12.333 -0.2552  0.3633  0.8714
  550TMC3    O1 8169   3.177   1.456  12.048 -0.4883 -0.2260  0.7466
  550TMC3    O2 8170   3.488   1.623  12.355 -0.7895  0.4707 -0.1908
  551TMC3    C1 8171   1.027   3.365  13.061  0.5943 -0.1259  0.4619
  551TMC3    C2 8172   1.149   3.333  13.014 -0.3268 -0.0454 -0.2780
  551TMC3    C3 8173   1.256   3.383  13.081  0.1241 -0.1015 -0.3848
  551TMC3    C4 8174   1.018   3.458  13.159 -0.0811 -0.0560 -1.1271
  551TMC3    C5 8175   1.133   3.492  13.230 -0.4596 -0.8390  0.5540
  551TMC3    C6 8176   1.255   3.455  13.192  0.8071 -0.0525 -0.5019
  551TMC3     C 8177   0.923   3.339  12.969 -0.1238  0.1168  0.5906
  551TMC3     O 8178   0.960   3.306  12.858 -0.1740  0.1530  0.4147
  551TMC3     H 8179   1.175   3.298  12.915 -1.5491 -0.5330 -0.4236
  551TMC3    H1 8180   0.924   3.496  13.199 -1.4496 -2.1913 -2.3230
  551TMC3    H2 8181   1.338   3.499  13.245  1.3548 -1.4997 -0.1627
  551TMC3    C7 8182   1.124   3.558  13.353  0.2212  0.1538 -0.3221
  551TMC3    C8 8183   1.376   3.403  13.010 -0.2667 -0.0225  0.7066
  551TMC3    O1 8184   1.200   3.522  13.437  0.2816  0.0754 -0.8636
  551TMC3    O2 8185   1.435   3.300  12.968  0.2951 -0.4342 -0.1431
  552MPD2     C 8186   3.299   1.322  13.393  0.6278  0.3470 -0.2967
  552MPD2    C1 8187   3.265   1.198  13.446  0.1071 -0.0511  0.0793
  552MPD2    C2 8188   3.343   1.139  13.538 -0.0492 -0.2055 -0.5005
  552MPD2    C3 8189   3.468   1.192  13.567  0.1825 -0.2210  1.0991
  552MPD2    C4 8190   3.501   1.316  13.507 -0.2058  0.3324  0.1622
  552MPD2    C5 8191   3.411   1.381  13.426 -0.6360 -0.2000  0.4275
  552MPD2     H 8192   3.306   1.046  13.579 -1.1215 -0.0999 -1.2136
  552MPD2    H1 8193   3.600   1.355  13.525  0.6828 -1.5488 -0.7480
  552MPD2    H2 8194   3.245   1.380  13.319  0.0518  1.8684  1.2955
  552MPD2    H3 8195   3.442   1.470  13.373  1.2776  0.6980  3.0326
  552MPD2     N 8196   3.549   1.149  13.667 -0.2414 -0.0339  0.1406
  552MPD2    H5 8197   3.629   1.209  13.682  0.0373  0.0112 -1.4637
  552MPD2    N1 8198   3.149   1.119  13.411 -0.3523 -0.5206  0.4052
  552MPD2    H7 8199   3.138   1.025  13.446 -2.3209  0.2543  1.8395
  553TMC3    C1 8200   2.984   1.051  13.256 -0.0643 -0.6512  0.3849
  553TMC3    C2 8201   2.990   1.025  13.118  0.0143 -0.4554  0.7115
  553TMC3    C3 8202   2.917   0.921  13.071  0.2299 -0.4316 -0.5442
  553TMC3    C4 8203   2.905   0.979  13.341  0.0628  0.0675 -0.1383
  553TMC3    C5 8204   2.817   0.889  13.287 -0.2743 -1.0078  0.7520
  553TMC3    C6 8205   2.822   0.861  13.151 -0.3484  0.0707  0.9784
  553TMC3     C 8206   3.071   1.154  13.304  0.2690  0.0174  0.2833
  553TMC3     O 8207   3.053   1.255  13.232 -0.3432 -0.0519 -0.8085
  553TMC3     H 8208   3.054   1.084  13.054  2.3201 -1.4820  2.0701
  553TMC3    H1 8209   2.906   1.003  13.447  1.0618  1.9352 -0.5603
  553TMC3    H2 8210   2.765   0.778  13.110  0.4020  0.6328 -1.2311
  553TMC3    C7 8211   2.776   0.770  13.357 -0.1395 -0.4012  0.4204
  553TMC3    C8 8212   2.980   0.836  12.976 -0.0198 -0.1894 -0.2127
  553TMC3    O1 8213   2.676   0.713  13.315  0.0855  0.2838  0.0707
  553TMC3    O2 8214   3.103   0.847  12.966  0.7748 -0.3416 -0.2885
  554TMC3    C1 8215   0.092   4.705  11.288  0.7706  0.3748  0.7601
  554TMC3    C2 8216   0.033   4.629  11.192 -0.0097 -0.6693 -0.7552
  554TMC3    C3 8217   0.106   4.605  11.076  0.4933  1.0154 -0.8379
  554TMC3    C4 8218   0.210   0.053  11.270 -0.5938 -0.5449  0.7019
  554TMC3    C5 8219   0.276   0.039  11.155 -1.2656 -0.3009  0.5031
  554TMC3    C6 8220   0.226   4.671  11.055 -0.1579 -0.5023  0.2851
  554TMC3     C 8221   0.047   4.673  11.427  0.5135  0.2458  0.6619
  554TMC3     O 8222   4.648   4.675  11.454  0.1004 -0.0171  0.3975
  554TMC3     H 8223   4.652   4.587  11.210  0.6238 -1.3048  1.1652
  554TMC3    H1 8224   0.221   0.140  11.334  0.3022  0.6182 -1.0413
  554TMC3    H2 8225   0.282   4.667  10.962 -0.9702  0.2398 -0.2311
  554TMC3    C7 8226   0.336   0.161  11.093  0.1560  0.1077  0.2615
  554TMC3    C8 8227   0.048   4.562  10.949 -0.1916  0.2656  0.0700
  554TMC3    O1 8228   0.361   0.147  10.975 -0.3815  0.3664  0.4170
  554TMC3    O2 8229   0.109   4.596  10.851  0.0906  0.0987 -0.2431
  555TMC3    C1 8230   3.875   4.275  15.000 -0.0661  0.1492 -0.8654
  555TMC3    C2 8231   3.925   4.329  15.113  0.0614  0.0611  0.3423
  555TMC3    C3 8232   4.012   4.251  15.190 -0.7698  0.0269 -0.1103
  555TMC3    C4 8233   3.889   4.144  14.969  0.4907 -0.2830  0.0943
  555TMC3    C5 8234   3.971   4.067  15.047  0.3102  0.4306 -0.1068
  555TMC3    C6 8235   4.039   4.120  15.153 -0.7178  0.5618  0.3395
  555TMC3     C 8236   3.880   4.366  14.891  1.0291  0.0788 -1.0453
  555TMC3     O 8237   3.952   4.462  14.908 -0.2502 -0.0022  0.6222
  555TMC3     H 8238   3.900   4.432  15.134 -2.2480  0.3176 -3.5679
  555TMC3    H1 8239   3.843   4.092  14.885  0.7827  1.0617 -0.8962
  555TMC3    H2 8240   4.102   4.059  15.218  0.9696  0.2902 -1.5482
  555TMC3    C7 8241   3.955   3.921  15.048  0.0222 -0.3685 -0.8924
  555TMC3    C8 8242   4.117   4.321  15.255 -0.2667 -0.5447 -0.3231
  555TMC3    O1 8243   3.839   3.877  15.050  0.2409  0.4582 -0.1229
  555TMC3    O2 8244   4.109   4.442  15.239  0.2830 -0.3376 -0.4062
  556MPD2     C 8245   1.676   0.886  10.364  0.4004 -0.2384  0.7015
  556MPD2    C1 8246   1.768   0.916  10.466  1.3129  0.1144 -0.4316
  556MPD2    C2 8247   1.878   0.847  10.474 -0.0969  0.4033  0.6511
  556MPD2    C3 8248   1.918   0.754  10.377  0.3648 -0.3983  0.3468
  556MPD2    C4 8249   1.831   0.740  10.270  0.6819  0.4279  0.5504
  556MPD2    C5 8250   1.707   0.803  10.264  0.9194 -0.3282  0.2457
  556MPD2     H 8251   1.949   0.862  10.555 -0.3450  2.0193  0.5603
  556MPD2    H1 8252   1.853   0.675  10.186  1.2455  0.0015  1.0273
  556MPD2    H2 8253   1.581   0.938  10.363  0.1534 -0.7329 -0.3055
  556MPD2    H3 8254   1.639   0.771  10.187  1.5803  0.1148 -0.5264
  556MPD2     N 8255   2.041   0.687  10.390  0.4282 -0.4046 -0.6623
  556MPD2    H5 8256   2.101   0.724  10.463  0.2293 -0.9822 -0.2151
  556MPD2    N1 8257   1.754   1.019  10.560 -0.0428  0.6038 -0.1442
  556MPD2    H7 8258   1.835   1.041  10.618  0.4383 -0.4005 -0.4301
  557TMC3    C1 8259   2.193   0.522  10.380  0.5076  0.3798 -0.2143
  557TMC3    C2 8260   2.263   0.454  10.290 -0.0860  0.3242  0.4347
  557TMC3    C3 8261   2.259   0.318  10.306 -0.6848 -0.4578 -0.6492
  557TMC3    C4 8262   2.130   0.463  10.488  0.0743  0.4085 -0.0888
  557TMC3    C5 8263   2.122   0.332  10.492 -0.1099 -0.5717  0.0033
  557TMC3    C6 8264   2.191   0.251  10.405 -0.0791  0.6094  0.3475
  557TMC3     C 8265   2.103   0.602  10.305 -0.3608  0.0922  0.3661
  557TMC3     O 8266   2.067   0.563  10.194 -0.3384 -0.0614  0.6855
  557TMC3     H 8267   2.299   0.506  10.201 -0.3998 -0.4800 -0.1614
  557TMC3    H1 8268   2.066   0.520  10.554 -2.1559 -2.7853  0.4987
  557TMC3    H2 8269   2.194   0.143  10.415 -1.8214  0.3608 -1.7947
  557TMC3    C7 8270   2.032   0.277  10.586 -0.6658 -0.2488 -0.1767
  557TMC3    C8 8271   2.311   0.244  10.202  0.9349 -0.7162 -0.2507
  557TMC3    O1 8272   1.997   0.334  10.686 -0.8343  0.7783 -0.5247
  557TMC3    O2 8273   2.407   0.285  10.131  0.0117 -0.6369 -0.0203
  558TMC3    C1 8274   0.367   2.896   9.500 -0.1292 -0.3490  0.2264
  558TMC3    C2 8275   0.249   2.964   9.500  0.5415  0.9498  0.5672
  558TMC3    C3 8276   0.133   2.901   9.529 -0.4571  0.6147 -0.2447
  558TMC3    C4 8277   0.375   2.761   9.526  0.1292  1.0585  0.3604
  558TMC3    C5 8278   0.256   2.700   9.548 -0.2939 -0.8521 -0.5928
  558TMC3    C6 8279   0.141   2.767   9.547  0.1052 -0.2110 -0.0392
  558TMC3     C 8280   0.477   2.981   9.540  0.3954 -0.8322  0.0007
  558TMC3     O 8281   0.453   3.097   9.567 -0.2826  0.5046 -0.0522
  558TMC3     H 8282   0.255   3.071   9.485 -0.2680  0.9572  0.3036
  558TMC3    H1 8283   0.466   2.712   9.558  0.4978  1.8182  0.4698
  558TMC3    H2 8284   0.051   2.713   9.571  0.4178 -1.3206 -1.3834
  558TMC3    C7 8285   0.278   2.584   9.644  0.3063 -0.3111  0.3546
  558TMC3    C8 8286   0.033   2.973   9.611  0.0307 -0.5705 -0.0415
  558TMC3    O1 8287   0.358   2.612   9.736  0.5625  0.0802  0.4848
  558TMC3    O2 8288   4.674   2.909   9.681  0.5150  0.6561  0.7940
  559MPD2     C 8289   4.613   4.189  10.483 -0.3007 -0.8193  0.2764
  559MPD2    C1 8290   4.525   4.138  10.575  0.0200  0.6282  1.0746
  559MPD2    C2 8291   4.561   4.121  10.711 -0.8157 -0.7672 -0.1838
  559MPD2    C3 8292   4.691   4.138  10.753 -0.6972  0.0707  0.6086
  559MPD2    C4 8293   0.061   4.186  10.658 -0.6761  0.5972  0.9457
  559MPD2    C5 8294   0.025   4.211  10.525 -0.2188 -0.5349  0.1646
  559MPD2     H 8295   4.485   4.109  10.787  1.2825 -0.7399  1.9293
  559MPD2    H1 8296   0.166   4.200  10.683  0.0332 -1.5871 -0.7756
  559MPD2    H2 8297   4.584   4.207  10.380  2.9090 -0.9759 -0.6453
  559MPD2    H3 8298   0.098   4.246  10.452 -0.8562  0.2758 -0.0856
  559MPD2     N 8299   0.005   4.119  10.890 -0.5996  0.3835 -0.1719
  559MPD2    H5 8300   4.655   4.093  10.961  0.1570  0.0622  0.4330
  559MPD2    N1 8301   4.395   4.122  10.527 -0.3202 -0.3699  0.3880
  559MPD2    H7 8302   4.377   4.152  10.432  0.6560 -0.4240  0.1913
  560TMC3    C1 8303   0.161   4.073  11.064 -0.0937 -0.5673 -0.3858
  560TMC3    C2 8304   0.115   3.945  11.063  0.2668 -0.0956 -0.1901
  560TMC3    C3 8305   0.199   3.849  11.100  0.2631 -0.5730  0.1539
  560TMC3    C4 8306   0.284   4.102  11.109  0.0595 -1.0612 -0.1057
  560TMC3    C5 8307   0.362   3.997  11.158 -0.0751 -0.3478  0.5692
  560TMC3    C6 8308   0.317   3.872  11.161 -0.6153 -0.0544  0.9944
  560TMC3     C 8309   0.124   4.150  10.944 -0.3239 -0.2944  0.3498
  560TMC3     O 8310   0.219   4.220  10.903 -0.0590 -0.4722 -0.5774
  560TMC3     H 8311   0.029   3.907  11.009  0.3021 -0.7078  0.1901
  560TMC3    H1 8312   0.312   4.207  11.103  0.5521 -1.1597  0.5034
  560TMC3    H2 8313   0.383   3.796  11.202  1.9599  0.9755 -1.2372
  560TMC3    C7 8314   0.493   4.024  11.219 -0.6623 -0.6815  0.5812
  560TMC3    C8 8315   0.187   3.731  11.027 -0.3431  0.0438  0.6767
  560TMC3    O1 8316   0.535   3.948  11.305 -0.0768 -0.2246  0.2882
  560TMC3    O2 8317   0.143   3.746  10.915 -0.2513  0.4396 -0.3005
  561TMC3    C1 8318   2.591   3.327  11.203 -0.5172 -0.5861  0.2011
  561TMC3    C2 8319   2.574   3.311  11.336 -0.1817 -0.3382 -0.1020
  561TMC3    C3 8320   2.487   3.388  11.399  0.7901  0.1537  0.5440
  561TMC3    C4 8321   2.540   3.434  11.133  0.0969 -0.2923  0.2592
  561TMC3    C5 8322   2.446   3.512  11.190 -0.4261  0.0783  0.0197
  561TMC3    C6 8323   2.420   3.487  11.328 -0.0128 -0.0057 -0.1075
  561TMC3     C 8324   2.705   3.259  11.146 -0.3644 -1.1601 -0.5184
  561TMC3     O 8325   2.806   3.250  11.215 -0.2298 -0.8245  0.5959
  561TMC3     H 8326   2.636   3.244  11.394 -1.1923 -1.2198 -0.0293
  561TMC3    H1 8327   2.588   3.454  11.038 -1.1593  0.3128 -0.2482
  561TMC3    H2 8328   2.340   3.546  11.372  0.5585  0.8106 -0.1682
  561TMC3    C7 8329   2.414   3.642  11.138  0.4952 -0.3558  0.5163
  561TMC3    C8 8330   2.465   3.363  11.538  0.4343  0.2188  0.1487
  561TMC3    O1 8331   2.364   3.714  11.220 -0.4791  0.2278 -0.3549
  561TMC3    O2 8332   2.545   3.287  11.591  0.2413  0.1136  0.0389
  562TMC3    C1 8333   3.436   0.072  15.688 -0.4089 -0.2127  0.0327
  562TMC3    C2 8334   3.314   0.109  15.643 -0.0137 -0.6803  0.0004
  562TMC3    C3 8335   3.273   0.079  15.516  0.1062 -0.4222  0.1055
  562TMC3    C4 8336   3.527   0.017  15.614  0.4417  0.3846 -0.4505
  562TMC3    C5 8337   3.498   0.013  15.479 -0.1628 -0.2315  0.3405
  562TMC3    C6 8338   3.371   0.035  15.432 -0.2290  0.4064 -0.0839
  562TMC3     C 8339   3.471   0.118  15.818  0.8251 -0.5497  0.2934
  562TMC3     O 8340   3.531   0.039  15.897  0.0043  0.3037  0.1762
  562TMC3     H 8341   3.237   0.140  15.713  0.0268  0.9795 -0.7144
  562TMC3    H1 8342   3.619   4.709  15.664  0.2822  1.6787  0.4924
  562TMC3    H2 8343   3.344   0.002  15.333  0.7541 -1.3443  0.2456
  562TMC3    C7 8344   3.560   4.638  15.397 -0.2525 -0.3196  0.4200
  562TMC3    C8 8345   3.138   0.115  15.480  0.0935  0.3529 -0.4897
  562TMC3    O1 8346   3.548   4.652  15.275 -0.1525 -0.1382  0.0830
  562TMC3    O2 8347   3.050   0.122  15.562  0.0588 -0.0805 -0.6531
  563MPD2     C 8348   1.156   0.157  15.775 -0.0764  0.0929 -0.4004
  563MPD2    C1 8349   1.137   0.295  15.764  1.4484  0.7369  0.5888
  563MPD2    C2 8350   1.215   0.360  15.679  0.4968 -0.1156 -0.4777
  563MPD2    C3 8351   1.324   0.299  15.621 -0.2018  0.0610  0.1976
  563MPD2    C4 8352   1.343   0.166  15.629  0.1833 -0.3317  0.1604
  563MPD2    C5 8353   1.258   0.093  15.708 -0.0852 -0.2708 -0.2851
  563MPD2     H 8354   1.198   0.465  15.660  1.8601  0.1752 -0.1151
  563MPD2    H1 8355   1.430   0.116  15.588  0.9207 -0.6886  2.1532
  563MPD2    H2 8356   1.090   0.097  15.837  0.8308  0.9507  1.3889
  563MPD2    H3 8357   1.262   4.702  15.706  0.9143 -0.2562  1.3223
  563MPD2     N 8358   1.419   0.389  15.557  0.7554  0.3400 -0.1493
  563MPD2    H5 8359   1.405   0.489  15.549 -1.5955 -0.2273 -2.8704
  563MPD2    N1 8360   1.028   0.366  15.836 -0.0605 -0.7883  0.4264
  563MPD2    H7 8361   0.964   0.311  15.892 -1.5059  2.8377  2.3426
  564TMC3    C1 8362   0.903   0.542  15.921 -0.3609 -0.4223  0.7812
  564TMC3    C2 8363   0.847   0.458  16.015  0.2442 -0.5686 -0.4190
  564TMC3    C3 8364   0.768   0.515  16.110  1.2127  0.2583 -0.6184
  564TMC3    C4 8365   0.901   0.675  15.932 -0.4517 -0.1690  0.7781
  564TMC3    C5 8366   0.823   0.729  16.034  0.0381  0.3007  0.1436
  564TMC3    C6 8367   0.753   0.649  16.116 -0.6780  0.2873  0.3305
  564TMC3     C 8368   0.989   0.495  15.818  0.2897  0.1715 -0.3260
  564TMC3     O 8369   1.017   0.573  15.725 -0.1514 -0.0303 -0.2023
  564TMC3     H 8370   0.856   0.350  16.006  1.8581 -0.2296 -2.8183
  564TMC3    H1 8371   0.954   0.743  15.867 -0.4377  0.1933  1.1708
  564TMC3    H2 8372   0.697   0.702  16.192  0.4632  0.0525  1.3470
  564TMC3    C7 8373   0.890   0.858  16.083  0.1722  1.3621  0.1470
  564TMC3    C8 8374   0.714   0.445  16.220  0.0995  0.4990  0.6169
  564TMC3    O1 8375   0.959   0.925  16.005  0.1586 -0.6751 -0.2539
  564TMC3    O2 8376   0.639   0.509  16.298 -0.3868 -0.6961  0.1227
  565TMC3    C1 8377   1.958   2.400   9.585  0.0053  0.2727  0.5106
  565TMC3    C2 8378   1.940   2.328   9.702  0.9241 -0.0121 -0.1943
  565TMC3    C3 8379   1.813   2.279   9.721  0.2567  0.9014  0.1997
  565TMC3    C4 8380   1.857   2.406   9.489 -0.2457  0.6064 -0.3591
  565TMC3    C5 8381   1.734   2.355   9.521 -0.3267 -1.1216  0.1823
  565TMC3    C6 8382   1.704   2.279   9.633 -0.1713  0.7790  0.1242
  565TMC3     C 8383   2.075   2.476   9.566  0.2123 -0.5516  0.5243
  565TMC3     O 8384   2.106   2.501   9.451 -0.0881 -0.1969  0.0508
  565TMC3     H 8385   2.015   2.325   9.779  0.0979 -2.1149  0.5365
  565TMC3    H1 8386   1.879   2.446   9.391  0.0975  1.5289  0.0986
  565TMC3    H2 8387   1.602   2.259   9.663  0.0718 -2.2548 -1.0880
  565TMC3    C7 8388   1.625   2.388   9.432  0.0964 -0.2871 -0.9043
  565TMC3    C8 8389   1.788   2.207   9.848 -0.6802 -0.2391  0.1664
  565TMC3    O1 8390   1.637   2.492   9.369  0.0256  0.1046  0.0159
  565TMC3    O2 8391   1.878   2.216   9.929  0.4563 -0.5884  0.0438
  566MPD2     C 8392   3.164   4.164  14.089 -0.8963 -0.0752  0.3559
  566MPD2    C1 8393   3.279   4.223  14.031  0.1915  0.6113 -1.0446
  566MPD2    C2 8394   3.289   4.249  13.896 -0.3244 -0.3234 -0.0374
  566MPD2    C3 8395   3.184   4.225  13.813  1.0349 -0.9121 -0.2084
  566MPD2    C4 8396   3.070   4.164  13.868  0.2570 -0.1677  0.0066
  566MPD2    C5 8397   3.064   4.128  14.000 -0.1622  0.0757 -0.0424
  566MPD2     H 8398   3.385   4.276  13.853 -0.4558  0.3701  0.1014
  566MPD2    H1 8399   2.996   4.118  13.803  0.1391 -2.4161  1.7102
  566MPD2    H2 8400   3.159   4.140  14.195  0.1644 -0.3839  0.3384
  566MPD2    H3 8401   2.975   4.068  14.017  0.6281 -1.2976 -0.7375
  566MPD2     N 8402   3.204   4.229  13.672  0.4575 -0.0177 -0.0371
  566MPD2    H5 8403   3.137   4.175  13.618  1.5073 -0.8316 -0.5171
  566MPD2    N1 8404   3.383   4.257  14.124  0.0355 -0.3483 -0.1009
  566MPD2    H7 8405   3.378   4.232  14.223 -0.0733  1.2648  0.2936
  567TMC3    C1 8406   3.579   4.383  14.185  0.2355 -0.1094 -0.2887
  567TMC3    C2 8407   3.644   4.503  14.166  0.4783 -0.5965 -0.3038
  567TMC3    C3 8408   3.767   4.516  14.219  0.4560 -0.1726  0.9382
  567TMC3    C4 8409   3.630   4.286  14.265 -0.5414 -0.3117  0.4320
  567TMC3    C5 8410   3.752   4.309  14.324  0.0196 -0.2105  1.4547
  567TMC3    C6 8411   3.829   4.421  14.296 -0.3224 -0.1309  0.7058
  567TMC3     C 8412   3.475   4.354  14.084  0.6890 -0.0014 -0.3781
  567TMC3     O 8413   3.483   4.426  13.981  0.4647  0.3997 -0.0131
  567TMC3     H 8414   3.617   4.569  14.084 -0.0736 -1.6856 -0.9925
  567TMC3    H1 8415   3.572   4.196  14.277 -4.2029  1.8656 -1.0112
  567TMC3    H2 8416   3.934   4.406  14.320 -1.2085 -1.3563  3.7603
  567TMC3    C7 8417   3.805   4.204  14.410 -0.6297  0.8274  0.4932
  567TMC3    C8 8418   3.854   4.606  14.150 -0.3670 -0.3697 -0.0561
  567TMC3    O1 8419   3.929   4.192  14.430  0.1669  0.0249 -0.2367
  567TMC3    O2 8420   3.973   4.581  14.157  1.0705  0.0694  0.2519
  568MPD2     C 8421   1.040   4.568  17.353  0.5242 -0.1660  0.1999
  568MPD2    C1 8422   1.041   4.559  17.214 -0.6548  0.1286 -0.3838
  568MPD2    C2 8423   0.966   4.644  17.136  0.5050 -0.1162 -0.8446
  568MPD2    C3 8424   0.892   0.035  17.196 -0.7401 -0.3824  0.0549
  568MPD2    C4 8425   0.910   0.054  17.334  0.3432  0.5970 -0.0600
  568MPD2    C5 8426   0.986   4.682  17.405 -0.2079 -1.0670 -0.3163
  568MPD2     H 8427   0.957   4.637  17.028  3.1352 -2.8119 -0.9018
  568MPD2    H1 8428   0.860   0.138  17.381  2.7810  1.7176  0.5410
  568MPD2    H2 8429   1.081   4.498  17.424  0.1006 -1.0582 -0.4254
  568MPD2    H3 8430   0.993   4.705  17.510 -0.2148  0.2497 -0.6075
  568MPD2     N 8431   0.806   0.109  17.112  0.5174  0.2447  0.0866
  568MPD2    H5 8432   0.798   0.073  17.018  2.0334 -0.4575  0.2288
  568MPD2    N1 8433   1.097   4.442  17.170 -0.2855 -0.0686 -0.5418
  568MPD2    H7 8434   1.125   4.371  17.237  0.4420  1.5158  0.8420
  569TMC3    C1 8435   0.615   0.237  17.065  0.0118  0.1095  0.5940
  569TMC3    C2 8436   0.548   0.355  17.076  0.5409  0.1821  0.1676
  569TMC3    C3 8437   0.462   0.382  16.972  0.3555  0.9894 -0.2956
  569TMC3    C4 8438   0.593   0.138  16.970 -0.5271 -0.2176  0.0507
  569TMC3    C5 8439   0.493   0.166  16.879  0.2623 -0.0443  1.0218
  569TMC3    C6 8440   0.434   0.290  16.874  0.5156 -0.4110 -0.4717
  569TMC3     C 8441   0.724   0.213  17.159  0.4988 -0.2950 -0.1008
  569TMC3     O 8442   0.718   0.270  17.267 -0.3358  0.7395 -0.3350
  569TMC3     H 8443   0.572   0.423  17.157 -1.0907 -0.0759  0.8808
  569TMC3    H1 8444   0.637   0.039  16.968 -0.1104  0.0072 -1.2936
  569TMC3    H2 8445   0.363   0.313  16.796  0.3553 -0.0682 -0.2241
  569TMC3    C7 8446   0.509   0.094  16.757  0.3481  0.4736 -0.1136
  569TMC3    C8 8447   0.466   0.525  16.930  0.4810 -0.2946 -0.6623
  569TMC3    O1 8448   0.516   4.690  16.764  0.4677  0.5263 -0.1335
  569TMC3    O2 8449   0.387   0.565  16.849 -0.0969  0.0533  0.3133
  570TMC3    C1 8450   0.284   3.250  15.687 -0.8484 -0.0286  0.1861
  570TMC3    C2 8451   0.396   3.262  15.621 -0.3141 -0.4768 -0.1454
  570TMC3    C3 8452   0.412   3.372  15.553  0.8237 -0.1113  0.1543
  570TMC3    C4 8453   0.178   3.337  15.674 -0.1748  0.1804  0.2176
  570TMC3    C5 8454   0.185   3.444  15.591 -0.2924  0.0044  0.4178
  570TMC3    C6 8455   0.310   3.466  15.539  0.3458 -0.1819  0.1578
  570TMC3     C 8456   0.282   3.143  15.786 -0.5123  0.1906  0.3755
  570TMC3     O 8457   0.364   3.049  15.756 -0.3307  0.2449  0.2297
  570TMC3     H 8458   0.484   3.202  15.642  1.1660  2.1685  1.1938
  570TMC3    H1 8459   0.089   3.321  15.733 -0.4078  1.4883  0.2330
  570TMC3    H2 8460   0.335   3.563  15.497 -3.8467  0.0282 -1.8072
  570TMC3    C7 8461   0.129   3.565  15.640  0.2370 -0.0147  0.5424
  570TMC3    C8 8462   0.549   3.432  15.542  0.0934 -0.0974  0.4024
  570TMC3    O1 8463   0.095   3.577  15.756 -0.0879  0.3046 -0.2254
  570TMC3    O2 8464   0.545   3.553  15.536  0.3407 -0.0989 -0.0502
  571MPD2     C 8465   2.580   4.334   0.029 -0.1641 -0.3348  0.4686
  571MPD2    C1 8466   2.579   4.449  17.625 -0.1556 -0.3790 -0.4771
  571MPD2    C2 8467   2.507   4.562   0.008 -0.2934  0.0632  0.2415
  571MPD2    C3 8468   2.442   4.559   0.130 -0.1134 -0.2204 -0.0810
  571MPD2    C4 8469   2.451   4.441   0.197  0.2682 -0.2701  0.3297
  571MPD2    C5 8470   2.517   4.331   0.149  0.0053 -0.9329 -0.3531
  571MPD2     H 8471   2.518   4.653  17.625 -2.1363  0.6449  0.8377
  571MPD2    H1 8472   2.396   4.430   0.290 -0.8219 -0.2482 -0.3104
  571MPD2    H2 8473   2.630   4.249  17.656  2.2028  2.6609 -2.4474
  571MPD2    H3 8474   2.491   4.238   0.199  0.0962 -0.0610  1.2957
  571MPD2     N 8475   2.363   4.668   0.188 -0.7383 -0.7928 -0.3851
  571MPD2    H5 8476   2.321   4.657   0.280  0.2100  2.6284  0.4676
  571MPD2    N1 8477   2.663   4.459  17.511  0.0555  0.6194  0.0089
  571MPD2    H7 8478   2.741   4.395  17.510 -0.4444  0.0325 -1.4765
  572TMC3    C1 8479   2.298   0.182   0.203  0.1689  0.2312 -0.7651
  572TMC3    C2 8480   2.263   0.154   0.335 -0.1207 -0.1043 -0.4383
  572TMC3    C3 8481   2.254   0.264   0.419  0.3401  0.0465 -0.8827
  572TMC3    C4 8482   2.336   0.305   0.164  0.3005 -0.1406  0.0352
  572TMC3    C5 8483   2.333   0.405   0.258  0.2284  0.6154  0.3283
  572TMC3    C6 8484   2.297   0.388   0.390  0.0653  0.4133 -0.0058
  572TMC3     C 8485   2.349   0.069   0.123  0.2603  0.1588  0.3252
  572TMC3     O 8486   2.405   0.104   0.022  0.5756  0.6393 -0.0480
  572TMC3     H 8487   2.217   0.058   0.357 -0.6752  0.0398 -0.9739
  572TMC3    H1 8488   2.374   0.328   0.066 -0.8464  0.3299 -0.3036
  572TMC3    H2 8489   2.301   0.471   0.460 -0.3374 -0.2053  0.7493
  572TMC3    C7 8490   2.383   0.536   0.215  0.5525  0.6186  0.1204
  572TMC3    C8 8491   2.177   0.235   0.542  0.2968  0.1051  0.5412
  572TMC3    O1 8492   2.413   0.556   0.097  0.0840 -0.1228  0.2340
  572TMC3    O2 8493   2.183   0.118   0.579 -0.2372  0.2977 -0.3787
  573MPD2     C 8494   0.424   1.309   0.659  0.4169 -1.0010 -0.0097
  573MPD2    C1 8495   0.309   1.389   0.665 -0.9091 -0.1915  0.0200
  573MPD2    C2 8496   0.212   1.385   0.566 -0.4199  0.0580  0.5798
  573MPD2    C3 8497   0.231   1.293   0.459 -0.1609 -0.8354 -0.6830
  573MPD2    C4 8498   0.342   1.210   0.453  0.2359 -0.2461 -0.4196
  573MPD2    C5 8499   0.440   1.214   0.555  0.8790 -0.0917  0.1663
  573MPD2     H 8500   0.121   1.443   0.562 -0.2972  0.0592 -2.1798
  573MPD2    H1 8501   0.351   1.127   0.384 -0.5565 -0.7146  0.0411
  573MPD2    H2 8502   0.502   1.318   0.733  0.0892 -1.4143  0.3909
  573MPD2    H3 8503   0.535   1.160   0.551 -0.8060 -2.9267 -1.2617
  573MPD2     N 8504   0.146   1.280   0.340  0.0160  0.0519 -0.2362
  573MPD2    H5 8505   0.172   1.217   0.265 -2.1735  1.6581 -2.3166
  573MPD2    N1 8506   0.308   1.485   0.771 -0.1916 -0.0613 -0.3355
  573MPD2    H7 8507   0.393   1.486   0.826 -1.0237  1.9061  0.8882
  574TMC3    C1 8508   0.014   1.335   0.172  0.1294 -0.2399  0.3688
  574TMC3    C2 8509   4.714   1.207   0.122 -0.4437 -0.0793  0.1983
  574TMC3    C3 8510   4.687   1.194  17.659 -0.3935 -0.8239  0.4103
  574TMC3    C4 8511   4.713   1.446   0.094 -0.1833 -0.6062  0.0249
  574TMC3    C5 8512   4.700   1.432  17.629 -0.0023  0.2132  0.7256
  574TMC3    C6 8513   4.681   1.308  17.581 -0.3692 -0.1159 -0.3487
  574TMC3     C 8514   0.042   1.358   0.308  0.4398 -0.8006  0.2667
  574TMC3     O 8515   4.714   1.451   0.378 -0.0497  0.2605  0.3348
  574TMC3     H 8516   4.710   1.120   0.186 -0.8513 -0.2653 -0.0792
  574TMC3    H1 8517   4.708   1.538   0.152  0.6936 -0.1310 -0.6528
  574TMC3    H2 8518   4.666   1.293  17.474  1.2076  0.7926 -0.6969
  574TMC3    C7 8519   0.019   1.549  17.540  0.3812  0.4427 -0.1916
  574TMC3    C8 8520   4.677   1.067  17.595  0.5224  0.3684 -0.0451
  574TMC3    O1 8521   0.040   1.518  17.423  0.2288  0.1218 -0.0565
  574TMC3    O2 8522   0.015   0.978  17.655 -0.2352  0.2626 -0.1122
  575TMC3    C1 8523   1.960   2.188  10.683  0.4895  0.4464 -0.0471
  575TMC3    C2 8524   1.923   2.084  10.765 -0.0517  0.5750 -0.1635
  575TMC3    C3 8525   1.831   1.995  10.722  0.4807  0.7066  0.1670
  575TMC3    C4 8526   1.927   2.184  10.549  0.0248 -0.0179 -0.3839
  575TMC3    C5 8527   1.851   2.076  10.508 -0.4152  0.2733 -0.1857
  575TMC3    C6 8528   1.791   1.981  10.593  0.1016 -0.1272  0.2450
  575TMC3     C 8529   2.058   2.285  10.734  0.1444  0.3617 -0.0658
  575TMC3     O 8530   2.062   2.297  10.859  0.0009  0.0983 -0.2032
  575TMC3     H 8531   1.968   2.081  10.864 -0.7687  1.0765  0.1762
  575TMC3    H1 8532   1.975   2.261  10.490  0.5587 -0.9296 -1.1344
  575TMC3    H2 8533   1.716   1.913  10.554  0.6627 -0.0880 -0.9257
  575TMC3    C7 8534   1.815   2.087  10.363 -0.2891 -0.6904  1.0878
  575TMC3    C8 8535   1.780   1.903  10.809 -0.2994  0.0152 -0.2745
  575TMC3    O1 8536   1.907   2.119  10.291  0.2652 -0.1400 -0.1501
  575TMC3    O2 8537   1.757   1.785  10.775 -0.0785 -0.2575 -0.7044
  576MPD2     C 8538   1.331   3.386  12.481 -0.0875 -0.1427 -0.0145
  576MPD2    C1 8539   1.354   3.514  12.436 -0.3061 -0.5000 -0.1400
  576MPD2    C2 8540   1.289   3.621  12.484  0.4400 -0.0836  0.9069
  576MPD2    C3 8541   1.195   3.603  12.589 -0.1314  0.3804 -0.6222
  576MPD2    C4 8542   1.172   3.476  12.639  0.0785 -0.4768  0.5407
  576MPD2    C5 8543   1.241   3.371  12.581  0.4892 -0.1333  0.4491
  576MPD2     H 8544   1.292   3.719  12.437 -0.6878 -0.5635 -0.1798
  576MPD2    H1 8545   1.107   3.445  12.720 -2.1471 -1.9604 -1.8090
  576MPD2    H2 8546   1.383   3.295  12.453 -1.3457 -0.6756 -0.6175
  576MPD2    H3 8547   1.224   3.270  12.618  2.4719 -0.3718  0.6805
  576MPD2     N 8548   1.109   3.709  12.622 -0.0785 -0.6127 -0.1453
  576MPD2    H5 8549   1.132   3.796  12.575  1.7176 -0.4297  1.0720
  576MPD2    N1 8550   1.439   3.538  12.326  0.2178  0.6831  0.7668
  576MPD2    H7 8551   1.444   3.637  12.307 -2.1275  0.9527  1.5243
  577TMC3    C1 8552   1.608   3.502  12.166 -0.7001  0.0350 -0.0531
  577TMC3    C2 8553   1.722   3.435  12.126 -0.3056 -0.3585  0.1162
  577TMC3    C3 8554   1.811   3.499  12.042  0.7186 -0.0401 -0.6080
  577TMC3    C4 8555   1.584   3.636  12.126 -0.5044  0.0738  0.3490
  577TMC3    C5 8556   1.676   3.687  12.036  0.0930 -0.6508  0.0465
  577TMC3    C6 8557   1.784   3.623  11.986  0.5087  0.0498 -0.0272
  577TMC3     C 8558   1.510   3.444  12.253  0.3509  0.3904 -0.3420
  577TMC3     O 8559   1.519   3.325  12.264 -0.4995 -0.1058 -0.9324
  577TMC3     H 8560   1.746   3.337  12.165  0.1530  0.2823  1.4337
  577TMC3    H1 8561   1.485   3.681  12.132 -0.6945 -0.5728  2.4502
  577TMC3    H2 8562   1.855   3.689  11.938 -0.8333  0.5301 -1.3499
  577TMC3    C7 8563   1.667   3.826  12.027 -0.1952 -0.5458  0.6756
  577TMC3    C8 8564   1.942   3.438  12.035  0.8173  0.3101 -0.6130
  577TMC3    O1 8565   1.625   3.877  12.128  0.2695 -0.3020 -0.7084
  577TMC3    O2 8566   1.975   3.382  12.138 -0.2218  0.0064  0.3768
  578MPD2     C 8567   4.492   4.320   1.392  0.1174 -0.5673  0.1282
  578MPD2    C1 8568   4.469   4.194   1.344 -0.2079 -0.3033 -0.9921
  578MPD2    C2 8569   4.550   4.143   1.250  0.3726 -0.6748 -0.2559
  578MPD2    C3 8570   4.673   4.212   1.222  0.0929 -0.2017 -0.1525
  578MPD2    C4 8571   4.713   4.322   1.295 -0.5427 -0.5788  0.0540
  578MPD2    C5 8572   4.615   4.372   1.375 -0.7664 -1.0320  0.2329
  578MPD2     H 8573   4.524   4.052   1.197 -0.5556 -0.5926  0.0613
  578MPD2    H1 8574   0.091   4.374   1.293  0.1003 -1.7118  1.5285
  578MPD2    H2 8575   4.424   4.368   1.461 -1.0639 -2.5760  0.3668
  578MPD2    H3 8576   4.642   4.468   1.418 -2.7635 -0.5551  0.4289
  578MPD2     N 8577   0.057   4.163   1.133 -0.5618  0.0411 -0.2247
  578MPD2    H5 8578   0.143   4.217   1.123 -0.3389 -0.4134 -0.7452
  578MPD2    N1 8579   4.341   4.137   1.363 -0.0594  0.3554  0.4918
  578MPD2    H7 8580   4.274   4.196   1.411 -1.0002  1.1810 -1.8075
  579TMC3    C1 8581   0.150   4.031   0.957  0.1510  0.0198  0.1564
  579TMC3    C2 8582   0.268   4.104   0.966  0.1414  0.5945 -0.6115
  579TMC3    C3 8583   0.371   4.074   0.877 -0.4528 -0.2313 -0.3545
  579TMC3    C4 8584   0.146   3.927   0.865 -0.1356  0.1292  0.4225
  579TMC3    C5 8585   0.256   3.889   0.790  0.3253 -0.5168  0.2735
  579TMC3    C6 8586   0.370   3.969   0.790  0.1572  0.3773 -0.0537
  579TMC3     C 8587   0.045   4.051   1.052 -0.1365  0.5368  0.3476
  579TMC3     O 8588   4.663   3.981   1.040 -0.2868  0.7179 -0.4234
  579TMC3     H 8589   0.279   4.193   1.026 -0.6559 -0.3751  0.9634
  579TMC3    H1 8590   0.064   3.857   0.866  0.6937 -0.8395 -0.2052
  579TMC3    H2 8591   0.454   3.944   0.727 -2.0171 -2.6201 -1.7658
  579TMC3    C7 8592   0.231   3.795   0.693  0.0836  0.0863  0.6208
  579TMC3    C8 8593   0.497   4.140   0.901 -0.3612 -0.6077 -0.4878
  579TMC3    O1 8594   0.119   3.792   0.646 -0.1161  0.1487 -0.1800
  579TMC3    O2 8595   0.501   4.212   1.003 -0.0301 -0.0671 -0.0753
  580TMC3    C1 8596   3.903   2.582  11.800 -0.0479 -0.1124  0.1214
  580TMC3    C2 8597   3.915   2.553  11.665 -0.3574 -0.4923  0.6151
  580TMC3    C3 8598   3.915   2.426  11.616 -0.6533 -0.3818 -0.3552
  580TMC3    C4 8599   3.890   2.483  11.888 -0.4420  0.0313 -0.0887
  580TMC3    C5 8600   3.888   2.357  11.842  0.4716  0.0478  0.2272
  580TMC3    C6 8601   3.907   2.329  11.711  0.9391 -0.6642  0.4161
  580TMC3     C 8602   3.927   2.719  11.842  0.5974 -0.1479  0.1019
  580TMC3     O 8603   3.934   2.802  11.756  0.2188 -0.7957 -0.5190
  580TMC3     H 8604   3.897   2.633  11.594 -2.9550  0.8388  2.7487
  580TMC3    H1 8605   3.880   2.501  11.994  0.8469  0.8662 -0.1065
  580TMC3    H2 8606   3.923   2.228  11.675 -0.8187 -1.3774  1.6350
  580TMC3    C7 8607   3.918   2.258  11.944 -0.3511 -0.5881  0.4905
  580TMC3    C8 8608   3.990   2.397  11.496 -0.0732 -0.1322 -0.7206
  580TMC3    O1 8609   3.917   2.299  12.061 -0.5435 -0.6522  0.2186
  580TMC3    O2 8610   3.946   2.301  11.434  0.4286 -0.0538  0.1056
  581MPD2     C 8611   2.521   2.021  14.775  0.4392  0.7526 -0.2454
  581MPD2    C1 8612   2.402   1.959  14.792 -0.2989  0.0871 -0.3445
  581MPD2    C2 8613   2.288   2.026  14.754 -0.1972  0.0503  0.4876
  581MPD2    C3 8614   2.286   2.158  14.707  0.7801  0.6239 -0.4247
  581MPD2    C4 8615   2.411   2.218  14.698  0.7307  0.4144 -0.5371
  581MPD2    C5 8616   2.528   2.154  14.735 -0.0786  0.8554 -0.8637
  581MPD2     H 8617   2.193   1.973  14.758 -0.1331 -0.1735 -0.9212
  581MPD2    H1 8618   2.425   2.318  14.657 -2.2176  1.3461  0.6903
  581MPD2    H2 8619   2.616   1.986  14.812 -0.0338  0.0175  0.2763
  581MPD2    H3 8620   2.628   2.196  14.738 -0.2660  1.1359  0.9394
  581MPD2     N 8621   2.161   2.225  14.677  0.1783  0.6088  0.0108
  581MPD2    H5 8622   2.078   2.168  14.678 -0.1874  1.1339 -0.2679
  581MPD2    N1 8623   2.378   1.834  14.848  0.3923 -0.9333  0.5686
  581MPD2    H7 8624   2.280   1.806  14.855  0.3121 -0.7124  0.3491
  582TMC3    C1 8625   2.425   1.636  14.965  0.4244 -0.1080  0.8702
  582TMC3    C2 8626   2.474   1.642  15.092  0.6687  0.8728 -0.2072
  582TMC3    C3 8627   2.399   1.587  15.194 -0.2008 -0.3807 -0.0546
  582TMC3    C4 8628   2.296   1.598  14.934  0.6351 -0.7034 -0.5603
  582TMC3    C5 8629   2.229   1.546  15.039 -0.3346 -0.2273  0.1465
  582TMC3    C6 8630   2.272   1.539  15.168 -0.0143 -0.7052 -0.0349
  582TMC3     C 8631   2.477   1.742  14.883 -0.1832  0.6966  0.1754
  582TMC3     O 8632   2.598   1.756  14.875 -0.0027  0.6164  0.7410
  582TMC3     H 8633   2.581   1.657  15.104  0.6965  0.2544  0.3211
  582TMC3    H1 8634   2.272   1.588  14.829 -0.9902 -1.3685 -0.1213
  582TMC3    H2 8635   2.214   1.497  15.249 -0.3677  0.6365  0.3994
  582TMC3    C7 8636   2.088   1.556  15.026  1.2011  0.4059 -0.0888
  582TMC3    C8 8637   2.400   1.660  15.317  0.4791  0.8057  0.1792
  582TMC3    O1 8638   2.015   1.461  15.046 -0.2134 -0.3619  0.1145
  582TMC3    O2 8639   2.288   1.677  15.375  0.2252  0.0652 -0.4022
  583MPD2     C 8640   2.244   3.706  16.615  0.1219 -0.4232  1.2306
  583MPD2    C1 8641   2.190   3.792  16.520 -0.4532  0.4915 -0.0288
  583MPD2    C2 8642   2.112   3.891  16.559  0.7817 -0.2870  0.3637
  583MPD2    C3 8643   2.085   3.914  16.693  0.2954  0.4555  0.3360
  583MPD2    C4 8644   2.128   3.821  16.790 -0.7330  0.1116 -0.2802
  583MPD2    C5 8645   2.213   3.719  16.748 -0.4594 -0.4965  0.6580
  583MPD2     H 8646   2.081   3.963  16.484 -1.1561 -0.8574  0.6331
  583MPD2    H1 8647   2.118   3.838  16.896  1.7197  0.1618 -0.0499
  583MPD2    H2 8648   2.323   3.634  16.597 -0.5638 -0.5095 -1.5610
  583MPD2    H3 8649   2.255   3.659  16.827 -1.8155 -3.0968 -0.6106
  583MPD2     N 8650   2.004   4.026  16.730  0.0457  0.2854  0.4072
  583MPD2    H5 8651   1.984   4.085  16.650 -0.7687  0.2868  0.6116
  583MPD2    N1 8652   2.225   3.796  16.379 -0.3852  0.2671 -0.2156
  583MPD2    H7 8653   2.187   3.871  16.322  1.4289  0.3271 -1.3681
  584TMC3    C1 8654   1.903   4.183  16.866  0.5459 -0.1257 -0.2122
  584TMC3    C2 8655   1.935   4.287  16.787  0.6537  0.2696  0.1321
  584TMC3    C3 8656   1.899   4.417  16.823 -0.6663  0.1730 -0.3221
  584TMC3    C4 8657   1.851   4.211  16.989  0.3567 -0.0471 -0.0271
  584TMC3    C5 8658   1.816   4.341  17.022 -0.8709 -0.0922  0.1419
  584TMC3    C6 8659   1.836   4.449  16.941 -0.3215  0.1497 -0.0051
  584TMC3     C 8660   1.981   4.060  16.860 -0.6657  0.8323  0.0862
  584TMC3     O 8661   2.014   4.014  16.969 -0.6396 -0.0163  0.0012
  584TMC3     H 8662   1.990   4.272  16.695  0.1141  0.9022 -0.2963
  584TMC3    H1 8663   1.825   4.136  17.063 -1.0665  1.1854  0.7282
  584TMC3    H2 8664   1.802   4.548  16.967 -2.6957 -0.3707 -1.1516
  584TMC3    C7 8665   1.826   4.359  17.162 -0.3590  0.3572 -0.3411
  584TMC3    C8 8666   1.941   4.516  16.728  0.3054  0.5523  0.5359
  584TMC3    O1 8667   1.895   4.274  17.222 -0.2737 -0.4000 -0.4949
  584TMC3    O2 8668   1.947   4.481  16.609 -0.4758 -0.0580 -0.4572
  585MPD2     C 8669   2.150   3.047  17.517  0.2607 -0.3703 -0.2682
  585MPD2    C1 8670   2.075   3.088  17.410  0.7439 -0.7276  0.0230
  585MPD2    C2 8671   2.080   3.023  17.292  0.3640 -0.3913 -0.6783
  585MPD2    C3 8672   2.157   2.904  17.276  0.5380  0.2773 -0.6150
  585MPD2    C4 8673   2.237   2.867  17.387 -0.2622 -0.4886 -0.1098
  585MPD2    C5 8674   2.234   2.939  17.501  0.4022 -0.4034  0.1321
  585MPD2     H 8675   2.016   3.054  17.210 -0.3817  2.3724  0.9627
  585MPD2    H1 8676   2.286   2.770  17.387  0.6895  0.0045  0.7760
  585MPD2    H2 8677   2.165   3.106  17.607 -0.9117 -0.8827  0.2626
  585MPD2    H3 8678   2.299   2.911  17.583 -0.0288 -2.0184 -0.0762
  585MPD2     N 8679   2.146   2.823  17.159  0.4943  0.2456  0.3891
  585MPD2    H5 8680   2.211   2.745  17.147  1.1052  0.3960  2.8096
  585MPD2    N1 8681   1.987   3.200  17.429 -0.1798 -0.4065  0.4418
  585MPD2    H7 8682   1.992   3.247  17.519  1.4758 -0.6236  0.4461
  586TMC3    C1 8683   2.081   2.758  16.939  0.3261 -1.0611  0.7601
  586TMC3    C2 8684   2.178   2.659  16.940 -0.4236  0.5988  0.1967
  586TMC3    C3 8685   2.176   2.560  16.845  0.4626 -0.8128 -0.7119
  586TMC3    C4 8686   1.978   2.751  16.842  0.3681  0.2044  0.1158
  586TMC3    C5 8687   1.976   2.646  16.753  1.1389  0.4445 -0.2888
  586TMC3    C6 8688   2.072   2.545  16.753 -0.0993  0.2962 -0.4010
  586TMC3     C 8689   2.061   2.846  17.051  0.8495 -0.2024  0.1398
  586TMC3     O 8690   1.973   2.927  17.033  0.9084 -0.6222 -0.0649
  586TMC3     H 8691   2.264   2.659  17.005  0.6234  0.3424 -1.1840
  586TMC3    H1 8692   1.897   2.822  16.857  0.4210  0.3476 -0.2893
  586TMC3    H2 8693   2.061   2.453  16.695 -0.2163 -1.6900  2.7713
  586TMC3    C7 8694   1.837   2.606  16.729 -0.0865 -0.1094 -0.2261
  586TMC3    C8 8695   2.277   2.455  16.856 -0.3592 -0.3281  0.2028
  586TMC3    O1 8696   1.750   2.658  16.801  0.0369 -0.4560 -0.9138
  586TMC3    O2 8697   2.358   2.462  16.952 -0.0043  0.0720  0.0280
  587TMC3    C1 8698   4.048   1.367  16.239 -0.3444 -0.0325 -0.3879
  587TMC3    C2 8699   4.016   1.493  16.200  0.2802 -0.2820  1.1837
  587TMC3    C3 8700   4.116   1.588  16.195  0.3618 -0.1531  0.5459
  587TMC3    C4 8701   4.165   1.343  16.303 -0.2445 -0.0360  0.2128
  587TMC3    C5 8702   4.264   1.433  16.287 -0.8242 -0.0979  0.7119
  587TMC3    C6 8703   4.242   1.562  16.241  0.0597 -0.2755 -0.2067
  587TMC3     C 8704   3.954   1.255  16.222 -0.3198 -0.3061 -0.0395
  587TMC3     O 8705   4.001   1.143  16.228 -0.2354 -0.5613  0.1226
  587TMC3     H 8706   3.927   1.508  16.141  1.7099 -0.3969 -0.9979
  587TMC3    H1 8707   4.183   1.241  16.336 -1.7728  0.1668  1.6453
  587TMC3    H2 8708   4.321   1.636  16.234 -0.1972 -0.0342 -0.5706
  587TMC3    C7 8709   4.394   1.396  16.341  0.3802  0.5825  0.2820
  587TMC3    C8 8710   4.087   1.726  16.182  1.0112  0.4686  0.3936
  587TMC3    O1 8711   4.399   1.295  16.412 -0.1096  0.5349  1.0186
  587TMC3    O2 8712   4.188   1.796  16.180  0.2466 -0.0212 -0.0185
  588TMC3    C1 8713   1.091   4.285   9.650  0.1449  0.4727 -0.2113
  588TMC3    C2 8714   1.043   4.158   9.636  0.0265  0.4619  0.2279
  588TMC3    C3 8715   1.140   4.059   9.638 -0.2439  0.1213  0.0697
  588TMC3    C4 8716   1.216   4.317   9.696 -0.8128  0.0568 -0.4344
  588TMC3    C5 8717   1.300   4.218   9.705  0.0945 -0.6929 -0.1458
  588TMC3    C6 8718   1.268   4.094   9.666 -0.2180  0.2746  0.3088
  588TMC3     C 8719   0.998   4.394   9.652 -0.5897 -0.2543  0.2108
  588TMC3     O 8720   0.891   4.393   9.591 -0.3372 -0.1695  0.2455
  588TMC3     H 8721   0.942   4.143   9.598  1.1744 -1.9804 -1.8773
  588TMC3    H1 8722   1.258   4.417   9.695  0.8027 -0.6275 -4.2048
  588TMC3    H2 8723   1.343   4.016   9.668  0.1512  0.6255  0.1106
  588TMC3    C7 8724   1.434   4.236   9.743  0.1645 -0.6846 -0.0050
  588TMC3    C8 8725   1.125   3.963   9.531 -0.0516 -0.0604  0.3163
  588TMC3    O1 8726   1.523   4.162   9.702  0.4434  0.1174  0.6548
  588TMC3    O2 8727   1.081   4.011   9.426 -0.3989 -0.1387  0.2478
  589TMC3    C1 8728   0.630   2.625   0.996  0.1332  0.3146 -0.0071
  589TMC3    C2 8729   0.719   2.691   1.080 -0.3939  0.6729 -0.1473
  589TMC3    C3 8730   0.854   2.676   1.061  0.3178  0.0084 -0.2432
  589TMC3    C4 8731   0.680   2.558   0.887  0.8828  0.2252 -0.9063
  589TMC3    C5 8732   0.815   2.550   0.867  0.1001 -0.2559 -0.1650
  589TMC3    C6 8733   0.906   2.611   0.952 -0.7941  0.0374 -0.0620
  589TMC3     C 8734   0.490   2.669   0.992  0.4013  0.5123  0.4760
  589TMC3     O 8735   0.425   2.611   0.905 -0.1317  0.2838  0.2754
  589TMC3     H 8736   0.692   2.748   1.168 -0.3970 -1.3807  1.1576
  589TMC3    H1 8737   0.614   2.506   0.818 -0.8504 -1.0334  1.7128
  589TMC3    H2 8738   1.012   2.616   0.929 -1.1552  1.8353 -1.2606
  589TMC3    C7 8739   0.881   2.486   0.750 -0.1752 -0.3093 -0.3769
  589TMC3    C8 8740   0.926   2.792   1.114  0.2869 -0.1326  0.3311
  589TMC3    O1 8741   0.998   2.502   0.723  0.5090  0.1840 -0.0869
  589TMC3    O2 8742   0.856   2.885   1.153 -0.2006  0.1179 -0.5748
  590MPD2     C 8743   4.570   0.425  16.713  0.1716 -0.2231 -0.6216
  590MPD2    C1 8744   4.530   0.402  16.586 -0.0987  0.5338  0.0261
  590MPD2    C2 8745   4.623   0.374  16.486  0.0209  0.1497 -0.4227
  590MPD2    C3 8746   0.042   0.364  16.506 -0.1198  0.2331  0.1163
  590MPD2    C4 8747   0.090   0.388  16.637 -0.1974 -1.1871  0.0676
  590MPD2    C5 8748   4.705   0.412  16.737 -0.3916 -0.3304  0.4233
  590MPD2     H 8749   4.592   0.371  16.382 -1.7420 -0.4585  0.1134
  590MPD2    H1 8750   0.196   0.387  16.657 -0.3180  2.6422  0.8121
  590MPD2    H2 8751   4.507   0.448  16.799 -1.8954 -0.8994 -1.9746
  590MPD2    H3 8752   0.021   0.427  16.840  0.7307  1.2342 -0.1527
  590MPD2     N 8753   0.115   0.357  16.391 -0.1006  0.0103 -1.2214
  590MPD2    H5 8754   0.075   0.342  16.299 -0.5808 -0.1626 -0.9798
  590MPD2    N1 8755   4.386   0.419  16.558  0.2830 -0.2209  0.2327
  590MPD2    H7 8756   4.323   0.426  16.637  0.5054  2.1029  0.2105
  591TMC3    C1 8757   0.267   0.438  16.247 -0.6119  0.3478 -0.3278
  591TMC3    C2 8758   0.370   0.393  16.171  0.6301 -0.4668  0.2785
  591TMC3    C3 8759   0.373   0.435  16.041  0.0076 -0.0135 -0.8131
  591TMC3    C4 8760   0.169   0.524  16.194 -0.2701  0.5277  0.1364
  591TMC3    C5 8761   0.180   0.569  16.065 -0.0029  0.3675 -0.9925
  591TMC3    C6 8762   0.277   0.519  15.982 -0.3724 -0.0211  0.1068
  591TMC3     C 8763   0.248   0.390  16.379  0.7413 -0.5140 -0.3009
  591TMC3     O 8764   0.334   0.426  16.458 -0.7222 -0.1564 -0.0365
  591TMC3     H 8765   0.446   0.331  16.218  1.0323 -0.0062  0.2417
  591TMC3    H1 8766   0.093   0.569  16.257 -0.3867 -1.0762  1.1392
  591TMC3    H2 8767   0.286   0.527  15.874 -0.6224 -0.3899  0.0612
  591TMC3    C7 8768   0.082   0.651  16.009 -0.0329 -0.3795 -0.1937
  591TMC3    C8 8769   0.482   0.388  15.950  0.4763 -0.4964 -0.6271
  591TMC3    O1 8770   4.687   0.658  16.058  0.1017  0.3736  0.0870
  591TMC3    O2 8771   0.533   0.280  15.979  0.0361 -0.1048 -0.4550
  592MPD2     C 8772   0.447   2.468  11.074 -0.0957 -0.5599 -0.4659
  592MPD2    C1 8773   0.448   2.508  11.209  0.0859  0.1202  0.2924
  592MPD2    C2 8774   0.370   2.442  11.303 -0.3165  0.3933  0.4728
  592MPD2    C3 8775   0.290   2.333  11.262 -0.5313 -0.0734  0.7773
  592MPD2    C4 8776   0.286   2.298  11.127 -0.4062  0.3341 -0.1971
  592MPD2    C5 8777   0.366   2.367  11.040 -0.0762  0.5609  0.7459
  592MPD2     H 8778   0.364   2.474  11.406 -0.8698 -0.1260  0.5961
  592MPD2    H1 8779   0.225   2.221  11.081  1.9746 -2.2989  1.0453
  592MPD2    H2 8780   0.510   2.512  10.998  0.4523  0.1182  0.3793
  592MPD2    H3 8781   0.369   2.339  10.935  0.8645  1.2446  0.5870
  592MPD2     N 8782   0.207   2.267  11.359  0.5216  0.2694 -0.3555
  592MPD2    H5 8783   0.193   2.310  11.450 -0.9963  0.7576 -0.8175
  592MPD2    N1 8784   0.552   2.602  11.242  0.0092  0.0236 -0.1614
  592MPD2    H7 8785   0.597   2.647  11.163 -0.5900 -1.8166 -1.5498
  593TMC3    C1 8786   0.717   2.726  11.352 -0.0556  0.4792 -0.4134
  593TMC3    C2 8787   0.749   2.797  11.458 -0.1352  0.7427 -0.0842
  593TMC3    C3 8788   0.872   2.863  11.458  0.1950  0.4867  0.0030
  593TMC3    C4 8789   0.801   2.715  11.246 -0.2526 -0.3306  0.5819
  593TMC3    C5 8790   0.918   2.793  11.248 -0.2980  0.3223  0.0222
  593TMC3    C6 8791   0.956   2.869  11.349 -0.5475 -0.0871  0.1361
  593TMC3     C 8792   0.599   2.641  11.364 -0.4300 -0.8838 -0.3128
  593TMC3     O 8793   0.553   2.616  11.478  0.5151 -0.1856  0.4592
  593TMC3     H 8794   0.681   2.802  11.542 -2.9636 -2.2034 -2.1912
  593TMC3    H1 8795   0.783   2.637  11.172  1.4114 -0.8230  0.7165
  593TMC3    H2 8796   1.052   2.919  11.352 -0.7773  0.3827 -0.4626
  593TMC3    C7 8797   0.981   2.821  11.119 -0.4952 -0.4235  1.2597
  593TMC3    C8 8798   0.888   2.961  11.562  0.5801  0.6738  0.0707
  593TMC3    O1 8799   1.079   2.897  11.136 -0.1787 -0.7707  0.2567
  593TMC3    O2 8800   0.793   3.027  11.605 -0.1002 -0.6875 -0.0138
  594MPD2     C 8801   4.117   1.294  13.723 -0.6550  0.1025  0.6429
  594MPD2    C1 8802   4.082   1.273  13.859 -0.4358 -0.4336 -0.2470
  594MPD2    C2 8803   4.178   1.304  13.957  0.3396 -0.6978  0.1540
  594MPD2    C3 8804   4.284   1.384  13.924 -0.1693 -1.0609 -0.1777
  594MPD2    C4 8805   4.299   1.424  13.794 -0.5905  0.4105  0.1761
  594MPD2    C5 8806   4.216   1.380  13.694 -0.1322  0.3274  0.3905
  594MPD2     H 8807   4.180   1.268  14.059 -2.2850  0.8154  0.7248
  594MPD2    H1 8808   4.376   1.491  13.757 -0.3247  0.5076  0.9169
  594MPD2    H2 8809   4.048   1.265  13.645  0.0059  0.2569 -0.0006
  594MPD2    H3 8810   4.238   1.403  13.590 -0.4759 -1.3105 -0.0567
  594MPD2     N 8811   4.386   1.415  14.019 -0.1979  0.2529  0.4562
  594MPD2    H5 8812   4.382   1.364  14.107 -0.4999 -2.7996 -1.3054
  594MPD2    N1 8813   3.956   1.214  13.884 -0.4785  0.4334  0.4469
  594MPD2    H7 8814   3.901   1.191  13.802  1.8706 -2.0554 -0.4406
  595TMC3    C1 8815   0.036   1.571  14.235  0.6524 -0.2461  0.3248
  595TMC3    C2 8816   4.693   1.553  14.116  0.1656 -0.3608 -0.2193
  595TMC3    C3 8817   4.559   1.527  14.128 -0.1569 -0.1818  0.2139
  595TMC3    C4 8818   4.701   1.558  14.358 -0.0584  0.3466  0.2288
  595TMC3    C5 8819   4.574   1.511  14.365 -0.2813  0.3199  0.4011
  595TMC3    C6 8820   4.497   1.514  14.251 -0.4342  0.1573  0.4594
  595TMC3     C 8821   0.162   1.632  14.232 -0.0310 -0.1846  0.1685
  595TMC3     O 8822   0.201   1.690  14.333  0.2370  0.2511  0.1339
  595TMC3     H 8823   0.022   1.546  14.019 -0.6561  1.2025 -0.7222
  595TMC3    H1 8824   0.036   1.581  14.451 -0.7436  2.3342  0.1207
  595TMC3    H2 8825   4.390   1.494  14.256 -0.5770  0.5903 -0.8237
  595TMC3    C7 8826   4.504   1.546  14.488  0.0382 -0.2532 -0.4298
  595TMC3    C8 8827   4.488   1.508  14.007  0.3994 -0.0489  0.6537
  595TMC3    O1 8828   4.550   1.482  14.585 -0.4683  0.0492  0.0233
  595TMC3    O2 8829   4.527   1.574  13.915  0.5692 -0.3272  0.0227
  596MPD2     C 8830   3.041   3.831  16.240 -0.7104 -0.9334  0.4492
  596MPD2    C1 8831   3.014   3.956  16.176 -0.3611  0.0675  0.1244
  596MPD2    C2 8832   3.038   3.974  16.043 -0.2472 -0.4389 -0.0133
  596MPD2    C3 8833   3.085   3.877  15.964  0.0046 -0.1957 -0.7932
  596MPD2    C4 8834   3.099   3.752  16.018  0.3483 -0.6215  0.5816
  596MPD2    C5 8835   3.092   3.733  16.156  0.0571  0.4680 -0.3161
  596MPD2     H 8836   3.003   4.071  16.009  0.9938 -0.5286 -1.5402
  596MPD2    H1 8837   3.140   3.665  15.969  2.1160  0.9576 -0.7663
  596MPD2    H2 8838   3.025   3.805  16.344  1.9249 -1.1705  0.7827
  596MPD2    H3 8839   3.132   3.642  16.199 -1.1747 -1.2092 -2.6985
  596MPD2     N 8840   3.093   3.892  15.820 -0.2297 -0.1959 -0.3671
  596MPD2    H5 8841   3.100   3.810  15.761  1.0940 -0.6540  0.4339
  596MPD2    N1 8842   2.957   4.071  16.245 -0.6079  0.1214  0.0507
  596MPD2    H7 8843   2.932   4.153  16.191  0.4964  1.1604  1.1230
  597TMC3    C1 8844   2.872   4.205  16.412  0.0853 -0.4702  0.2435
  597TMC3    C2 8845   2.924   4.317  16.345  0.5241 -0.3020  0.3108
  597TMC3    C3 8846   2.909   4.440  16.407  0.0784  0.5869 -0.0081
  597TMC3    C4 8847   2.795   4.218  16.518 -0.0985 -0.0157  0.0472
  597TMC3    C5 8848   2.780   4.343  16.581  0.3137  0.0685 -0.3438
  597TMC3    C6 8849   2.832   4.455  16.518  0.1770  0.4936  0.9106
  597TMC3     C 8850   2.925   4.076  16.377 -0.4630  0.4127 -0.2625
  597TMC3     O 8851   2.920   3.992  16.468  0.1468 -0.8419  0.2105
  597TMC3     H 8852   3.011   4.303  16.281  1.1247 -1.8499  1.4677
  597TMC3    H1 8853   2.765   4.134  16.579 -1.2052 -0.4834 -1.1552
  597TMC3    H2 8854   2.818   4.555  16.559  3.4916  0.9471  0.9620
  597TMC3    C7 8855   2.688   4.359  16.687 -0.1212 -0.1842  0.5465
  597TMC3    C8 8856   2.966   4.563  16.352  0.3497 -0.1018  0.1979
  597TMC3    O1 8857   2.696   4.282  16.783 -0.0542 -0.4457  0.5385
  597TMC3    O2 8858   2.988   4.660  16.426 -0.0247  0.4412 -0.4805
  598TMC3    C1 8859   1.264   0.961  14.847  0.9353 -0.1511  0.6463
  598TMC3    C2 8860   1.194   0.843  14.853 -0.1672  0.4663  0.1443
  598TMC3    C3 8861   1.149   0.792  14.738  0.3977  0.0810  0.0470
  598TMC3    C4 8862   1.282   1.023  14.729  0.3875 -0.6236  0.3595
  598TMC3    C5 8863   1.241   0.965  14.608  0.3071  0.1631  0.7088
  598TMC3    C6 8864   1.174   0.845  14.613 -0.0424  0.1812 -0.1886
  598TMC3     C 8865   1.299   1.036  14.966 -0.2322  0.1058 -0.4206
  598TMC3     O 8866   1.397   1.106  14.953 -0.7880  0.1887 -0.7344
  598TMC3     H 8867   1.174   0.793  14.947  1.0391  0.6646  0.5072
  598TMC3    H1 8868   1.317   1.125  14.733 -0.8713 -0.1648 -0.1076
  598TMC3    H2 8869   1.140   0.798  14.521 -1.1854 -0.5913  0.6252
  598TMC3    C7 8870   1.291   0.995  14.478 -0.2892 -0.0907 -0.9445
  598TMC3    C8 8871   1.084   0.665  14.739  0.0040 -0.1811  0.0913
  598TMC3    O1 8872   1.220   0.973  14.376 -0.2255 -0.2675 -0.4048
  598TMC3    O2 8873   1.117   0.581  14.656 -0.9928  0.3249  0.5316
  599MPD2     C 8874   1.767   3.138  15.802  0.5221 -0.0019 -0.1356
  599MPD2    C1 8875   1.685   3.034  15.758  1.0868 -0.4841 -0.1901
  599MPD2    C2 8876   1.547   3.044  15.759  0.3239  0.1017  0.2229
  599MPD2    C3 8877   1.490   3.157  15.818  0.6941 -0.1248  0.1841
  599MPD2    C4 8878   1.572   3.256  15.859  0.3505 -0.3607  0.8864
  599MPD2    C5 8879   1.711   3.252  15.843 -0.0530  0.6496 -0.5298
  599MPD2     H 8880   1.487   2.962  15.721 -0.1981  0.6643 -0.1773
  599MPD2    H1 8881   1.520   3.345  15.895 -2.7209 -1.4182 -0.8718
  599MPD2    H2 8882   1.873   3.118  15.802  0.0698 -2.4220 -0.4303
  599MPD2    H3 8883   1.771   3.337  15.874  0.1843  0.1257  0.4140
  599MPD2     N 8884   1.357   3.174  15.843 -0.1214 -0.1042  0.4614
  599MPD2    H5 8885   1.328   3.259  15.889 -1.8736 -0.5518  0.1723
  599MPD2    N1 8886   1.741   2.909  15.729  1.0131  0.5528  0.0631
  599MPD2    H7 8887   1.683   2.844  15.676  1.7004  0.4344 -0.5465
  600TMC3    C1 8888   1.146   3.106  15.903  0.5418 -0.2307 -0.3604
  600TMC3    C2 8889   1.087   3.002  15.973 -0.2708  0.1138  0.5626
  600TMC3    C3 8890   0.959   3.022  16.024 -0.5165 -0.3089 -0.1519
  600TMC3    C4 8891   1.096   3.231  15.891  0.2847 -0.5336 -0.1007
  600TMC3    C5 8892   0.969   3.245  15.951 -0.3684  0.4057 -0.3574
  600TMC3    C6 8893   0.894   3.140  16.004 -0.2879 -0.2845  0.1145
  600TMC3     C 8894   1.267   3.077  15.828  0.5871 -0.2393  0.1061
  600TMC3     O 8895   1.280   2.961  15.794 -0.4629 -0.3728 -0.2091
  600TMC3     H 8896   1.121   2.899  15.977 -0.8460 -0.0401  1.5838
  600TMC3    H1 8897   1.148   3.305  15.832  0.7297  0.9416  2.1607
  600TMC3    H2 8898   0.806   3.167  16.061 -0.8665  0.4466 -1.1047
  600TMC3    C7 8899   0.910   3.388  15.959 -0.1289  0.2202  0.7539
  600TMC3    C8 8900   0.896   2.899  16.078  0.2908 -0.0019 -0.3945
  600TMC3    O1 8901   0.793   3.397  15.992  0.2929  0.3781  0.3803
  600TMC3    O2 8902   0.979   2.829  16.137 -0.3831 -0.3701 -0.4773
  601MPD2     C 8903   2.592   1.003   0.315  0.5616 -0.2585 -0.0996
  601MPD2    C1 8904   2.547   0.952   0.192  0.0136  0.1407  0.2534
  601MPD2    C2 8905   2.489   0.828   0.190  0.6545 -0.2699 -0.1116
  601MPD2    C3 8906   2.478   0.755   0.307 -0.8426 -0.1049 -0.1903
  601MPD2    C4 8907   2.524   0.809   0.430  0.5189 -0.2196  0.5522
  601MPD2    C5 8908   2.581   0.932   0.435  0.7874  0.3161 -0.0299
  601MPD2     H 8909   2.469   0.781   0.094 -0.4538  1.7951 -0.8808
  601MPD2    H1 8910   2.517   0.747   0.518  0.9754 -2.1618 -0.7784
  601MPD2    H2 8911   2.635   1.102   0.320 -3.8601  1.6111  0.5681
  601MPD2    H3 8912   2.627   0.973   0.524 -1.6460  1.2618  0.7720
  601MPD2     N 8913   2.422   0.623   0.316  0.3458 -0.0657 -0.3761
  601MPD2    H5 8914   2.413   0.584   0.409  2.1832 -1.1589 -0.6738
  601MPD2    N1 8915   2.565   1.021   0.064 -0.5989 -0.1238  0.7196
  601MPD2    H7 8916   2.513   0.981  17.660 -1.0359  0.9294  0.4759
  602TMC3    C1 8917   2.669   1.157  17.574 -0.6092  0.5872 -0.2287
  602TMC3    C2 8918   2.789   1.209  17.540  0.3824 -0.3599  0.0432
  602TMC3    C3 8919   2.823   1.213  17.408 -0.4629 -0.1413 -1.0982
  602TMC3    C4 8920   2.573   1.123  17.483 -0.1342 -0.6406 -0.4315
  602TMC3    C5 8921   2.612   1.123  17.351  0.4089  0.2462  0.3130
  602TMC3    C6 8922   2.732   1.172  17.312  0.3454 -0.3001 -0.3797
  602TMC3     C 8923   2.658   1.120   0.036 -0.0817 -0.3749 -0.0226
  602TMC3     O 8924   2.756   1.153   0.106 -0.1461 -0.2213 -0.0105
  602TMC3     H 8925   2.864   1.232  17.615 -1.1590  1.1347  1.1143
  602TMC3    H1 8926   2.481   1.075  17.516 -1.2228  1.7591  0.0174
  602TMC3    H2 8927   2.769   1.154  17.212  0.8903  0.0034 -0.2310
  602TMC3    C7 8928   2.508   1.103  17.255  0.5688 -0.1333 -0.5827
  602TMC3    C8 8929   2.935   1.297  17.367 -0.6454 -0.4683 -0.1546
  602TMC3    O1 8930   2.409   1.040  17.286 -0.0586 -0.5314  0.3229
  602TMC3    O2 8931   3.002   1.353  17.458 -0.4376  0.0928  0.0837
  603TMC3    C1 8932   1.220   1.739  10.660  0.4795 -0.1801 -0.4295
  603TMC3    C2 8933   1.282   1.727  10.781 -0.6689  0.1522  0.0627
  603TMC3    C3 8934   1.377   1.815  10.817  0.2129  0.1712 -0.1546
  603TMC3    C4 8935   1.261   1.836  10.571  0.1376 -0.3130  0.3763
  603TMC3    C5 8936   1.344   1.931  10.614 -0.5443 -0.8790  0.4720
  603TMC3    C6 8937   1.409   1.921  10.733  0.1683  0.3965  0.4822
  603TMC3     C 8938   1.164   1.619  10.592  0.6180 -0.0244 -0.2458
  603TMC3     O 8939   1.196   1.509  10.627 -0.1017  0.2416  0.7088
  603TMC3     H 8940   1.266   1.638  10.840 -1.7917 -0.5068 -1.2377
  603TMC3    H1 8941   1.241   1.827  10.465 -0.2451 -1.7973  0.5753
  603TMC3    H2 8942   1.504   1.968  10.756  0.1961  1.2369 -1.3199
  603TMC3    C7 8943   1.356   2.052  10.538  0.0508 -0.6618 -0.3749
  603TMC3    C8 8944   1.406   1.809  10.959 -0.3402 -0.5710  0.1227
  603TMC3    O1 8945   1.455   2.121  10.556 -0.6526  0.7115 -0.1178
  603TMC3    O2 8946   1.396   1.708  11.026  0.4957 -0.6356 -0.3025
  604MPD2     C 8947   2.027   0.573  16.306 -0.2759  0.2878 -0.0738
  604MPD2    C1 8948   1.916   0.606  16.233 -0.1286 -0.0623 -0.0635
  604MPD2    C2 8949   1.872   0.528  16.133  0.0084  0.3618 -0.1437
  604MPD2    C3 8950   1.946   0.416  16.100  0.1980 -0.1375 -0.1594
  604MPD2    C4 8951   2.062   0.380  16.166  0.0094  0.8585 -0.0700
  604MPD2    C5 8952   2.096   0.457  16.278 -0.0290  0.0127 -0.1393
  604MPD2     H 8953   1.783   0.558  16.078 -0.8475 -1.6672  0.1272
  604MPD2    H1 8954   2.127   0.300  16.132 -1.1453 -0.1590  0.1310
  604MPD2    H2 8955   2.056   0.643  16.384  2.5654  0.2809 -1.1036
  604MPD2    H3 8956   2.189   0.427  16.325  0.2146  1.1491  0.1191
  604MPD2     N 8957   1.895   0.335  15.987  0.5684  0.4225  0.5925
  604MPD2    H5 8958   1.813   0.369  15.939  0.7701 -1.8091 -1.3218
  604MPD2    N1 8959   1.860   0.736  16.257 -0.4591  0.0166  0.1344
  604MPD2    H7 8960   1.905   0.785  16.333 -1.1576  1.8493 -0.6398
  605TMC3    C1 8961   1.677   0.896  16.271  0.0920 -0.3237 -0.2201
  605TMC3    C2 8962   1.694   0.912  16.408  0.8356  0.2070  0.0308
  605TMC3    C3 8963   1.634   1.010  16.471 -0.3905 -0.0629  0.1302
  605TMC3    C4 8964   1.578   0.967  16.210  0.9193  0.1110 -0.2136
  605TMC3    C5 8965   1.506   1.055  16.279 -0.2975 -0.2838  0.4162
  605TMC3    C6 8966   1.548   1.094  16.410 -0.4132  0.1551 -0.5747
  605TMC3     C 8967   1.742   0.788  16.199 -0.5455 -0.2159 -0.6525
  605TMC3     O 8968   1.688   0.756  16.096 -0.1365 -0.1601 -0.4150
  605TMC3     H 8969   1.757   0.844  16.465  0.1820 -1.5848 -1.3549
  605TMC3    H1 8970   1.553   0.941  16.108 -0.4451  0.6181 -0.0101
  605TMC3    H2 8971   1.486   1.159  16.472  1.3390  1.4355 -0.1521
  605TMC3    C7 8972   1.366   1.043  16.251  0.0505  0.0564  0.1574
  605TMC3    C8 8973   1.602   0.973  16.611 -0.6821 -0.2252 -0.5774
  605TMC3    O1 8974   1.331   0.998  16.144 -0.7821 -0.3588 -0.1278
  605TMC3    O2 8975   1.492   0.917  16.613  0.1530  0.4587  0.6986
  606TMC3    C1 8976   3.362   3.958  16.386  0.0065  0.7092 -0.3328
  606TMC3    C2 8977   3.386   3.943  16.523  0.2820  0.4151 -0.2228
  606TMC3    C3 8978   3.430   3.823  16.566 -0.4841 -0.4702 -0.0734
  606TMC3    C4 8979   3.371   3.850  16.300  0.2450 -0.1365 -0.4061
  606TMC3    C5 8980   3.415   3.736  16.353 -0.1509  0.7692 -0.1004
  606TMC3    C6 8981   3.449   3.721  16.481  0.1708  0.4222 -0.3141
  606TMC3     C 8982   3.316   4.084  16.341  0.5757  0.3474  0.6326
  606TMC3     O 8983   3.306   4.167  16.432 -0.6123  0.4808  0.1501
  606TMC3     H 8984   3.370   4.023  16.594 -0.4132  0.8806 -0.8926
  606TMC3    H1 8985   3.361   3.855  16.192 -2.1179  1.6615 -0.1131
  606TMC3    H2 8986   3.482   3.624  16.516 -0.2742  0.8875  1.4068
  606TMC3    C7 8987   3.441   3.625  16.264  0.2021  0.6956 -0.6579
  606TMC3    C8 8988   3.470   3.809  16.707 -0.1550  0.1520  0.3908
  606TMC3    O1 8989   3.460   3.636  16.145 -0.0975  0.3409 -0.2060
  606TMC3    O2 8990   3.484   3.916  16.764 -0.0019 -0.2264 -0.3683
  607MPD2     C 8991   0.399   1.971  11.454  0.0049 -0.3266 -0.1229
  607MPD2    C1 8992   0.442   2.079  11.533 -0.0973 -0.1014  0.0159
  607MPD2    C2 8993   0.414   2.075  11.667 -0.0332  0.7564 -0.3811
  607MPD2    C3 8994   0.346   1.970  11.730  0.2125  0.1127 -0.3381
  607MPD2    C4 8995   0.294   1.872  11.652 -0.1182  0.1833  0.1685
  607MPD2    C5 8996   0.325   1.869  11.514 -0.5984 -0.5746 -0.0297
  607MPD2     H 8997   0.440   2.160  11.728  1.5526  1.8877 -2.6486
  607MPD2    H1 8998   0.242   1.786  11.691 -0.8628  0.3626 -0.4407
  607MPD2    H2 8999   0.419   1.960  11.349 -0.9641  2.2177 -0.5889
  607MPD2    H3 9000   0.287   1.790  11.451 -3.6976  0.7193  0.1908
  607MPD2     N 9001   0.332   1.976  11.869 -0.3507 -0.2053  0.1631
  607MPD2    H5 9002   0.383   2.054  11.907 -0.8927 -0.1464  0.7807
  607MPD2    N1 9003   0.527   2.185  11.483  0.2451 -0.3661 -0.0112
  607MPD2    H7 9004   0.529   2.262  11.549  0.9007 -0.1244 -0.3203
  608TMC3    C1 9005   0.706   2.302  11.391 -0.6211  0.4530 -0.1158
  608TMC3    C2 9006   0.751   2.329  11.518 -0.0520  0.1133  0.3423
  608TMC3    C3 9007   0.866   2.408  11.527 -0.6006  0.2808  0.2601
  608TMC3    C4 9008   0.780   2.341  11.284 -0.5578  0.4651  0.2496
  608TMC3    C5 9009   0.905   2.397  11.299 -0.1417  0.1901 -0.6028
  608TMC3    C6 9010   0.944   2.443  11.417 -1.1105  0.0842  0.2877
  608TMC3     C 9011   0.609   2.192  11.373  0.5217  0.3038  0.1935
  608TMC3     O 9012   0.603   2.125  11.270 -0.2422 -0.3693  0.0131
  608TMC3     H 9013   0.709   2.278  11.604 -1.9424 -1.4410 -1.5036
  608TMC3    H1 9014   0.742   2.318  11.185  1.3060  2.3454 -0.8993
  608TMC3    H2 9015   1.041   2.489  11.435  0.2892 -1.7912 -2.5657
  608TMC3    C7 9016   0.976   2.428  11.179  0.3064  1.3338  0.0311
  608TMC3    C8 9017   0.894   2.474  11.659  0.3226  0.2144 -0.4440
  608TMC3    O1 9018   0.912   2.422  11.075  0.3090 -0.6025 -0.3611
  608TMC3    O2 9019   1.001   2.526  11.680 -0.1083 -0.4441 -0.2044
  609TMC3    C1 9020   3.922   0.771   8.826 -0.3423 -0.4763 -0.0380
  609TMC3    C2 9021   3.891   0.818   8.697 -0.2196 -0.1899  0.1940
  609TMC3    C3 9022   3.989   0.800   8.606  0.0687 -0.0730 -0.3767
  609TMC3    C4 9023   4.034   0.719   8.862 -0.0714 -0.3050  0.0311
  609TMC3    C5 9024   4.128   0.709   8.766 -0.3610  0.4401 -0.0105
  609TMC3    C6 9025   4.101   0.737   8.641  0.0940 -0.2823  0.0675
  609TMC3     C 9026   3.809   0.774   8.919  0.8393 -0.2015  0.2654
  609TMC3     O 9027   3.782   0.670   8.975  0.0837  0.4584  0.0413
  609TMC3     H 9028   3.804   0.882   8.683 -2.6610 -2.7978  3.2445
  609TMC3    H1 9029   4.060   0.677   8.958  1.4433 -0.7032 -0.5555
  609TMC3    H2 9030   4.183   0.722   8.571  0.9211  1.2005  0.7360
  609TMC3    C7 9031   4.237   0.615   8.794  0.5897  0.3655  0.1656
  609TMC3    C8 9032   3.949   0.847   8.475 -0.0480 -0.1913  0.3928
  609TMC3    O1 9033   4.287   0.627   8.907  0.6664 -0.1144  0.5969
  609TMC3    O2 9034   3.834   0.867   8.449 -0.1140  0.0593  0.2562
  610TMC3    C1 9035   0.866   2.119  12.497 -0.2064  0.9528 -0.1841
  610TMC3    C2 9036   0.887   2.121  12.362 -0.2752  0.5018 -0.2272
  610TMC3    C3 9037   1.002   2.067  12.325  0.9204  0.0227 -0.1636
  610TMC3    C4 9038   0.939   2.045  12.584 -0.0780  0.4878  0.8175
  610TMC3    C5 9039   1.060   1.996  12.541  0.7154  0.1549 -0.5536
  610TMC3    C6 9040   1.090   2.006  12.408  0.4058 -0.6694 -0.0394
  610TMC3     C 9041   0.744   2.183  12.541 -0.2130 -0.7572  0.1473
  610TMC3     O 9042   0.668   2.211  12.451  0.3205  0.4482 -0.2684
  610TMC3     H 9043   0.834   2.174  12.284  0.8178 -0.3148 -1.5297
  610TMC3    H1 9044   0.895   2.027  12.681  1.8301 -0.4246  1.5157
  610TMC3    H2 9045   1.184   1.961  12.380  0.3692  0.3315 -1.7383
  610TMC3    C7 9046   1.164   1.952  12.639  0.3334  0.6542 -0.3098
  610TMC3    C8 9047   1.032   2.071  12.184  0.0121  0.9775  0.5531
  610TMC3    O1 9048   1.250   1.873  12.596  0.4869  0.3749 -0.6631
  610TMC3    O2 9049   1.149   2.073  12.141  0.1411  0.2465 -0.0268
  611MPD2     C 9050   0.227   2.033  10.440 -0.0428 -0.8150 -0.0653
  611MPD2    C1 9051   0.215   1.969  10.321  0.8309  0.6414  1.2427
  611MPD2    C2 9052   0.313   1.984  10.223  0.2346  0.0234 -0.3179
  611MPD2    C3 9053   0.419   2.071  10.243 -0.1004  0.0813  0.4349
  611MPD2    C4 9054   0.429   2.134  10.364  0.2512 -0.3383  0.5603
  611MPD2    C5 9055   0.335   2.116  10.458 -0.6658  0.2275 -0.2842
  611MPD2     H 9056   0.298   1.933  10.129 -0.5385 -0.8904  0.2999
  611MPD2    H1 9057   0.501   2.211  10.390  0.2846 -0.1539 -0.0581
  611MPD2    H2 9058   0.153   2.010  10.516  2.1174 -0.9760  1.9735
  611MPD2    H3 9059   0.338   2.178  10.547  0.3210  0.5274 -0.5206
  611MPD2     N 9060   0.522   2.101  10.148  0.6180 -0.2580 -0.1998
  611MPD2    H5 9061   0.576   2.185  10.167 -0.4161 -0.0871  1.9662
  611MPD2    N1 9062   0.091   1.906  10.300 -0.6539 -0.6650 -0.2225
  611MPD2    H7 9063   0.019   1.923  10.370 -0.9689 -2.5337 -0.0651
  612TMC3    C1 9064   0.641   2.117   9.938  0.2325 -0.4881  0.4080
  612TMC3    C2 9065   0.748   2.171   9.996  0.4138  0.2104  0.0063
  612TMC3    C3 9066   0.835   2.244   9.917  0.9238  0.5213 -0.5459
  612TMC3    C4 9067   0.604   2.142   9.804 -0.4639 -1.0762 -0.4140
  612TMC3    C5 9068   0.694   2.215   9.725  0.2371 -0.9467 -0.4229
  612TMC3    C6 9069   0.810   2.267   9.780 -0.3459  0.2465  0.0289
  612TMC3     C 9070   0.531   2.058  10.014  0.5424 -0.1722  0.0054
  612TMC3     O 9071   0.457   1.981   9.957  0.3134 -0.5746  0.1436
  612TMC3     H 9072   0.774   2.142  10.097 -2.7680  0.6219  0.9389
  612TMC3    H1 9073   0.521   2.091   9.756 -0.6579  0.0598 -1.2970
  612TMC3    H2 9074   0.876   2.329   9.720  0.4802 -2.0073 -1.4066
  612TMC3    C7 9075   0.652   2.269   9.594 -0.2043  0.0304  0.3095
  612TMC3    C8 9076   0.971   2.282   9.962  0.0037  0.5084  0.4997
  612TMC3    O1 9077   0.710   2.376   9.559 -0.1647 -0.5887  0.1044
  612TMC3    O2 9078   1.043   2.353   9.891 -0.1888  0.4459  0.3195
  613MPD2     C 9079   4.346   3.731  16.320 -0.1657  0.3747 -0.0964
  613MPD2    C1 9080   4.357   3.819  16.222 -0.1617 -0.4864 -0.3111
  613MPD2    C2 9081   4.241   3.851  16.151  0.3658  0.1872 -0.2373
  613MPD2    C3 9082   4.122   3.779  16.178 -0.1036  0.0367 -0.4137
  613MPD2    C4 9083   4.119   3.686  16.278 -0.0305  0.9892 -0.6043
  613MPD2    C5 9084   4.233   3.666  16.350  0.7239  0.1881  0.1575
  613MPD2     H 9085   4.244   3.920  16.067  0.1839  1.9458  1.2111
  613MPD2    H1 9086   4.023   3.639  16.297  0.0791 -0.1258 -2.7315
  613MPD2    H2 9087   4.430   3.706  16.383 -0.0653  0.7828 -0.0675
  613MPD2    H3 9088   4.229   3.593  16.430 -1.3613  0.6955  0.5156
  613MPD2     N 9089   4.013   3.783  16.082 -0.6302  0.1734 -0.3119
  613MPD2    H5 9090   3.936   3.717  16.090 -0.9412  0.4325 -1.1175
  613MPD2    N1 9091   4.489   3.876  16.210  0.4401  0.5559 -0.6933
  613MPD2    H7 9092   4.557   3.806  16.239 -2.2823 -2.3764 -1.3779
  614TMC3    C1 9093   4.641   3.960  16.058  0.5065 -0.4908 -0.1768
  614TMC3    C2 9094   4.631   3.837  15.997 -1.0414 -0.9994 -0.8348
  614TMC3    C3 9095   4.625   3.824  15.862 -0.1222 -0.3769  0.3327
  614TMC3    C4 9096   4.668   4.073  15.975 -0.7340  0.1947  0.1688
  614TMC3    C5 9097   4.636   4.055  15.845  0.3136 -0.3833  0.0116
  614TMC3    C6 9098   4.612   3.935  15.786 -0.9117  0.5770  0.4190
  614TMC3     C 9099   4.518   3.980  16.126  0.2825  0.9047 -0.4320
  614TMC3     O 9100   4.447   4.073  16.086  0.2776  0.0865 -0.3305
  614TMC3     H 9101   4.626   3.744  16.053 -1.4399  0.4407  1.4911
  614TMC3    H1 9102   4.679   4.172  16.017 -1.4769  0.9664 -1.4848
  614TMC3    H2 9103   4.593   3.924  15.680 -1.5870 -1.3279  0.7499
  614TMC3    C7 9104   4.608   4.172  15.764  0.5170 -0.3890 -0.2719
  614TMC3    C8 9105   4.533   3.718  15.819 -0.2762 -0.0308 -0.5879
  614TMC3    O1 9106   4.696   4.255  15.774  0.2128  0.1488 -0.2425
  614TMC3    O2 9107   4.452   3.674  15.897 -0.4244 -0.3206  0.3532
  615MPD2     C 9108   3.455   0.969  15.863  0.0705  0.0609 -0.4540
  615MPD2    C1 9109   3.591   0.992  15.837 -0.4230 -0.2337  0.5816
  615MPD2    C2 9110   3.669   0.885  15.810 -0.0342  0.2597 -0.0856
  615MPD2    C3 9111   3.610   0.760  15.799 -1.1008 -0.6903  0.0479
  615MPD2    C4 9112   3.471   0.740  15.829 -0.1239 -0.5874 -0.0761
  615MPD2    C5 9113   3.396   0.852  15.875  0.3978 -0.8514  0.3987
  615MPD2     H 9114   3.773   0.894  15.781 -0.4286 -2.1896 -2.2781
  615MPD2    H1 9115   3.430   0.642  15.809  1.9539 -1.3941 -0.4270
  615MPD2    H2 9116   3.386   1.050  15.882 -0.3710 -0.4701  0.2047
  615MPD2    H3 9117   3.292   0.853  15.908  0.2044  1.7411 -0.2948
  615MPD2     N 9118   3.685   0.638  15.767  0.3407 -0.7132 -0.4167
  615MPD2    H5 9119   3.629   0.563  15.729  0.0731 -0.7557  0.0737
  615MPD2    N1 9120   3.640   1.124  15.814 -0.1041 -0.4847  0.8402
  615MPD2    H7 9121   3.740   1.130  15.794 -0.5700 -2.3547 -1.9786
  616TMC3    C1 9122   3.645   1.365  15.815  0.3706 -0.4338  0.8832
  616TMC3    C2 9123   3.784   1.361  15.845  0.0924 -0.0605  0.1703
  616TMC3    C3 9124   3.846   1.483  15.850 -0.3309 -0.7807 -0.8025
  616TMC3    C4 9125   3.570   1.479  15.794 -0.1748 -0.0142 -0.3655
  616TMC3    C5 9126   3.635   1.593  15.817  0.2529  0.3976  0.7835
  616TMC3    C6 9127   3.775   1.598  15.846 -0.0305 -0.0919 -0.7534
  616TMC3     C 9128   3.564   1.239  15.811 -0.7781 -0.0330  0.2186
  616TMC3     O 9129   3.443   1.256  15.821  0.0655  0.7054 -0.0726
  616TMC3     H 9130   3.842   1.271  15.863  0.8827  0.0612 -1.8283
  616TMC3    H1 9131   3.467   1.474  15.761  0.6050  0.6953 -2.8794
  616TMC3    H2 9132   3.817   1.697  15.858 -0.3479  0.0062 -0.4167
  616TMC3    C7 9133   3.554   1.721  15.794  0.4784 -0.2960 -0.1983
  616TMC3    C8 9134   3.988   1.481  15.878  0.1115 -0.0234  1.0673
  616TMC3    O1 9135   3.436   1.703  15.811 -0.3234  0.1028  0.2751
  616TMC3    O2 9136   4.029   1.376  15.929  0.3396  0.2000 -0.2679
  617MPD2     C 9137   1.719   3.647  13.588  0.3913 -0.2067  0.0899
  617MPD2    C1 9138   1.766   3.585  13.701 -0.0297 -0.6134  1.1251
  617MPD2    C2 9139   1.689   3.501  13.772 -0.1894 -0.2433 -0.5181
  617MPD2    C3 9140   1.562   3.485  13.733 -0.7272 -0.5953  0.9217
  617MPD2    C4 9141   1.512   3.546  13.623  0.1380 -0.0172 -0.1304
  617MPD2    C5 9142   1.593   3.633  13.547  0.0098  0.3394 -0.0972
  617MPD2     H 9143   1.725   3.450  13.861 -1.6744 -1.7231 -0.7772
  617MPD2    H1 9144   1.411   3.526  13.589 -1.8364  1.6850  4.6912
  617MPD2    H2 9145   1.781   3.722  13.539 -4.0229  2.0373 -2.0080
  617MPD2    H3 9146   1.556   3.688  13.462  1.3994 -0.8939 -1.4988
  617MPD2     N 9147   1.468   3.401  13.800 -0.0241 -0.0837 -0.5855
  617MPD2    H5 9148   1.373   3.401  13.766  0.0589 -0.3231 -0.8087
  617MPD2    N1 9149   1.900   3.599  13.725  0.3982 -0.5074  0.7428
  617MPD2    H7 9150   1.954   3.643  13.652 -1.6244 -1.0214 -1.0541
  618TMC3    C1 9151   2.104   3.588  13.845  0.0424 -0.3109 -0.6111
  618TMC3    C2 9152   2.167   3.523  13.744 -0.0633  0.8967 -0.8010
  618TMC3    C3 9153   2.299   3.499  13.744  0.0895 -0.7029 -0.3787
  618TMC3    C4 9154   2.176   3.653  13.940  0.5212 -0.0615  0.0097
  618TMC3    C5 9155   2.313   3.632  13.941 -0.0045 -0.3528 -0.0025
  618TMC3    C6 9156   2.377   3.550  13.847  0.5724 -0.4335 -0.0375
  618TMC3     C 9157   1.960   3.586  13.847 -0.3266 -0.1403 -0.4687
  618TMC3     O 9158   1.899   3.579  13.953 -0.4569 -0.1679  0.5680
  618TMC3     H 9159   2.099   3.475  13.675 -1.1924  0.3789  0.6864
  618TMC3    H1 9160   2.128   3.700  14.024 -0.7761  0.4452 -1.0212
  618TMC3    H2 9161   2.482   3.526  13.857  0.6671 -1.0703 -2.5612
  618TMC3    C7 9162   2.376   3.708  14.048 -0.5956  0.0806 -0.1963
  618TMC3    C8 9163   2.353   3.430  13.628  0.0230 -0.2971  0.2632
  618TMC3    O1 9164   2.314   3.713  14.151 -0.2173 -0.9647  0.4185
  618TMC3    O2 9165   2.277   3.395  13.541  0.0363  0.4261  0.0302
  619MPD2     C 9166   3.209   4.692  13.461 -0.0317  0.6828 -0.1114
  619MPD2    C1 9167   3.182   0.040  13.343 -0.9650 -0.2860 -0.9416
  619MPD2    C2 9168   3.050   0.023  13.280  0.5557 -0.1133 -0.6568
  619MPD2    C3 9169   2.959   4.668  13.346 -0.1064 -0.0440  0.7964
  619MPD2    C4 9170   2.987   4.601  13.459  0.1647 -0.2973 -0.6527
  619MPD2    C5 9171   3.111   4.616  13.515 -0.4941 -0.7261  0.1433
  619MPD2     H 9172   3.026   0.077  13.190  1.0883 -0.7941 -1.2114
  619MPD2    H1 9173   2.911   4.551  13.517 -0.6561  1.4265 -0.2305
  619MPD2    H2 9174   3.299   4.701  13.522 -0.7088  3.7353  0.4504
  619MPD2    H3 9175   3.122   4.563  13.609  0.4636  1.8229  1.4641
  619MPD2     N 9176   2.829   4.668  13.288 -0.0176  0.2117 -0.5489
  619MPD2    H5 9177   2.770   4.586  13.301 -2.2303  1.7935 -0.5137
  619MPD2    N1 9178   3.275   0.119  13.275  0.3285  0.0794 -0.8196
  619MPD2    H7 9179   3.237   0.169  13.196  0.2774  0.8492 -0.3141
  620TMC3    C1 9180   3.455   0.241  13.211  0.0772 -0.7493 -0.6621
  620TMC3    C2 9181   3.379   0.264  13.092 -0.6012  0.1350  0.4355
  620TMC3    C3 9182   3.437   0.351  13.003  0.1479 -0.4323 -0.8064
  620TMC3    C4 9183   3.569   0.304  13.244  0.8461 -0.1130  0.3298
  620TMC3    C5 9184   3.612   0.400  13.158 -0.2768 -0.0570  0.3795
  620TMC3    C6 9185   3.549   0.422  13.041  0.0558  0.3264  0.1145
  620TMC3     C 9186   3.397   0.148  13.309  0.2274 -0.2724  0.2797
  620TMC3     O 9187   3.464   0.112  13.408  0.0362 -0.2533  0.1035
  620TMC3     H 9188   3.282   0.219  13.077 -1.3809  2.2078 -0.6910
  620TMC3    H1 9189   3.617   0.288  13.340  2.3923 -1.4915 -0.6629
  620TMC3    H2 9190   3.599   0.491  12.974 -0.4038  0.0102 -0.5487
  620TMC3    C7 9191   3.637   0.525  13.225  0.4645  0.0692 -0.3756
  620TMC3    C8 9192   3.348   0.438  12.927  0.2518 -0.0274 -0.9054
  620TMC3    O1 9193   3.691   0.523  13.332 -0.0204 -0.1521  0.1072
  620TMC3    O2 9194   3.382   0.557  12.924 -0.1534 -0.2219 -0.4550
  621MPD2     C 9195   4.039   4.200  10.125 -0.5829  0.0138  0.1414
  621MPD2    C1 9196   3.939   4.217  10.031 -0.2248  0.3977  0.6562
  621MPD2    C2 9197   3.920   4.335   9.973 -0.4227 -0.4463 -0.2588
  621MPD2    C3 9198   4.004   4.440  10.003 -0.1018  0.1361 -0.4425
  621MPD2    C4 9199   4.102   4.425  10.102  0.6868  0.1902 -0.0613
  621MPD2    C5 9200   4.116   4.307  10.163 -0.3850  0.7989  0.4343
  621MPD2     H 9201   3.857   4.355   9.887 -1.0536 -1.6343 -0.0611
  621MPD2    H1 9202   4.173   4.503  10.128 -0.3894  1.3445 -0.5658
  621MPD2    H2 9203   4.067   4.102  10.163  0.7284  0.8857  1.4215
  621MPD2    H3 9204   4.196   4.298  10.237  0.7010  0.4486 -0.7809
  621MPD2     N 9205   3.990   4.552   9.935 -0.4994  0.2024 -0.1606
  621MPD2    H5 9206   3.915   4.558   9.867 -0.4584  1.7247 -0.0713
  621MPD2    N1 9207   3.878   4.107   9.975 -0.5501 -0.1673  0.0031
  621MPD2    H7 9208   3.852   4.116   9.877  0.0154 -0.7518 -0.2053
  622TMC3    C1 9209   3.780   3.898   9.955  0.6776  0.1959  0.7473
  622TMC3    C2 9210   3.685   3.835  10.026  0.1790 -0.7381 -0.3276
  622TMC3    C3 9211   3.605   3.752   9.958  0.2629  0.2409  0.1270
  622TMC3    C4 9212   3.799   3.880   9.821  0.5415 -0.3545  0.6726
  622TMC3    C5 9213   3.698   3.811   9.752 -0.2888 -0.2380  0.0101
  622TMC3    C6 9214   3.600   3.745   9.822  0.4217 -1.0894  0.6764
  622TMC3     C 9215   3.862   3.985  10.034  0.0125 -1.0073  0.2669
  622TMC3     O 9216   3.876   3.960  10.152 -0.0713  0.2120 -0.6049
  622TMC3     H 9217   3.684   3.838  10.134  3.3176  0.4786 -0.3202
  622TMC3    H1 9218   3.891   3.904   9.770  0.3176  1.3110  1.0623
  622TMC3    H2 9219   3.512   3.702   9.775  0.8463  1.1560 -2.1266
  622TMC3    C7 9220   3.694   3.828   9.605 -0.6496 -0.2242 -0.4691
  622TMC3    C8 9221   3.473   3.736  10.025 -0.1047 -0.4988 -0.3584
  622TMC3    O1 9222   3.652   3.733   9.546 -1.2237 -0.1271 -0.1493
  622TMC3    O2 9223   3.418   3.630  10.000  0.2442  0.4249 -0.2441
  623MPD2     C 9224   2.237   0.505  15.693  0.0153  0.7971  0.0166
  623MPD2    C1 9225   2.123   0.551  15.761 -0.0107  0.3435  0.6031
  623MPD2    C2 9226   2.142   0.625  15.881  0.4630 -0.5509 -0.5591
  623MPD2    C3 9227   2.270   0.635  15.940  0.1009  0.8644 -0.7922
  623MPD2    C4 9228   2.381   0.602  15.866  0.4582 -0.0461 -0.5699
  623MPD2    C5 9229   2.363   0.531  15.748 -0.4469 -0.2344  0.0824
  623MPD2     H 9230   2.057   0.670  15.931  1.7001  0.8033  0.3347
  623MPD2    H1 9231   2.482   0.624  15.898 -0.0722  2.1451 -0.4076
  623MPD2    H2 9232   2.223   0.480  15.589 -0.1457 -3.3284  1.0201
  623MPD2    H3 9233   2.458   0.513  15.698  0.3778  2.5108  0.6539
  623MPD2     N 9234   2.276   0.691  16.069 -0.3114  0.3220 -0.6013
  623MPD2    H5 9235   2.191   0.706  16.123 -1.0490 -0.6121 -1.4990
  623MPD2    N1 9236   1.998   0.564  15.692 -0.5832  0.3225 -0.0152
  623MPD2    H7 9237   1.933   0.633  15.726  0.4452  0.5837  1.4334
  624TMC3    C1 9238   2.484   0.886  16.439  0.8299 -0.4574  0.6338
  624TMC3    C2 9239   2.359   0.925  16.492  0.0368 -0.5357 -0.0261
  624TMC3    C3 9240   2.244   0.887  16.424  0.7672 -0.4311  0.4029
  624TMC3    C4 9241   2.493   0.809  16.327  0.4355 -0.0851 -0.5437
  624TMC3    C5 9242   2.375   0.777  16.266  0.4652 -0.7091  0.2960
  624TMC3    C6 9243   2.251   0.819  16.309  0.2263  0.3265 -0.3529
  624TMC3     C 9244   2.607   0.921  16.503 -0.6697 -0.3670  0.0706
  624TMC3     O 9245   2.610   0.933  16.624 -0.3708  0.3960 -0.3160
  624TMC3     H 9246   2.365   0.992  16.576 -0.2071  0.5162 -0.8497
  624TMC3    H1 9247   2.583   0.753  16.306  3.0371  2.8494  2.6826
  624TMC3    H2 9248   2.159   0.810  16.252  0.7243  1.1623 -1.2812
  624TMC3    C7 9249   2.393   0.738  16.127  0.2390  0.0303  0.1411
  624TMC3    C8 9250   2.116   0.933  16.468  0.6741  0.5929 -0.0473
  624TMC3    O1 9251   2.503   0.765  16.080 -0.4196 -0.0288 -0.1813
  624TMC3    O2 9252   2.016   0.874  16.430 -0.3971  0.6717 -0.5847
  625MPD2     C 9253   2.988   1.473   0.097  0.0971 -0.5945  0.1617
  625MPD2    C1 9254   3.038   1.596   0.142  0.0628 -0.8271  0.0700
  625MPD2    C2 9255   3.161   1.597   0.202 -0.3584  0.4875  0.2574
  625MPD2    C3 9256   3.237   1.483   0.219 -0.3932  0.2378 -0.2367
  625MPD2    C4 9257   3.188   1.358   0.187 -0.1766  0.2262  0.1830
  625MPD2    C5 9258   3.059   1.357   0.125 -0.8598 -0.2668  0.5487
  625MPD2     H 9259   3.200   1.691   0.239  1.2797 -0.6825  1.5004
  625MPD2    H1 9260   3.243   1.265   0.183  1.1265  1.0941 -1.7669
  625MPD2    H2 9261   2.891   1.471   0.047  0.7528  1.4708 -1.2096
  625MPD2    H3 9262   3.025   1.257   0.097 -0.3729 -0.3756  0.3554
  625MPD2     N 9263   3.368   1.512   0.272  0.0233 -0.0444  0.3609
  625MPD2    H5 9264   3.387   1.611   0.287 -1.0422 -0.1515  2.3974
  625MPD2    N1 9265   2.963   1.719   0.146 -0.0773 -0.5845 -0.1077
  625MPD2    H7 9266   3.002   1.794   0.201 -0.3206 -1.0338  0.6734
  626TMC3    C1 9267   2.816   1.884   0.120 -0.9318  0.4336 -0.4601
  626TMC3    C2 9268   2.768   1.955   0.012  0.4659 -0.6302 -0.4125
  626TMC3    C3 9269   2.778   2.093   0.029 -0.6646 -0.0572 -0.2964
  626TMC3    C4 9270   2.861   1.937   0.239  0.4171  0.7256  1.2172
  626TMC3    C5 9271   2.867   2.073   0.245  0.1057  0.1837  0.7212
  626TMC3    C6 9272   2.819   2.149   0.146 -0.4527 -0.0609  0.4831
  626TMC3     C 9273   2.843   1.743   0.093  0.2673 -0.3671 -1.0262
  626TMC3     O 9274   2.786   1.675   0.012  0.1395  0.7798  0.2922
  626TMC3     H 9275   2.765   1.918  17.584  0.7335  0.8214 -0.9551
  626TMC3    H1 9276   2.882   1.875   0.325  0.2324 -0.6465  0.2651
  626TMC3    H2 9277   2.831   2.257   0.158  1.1840 -0.3670  1.6540
  626TMC3    C7 9278   2.897   2.125   0.378 -0.4032  0.2657 -1.1120
  626TMC3    C8 9279   2.730   2.167  17.587  0.3082 -0.5709  0.7185
  626TMC3    O1 9280   2.963   2.056   0.456  0.1816  0.3221  0.0215
  626TMC3    O2 9281   2.745   2.129  17.474  0.3575  0.1144 -0.3819
  627MPD2     C 9282   1.861   2.142  14.095  0.2837 -0.2270  0.4482
  627MPD2    C1 9283   1.767   2.153  14.195  0.5371  0.1681  0.1075
  627MPD2    C2 9284   1.639   2.113  14.175  0.3861  0.4353  0.5722
  627MPD2    C3 9285   1.603   2.069  14.051 -0.7548 -0.0694  0.1638
  627MPD2    C4 9286   1.696   2.052  13.955  0.1143  0.0952 -0.0233
  627MPD2    C5 9287   1.828   2.082  13.979  0.0757 -0.7785  0.9145
  627MPD2     H 9288   1.568   2.112  14.257  0.3850 -0.5698  0.5564
  627MPD2    H1 9289   1.682   2.004  13.859  2.2751  1.7764 -1.1935
  627MPD2    H2 9290   1.968   2.156  14.099  0.0628  1.9813 -1.7311
  627MPD2    H3 9291   1.904   2.054  13.907 -0.8538  0.1658 -0.4320
  627MPD2     N 9292   1.470   2.013  14.044 -0.0263  0.1684 -0.1059
  627MPD2    H5 9293   1.405   2.053  14.110 -0.8034  1.1455 -1.4760
  627MPD2    N1 9294   1.816   2.224  14.313  0.3624 -0.2331 -0.1403
  627MPD2    H7 9295   1.915   2.248  14.317  0.4951 -1.4624  3.4943
  628TMC3    C1 9296   1.823   2.367  14.494 -1.0855 -0.0715 -0.3263
  628TMC3    C2 9297   1.941   2.323  14.540  0.6060  0.0141 -0.1979
  628TMC3    C3 9298   2.016   2.403  14.619 -0.0977  0.2775  0.8176
  628TMC3    C4 9299   1.782   2.503  14.509 -0.3415  0.3736 -0.0022
  628TMC3    C5 9300   1.866   2.581  14.585  0.2339 -0.6586  0.5027
  628TMC3    C6 9301   1.992   2.538  14.630 -0.1362  0.6396  0.1937
  628TMC3     C 9302   1.738   2.275  14.415  0.1700 -0.5272 -0.1094
  628TMC3     O 9303   1.617   2.298  14.424  0.2907 -0.1276 -0.0563
  628TMC3     H 9304   1.973   2.223  14.512  0.5283 -0.3737  1.0953
  628TMC3    H1 9305   1.676   2.524  14.505 -0.6043 -0.7255  1.1982
  628TMC3    H2 9306   2.055   2.604  14.688 -1.1270 -0.0358  2.0130
  628TMC3    C7 9307   1.817   2.722  14.614 -0.6269 -0.6023 -0.3351
  628TMC3    C8 9308   2.150   2.360  14.656 -0.2983  0.2425 -0.4817
  628TMC3    O1 9309   1.879   2.793  14.696  0.2838  0.0948  0.2122
  628TMC3    O2 9310   2.233   2.448  14.660 -0.4739 -0.0305 -0.1992
  629MPD2     C 9311   4.470   1.667  15.885 -0.1344  0.4918  0.1553
  629MPD2    C1 9312   4.421   1.539  15.913 -0.1258  0.5708  0.0101
  629MPD2    C2 9313   4.283   1.515  15.903 -0.3169 -0.6162 -0.0439
  629MPD2    C3 9314   4.193   1.622  15.868  0.2580 -0.2009 -0.1504
  629MPD2    C4 9315   4.247   1.747  15.849  0.0772  0.2871 -0.4627
  629MPD2    C5 9316   4.381   1.768  15.856 -0.2010 -0.0423 -0.1094
  629MPD2     H 9317   4.249   1.414  15.922  0.3634 -0.5067  1.7591
  629MPD2    H1 9318   4.190   1.837  15.828  1.4221  1.3178  0.3126
  629MPD2    H2 9319   4.577   1.683  15.890 -0.2158  1.0209  0.2901
  629MPD2    H3 9320   4.420   1.864  15.824  0.2564 -0.9630 -2.3031
  629MPD2     N 9321   4.054   1.599  15.856 -0.1134  0.2398  0.5903
  629MPD2    H5 9322   4.000   1.676  15.816 -4.0041 -2.4754  0.6645
  629MPD2    N1 9323   4.515   1.429  15.943 -0.0879  0.0487  0.9389
  629MPD2    H7 9324   4.610   1.461  15.959  0.5844 -1.3011 -0.3583
  630TMC3    C1 9325   4.602   1.232  16.016 -0.7260 -1.0668 -0.4006
  630TMC3    C2 9326   0.008   1.261  15.970 -0.0400  0.5747 -0.1611
  630TMC3    C3 9327   0.110   1.182  16.014  0.1452 -0.2248  0.1549
  630TMC3    C4 9328   4.580   1.138  16.116 -0.1434 -0.2355 -0.0911
  630TMC3    C5 9329   4.685   1.059  16.150 -0.3159 -0.1052  0.5538
  630TMC3    C6 9330   0.092   1.078  16.096  0.2695 -0.1581 -0.0167
  630TMC3     C 9331   4.482   1.300  15.970  0.4985 -0.2202  0.0432
  630TMC3     O 9332   4.374   1.247  15.983 -0.9458 -0.1119 -0.1006
  630TMC3     H 9333   0.018   1.330  15.887 -0.5228  0.1240 -0.5956
  630TMC3    H1 9334   4.479   1.108  16.144  0.3910 -1.2838  0.6996
  630TMC3    H2 9335   0.177   1.020  16.132 -0.4587 -0.1305  1.7638
  630TMC3    C7 9336   4.672   0.992  16.279 -0.3756  0.1432  0.0968
  630TMC3    C8 9337   0.245   1.226  15.989  0.0914 -0.1724 -0.5065
  630TMC3    O1 9338   4.570   1.025  16.341  0.0500 -0.1283  0.5042
  630TMC3    O2 9339   0.329   1.172  16.060  0.2239 -0.0548 -0.0110
  631MPD2     C 9340   3.068   0.491  15.317  0.1727 -0.2137  0.0824
  631MPD2    C1 9341   3.157   0.517  15.217  0.0178 -0.4041  0.3978
  631MPD2    C2 9342   3.290   0.512  15.241  0.0976 -0.3665 -0.2588
  631MPD2    C3 9343   3.346   0.482  15.366  0.0557 -0.2785 -0.2155
  631MPD2    C4 9344   3.257   0.460  15.463 -0.7155  0.3705 -0.3531
  631MPD2    C5 9345   3.119   0.460  15.442  0.6082 -0.2201  0.0682
  631MPD2     H 9346   3.358   0.516  15.157  0.0356 -0.2239 -0.3020
  631MPD2    H1 9347   3.287   0.435  15.564  1.4810  1.6612 -0.6984
  631MPD2    H2 9348   2.963   0.504  15.292  0.0543  1.8373  1.6626
  631MPD2    H3 9349   3.060   0.443  15.531 -0.5509 -1.2638 -0.9105
  631MPD2     N 9350   3.485   0.456  15.381  0.5761 -0.5264  0.5644
  631MPD2    H5 9351   3.540   0.443  15.297  1.0604  4.1155  0.1606
  631MPD2    N1 9352   3.095   0.548  15.090 -0.1330 -0.0005 -0.6779
  631MPD2    H7 9353   2.993   0.545  15.092 -0.0885 -0.9353  0.3074
  632TMC3    C1 9354   3.071   0.649  14.876  0.5666  0.3934 -0.3322
  632TMC3    C2 9355   2.937   0.638  14.884 -0.0157  0.0653  0.0502
  632TMC3    C3 9356   2.854   0.710  14.794  0.3115 -0.1070  0.2935
  632TMC3    C4 9357   3.123   0.726  14.779  0.2836 -0.7747  0.1305
  632TMC3    C5 9358   3.046   0.784  14.682 -0.4060  0.5703  0.0536
  632TMC3    C6 9359   2.911   0.785  14.690 -0.4173 -0.2413 -0.1193
  632TMC3     C 9360   3.160   0.589  14.972 -0.1368  0.1243  0.4369
  632TMC3     O 9361   3.282   0.593  14.959  1.1091  0.0643 -0.1805
  632TMC3     H 9362   2.890   0.567  14.951 -0.7575 -0.7894 -1.3453
  632TMC3    H1 9363   3.231   0.732  14.778  0.3575 -2.2100 -1.2785
  632TMC3    H2 9364   2.848   0.844  14.624  1.0813 -1.8535 -2.9986
  632TMC3    C7 9365   3.113   0.875  14.593  0.3174 -0.0208 -0.3417
  632TMC3    C8 9366   2.709   0.727  14.824 -0.1537  0.3707  0.0639
  632TMC3    O1 9367   3.061   0.887  14.481 -0.7725 -0.5592 -0.4859
  632TMC3    O2 9368   2.676   0.691  14.937 -0.2381  0.3316 -0.3236
  633MPD2     C 9369   2.624   3.318  16.920  0.5931  0.8271  0.4344
  633MPD2    C1 9370   2.711   3.351  16.816 -0.1833  0.1239 -0.1417
  633MPD2    C2 9371   2.802   3.253  16.763  0.2677  0.2260  0.7016
  633MPD2    C3 9372   2.819   3.132  16.832  0.3898 -0.8610  0.2551
  633MPD2    C4 9373   2.740   3.110  16.936 -0.1355  0.2497  0.0528
  633MPD2    C5 9374   2.656   3.202  16.987  0.7369  0.9134  0.5785
  633MPD2     H 9375   2.848   3.276  16.667 -1.5622 -1.1412 -0.4983
  633MPD2    H1 9376   2.763   3.020  16.992 -3.2752 -1.3224 -1.2076
  633MPD2    H2 9377   2.536   3.375  16.948 -1.0651 -1.4104 -0.1752
  633MPD2    H3 9378   2.589   3.162  17.063  1.0677  1.2874  1.0651
  633MPD2     N 9379   2.910   3.034  16.787  0.1301 -0.1565 -0.2026
  633MPD2    H5 9380   2.900   2.938  16.821 -0.5908  0.2030  0.6225
  633MPD2    N1 9381   2.694   3.456  16.728  0.0795 -0.1611 -0.3015
  633MPD2    H7 9382   2.760   3.466  16.652 -2.3093 -1.3902 -2.5184
  634TMC3    C1 9383   2.594   3.633  16.619 -0.0418  0.5076  0.4750
  634TMC3    C2 9384   2.635   3.564  16.498 -0.3162 -0.0523 -0.3553
  634TMC3    C3 9385   2.659   3.643  16.390 -0.3064  0.0006  0.0871
  634TMC3    C4 9386   2.554   3.762  16.622 -0.4048 -0.1490 -0.0597
  634TMC3    C5 9387   2.594   3.832  16.516  0.0706 -0.2922 -0.3967
  634TMC3    C6 9388   2.664   3.778  16.412 -0.5106  0.1212  0.1681
  634TMC3     C 9389   2.594   3.550  16.734  0.5229 -0.2896  0.1310
  634TMC3     O 9390   2.510   3.571  16.822  0.7961  0.3259 -0.1796
  634TMC3     H 9391   2.651   3.457  16.499 -0.2288 -0.0663 -2.3279
  634TMC3    H1 9392   2.522   3.801  16.718  0.2707  0.3017 -0.0147
  634TMC3    H2 9393   2.692   3.838  16.326 -0.3427  2.3880  1.8112
  634TMC3    C7 9394   2.521   3.955  16.489  0.0470  0.4328  1.1435
  634TMC3    C8 9395   2.701   3.577  16.275 -0.4209  0.3265 -0.1117
  634TMC3    O1 9396   2.505   3.982  16.370  0.0332 -0.0055  0.6194
  634TMC3    O2 9397   2.704   3.456  16.281  0.4546 -0.4230 -0.1629
  635TMC3    C1 9398   2.764   4.575  17.327 -0.1185 -0.1092  0.4103
  635TMC3    C2 9399   2.829   4.458  17.292  0.2723 -0.4990 -0.5294
  635TMC3    C3 9400   2.867   4.447  17.161 -0.5043 -0.6963  0.3805
  635TMC3    C4 9401   2.743   4.685  17.244 -0.0340  0.1119 -0.6021
  635TMC3    C5 9402   2.772   4.661  17.113  0.5142 -0.7667  0.0202
  635TMC3    C6 9403   2.827   4.542  17.069 -0.9209  0.4370  0.4459
  635TMC3     C 9404   2.658   4.565  17.422  0.8805  0.2370  0.6131
  635TMC3     O 9405   2.558   4.633  17.393 -0.5722  0.6812  0.3327
  635TMC3     H 9406   2.837   4.375  17.361 -3.4431  0.9175  1.6329
  635TMC3    H1 9407   2.700   0.056  17.290  0.9680  0.8447 -1.0856
  635TMC3    H2 9408   2.819   4.531  16.961 -4.1956  0.1725  0.6927
  635TMC3    C7 9409   2.733   0.046  17.020 -0.1627  0.2162 -0.3412
  635TMC3    C8 9410   2.921   4.321  17.112 -0.2431  0.7928  0.6930
  635TMC3    O1 9411   2.642   0.118  17.051 -0.6708  0.2163 -0.9637
  635TMC3    O2 9412   2.941   4.232  17.190 -0.1772 -0.7761 -0.1535
  636MPD2     C 9413   3.615   4.356  15.301 -0.1104  0.1000 -0.2524
  636MPD2    C1 9414   3.659   4.402  15.422  0.8355 -0.2853  0.3947
  636MPD2    C2 9415   3.717   4.310  15.509 -0.2771  0.1920 -0.6257
  636MPD2    C3 9416   3.744   4.177  15.478 -0.1350 -0.3048  0.4735
  636MPD2    C4 9417   3.713   4.139  15.347  0.0925  0.4389 -0.9750
  636MPD2    C5 9418   3.654   4.229  15.267 -0.5765 -0.5176  0.8679
  636MPD2     H 9419   3.734   4.350  15.608 -1.2154  1.1746 -0.8653
  636MPD2    H1 9420   3.718   4.040  15.303  2.9086  0.4973 -0.7919
  636MPD2    H2 9421   3.554   4.421  15.240  0.6505  0.8826 -0.1868
  636MPD2    H3 9422   3.608   4.187  15.178 -1.8462  1.8087  0.4231
  636MPD2     N 9423   3.785   4.086  15.576  0.7832 -0.2677  0.1194
  636MPD2    H5 9424   3.804   4.129  15.666  0.6023 -0.8710  0.4469
  636MPD2    N1 9425   3.623   4.533  15.470  0.3531  0.6278 -0.0643
  636MPD2    H7 9426   3.616   4.544  15.571 -1.5343 -1.4605  0.0312
  637TMC3    C1 9427   3.849   3.872  15.656  0.1753 -0.1787 -0.3931
  637TMC3    C2 9428   3.864   3.915  15.779 -0.9603  0.3280  0.2160
  637TMC3    C3 9429   3.899   3.826  15.883  0.5358  0.3741 -0.8688
  637TMC3    C4 9430   3.876   3.741  15.625 -0.7034 -0.9238  0.1445
  637TMC3    C5 9431   3.920   3.655  15.720 -0.1491  0.0913 -0.1124
  637TMC3    C6 9432   3.915   3.689  15.858  0.5768 -0.1666 -0.2947
  637TMC3     C 9433   3.818   3.958  15.542 -0.7624  0.0170  0.2718
  637TMC3     O 9434   3.851   3.913  15.431  0.2803 -0.6891  0.3428
  637TMC3     H 9435   3.855   4.021  15.799  0.1992  0.6301 -0.8699
  637TMC3    H1 9436   3.865   3.714  15.520  0.1097 -0.7523  0.0148
  637TMC3    H2 9437   3.963   3.616  15.923  2.3292 -0.6388 -2.1213
  637TMC3    C7 9438   4.034   3.574  15.691  0.0402 -0.0420  0.2128
  637TMC3    C8 9439   4.006   3.868  15.971  0.5036  0.1233 -0.3363
  637TMC3    O1 9440   4.099   3.526  15.779  0.4008 -0.3572 -0.5708
  637TMC3    O2 9441   4.071   3.965  15.939 -0.4378  0.3806 -0.2704
  638MPD2     C 9442   3.541   3.186  14.445 -1.1785  0.0693  0.4669
  638MPD2    C1 9443   3.515   3.064  14.386  0.1020  0.1444  0.4852
  638MPD2    C2 9444   3.461   2.959  14.467 -0.1665  0.7663 -0.3346
  638MPD2    C3 9445   3.446   2.972  14.605  0.2990  0.4467 -0.1094
  638MPD2    C4 9446   3.478   3.096  14.659 -0.0815  0.0061  1.2544
  638MPD2    C5 9447   3.521   3.199  14.578 -0.2824 -0.5065  0.2161
  638MPD2     H 9448   3.445   2.859  14.427 -3.1752  1.0716  0.1841
  638MPD2    H1 9449   3.488   3.109  14.766  2.3074  0.3863  1.0005
  638MPD2    H2 9450   3.582   3.265  14.383 -0.3781 -1.1938 -0.6260
  638MPD2    H3 9451   3.546   3.292  14.629  2.4634 -0.1872 -1.6739
  638MPD2     N 9452   3.401   2.860  14.688 -0.8225 -0.2812  0.0220
  638MPD2    H5 9453   3.362   2.781  14.638 -3.5859  1.0213  0.1047
  638MPD2    N1 9454   3.550   3.050  14.245  0.3343 -0.2139 -0.4281
  638MPD2    H7 9455   3.600   3.125  14.199 -1.9053  0.8744 -1.0950
  639TMC3    C1 9456   3.404   2.693  14.856  0.2075 -1.0375  0.1630
  639TMC3    C2 9457   3.286   2.629  14.816 -0.3565 -0.3000 -0.4053
  639TMC3    C3 9458   3.253   2.509  14.861  0.4515 -0.2210 -0.5127
  639TMC3    C4 9459   3.496   2.622  14.928  0.1318 -0.3823 -0.5353
  639TMC3    C5 9460   3.471   2.493  14.953  0.0567 -0.0438 -1.0671
  639TMC3    C6 9461   3.344   2.434  14.924 -0.2141  0.1902  0.2706
  639TMC3     C 9462   3.438   2.836  14.819 -0.6091 -0.2682 -0.0711
  639TMC3     O 9463   3.515   2.897  14.885  0.4647 -0.3137 -0.0091
  639TMC3     H 9464   3.214   2.683  14.755  0.8550  0.2380 -1.3629
  639TMC3    H1 9465   3.591   2.664  14.958 -0.8171  0.6942  1.0187
  639TMC3    H2 9466   3.321   2.333  14.955  2.0845 -1.5962 -3.9576
  639TMC3    C7 9467   3.589   2.409  14.965 -0.1930  0.5002 -0.0675
  639TMC3    C8 9468   3.176   2.426  14.778 -0.7739  0.4007  0.1696
  639TMC3    O1 9469   3.575   2.299  15.019 -0.1774 -0.1013  0.6621
  639TMC3    O2 9470   3.208   2.427  14.657  0.2157  0.2579 -0.6099
  640MPD2     C 9471   4.181   1.167   9.972 -0.1413  0.7057 -0.1884
  640MPD2    C1 9472   4.092   1.181   9.872 -0.2268 -0.0952 -0.7278
  640MPD2    C2 9473   3.971   1.249   9.896 -0.4633 -0.1827  0.1699
  640MPD2    C3 9474   3.952   1.314  10.016  0.4016 -0.2519 -0.5919
  640MPD2    C4 9475   4.043   1.286  10.115  0.2522  0.0586 -0.4939
  640MPD2    C5 9476   4.161   1.227  10.091  0.3137 -0.1118  0.7236
  640MPD2     H 9477   3.892   1.252   9.821  2.0712 -1.1130 -2.5309
  640MPD2    H1 9478   4.023   1.330  10.212  2.6820 -1.1213  0.5353
  640MPD2    H2 9479   4.278   1.121   9.959  0.0322  0.6894  1.1913
  640MPD2    H3 9480   4.241   1.228  10.164  0.2826  0.7558  0.7428
  640MPD2     N 9481   3.836   1.388  10.043 -0.2979 -0.5284 -0.3966
  640MPD2    H5 9482   3.803   1.405  10.138  3.2045  0.3371  0.6697
  640MPD2    N1 9483   4.113   1.108   9.755 -0.0961 -0.5848  1.0733
  640MPD2    H7 9484   4.199   1.054   9.751 -0.0315 -0.4472  0.5696
  641TMC3    C1 9485   4.093   1.057   9.526  0.2309  0.2749 -0.7538
  641TMC3    C2 9486   4.190   0.971   9.532  0.2178  0.3592 -0.0603
  641TMC3    C3 9487   4.214   0.894   9.420 -0.4397  0.2789 -0.5933
  641TMC3    C4 9488   4.015   1.065   9.416 -0.2381 -0.2373 -0.3964
  641TMC3    C5 9489   4.042   0.991   9.299 -0.7794 -0.2592  0.3938
  641TMC3    C6 9490   4.142   0.901   9.304 -0.6869 -0.2862  0.1248
  641TMC3     C 9491   4.045   1.134   9.637  0.0852 -0.1339  0.8675
  641TMC3     O 9492   3.959   1.216   9.608 -0.7839 -0.5879 -0.3774
  641TMC3     H 9493   4.265   0.974   9.610  1.9768 -0.5659 -1.7382
  641TMC3    H1 9494   3.930   1.132   9.415 -0.2082 -0.2250 -4.2723
  641TMC3    H2 9495   4.168   0.843   9.216 -2.1573 -2.0599  0.8781
  641TMC3    C7 9496   3.990   1.050   9.176  0.2419  0.2949  0.1752
  641TMC3    C8 9497   4.323   0.796   9.422 -0.7845  0.0902 -0.4824
  641TMC3    O1 9498   3.882   1.100   9.182  0.1957  0.2118 -0.0075
  641TMC3    O2 9499   4.337   0.731   9.321  0.5487  0.2140  0.1111
  642TMC3    C1 9500   0.508   3.027  11.888 -0.0387 -0.1034  0.2488
  642TMC3    C2 9501   0.642   3.023  11.883 -0.3703  0.5249 -0.2294
  642TMC3    C3 9502   0.712   2.903  11.892  0.0017  0.4226  0.3710
  642TMC3    C4 9503   0.429   2.912  11.898 -0.4472 -0.0984  0.4973
  642TMC3    C5 9504   0.507   2.794  11.921 -0.6206  0.4600 -0.1320
  642TMC3    C6 9505   0.645   2.783  11.910 -0.2017 -0.2645 -0.2231
  642TMC3     C 9506   0.448   3.166  11.866  0.1301  0.5728  0.1010
  642TMC3     O 9507   0.513   3.253  11.815 -0.7681 -0.3121 -0.2485
  642TMC3     H 9508   0.696   3.113  11.857  0.7662 -0.4126 -1.0819
  642TMC3    H1 9509   0.321   2.909  11.886 -0.4218  0.8495  0.0139
  642TMC3    H2 9510   0.691   2.685  11.921 -0.3995 -0.2620  0.6157
  642TMC3    C7 9511   0.428   2.673  11.908  0.3811 -0.5283  0.8660
  642TMC3    C8 9512   0.857   2.905  11.912 -0.8053  0.2919  0.2869
  642TMC3    O1 9513   0.479   2.578  11.852 -0.1257  0.3212 -0.1454
  642TMC3    O2 9514   0.911   2.801  11.872 -0.4604  0.5510 -0.0380
  643TMC3    C1 9515   4.215   2.084   0.478  0.1457 -0.7851 -0.5768
  643TMC3    C2 9516   4.079   2.065   0.449 -0.2438  0.7283 -0.1189
  643TMC3    C3 9517   4.038   1.939   0.408  0.6056 -0.3567  0.3784
  643TMC3    C4 9518   4.308   1.991   0.454 -0.2508 -0.4026 -0.7784
  643TMC3    C5 9519   4.266   1.866   0.416  0.0219  0.1127 -1.0125
  643TMC3    C6 9520   4.132   1.842   0.404 -0.1298 -1.0642 -0.2071
  643TMC3     C 9521   4.248   2.216   0.533 -0.0597  0.5392 -0.0471
  643TMC3     O 9522   4.168   2.286   0.599 -0.2135 -0.2451  0.7448
  643TMC3     H 9523   4.012   2.151   0.451 -2.0756 -0.6682 -0.9009
  643TMC3    H1 9524   4.415   2.006   0.469 -1.0135  0.5169  3.6947
  643TMC3    H2 9525   4.096   1.746   0.368 -1.7582 -0.5770  0.1611
  643TMC3    C7 9526   4.343   1.824   0.305  0.9074 -0.8015 -0.1292
  643TMC3    C8 9527   3.982   1.933   0.275 -0.4544 -0.1780  0.1473
  643TMC3    O1 9528   4.423   1.908   0.264  0.0732  0.6285 -0.2565
  643TMC3    O2 9529   3.937   1.827   0.230 -0.2428 -0.1290 -0.1995
  644MPD2     C 9530   3.677   1.586   9.038  0.0823 -0.1154  0.7968
  644MPD2    C1 9531   3.720   1.522   9.157  0.2521  0.0675  0.1583
  644MPD2    C2 9532   3.626   1.471   9.250 -0.3097  0.0100 -0.1699
  644MPD2    C3 9533   3.496   1.497   9.231  0.1557  0.3084 -0.0885
  644MPD2    C4 9534   3.450   1.570   9.120 -0.9790 -0.6825  0.0306
  644MPD2    C5 9535   3.544   1.616   9.028  0.2684 -0.2529 -0.1896
  644MPD2     H 9536   3.657   1.411   9.334 -1.4493 -1.6330 -0.9183
  644MPD2    H1 9537   3.347   1.597   9.100 -1.2496 -0.6856  1.4469
  644MPD2    H2 9538   3.745   1.620   8.961  2.1476  0.2614  2.7605
  644MPD2    H3 9539   3.503   1.670   8.943 -0.1015 -0.9063 -0.4317
  644MPD2     N 9540   3.409   1.447   9.327 -0.1230 -0.0292 -0.5171
  644MPD2    H5 9541   3.448   1.404   9.410  2.0337  2.8469 -0.0260
  644MPD2    N1 9542   3.856   1.488   9.175  0.1558  0.6485  0.0896
  644MPD2    H7 9543   3.919   1.525   9.104 -0.4555 -0.9854 -1.2831
  645TMC3    C1 9544   3.211   1.394   9.444 -1.0391  0.0364  0.6011
  645TMC3    C2 9545   3.266   1.280   9.487 -0.5685 -1.6832  0.1652
  645TMC3    C3 9546   3.184   1.194   9.556 -0.2905 -0.0482 -0.0662
  645TMC3    C4 9547   3.083   1.429   9.467  0.8333 -0.8327  0.0439
  645TMC3    C5 9548   3.000   1.337   9.522 -0.7457 -0.1718 -0.6312
  645TMC3    C6 9549   3.052   1.224   9.583  0.1716 -0.4370  0.4235
  645TMC3     C 9550   3.274   1.476   9.342  0.8892 -0.7788  0.3482
  645TMC3     O 9551   3.201   1.555   9.283 -0.3939  0.0792  0.1771
  645TMC3     H 9552   3.369   1.252   9.467 -0.2388 -1.3485  1.3897
  645TMC3    H1 9553   3.037   1.518   9.426  0.1189 -1.5531 -0.7346
  645TMC3    H2 9554   2.989   1.142   9.614 -0.8497 -0.0431 -0.5981
  645TMC3    C7 9555   2.857   1.364   9.526  0.3327 -0.3938 -0.4386
  645TMC3    C8 9556   3.261   1.097   9.633 -0.1455 -0.0753 -0.2547
  645TMC3    O1 9557   2.820   1.458   9.462 -0.2993 -0.0274 -0.6092
  645TMC3    O2 9558   3.382   1.089   9.616  0.2818 -0.0058 -0.4091
  646MPD2     C 9559   3.859   1.720  14.615  0.1737  1.0077 -0.2362
  646MPD2    C1 9560   3.739   1.665  14.665 -0.3902 -0.1051  0.2611
  646MPD2    C2 9561   3.615   1.688  14.602  1.0319 -0.0987  0.1154
  646MPD2    C3 9562   3.619   1.755  14.479 -0.2684 -0.1089  0.1219
  646MPD2    C4 9563   3.738   1.813  14.435  0.0436  0.1314  0.1711
  646MPD2    C5 9564   3.858   1.798  14.503 -0.3677  0.0695  0.8009
  646MPD2     H 9565   3.520   1.644  14.629  2.4802 -2.5011  1.3569
  646MPD2    H1 9566   3.736   1.873  14.344  2.2499  0.2543  0.2078
  646MPD2    H2 9567   3.955   1.700  14.661  1.5136  0.1412 -3.4479
  646MPD2    H3 9568   3.955   1.842  14.482 -0.1004 -0.4051  1.0206
  646MPD2     N 9569   3.495   1.754  14.408  1.0519 -0.7464  0.4753
  646MPD2    H5 9570   3.416   1.706  14.450  1.6712 -1.6606  0.5906
  646MPD2    N1 9571   3.751   1.579  14.780 -0.8137  0.0618  0.1667
  646MPD2    H7 9572   3.844   1.560  14.817  0.1329 -0.1863 -2.3596
  647TMC3    C1 9573   3.682   1.435  14.963  0.3645  0.0409  0.1659
  647TMC3    C2 9574   3.607   1.325  14.982 -0.1997 -0.9594  0.2742
  647TMC3    C3 9575   3.652   1.248  15.092 -0.8117 -0.6762  0.4436
  647TMC3    C4 9576   3.785   1.485  15.045  1.3362 -0.9815 -0.7489
  647TMC3    C5 9577   3.834   1.399  15.147 -0.3221  0.0356  1.0106
  647TMC3    C6 9578   3.764   1.274  15.167  0.1135 -0.1147  0.2124
  647TMC3     C 9579   3.647   1.517  14.840  0.2467 -0.0712  0.3651
  647TMC3     O 9580   3.534   1.494  14.801 -0.3139  1.2097  0.2906
  647TMC3     H 9581   3.529   1.283  14.920 -1.9915  2.3039  0.3054
  647TMC3    H1 9582   3.837   1.575  15.018 -2.0309  1.1354 -0.2360
  647TMC3    H2 9583   3.798   1.209  15.247 -0.6554  0.8628  1.3425
  647TMC3    C7 9584   3.965   1.417  15.204 -0.1860 -0.1233  0.0874
  647TMC3    C8 9585   3.624   1.109  15.078 -0.2817 -0.1744 -0.0925
  647TMC3    O1 9586   4.022   1.320  15.244 -0.1562 -0.4867  0.0811
  647TMC3    O2 9587   3.513   1.068  15.052 -0.0800  0.3125 -0.0720
  648TMC3    C1 9588   3.049   4.005  15.608 -0.2092  0.0898  0.1756
  648TMC3    C2 9589   3.077   3.886  15.547  0.2487 -0.0957 -0.2142
  648TMC3    C3 9590   3.002   3.858  15.429 -1.0727 -0.0412 -0.3011
  648TMC3    C4 9591   2.961   4.097  15.551  0.8814  0.0443  0.0245
  648TMC3    C5 9592   2.894   4.067  15.429 -0.2040 -0.7927  0.5925
  648TMC3    C6 9593   2.920   3.951  15.364 -0.0234  0.3155  0.5982
  648TMC3     C 9594   3.079   4.014  15.753  0.1551  0.5980  0.5214
  648TMC3     O 9595   3.066   4.130  15.793 -0.3826  0.0022 -0.1101
  648TMC3     H 9596   3.146   3.810  15.583 -0.4196  0.2616  1.8387
  648TMC3    H1 9597   2.953   4.193  15.601  0.4742  0.5392 -0.9908
  648TMC3    H2 9598   2.851   3.927  15.285 -0.6431  1.2536  0.8457
  648TMC3    C7 9599   2.775   4.138  15.399  0.1195  0.0705  0.6922
  648TMC3    C8 9600   2.979   3.717  15.411  0.1160 -0.5404  0.0419
  648TMC3    O1 9601   2.743   4.149  15.279  0.2656  0.4423 -0.0233
  648TMC3    O2 9602   2.863   3.685  15.380  0.1141  0.0576  0.1323
  649TMC3    C1 9603   1.330   0.092  12.574  0.9970  0.1941  0.2784
  649TMC3    C2 9604   1.429   0.127  12.500  0.0686 -0.6902  0.3975
  649TMC3    C3 9605   1.544   0.061  12.521  0.0852  0.3655  0.2305
  649TMC3    C4 9606   1.330   4.714  12.666 -0.4119 -0.1312  0.7525
  649TMC3    C5 9607   1.452   4.652  12.690 -0.1366  0.1797 -0.3742
  649TMC3    C6 9608   1.559   4.686  12.617  0.4824  0.7592 -0.0187
  649TMC3     C 9609   1.205   0.155  12.547  0.1498 -0.1168 -1.2392
  649TMC3     O 9610   1.214   0.274  12.521  0.2367 -0.1632  0.0129
  649TMC3     H 9611   1.424   0.202  12.422 -1.8263  0.8746  2.0185
  649TMC3    H1 9612   1.243   4.702  12.730  0.6734  0.0790  2.2782
  649TMC3    H2 9613   1.656   4.639  12.627 -0.5862 -1.4013  0.1641
  649TMC3    C7 9614   1.449   4.568  12.802 -0.1331 -0.2720 -0.3829
  649TMC3    C8 9615   1.658   0.087  12.433 -0.1913  0.6592  0.3241
  649TMC3    O1 9616   1.347   4.578  12.871  0.9972  0.1115 -0.1109
  649TMC3    O2 9617   1.771   0.075  12.469 -0.1032  0.5951  0.2029
  650TMC3    C1 9618   4.700   2.124  12.420 -0.4810 -0.2779  0.8668
  650TMC3    C2 9619   4.666   2.251  12.454  0.2535  0.4943  0.2271
  650TMC3    C3 9620   4.532   2.287  12.445 -0.2325  0.7423 -0.3173
  650TMC3    C4 9621   4.606   2.034  12.377 -0.6159  0.3242  0.2406
  650TMC3    C5 9622   4.473   2.074  12.374 -0.6670 -0.1394  0.0262
  650TMC3    C6 9623   4.431   2.195  12.414 -0.4525 -0.2127  0.1884
  650TMC3     C 9624   0.123   2.079  12.449  0.2523 -0.0336 -0.1977
  650TMC3     O 9625   0.206   2.169  12.468  0.5702  0.0800 -0.4003
  650TMC3     H 9626   0.021   2.329  12.477  0.6279 -0.0786  0.9813
  650TMC3    H1 9627   4.628   1.938  12.331 -2.0676  0.9509 -1.7595
  650TMC3    H2 9628   4.328   2.224  12.427 -0.5782  0.4387 -2.2772
  650TMC3    C7 9629   4.386   1.985  12.300 -0.5138 -0.1791 -0.3198
  650TMC3    C8 9630   4.495   2.429  12.453 -0.3444 -0.2217 -0.4114
  650TMC3    O1 9631   4.394   1.863  12.324 -0.8278  0.1154 -0.9129
  650TMC3    O2 9632   4.579   2.511  12.422  0.0224  0.4020  0.5723
  651MPD2     C 9633   3.386   3.661  10.541  0.2723  0.2713 -0.0631
  651MPD2    C1 9634   3.372   3.796  10.509 -0.5817 -0.1277 -1.0022
  651MPD2    C2 9635   3.480   3.875  10.503 -0.3206  0.0063  0.3294
  651MPD2    C3 9636   3.610   3.833  10.539  0.0289  0.6616 -0.3417
  651MPD2    C4 9637   3.617   3.706  10.593 -0.4937  0.5358  0.6471
  651MPD2    C5 9638   3.505   3.624  10.592 -0.5193 -0.0088  0.7127
  651MPD2     H 9639   3.467   3.979  10.473 -0.1014 -0.0115  0.1722
  651MPD2    H1 9640   3.710   3.664  10.631  0.4674  0.3774 -1.9154
  651MPD2    H2 9641   3.306   3.588  10.545 -0.4283  0.9143 -2.0628
  651MPD2    H3 9642   3.517   3.519  10.615  2.1278  0.5914  2.0381
  651MPD2     N 9643   3.722   3.925  10.530  0.5820  0.0459  0.4231
  651MPD2    H5 9644   3.715   4.015  10.484  0.0816 -0.3619 -0.2823
  651MPD2    N1 9645   3.245   3.858  10.477 -0.6988  0.1719 -0.4820
  651MPD2    H7 9646   3.244   3.955  10.448 -1.7967  1.2466  3.1552
  652TMC3    C1 9647   4.166   4.072  10.524  0.3105  0.5301  0.6995
  652TMC3    C2 9648   4.081   3.967  10.541  0.0816  0.4506  0.3194
  652TMC3    C3 9649   3.945   4.004  10.546  0.3988 -1.2113 -0.3152
  652TMC3    C4 9650   4.123   4.202  10.502  0.5838  0.0013  0.6947
  652TMC3    C5 9651   3.987   4.229  10.501 -0.4965 -0.4786  0.4339
  652TMC3    C6 9652   3.897   4.132  10.528 -0.2016  0.5625  0.4311
  652TMC3     C 9653   4.294   4.057  10.591  0.1306 -0.9502 -0.1031
  652TMC3     O 9654   4.293   4.000  10.698 -0.2643  0.0519 -0.0627
  652TMC3     H 9655   4.115   3.870  10.577 -2.4891 -0.8526 -0.6767
  652TMC3    H1 9656   4.200   4.277  10.501  0.6237 -0.0746 -2.1633
  652TMC3    H2 9657   3.795   4.166  10.544 -1.0767 -2.6754  1.6432
  652TMC3    C7 9658   3.947   4.366  10.522  0.5636 -0.6469  0.2904
  652TMC3    C8 9659   3.846   3.895  10.576  0.2320  0.5060 -0.1621
  652TMC3    O1 9660   3.858   4.390  10.600 -0.0118  0.2500 -0.1191
  652TMC3    O2 9661   3.895   3.791  10.620  0.1046 -0.2152  0.5099
  653MPD2     C 9662   2.452   3.851  17.319 -0.1828 -0.4415 -0.1238
  653MPD2    C1 9663   2.332   3.932  17.317 -0.3054  0.1856 -0.3205
  653MPD2    C2 9664   2.220   3.881  17.268  0.7017  0.3444  0.0818
  653MPD2    C3 9665   2.214   3.750  17.223 -0.2221 -0.2203 -0.5458
  653MPD2    C4 9666   2.333   3.683  17.207 -0.0737 -0.1395 -0.1901
  653MPD2    C5 9667   2.450   3.729  17.259  0.4774 -0.4614  0.3965
  653MPD2     H 9668   2.134   3.946  17.273  1.1874  0.9198  0.8935
  653MPD2    H1 9669   2.342   3.587  17.158  1.7273 -0.3341  0.5361
  653MPD2    H2 9670   2.546   3.896  17.349 -0.8881  0.9774 -0.0556
  653MPD2    H3 9671   2.545   3.679  17.258 -0.0465 -1.4325 -0.1516
  653MPD2     N 9672   2.091   3.701  17.177 -0.0692  0.4096 -0.1833
  653MPD2    H5 9673   2.019   3.770  17.163 -0.3484  0.0686 -0.4359
  653MPD2    N1 9674   2.328   4.057  17.371  0.1669 -0.7348  0.0701
  653MPD2    H7 9675   2.238   4.104  17.366 -0.3483 -1.9078 -1.4194
  654TMC3    C1 9676   1.956   3.562  17.046  0.3706  0.2068  0.8408
  654TMC3    C2 9677   1.899   3.673  16.992  0.3687 -0.3918  0.6255
  654TMC3    C3 9678   1.847   3.671  16.867  0.0761  0.0354  0.2083
  654TMC3    C4 9679   1.965   3.451  16.967 -0.0198  0.2740  0.4312
  654TMC3    C5 9680   1.914   3.451  16.839  0.3895  0.1535  0.3773
  654TMC3    C6 9681   1.849   3.559  16.792  0.0725 -0.2035  0.5318
  654TMC3     C 9682   2.062   3.573  17.145 -0.2104 -0.0463  0.3411
  654TMC3     O 9683   2.110   3.472  17.187 -0.9654  0.5505 -0.2003
  654TMC3     H 9684   1.882   3.767  17.044  1.7744  0.5648 -0.6275
  654TMC3    H1 9685   1.990   3.358  17.017  0.3926  0.9515  1.4653
  654TMC3    H2 9686   1.797   3.554  16.698 -1.1797  0.5871  1.1815
  654TMC3    C7 9687   1.931   3.336  16.755  0.4453  0.1760 -0.1640
  654TMC3    C8 9688   1.745   3.773  16.837  0.5394 -0.1557  0.3217
  654TMC3    O1 9689   1.864   3.330  16.656 -0.2464  0.3593  0.1100
  654TMC3    O2 9690   1.701   3.844  16.926  0.2194 -0.5566  0.0098
  655MPD2     C 9691   3.300   4.264  15.453  0.0360 -0.5350  0.4373
  655MPD2    C1 9692   3.185   4.286  15.376  0.2774 -0.7172 -0.4740
  655MPD2    C2 9693   3.156   4.203  15.269  0.0749  0.0194 -0.3911
  655MPD2    C3 9694   3.237   4.093  15.244  0.0076 -0.1809  0.0197
  655MPD2    C4 9695   3.330   4.065  15.336  0.0381  0.4715  0.3732
  655MPD2    C5 9696   3.367   4.145  15.438 -0.2774  0.2641  0.2106
  655MPD2     H 9697   3.065   4.215  15.212  0.5286  1.8534 -0.7258
  655MPD2    H1 9698   3.387   3.974  15.321 -0.9757  0.0957 -1.1786
  655MPD2    H2 9699   3.330   4.335  15.530 -1.4423 -0.4577  0.9402
  655MPD2    H3 9700   3.439   4.103  15.508 -1.2659 -0.3685  0.8315
  655MPD2     N 9701   3.217   3.990  15.146  0.2249 -0.0648  0.6844
  655MPD2    H5 9702   3.291   3.922  15.137 -0.0459 -0.2393 -0.1965
  655MPD2    N1 9703   3.095   4.389  15.405 -0.7490 -0.0513 -0.0530
  655MPD2    H7 9704   3.007   4.395  15.354 -0.1272 -2.0668 -1.3655
  656TMC3    C1 9705   2.977   4.536  15.543 -0.0964 -0.6484 -0.2124
  656TMC3    C2 9706   2.944   4.514  15.674 -0.5037  0.5592 -0.2589
  656TMC3    C3 9707   2.818   4.548  15.708  0.6937  0.1355  0.1429
  656TMC3    C4 9708   2.880   4.549  15.448  0.4803  0.1836 -0.1324
  656TMC3    C5 9709   2.746   4.572  15.480 -0.4756  0.2767 -0.3293
  656TMC3    C6 9710   2.722   4.573  15.615  0.0685 -0.0235  0.3380
  656TMC3     C 9711   3.108   4.492  15.498 -0.5040 -0.0885 -1.0955
  656TMC3     O 9712   3.196   4.515  15.582  0.1941  0.0385 -0.1933
  656TMC3     H 9713   3.012   4.495  15.756 -1.6033  1.4490  0.8574
  656TMC3    H1 9714   2.906   4.555  15.343  1.6197 -0.8020  0.0910
  656TMC3    H2 9715   2.622   4.575  15.656 -0.8731  0.0163 -1.9352
  656TMC3    C7 9716   2.643   4.607  15.383 -0.5819  0.5017  0.3204
  656TMC3    C8 9717   2.768   4.449  15.805  0.0002  0.3416  0.2266
  656TMC3    O1 9718   2.664   4.580  15.266  0.1158  0.3846 -0.2138
  656TMC3    O2 9719   2.817   4.337  15.795  0.5115 -0.0236  0.2441
  657TMC3    C1 9720   2.063   3.541  14.373  0.4430 -0.8785 -0.3979
  657TMC3    C2 9721   2.089   3.549  14.513  0.0123 -0.0238 -0.0692
  657TMC3    C3 9722   2.017   3.642  14.580 -0.8089  0.4458  0.4102
  657TMC3    C4 9723   1.963   3.610  14.310  0.4513  0.1443 -0.2045
  657TMC3    C5 9724   1.886   3.700  14.381  0.7185 -0.4611 -0.5303
  657TMC3    C6 9725   1.920   3.717  14.515  0.1218 -0.5875  0.2950
  657TMC3     C 9726   2.143   3.466  14.286  0.7867  0.4800  0.0149
  657TMC3     O 9727   2.086   3.435  14.183  0.1803  0.2447 -0.2510
  657TMC3     H 9728   2.174   3.501  14.559  2.0455  0.6224 -3.1434
  657TMC3    H1 9729   1.951   3.608  14.202  2.2193  2.0602 -0.4439
  657TMC3    H2 9730   1.858   3.775  14.582 -0.8823  2.2347 -3.0999
  657TMC3    C7 9731   1.789   3.786  14.315 -0.0234  0.0727 -0.1086
  657TMC3    C8 9732   2.026   3.646  14.732  0.0377  0.2771  0.2305
  657TMC3    O1 9733   1.755   3.885  14.380  0.2636 -0.2693  1.0749
  657TMC3    O2 9734   1.975   3.734  14.796 -0.7242 -0.0658 -0.5901
  658MPD2     C 9735   3.712   3.838  14.753 -0.1701  0.0333  0.2025
  658MPD2    C1 9736   3.594   3.886  14.709 -0.0108  0.3656 -0.1488
  658MPD2    C2 9737   3.605   3.992  14.621 -0.1057 -0.3188 -0.3214
  658MPD2    C3 9738   3.721   4.046  14.573 -0.1169  0.8677 -0.4480
  658MPD2    C4 9739   3.839   3.990  14.619  0.7491 -0.1523  0.5073
  658MPD2    C5 9740   3.827   3.895  14.713  0.5108  0.1939  0.6823
  658MPD2     H 9741   3.516   4.042  14.586 -0.1297 -0.0315  0.1579
  658MPD2    H1 9742   3.943   4.012  14.598  0.4105  0.4152 -0.5398
  658MPD2    H2 9743   3.720   3.750  14.817  1.4491 -0.2627 -0.4184
  658MPD2    H3 9744   3.922   3.864  14.755 -0.5761 -2.7567  0.9526
  658MPD2     N 9745   3.705   4.140  14.474  0.5177  0.6440  0.0785
  658MPD2    H5 9746   3.612   4.169  14.446 -0.3056 -1.2283  0.8337
  658MPD2    N1 9747   3.472   3.835  14.752 -0.2046  0.1262 -0.1041
  658MPD2    H7 9748   3.477   3.768  14.828 -0.9689  0.3575  0.1406
  659TMC3    C1 9749   3.254   3.795  14.781  0.9021 -0.6625 -0.3897
  659TMC3    C2 9750   3.248   3.867  14.896 -0.2442 -0.5656 -0.2981
  659TMC3    C3 9751   3.126   3.896  14.953 -0.1172  0.6023  0.4320
  659TMC3    C4 9752   3.136   3.769  14.712  0.9203  0.2374  0.3145
  659TMC3    C5 9753   3.012   3.815  14.764 -0.4254 -0.0806 -0.1466
  659TMC3    C6 9754   3.007   3.876  14.884 -0.2492 -0.7002 -0.2458
  659TMC3     C 9755   3.354   3.848  14.696 -0.4197  0.4896 -0.8251
  659TMC3     O 9756   3.322   3.901  14.590  0.4725 -0.3373  0.3260
  659TMC3     H 9757   3.334   3.901  14.953 -1.0102  0.1196  0.4471
  659TMC3    H1 9758   3.138   3.719  14.616 -0.0823  1.6006 -0.4156
  659TMC3    H2 9759   2.907   3.908  14.912  0.4319  1.4251 -0.2868
  659TMC3    C7 9760   2.880   3.783  14.697 -0.6851 -0.2182 -0.4079
  659TMC3    C8 9761   3.128   4.002  15.043 -0.6099  0.5166  0.6663
  659TMC3    O1 9762   2.776   3.821  14.754  0.3214 -0.6843  0.5221
  659TMC3    O2 9763   3.046   4.087  15.024 -0.0802  0.1043 -0.4298
  660MPD2     C 9764   1.979   2.882  12.409  0.0380 -0.3028 -0.3080
  660MPD2    C1 9765   1.848   2.884  12.351  0.4793  0.2235  0.6879
  660MPD2    C2 9766   1.741   2.820  12.417  0.2893  0.0690 -0.4198
  660MPD2    C3 9767   1.760   2.744  12.528 -0.3508 -0.1053  0.2975
  660MPD2    C4 9768   1.882   2.756  12.591 -0.3657 -1.5373  0.6181
  660MPD2    C5 9769   1.989   2.827  12.540  0.0730  0.0202  0.2024
  660MPD2     H 9770   1.647   2.805  12.364 -0.3640  4.5330 -0.5040
  660MPD2    H1 9771   1.896   2.715  12.691 -0.5722 -0.4408  1.1006
  660MPD2    H2 9772   2.064   2.928  12.360 -1.1369  0.4923 -1.6077
  660MPD2    H3 9773   2.075   2.831  12.606 -0.5270  1.3921  0.9049
  660MPD2     N 9774   1.660   2.664  12.591  0.2693  0.4051 -0.2990
  660MPD2    H5 9775   1.682   2.618  12.679 -1.0161 -1.5268 -0.9976
  660MPD2    N1 9776   1.822   2.957  12.233 -0.1570  0.3885 -0.0527
  660MPD2    H7 9777   1.904   2.983  12.179 -0.8499  1.2290 -0.6927
  661TMC3    C1 9778   1.723   3.073  12.055  0.0055  0.5713 -0.1849
  661TMC3    C2 9779   1.848   3.069  11.994  0.1827 -0.6157  0.0067
  661TMC3    C3 9780   1.855   3.138  11.866 -0.2588 -0.1818  0.7253
  661TMC3    C4 9781   1.614   3.142  11.997 -0.0338 -0.7165 -0.5709
  661TMC3    C5 9782   1.633   3.208  11.877 -0.0784 -0.5499  0.6491
  661TMC3    C6 9783   1.756   3.217  11.822 -0.2009  0.6325 -0.1015
  661TMC3     C 9784   1.702   2.996  12.181  0.3779 -0.2330 -0.5351
  661TMC3     O 9785   1.584   2.981  12.231  0.4205 -0.9222  0.3464
  661TMC3     H 9786   1.918   2.992  12.022  1.8441  0.6940 -0.5412
  661TMC3    H1 9787   1.516   3.136  12.043  0.3981  0.9893  0.5375
  661TMC3    H2 9788   1.763   3.261  11.723 -1.3295 -1.5691 -1.1693
  661TMC3    C7 9789   1.517   3.259  11.809  0.3671 -0.3254  0.8417
  661TMC3    C8 9790   1.971   3.111  11.782  0.2910  0.7354 -0.5097
  661TMC3    O1 9791   1.529   3.362  11.747  0.8531 -0.4870  0.0793
  661TMC3    O2 9792   1.942   3.082  11.668  0.6739  0.0403 -0.3005
  662MPD2     C 9793   2.424   1.963  16.821  0.1830 -0.3648 -0.5470
  662MPD2    C1 9794   2.413   2.051  16.928 -0.7192  0.7782  0.0562
  662MPD2    C2 9795   2.363   2.188  16.909  0.3059 -0.0811  0.3729
  662MPD2    C3 9796   2.334   2.227  16.786  0.0886 -0.2224 -0.0866
  662MPD2    C4 9797   2.337   2.138  16.681  0.4229  1.0447 -0.1199
  662MPD2    C5 9798   2.387   2.012  16.696 -0.2054  0.0449 -0.9510
  662MPD2     H 9799   2.358   2.255  16.994 -2.1740  0.0350  0.1536
  662MPD2    H1 9800   2.307   2.172  16.583 -1.3481 -0.6380 -0.1620
  662MPD2    H2 9801   2.461   1.861  16.830 -1.2383 -0.8448 -0.2582
  662MPD2    H3 9802   2.391   1.941  16.615  0.0116  0.2006 -1.0768
  662MPD2     N 9803   2.271   2.358  16.760 -0.2946 -0.6755  0.9112
  662MPD2    H5 9804   2.234   2.372  16.667  0.5365 -2.8674  0.2405
  662MPD2    N1 9805   2.426   2.010  17.056 -0.0753 -1.0967 -0.6484
  662MPD2    H7 9806   2.417   2.086  17.123 -0.3737 -0.1575 -1.7621
  663TMC3    C1 9807   2.442   1.890  17.252  0.6392  0.5148 -0.3871
  663TMC3    C2 9808   2.485   2.015  17.283 -0.3125 -0.6830  0.5760
  663TMC3    C3 9809   2.433   2.082  17.392  0.0323 -0.2129 -0.3141
  663TMC3    C4 9810   2.340   1.834  17.317 -0.4755  0.5082 -0.9214
  663TMC3    C5 9811   2.280   1.902  17.420  0.5307 -0.3461 -0.5308
  663TMC3    C6 9812   2.331   2.016  17.468  0.0107 -0.1841 -0.6974
  663TMC3     C 9813   2.441   1.881  17.111  0.4770 -0.6900 -0.2574
  663TMC3     O 9814   2.436   1.775  17.054 -0.4409  0.3103  0.3769
  663TMC3     H 9815   2.584   2.047  17.254  0.3464 -2.5594  0.7463
  663TMC3    H1 9816   2.314   1.735  17.280 -1.0552  0.7185 -1.0796
  663TMC3    H2 9817   2.275   2.070  17.544 -0.1187  0.4291 -1.2346
  663TMC3    C7 9818   2.207   1.820  17.521  0.3053 -0.5864 -0.9492
  663TMC3    C8 9819   2.385   2.211  17.339 -0.0504  0.2029 -0.0594
  663TMC3    O1 9820   2.209   1.855  17.641  0.6397  0.1686  0.9088
  663TMC3    O2 9821   2.428   2.240  17.228  0.4529 -0.1646 -0.2089
  664MPD2     C 9822   0.278   1.078  17.433 -0.3205  0.0753 -0.0591
  664MPD2    C1 9823   0.256   1.213  17.404  0.2647 -0.1531 -0.0247
  664MPD2    C2 9824   0.294   1.313  17.495 -0.6608  0.0216  0.7399
  664MPD2    C3 9825   0.350   1.283  17.615  0.6544  0.3169  0.2550
  664MPD2    C4 9826   0.381   1.149  17.642  0.3479 -0.4455  0.5416
  664MPD2    C5 9827   0.346   1.052  17.552 -0.2728  0.6439 -0.3234
  664MPD2     H 9828   0.274   1.414  17.460 -0.2344 -1.5075 -3.8251
  664MPD2    H1 9829   0.433   1.124   0.060 -3.4948  0.0059  2.8561
  664MPD2    H2 9830   0.243   0.991  17.379  0.0274  0.1151 -0.3461
  664MPD2    H3 9831   0.376   0.950  17.574 -0.4439  0.5290 -0.6186
  664MPD2     N 9832   0.390   1.391   0.025  1.2438 -0.1931  0.5986
  664MPD2    H5 9833   0.370   1.482  17.658  0.0935 -0.7217 -0.0506
  664MPD2    N1 9834   0.198   1.258  17.286 -0.1889  0.2644 -0.9059
  664MPD2    H7 9835   0.191   1.359  17.273  0.1867  0.4271  0.1432
  665TMC3    C1 9836   0.445   1.504   0.221 -0.5015 -0.5763 -0.0805
  665TMC3    C2 9837   0.539   1.518   0.318 -0.2210 -0.4733 -0.3375
  665TMC3    C3 9838   0.519   1.612   0.413 -0.5660  0.3634  0.0483
  665TMC3    C4 9839   0.335   1.584   0.221  0.2832  0.2563 -0.3397
  665TMC3    C5 9840   0.312   1.673   0.327  0.1826 -1.1280  0.4970
  665TMC3    C6 9841   0.410   1.687   0.426  0.9223  0.0598 -0.4388
  665TMC3     C 9842   0.463   1.384   0.140  0.3546 -0.3506 -0.9100
  665TMC3     O 9843   0.508   1.287   0.198 -0.2819 -0.5805  0.3355
  665TMC3     H 9844   0.625   1.453   0.312  0.5995  0.4627  1.0812
  665TMC3    H1 9845   0.265   1.553   0.145  1.6405 -0.8983 -1.0976
  665TMC3    H2 9846   0.402   1.757   0.508  1.6845 -1.0871  0.6240
  665TMC3    C7 9847   0.179   1.735   0.349  0.5027 -0.3904 -0.2186
  665TMC3    C8 9848   0.597   1.601   0.537 -0.5076 -0.2271  0.0711
  665TMC3    O1 9849   0.092   1.723   0.266 -0.0471 -0.5354  0.2911
  665TMC3    O2 9850   0.543   1.652   0.634  0.4334  0.0780  0.0715
  666TMC3    C1 9851   3.969   0.066   9.905 -0.0059  0.5385 -0.3484
  666TMC3    C2 9852   3.927   0.035   9.780  0.4423  0.7380  0.3199
  666TMC3    C3 9853   3.852   0.133   9.720  0.2426  0.0694 -0.4993
  666TMC3    C4 9854   3.922   0.172   9.978 -0.8931  0.2772 -0.6020
  666TMC3    C5 9855   3.846   0.261   9.911  0.1563 -0.3001  0.2052
  666TMC3    C6 9856   3.816   0.249   9.782  0.0357  0.7801  0.5725
  666TMC3     C 9857   4.046   4.675   9.969 -0.7311  1.0035 -0.4620
  666TMC3     O 9858   4.129   4.704  10.057  0.4142  0.5728  0.3711
  666TMC3     H 9859   3.951   4.662   9.726 -2.1986  0.3630 -0.2432
  666TMC3    H1 9860   3.945   0.184  10.084 -2.1596 -0.2367 -0.2697
  666TMC3    H2 9861   3.757   0.314   9.717 -2.0021  0.1128  1.7343
  666TMC3    C7 9862   3.830   0.392   9.970  1.0862  0.6063 -0.4263
  666TMC3    C8 9863   3.871   0.117   9.577 -0.6462  0.1618 -0.3766
  666TMC3    O1 9864   3.822   0.394  10.092 -0.0841  0.0764  0.4935
  666TMC3    O2 9865   3.830   0.010   9.532  0.4138  0.3655  0.6649
  667MPD2     C 9866   0.925   1.036  13.986 -1.2678  0.4746  0.2019
  667MPD2    C1 9867   1.007   0.991  14.092  0.2760  0.2412 -0.2308
  667MPD2    C2 9868   0.961   0.883  14.170 -0.3582  0.1081 -0.2362
  667MPD2    C3 9869   0.849   0.810  14.137  0.0819 -0.0171  0.8425
  667MPD2    C4 9870   0.779   0.853  14.030 -0.9552 -0.1024  0.4192
  667MPD2    C5 9871   0.808   0.969  13.963 -0.1974  0.5446 -0.1037
  667MPD2     H 9872   1.025   0.854  14.252  1.7930  0.7900 -1.6733
  667MPD2    H1 9873   0.692   0.796  14.000 -2.1504  1.2330  1.3577
  667MPD2    H2 9874   0.928   1.120  13.918 -0.8762  0.0733 -0.2709
  667MPD2    H3 9875   0.733   1.014  13.898 -0.0150 -0.3108 -0.9175
  667MPD2     N 9876   0.800   0.700  14.208 -0.1159 -0.2503  0.3246
  667MPD2    H5 9877   0.712   0.665  14.170  0.3102  0.0777 -0.9507
  667MPD2    N1 9878   1.110   1.068  14.147 -0.6224 -0.6096  0.0952
  667MPD2    H7 9879   1.140   1.025  14.234  3.0245 -0.9544 -1.3456
  668TMC3    C1 9880   1.215   1.278  14.170 -0.5215  0.0602  0.2003
  668TMC3    C2 9881   1.281   1.382  14.113 -0.0216  0.4864  0.0598
  668TMC3    C3 9882   1.329   1.486  14.193 -0.0834 -0.6913  0.0782
  668TMC3    C4 9883   1.199   1.276  14.307 -0.5100 -0.0622 -0.8633
  668TMC3    C5 9884   1.240   1.383  14.384  0.3264 -0.1377  0.4347
  668TMC3    C6 9885   1.305   1.487  14.324 -0.1897 -0.4833  1.1320
  668TMC3     C 9886   1.158   1.175  14.084  0.2908  0.2975  0.6325
  668TMC3     O 9887   1.154   1.201  13.964 -0.2943 -0.1099  0.2461
  668TMC3     H 9888   1.280   1.382  14.005  0.2234 -1.3724  0.0534
  668TMC3    H1 9889   1.120   1.210  14.340  0.7418 -0.8464  0.5509
  668TMC3    H2 9890   1.345   1.565  14.389 -0.5233 -1.8027  2.9111
  668TMC3    C7 9891   1.208   1.398  14.524  0.0220  0.3926 -0.5223
  668TMC3    C8 9892   1.427   1.586  14.143  0.8105  0.2637  0.0395
  668TMC3    O1 9893   1.253   1.490  14.590  0.6419  0.6879 -0.3055
  668TMC3    O2 9894   1.450   1.676  14.220  0.9323 -0.1629 -0.0236
  669TMC3    C1 9895   3.647   0.965  14.074 -0.0708 -0.8184 -0.0387
  669TMC3    C2 9896   3.599   0.949  13.947  0.2397  0.1150  0.1760
  669TMC3    C3 9897   3.618   1.044  13.856  0.9064 -0.1619 -0.3587
  669TMC3    C4 9898   3.730   1.074  14.104 -0.0808  0.8838  0.4688
  669TMC3    C5 9899   3.762   1.153  14.004  0.6442 -0.2586  0.2752
  669TMC3    C6 9900   3.701   1.150  13.880 -0.2445  0.0222 -0.4962
  669TMC3     C 9901   3.563   0.904  14.173  0.5160  0.4553 -0.1312
  669TMC3     O 9902   3.474   0.835  14.128  0.1135  0.0782 -0.4374
  669TMC3     H 9903   3.543   0.860  13.921  1.3143 -0.1302 -1.3237
  669TMC3    H1 9904   3.761   1.092  14.206 -3.1698 -0.1714  1.6192
  669TMC3    H2 9905   3.703   1.241  13.822  1.0818 -1.0834 -2.1899
  669TMC3    C7 9906   3.904   1.197  14.006  0.1075  0.8112  0.4497
  669TMC3    C8 9907   3.520   1.052  13.753  0.1185  0.5468  0.4916
  669TMC3    O1 9908   3.952   1.220  14.119  0.1757 -0.3672 -0.3590
  669TMC3    O2 9909   3.422   0.976  13.762  0.7061 -0.1237 -0.5694
  670MPD2     C 9910   1.915   3.470  13.196  0.4353  0.6659  0.5686
  670MPD2    C1 9911   1.999   3.444  13.303  0.2801  0.2647 -0.2685
  670MPD2    C2 9912   1.940   3.375  13.407  0.2339  0.7518  0.2773
  670MPD2    C3 9913   1.809   3.323  13.399  0.6041  0.9716 -0.2867
  670MPD2    C4 9914   1.727   3.350  13.293 -0.0503  0.6880 -0.2533
  670MPD2    C5 9915   1.786   3.423  13.193  0.8982  1.2391  0.0197
  670MPD2     H 9916   2.002   3.337  13.487 -1.8364  0.4436  1.7285
  670MPD2    H1 9917   1.624   3.319  13.278  0.3193 -0.1781 -0.9916
  670MPD2    H2 9918   1.947   3.524  13.108  0.3612 -0.1455  0.0365
  670MPD2    H3 9919   1.720   3.446  13.110  0.9100  0.6221 -0.1610
  670MPD2     N 9920   1.768   3.237  13.497  0.1785  0.2117  0.1750
  670MPD2    H5 9921   1.831   3.215  13.574  0.0766  0.9222  0.4623
  670MPD2    N1 9922   2.131   3.490  13.305  0.4302  0.0437 -0.2242
  670MPD2    H7 9923   2.187   3.476  13.388  1.1009 -3.3309 -1.2217
  671TMC3    C1 9924   1.632   3.111  13.641  0.4905 -0.0376  0.6720
  671TMC3    C2 9925   1.747   3.090  13.714  0.0865 -0.2621 -0.4467
  671TMC3    C3 9926   1.741   3.020  13.831 -0.6925  0.2407  0.1392
  671TMC3    C4 9927   1.519   3.055  13.677 -0.0947  0.0917 -0.0722
  671TMC3    C5 9928   1.520   2.969  13.785  0.2157  0.0606  0.1970
  671TMC3    C6 9929   1.624   2.959  13.871  0.0385  0.0639  0.2592
  671TMC3     C 9930   1.645   3.182  13.514  0.2574 -0.6413 -0.4521
  671TMC3     O 9931   1.546   3.187  13.443 -1.0356  0.7046 -0.0162
  671TMC3     H 9932   1.843   3.110  13.668 -0.5951  0.8309 -1.3924
  671TMC3    H1 9933   1.429   3.051  13.617 -0.2968 -1.2229  0.3129
  671TMC3    H2 9934   1.618   2.901  13.962  1.5310  0.7381  0.7870
  671TMC3    C7 9935   1.460   2.835  13.758 -0.6830  0.5661  0.3057
  671TMC3    C8 9936   1.853   2.932  13.851  0.1982  0.9997 -0.7285
  671TMC3    O1 9937   1.449   2.811  13.638  0.0408  0.0709  0.1813
  671TMC3    O2 9938   1.902   2.886  13.749  0.0102 -0.0702 -0.0401
  672MPD2     C 9939   2.329   3.174   0.811  0.0732  0.8308 -0.3189
  672MPD2    C1 9940   2.358   3.276   0.725 -0.6525 -0.0772 -0.5966
  672MPD2    C2 9941   2.353   3.406   0.770 -0.1888  0.3424  0.3773
  672MPD2    C3 9942   2.330   3.438   0.900  0.4470 -0.3090 -0.5172
  672MPD2    C4 9943   2.306   3.333   0.989 -0.4123 -0.0627 -0.2360
  672MPD2    C5 9944   2.306   3.200   0.946  0.1367  0.4653  1.7018
  672MPD2     H 9945   2.367   3.476   0.688 -0.0117 -0.7099 -0.5010
  672MPD2    H1 9946   2.304   3.354   1.096 -0.7039  2.1382 -0.6853
  672MPD2    H2 9947   2.320   3.073   0.775 -3.1247  0.9304  0.1511
  672MPD2    H3 9948   2.283   3.118   1.013 -0.2181  0.8968  2.1088
  672MPD2     N 9949   2.349   3.563   0.954 -0.0625 -0.5237  0.2023
  672MPD2    H5 9950   2.368   3.562   1.054  0.5947 -0.3041  0.0777
  672MPD2    N1 9951   2.380   3.260   0.586  0.1057 -0.4357  0.0849
  672MPD2    H7 9952   2.393   3.344   0.531  0.1787 -0.6706 -0.2585
  673TMC3    C1 9953   2.390   3.178   0.372 -0.2634 -0.8889  0.2876
  673TMC3    C2 9954   2.488   3.263   0.355  0.1114 -0.1392 -0.1079
  673TMC3    C3 9955   2.474   3.348   0.251 -0.1603 -0.7172 -0.2835
  673TMC3    C4 9956   2.281   3.175   0.295 -0.0130 -0.4724  0.0057
  673TMC3    C5 9957   2.257   3.280   0.208  0.1780 -0.4103  0.6822
  673TMC3    C6 9958   2.362   3.367   0.175  0.9421 -0.3423 -0.3335
  673TMC3     C 9959   2.373   3.143   0.509  1.2332  0.0667 -0.4233
  673TMC3     O 9960   2.356   3.025   0.545  0.1343 -0.1287  0.3524
  673TMC3     H 9961   2.572   3.272   0.423 -1.1590  0.6772  1.3535
  673TMC3    H1 9962   2.204   3.112   0.336 -0.2276  0.3266  0.8365
  673TMC3    H2 9963   2.346   3.436   0.093 -1.3356  1.5071  1.6421
  673TMC3    C7 9964   2.121   3.303   0.168 -0.3000 -0.4596  0.4250
  673TMC3    C8 9965   2.563   3.463   0.238  0.9627 -0.0111 -0.9665
  673TMC3    O1 9966   2.052   3.204   0.166 -0.3028 -0.2373 -0.3610
  673TMC3    O2 9967   2.517   3.553   0.172 -0.1768 -0.2842  0.2689
  674MPD2     C 9968   2.407   3.912   0.031  0.0164  0.2916  0.8471
  674MPD2    C1 9969   2.437   3.802  17.630  0.2396 -0.5632 -0.4470
  674MPD2    C2 9970   2.336   3.725  17.571  0.1138 -0.2912  0.3706
  674MPD2    C3 9971   2.195   3.761  17.581  0.1343 -0.0940 -0.4506
  674MPD2    C4 9972   2.171   3.876  17.649 -0.1055 -0.7620 -0.6366
  674MPD2    C5 9973   2.278   3.953   0.027 -0.6339 -0.0279 -1.0757
  674MPD2     H 9974   2.365   3.638  17.513  0.5064  0.9091 -1.2427
  674MPD2    H1 9975   2.073   3.923  17.658  0.0283 -0.1130 -2.6437
  674MPD2    H2 9976   2.476   3.982   0.076 -0.2659  2.0622 -1.4166
  674MPD2    H3 9977   2.256   4.053   0.062 -1.2543 -0.4210 -0.3629
  674MPD2     N 9978   2.099   3.666  17.533 -0.3693 -0.0551  0.3016
  674MPD2    H5 9979   2.131   3.573  17.508  0.0939  0.3586 -0.6642
  674MPD2    N1 9980   2.570   3.760  17.604 -0.3741 -0.2341  0.1989
  674MPD2    H7 9981   2.578   3.673  17.552 -1.6977  0.5548 -1.3360
  675TMC3    C1 9982   2.804   3.743  17.624  0.1441  0.4622 -0.0897
  675TMC3    C2 9983   2.799   3.610  17.605 -0.2672  0.6242  0.0159
  675TMC3    C3 9984   2.922   3.544  17.618 -0.6829 -0.6097 -0.1959
  675TMC3    C4 9985   2.921   3.817  17.635  0.7579 -1.0138 -0.0010
  675TMC3    C5 9986   3.041   3.746  17.640 -0.2178 -0.4670 -1.0168
  675TMC3    C6 9987   3.043   3.608  17.638  0.1235 -0.6351 -0.3620
  675TMC3     C 9988   2.688   3.826  17.643  0.6323  0.5439  0.2854
  675TMC3     O 9989   2.713   3.930   0.029  0.2098 -0.9309 -0.6128
  675TMC3     H 9990   2.702   3.560  17.604  0.9183 -1.6794 -0.3357
  675TMC3    H1 9991   2.921   3.924  17.651 -3.3764 -0.9912 -0.1291
  675TMC3    H2 9992   3.131   3.549  17.657 -0.1388 -0.4133  1.5298
  675TMC3    C7 9993   3.150   3.807   0.047  0.1557 -0.0274  0.3931
  675TMC3    C8 9994   2.905   3.409   0.005  0.2466 -0.3531  0.7465
  675TMC3    O1 9995   3.241   3.733   0.090 -0.1413 -0.5812 -0.2764
  675TMC3    O2 9996   2.984   3.383   0.099  0.2676  0.0565 -0.1811
  676MPD2     C 9997   4.276   1.916  10.972  0.5580  0.1683  0.1210
  676MPD2    C1 9998   4.187   1.841  11.051  0.4459  0.3064  0.0828
  676MPD2    C2 9999   4.150   1.713  11.006 -0.1333 -0.3956  0.5939
  676MPD2    C310000   4.206   1.666  10.889 -0.3085 -0.3307  0.0759
  676MPD2    C410001   4.280   1.748  10.809  0.3388 -0.1928  0.3796
  676MPD2    C510002   4.309   1.877  10.845  0.6357 -0.0770 -0.0262
  676MPD2     H10003   4.070   1.661  11.059 -0.2395 -0.7546  0.0784
  676MPD2    H110004   4.320   1.695  10.724 -1.7915 -2.2559  0.6276
  676MPD2    H210005   4.316   2.013  11.000  0.2988  1.4700 -4.0651
  676MPD2    H310006   4.367   1.945  10.784  0.5950  0.3890  0.4596
  676MPD2     N10007   4.195   1.524  10.849 -0.3636 -0.1918  0.0900
  676MPD2    H510008   4.242   1.494  10.764  0.1811 -1.8157  0.9828
  676MPD2    N110009   4.145   1.878  11.184  0.3363  1.3830 -0.1452
  676MPD2    H710010   4.093   1.807  11.234  3.2153 -0.2034  0.6127
  677TMC3    C110011   4.145   2.004  11.386 -0.2063 -0.8576  0.7037
  677TMC3    C210012   4.079   1.901  11.446  0.7613  0.6530  0.5535
  677TMC3    C310013   4.094   1.875  11.577 -0.0785  0.8007  0.2090
  677TMC3    C410014   4.225   2.082  11.471  0.2498 -0.0568  0.6454
  677TMC3    C510015   4.235   2.057  11.606 -0.0203  0.1809 -0.2790
  677TMC3    C610016   4.166   1.950  11.659 -1.1994  0.8333  0.1329
  677TMC3     C10017   4.182   1.997  11.248  0.6347  0.0333 -0.9074
  677TMC3     O10018   4.236   2.096  11.206 -0.2365  0.1010 -0.4393
  677TMC3     H10019   4.013   1.838  11.387  0.3718  1.3622  0.2350
  677TMC3    H110020   4.281   2.153  11.412  1.1733 -1.2560  0.0677
  677TMC3    H210021   4.165   1.918  11.763  0.5386  0.7225  0.1116
  677TMC3    C710022   4.326   2.122  11.697 -0.1164 -0.2680 -0.5600
  677TMC3    C810023   4.026   1.760  11.612 -0.4103  0.0945 -0.3733
  677TMC3    O110024   4.341   2.075  11.811 -0.0274  0.0877  0.4277
  677TMC3    O210025   3.908   1.766  11.578 -0.3568  0.1321 -0.1059
  678MPD2     C10026   1.355   3.055   1.225 -0.3649  0.6122  0.7742
  678MPD2    C110027   1.384   2.925   1.203  0.4466 -0.1659 -0.4057
  678MPD2    C210028   1.283   2.831   1.179  0.2263 -0.5118  0.2078
  678MPD2    C310029   1.152   2.867   1.176  0.1743  0.2010  1.5570
  678MPD2    C410030   1.121   2.997   1.210 -0.0278 -0.4481  0.2924
  678MPD2    C510031   1.220   3.089   1.231  0.3910  0.0525  1.0047
  678MPD2     H10032   1.308   2.726   1.163  0.4870 -0.3395 -0.4980
  678MPD2    H110033   1.018   3.029   1.214  0.4278  1.2221 -1.4533
  678MPD2    H210034   1.434   3.128   1.240  0.7660 -0.7239  1.2783
  678MPD2    H310035   1.196   3.191   1.261 -0.8996 -0.3841  1.4601
  678MPD2     N10036   1.061   2.777   1.125 -0.1951  0.2516  0.5470
  678MPD2    H510037   1.099   2.685   1.102  1.0219  1.2448 -1.4089
  678MPD2    N110038   1.521   2.877   1.187 -0.0720  0.1469 -0.2841
  678MPD2    H710039   1.527   2.781   1.155 -1.2195 -0.8078  2.3004
  679TMC3    C110040   1.907   2.714   1.123 -0.3340  0.3039  0.2551
  679TMC3    C210041   1.787   2.757   1.170 -0.2540 -0.0355  0.1283
  679TMC3    C310042   1.748   2.887   1.141  0.6026 -0.1203  0.4175
  679TMC3    C410043   1.989   2.805   1.050 -0.3783 -0.5576 -1.2094
  679TMC3    C510044   1.952   2.933   1.026 -0.0950 -0.3256  0.1844
  679TMC3    C610045   1.833   2.975   1.074  0.2733 -0.1444  0.0635
  679TMC3     C10046   1.913   2.576   1.095  0.3746  0.3624  0.0296
  679TMC3     O10047   1.842   2.496   1.160  0.0102 -0.1001  0.7636
  679TMC3     H10048   1.717   2.697   1.227 -0.9439  0.2397 -0.4165
  679TMC3    H110049   2.087   2.772   1.019 -0.1142 -1.8810  1.0572
  679TMC3    H210050   1.794   3.067   1.033  0.3905  0.6574  1.7518
  679TMC3    C710051   1.975   2.979   0.892 -0.2324 -0.3403 -0.0970
  679TMC3    C810052   1.636   2.954   1.195  0.4069 -0.6749 -0.1467
  679TMC3    O110053   2.014   2.883   0.819  0.0892  0.0210  0.2293
  679TMC3    O210054   1.654   3.070   1.235 -0.4219  0.3199 -0.3424
  680MPD2     C10055   0.652   4.559  13.034  0.8130 -0.0515 -0.0679
  680MPD2    C110056   0.747   4.541  13.137 -0.2768  0.4042  0.8388
  680MPD2    C210057   0.766   4.641  13.227 -0.0942  0.7480  0.3227
  680MPD2    C310058   0.709   0.049  13.202  0.1333 -0.3161  0.3867
  680MPD2    C410059   0.620   0.067  13.097 -0.8171  0.2789  0.0715
  680MPD2    C510060   0.589   4.676  13.014 -0.1239  0.3988  0.1807
  680MPD2     H10061   0.838   4.630  13.307  1.5777 -0.6168 -1.3509
  680MPD2    H110062   0.578   0.160  13.061 -0.2196  0.7842  0.6810
  680MPD2    H210063   0.622   4.485  12.960  2.2201  1.2243 -1.9081
  680MPD2    H310064   0.526   4.697  12.928 -1.2776 -1.9202  0.4498
  680MPD2     N10065   0.756   0.173  13.256  0.7829 -0.7704 -0.4895
  680MPD2    H510066   0.718   0.256  13.213  2.5913 -0.0252 -0.6574
  680MPD2    N110067   0.809   4.418  13.170  0.0423 -0.1812  0.6852
  680MPD2    H710068   0.840   4.402  13.265  0.9043 -1.9685  0.0978
  681TMC3    C110069   0.890   4.209  13.120 -0.1865 -0.4949  0.0144
  681TMC3    C210070   0.844   4.179  13.246 -0.7265  0.1027  0.8629
  681TMC3    C310071   0.924   4.147  13.347  0.0442  0.3113 -0.8640
  681TMC3    C410072   1.022   4.170  13.093 -0.5132 -0.2730 -0.0505
  681TMC3    C510073   1.100   4.124  13.197 -0.1212  0.3535 -0.2291
  681TMC3    C610074   1.059   4.119  13.327 -0.5229  0.8670 -0.0630
  681TMC3     C10075   0.837   4.332  13.072  0.1568 -0.0147 -0.5342
  681TMC3     O10076   0.832   4.357  12.955  0.0093 -0.3251  0.1747
  681TMC3     H10077   0.739   4.195  13.271 -1.5637 -3.9591 -0.0357
  681TMC3    H110078   1.065   4.190  12.996 -0.5197 -0.6831 -0.1361
  681TMC3    H210079   1.118   4.099  13.417  0.6305 -0.0796 -1.0332
  681TMC3    C710080   1.239   4.110  13.174  0.3007  0.2441  0.4079
  681TMC3    C810081   0.890   4.225  13.471 -0.6428 -0.2926 -0.2200
  681TMC3    O110082   1.301   4.046  13.253  0.8174  0.1088  0.0950
  681TMC3    O210083   0.769   4.241  13.482  0.1381  0.2559  0.2637
  682MPD2     C10084   3.712   1.447  10.806 -0.4552  0.6698 -0.4119
  682MPD2    C110085   3.589   1.387  10.781  0.4203 -0.1052 -0.0929
  682MPD2    C210086   3.482   1.430  10.862 -0.4995 -0.1863 -0.3361
  682MPD2    C310087   3.488   1.545  10.947  0.0121 -0.1008  0.6712
  682MPD2    C410088   3.621   1.585  10.971 -0.3456  0.2420  0.5685
  682MPD2    C510089   3.733   1.538  10.907 -0.0806 -0.2328 -0.3140
  682MPD2     H10090   3.384   1.385  10.847  0.0439 -0.6018 -2.4916
  682MPD2    H110091   3.636   1.665  11.042 -0.7667 -1.7631  2.9041
  682MPD2    H210092   3.798   1.411  10.750  0.3156 -2.2134  2.5984
  682MPD2    H310093   3.831   1.577  10.933 -0.1980  0.9411 -1.6474
  682MPD2     N10094   3.380   1.610  11.007  0.1649  0.4088 -0.3544
  682MPD2    H510095   3.391   1.699  11.053 -0.8653 -0.6926  2.0366
  682MPD2    N110096   3.569   1.275  10.693 -0.0885 -0.0380  0.0823
  682MPD2    H710097   3.486   1.219  10.713 -0.5121  0.6174  0.1316
  683TMC3    C110098   3.090   1.677  11.302 -1.1995  0.1421 -0.0379
  683TMC3    C210099   2.965   1.620  11.285  0.0446  0.3462  0.1481
  683TMC3    C310100   2.940   1.566  11.159 -0.5123 -0.0077  0.1414
  683TMC3    C410101   3.186   1.685  11.203  0.1306  0.4921 -0.7152
  683TMC3    C510102   3.156   1.634  11.081  0.2237  0.0514  0.2716
  683TMC3    C610103   3.030   1.582  11.055  0.2958 -0.1772 -0.3082
  683TMC3     C10104   3.138   1.735  11.434  0.0504  0.7529 -0.0975
  683TMC3     O10105   3.241   1.796  11.448 -0.1943  0.1235 -0.4577
  683TMC3     H10106   2.897   1.604  11.368  2.1813 -1.7457  1.4781
  683TMC3    H110107   3.284   1.725  11.227  0.0557 -0.3776  1.1104
  683TMC3    H210108   3.012   1.538  10.958  2.9840  0.2352 -0.9940
  683TMC3    C710109   3.252   1.562  11.009  0.2088 -0.3940  0.2073
  683TMC3    C810110   2.890   1.436  11.169 -0.3331 -0.5817  0.0213
  683TMC3    O110111   3.216   1.453  10.973 -0.0183  0.5916  0.1488
  683TMC3    O210112   2.803   1.411  11.248 -0.1713  0.0720  0.0216
  684MPD2     C10113   1.555   1.057  15.660  0.2685 -0.1670  0.2878
  684MPD2    C110114   1.678   1.034  15.616 -0.6374  0.8123  0.1488
  684MPD2    C210115   1.777   1.133  15.620 -0.4833  0.3286 -0.7379
  684MPD2    C310116   1.746   1.263  15.658 -0.6869  0.0135  0.6103
  684MPD2    C410117   1.615   1.287  15.691 -0.1313  0.4844 -0.3534
  684MPD2    C510118   1.525   1.185  15.690  0.0358  0.1907 -0.0221
  684MPD2     H10119   1.873   1.106  15.578  0.4939  1.1140  0.9820
  684MPD2    H110120   1.581   1.378  15.739 -0.1004 -0.1807  0.9444
  684MPD2    H210121   1.478   0.982  15.668  1.3019 -1.3075 -0.3813
  684MPD2    H310122   1.424   1.206  15.722  0.5124  2.2464  0.1355
  684MPD2     N10123   1.850   1.365  15.671 -0.3173  0.3246  0.3766
  684MPD2    H510124   1.947   1.339  15.659  0.0675  1.4880  1.0576
  684MPD2    N110125   1.711   0.916  15.554 -0.0019 -0.0908 -0.1522
  684MPD2    H710126   1.810   0.900  15.540 -0.3471 -2.5490  0.1950
  685TMC3    C110127   1.666   0.684  15.507 -0.4546 -0.0317  0.5565
  685TMC3    C210128   1.576   0.584  15.478 -0.1235 -0.1533  0.1205
  685TMC3    C310129   1.624   0.455  15.461  0.1950 -0.3076  0.3666
  685TMC3    C410130   1.794   0.649  15.539 -0.3565  0.4113 -0.3309
  685TMC3    C510131   1.837   0.519  15.521  0.6782 -0.1193 -0.4091
  685TMC3    C610132   1.755   0.422  15.483  1.0363  0.2890 -0.2845
  685TMC3     C10133   1.623   0.819  15.521 -0.4955  0.0579  0.1336
  685TMC3     O10134   1.506   0.835  15.487  0.3906  0.0125  0.3126
  685TMC3     H10135   1.476   0.602  15.440  0.1309 -0.8639 -0.8670
  685TMC3    H110136   1.854   0.722  15.592 -1.5407 -0.8641  2.7983
  685TMC3    H210137   1.794   0.321  15.479  0.8642  0.2752 -1.5092
  685TMC3    C710138   1.958   0.481  15.588  0.3138  0.4135 -0.3630
  685TMC3    C810139   1.531   0.344  15.490 -0.0187  0.2696  0.2286
  685TMC3    O110140   2.002   0.379  15.538  0.5367 -0.0446 -0.3575
  685TMC3    O210141   1.561   0.231  15.456 -0.4150  0.6681  0.2391
  686MPD2     C10142   3.287   1.044  15.501  0.8622  0.4038  0.4496
  686MPD2    C110143   3.273   0.913  15.537  0.6570 -0.7611 -0.2728
  686MPD2    C210144   3.387   0.834  15.522 -0.2371  0.6008 -0.3394
  686MPD2    C310145   3.510   0.886  15.485  0.6433 -0.6728  0.3287
  686MPD2    C410146   3.517   1.016  15.435 -0.1211 -0.2031 -0.4816
  686MPD2    C510147   3.401   1.086  15.439 -0.0225 -1.0326  0.0510
  686MPD2     H10148   3.391   0.728  15.544 -1.6053  0.0493 -2.7074
  686MPD2    H110149   3.605   1.061  15.390  1.0738 -0.2915  1.7658
  686MPD2    H210150   3.209   1.118  15.510  0.3321 -0.1678  0.5998
  686MPD2    H310151   3.400   1.185  15.394 -2.1779 -0.3626  1.5633
  686MPD2     N10152   3.610   0.790  15.477  0.4129  0.2942  0.0003
  686MPD2    H510153   3.584   0.693  15.495  4.5787 -0.9485 -0.6725
  686MPD2    N110154   3.146   0.861  15.573  0.2000  0.0151 -0.4096
  686MPD2    H710155   3.064   0.920  15.572 -0.1921 -0.5371 -0.8940
  687TMC3    C110156   3.797   0.691  15.430 -0.2884 -0.7019  0.2957
  687TMC3    C210157   3.717   0.586  15.399 -0.4074 -0.1466 -0.5061
  687TMC3    C310158   3.692   0.485  15.483  0.3590  0.2768  0.2846
  687TMC3    C410159   3.863   0.690  15.555 -0.7106  0.0592  0.2597
  687TMC3    C510160   3.844   0.577  15.634  0.2352  0.4659  0.1800
  687TMC3    C610161   3.754   0.482  15.597  0.4679  0.4915 -0.3557
  687TMC3     C10162   3.731   0.820  15.435  0.2673 -0.1846 -0.5481
  687TMC3     O10163   3.804   0.917  15.430  0.1064 -0.2533  0.2189
  687TMC3     H10164   3.668   0.589  15.302 -1.3358  0.6752 -0.0074
  687TMC3    H110165   3.914   0.776  15.597  0.8309 -1.4712  1.4930
  687TMC3    H210166   3.728   0.405  15.669  0.7412  0.0186 -0.7589
  687TMC3    C710167   3.822   0.627  15.764 -0.0514  0.2960 -0.4537
  687TMC3    C810168   3.552   0.443  15.497  0.0075 -0.0920  0.3929
  687TMC3    O110169   3.904   0.705  15.818 -0.2184  0.4713  0.4652
  687TMC3    O210170   3.512   0.445  15.613 -0.0345 -0.1185 -0.1813
  688MPD2     C10171   2.385   4.699  16.935 -0.0842 -0.6581  0.1508
  688MPD2    C110172   2.431   4.570  16.976 -0.0207 -0.3480  0.5849
  688MPD2    C210173   2.508   4.494  16.884 -0.4970  0.7458 -0.2790
  688MPD2    C310174   2.516   4.531  16.753 -0.4166 -0.3965 -0.2747
  688MPD2    C410175   2.456   4.647  16.710 -0.0450  0.2084 -0.0748
  688MPD2    C510176   2.402   0.020  16.801  0.2712  0.8578  0.5223
  688MPD2     H10177   2.570   4.414  16.923 -0.9653 -0.3624 -1.8347
  688MPD2    H110178   2.446   4.679  16.607 -0.2883  0.4111  0.0097
  688MPD2    H210179   2.354   0.059  17.003  0.6436 -0.7944  0.6359
  688MPD2    H310180   2.383   0.121  16.767 -0.2626  0.4969 -0.2491
  688MPD2     N10181   2.600   4.463  16.664  0.0010  0.7688  0.1324
  688MPD2    H510182   2.600   4.503  16.571  1.0007  0.1517 -0.1420
  688MPD2    N110183   2.412   4.515  17.100  0.8593  0.0647  0.0507
  688MPD2    H710184   2.461   4.427  17.116 -0.8392 -1.2164 -1.7812
  689TMC3    C110185   2.317   4.464  17.298  0.3494 -0.3346  0.2466
  689TMC3    C210186   2.210   4.480  17.386  0.1415  0.7736  0.8105
  689TMC3    C310187   2.202   4.396  17.490  0.4227  0.1370 -0.5581
  689TMC3    C410188   2.412   4.367  17.321  0.3803  0.3994  0.2128
  689TMC3    C510189   2.384   4.273  17.419  0.8886  0.6349  0.1619
  689TMC3    C610190   2.284   4.286  17.506 -0.2636  0.0244  0.2123
  689TMC3     C10191   2.325   4.561  17.193  0.2320  0.0658  0.4888
  689TMC3     O10192   2.239   4.649  17.184  0.0305  0.2430 -0.1899
  689TMC3     H10193   2.133   4.554  17.369 -0.1846  0.0270 -0.9415
  689TMC3    H110194   2.499   4.356  17.257  0.6278 -1.5602  0.8854
  689TMC3    H210195   2.260   4.201  17.569  1.7379 -1.1116 -0.5761
  689TMC3    C710196   2.434   4.143  17.401 -0.0264 -0.1454 -1.0512
  689TMC3    C810197   2.138   4.436  17.609 -0.5880 -0.0303  0.0447
  689TMC3    O110198   2.550   4.135  17.359 -0.2566 -1.0911  0.3329
  689TMC3    O210199   2.110   4.352   0.020 -0.5496  0.0955 -0.4997
  690MPD2     C10200   4.550   2.017  15.316 -0.3548  0.6177 -0.5559
  690MPD2    C110201   4.628   1.921  15.384 -0.3561  0.0537 -0.0929
  690MPD2    C210202   0.054   1.933  15.384  0.2546  0.1954 -1.4677
  690MPD2    C310203   0.115   2.034  15.313 -0.2467 -0.0701  0.4868
  690MPD2    C410204   0.033   2.131  15.244  0.6172  0.2273  0.2271
  690MPD2    C510205   4.611   2.120  15.248  0.6709  0.5271  0.1479
  690MPD2     H10206   0.108   1.862  15.446 -0.9060 -0.2188 -0.9164
  690MPD2    H110207   0.069   2.224  15.200  1.5282  0.0627  0.6412
  690MPD2    H210208   4.443   2.032  15.325 -0.1068 -0.0560  3.4580
  690MPD2    H310209   4.544   2.196  15.212  2.0349  1.5795 -0.1583
  690MPD2     N10210   0.254   2.039  15.322  0.3513  0.5362  0.0945
  690MPD2    H510211   0.301   1.969  15.378 -1.8992 -0.1021  1.1616
  690MPD2    N110212   4.575   1.807  15.448 -0.3428 -0.5319  0.1552
  690MPD2    H710213   4.646   1.740  15.475  1.0602  1.4411  1.3661
  691TMC3    C110214   4.407   1.651  15.499  0.2607  0.4760  0.0832
  691TMC3    C210215   4.280   1.623  15.536 -0.1563 -0.4255 -0.1471
  691TMC3    C310216   4.241   1.496  15.555 -0.4345 -0.2622 -0.4294
  691TMC3    C410217   4.493   1.554  15.459 -0.0731  0.6614  1.1074
  691TMC3    C510218   4.447   1.424  15.466  0.8636 -0.1482  0.0413
  691TMC3    C610219   4.325   1.394  15.521  0.0827  0.4955 -0.2194
  691TMC3     C10220   4.438   1.790  15.476  0.3187 -0.1636  0.8270
  691TMC3     O10221   4.350   1.875  15.481  0.6289 -0.1059  0.1825
  691TMC3     H10222   4.218   1.706  15.570  1.1677  0.9162 -1.0143
  691TMC3    H110223   4.593   1.567  15.419 -0.7548 -0.7347 -1.1013
  691TMC3    H210224   4.293   1.293  15.545 -1.2598  0.8753 -0.3984
  691TMC3    C710225   4.525   1.313  15.430  0.0311 -0.5547  0.6126
  691TMC3    C810226   4.098   1.464  15.572 -0.3001 -0.2391  0.1299
  691TMC3    O110227   4.642   1.335  15.453  0.3242 -0.1703  0.4188
  691TMC3    O210228   4.075   1.351  15.619 -0.8476  0.4319  0.2204
  692TMC3    C110229   1.868   2.719  15.755 -0.1972 -0.2648 -0.0506
  692TMC3    C210230   1.891   2.639  15.862 -0.3380  0.1789  1.1655
  692TMC3    C310231   1.896   2.497  15.853 -0.5297 -0.1373 -0.2894
  692TMC3    C410232   1.832   2.668  15.638  0.1677  0.3803 -0.0764
  692TMC3    C510233   1.837   2.532  15.630  0.1147 -0.7469  0.6657
  692TMC3    C610234   1.870   2.442  15.731  0.0363  0.5477 -0.5283
  692TMC3     C10235   1.862   2.865  15.776  0.0241 -0.6765  0.0005
  692TMC3     O10236   1.904   2.902  15.888  0.2834  0.3886 -0.4185
  692TMC3     H10237   1.942   2.679  15.949 -2.7840  1.5472  1.9387
  692TMC3    H110238   1.823   2.728  15.548 -0.1278 -1.6288 -1.3837
  692TMC3    H210239   1.847   2.337  15.720  1.4571  0.4731 -2.7951
  692TMC3    C710240   1.841   2.478  15.492 -0.4653 -0.5551  0.1232
  692TMC3    C810241   1.854   2.420  15.964  0.1370  0.0027 -0.2908
  692TMC3    O110242   1.787   2.537  15.398 -0.2523 -0.6305  0.0505
  692TMC3    O210243   1.838   2.298  15.947 -0.3268  0.0894  0.0193
  693MPD2     C10244   0.853   1.069  10.518  0.0419  0.0638  0.2161
  693MPD2    C110245   0.811   0.953  10.487  0.4109  0.4697  0.0620
  693MPD2    C210246   0.889   0.841  10.510  0.2826 -0.2083 -0.6987
  693MPD2    C310247   1.017   0.857  10.562 -0.4078 -0.3878  0.5892
  693MPD2    C410248   1.072   0.985  10.582  0.6857 -0.0184 -0.2738
  693MPD2    C510249   0.983   1.088  10.560 -0.6029  0.2267  0.2337
  693MPD2     H10250   0.844   0.743  10.517  2.7264 -1.1697  1.4535
  693MPD2    H110251   1.164   0.995  10.638  0.5474  1.6142 -0.3578
  693MPD2    H210252   0.788   1.156  10.522  0.6160  0.5436 -0.8797
  693MPD2    H310253   1.026   1.183  10.587 -0.8105  1.5466 -3.9900
  693MPD2     N10254   1.086   0.745  10.614 -0.8835 -0.0053 -0.1985
  693MPD2    H510255   1.167   0.764  10.672 -0.8360 -1.3133  0.1642
  693MPD2    N110256   0.679   0.934  10.445  0.4145  0.3466  0.3448
  693MPD2    H710257   0.618   1.014  10.455 -0.7730 -0.3945 -0.8980
  694TMC3    C110258   0.483   0.795  10.439 -0.7735 -0.0735  0.4226
  694TMC3    C210259   0.428   0.695  10.369  0.4559 -0.1933  0.4786
  694TMC3    C310260   0.339   0.615  10.436  0.2945  0.2423  0.4139
  694TMC3    C410261   0.456   0.815  10.566  0.1733  0.4270  0.2576
  694TMC3    C510262   0.356   0.741  10.627 -0.0402  0.3896 -0.0971
  694TMC3    C610263   0.302   0.631  10.567 -0.0996 -0.3247  0.5009
  694TMC3     C10264   0.623   0.813  10.405  0.3348  0.2678  0.3035
  694TMC3     O10265   0.682   0.718  10.354  0.3116  0.1112 -0.1231
  694TMC3     H10266   0.482   0.682  10.276 -0.1456 -1.3599  0.2927
  694TMC3    H110267   0.518   0.866  10.639 -1.9042  0.3042  2.1048
  694TMC3    H210268   0.223   0.580  10.620 -1.8874  1.3186 -0.5801
  694TMC3    C710269   0.366   0.736  10.774 -0.1044 -0.0645  0.0199
  694TMC3    C810270   0.258   0.522  10.351  0.0542 -0.2472  0.7977
  694TMC3    O110271   0.379   0.840  10.837 -0.4226 -0.2399 -0.5258
  694TMC3    O210272   0.173   0.453  10.413  0.1431 -0.1945  0.1061
  695MPD2     C10273   2.059   2.261  13.229 -0.1677 -0.0999  0.6016
  695MPD2    C110274   2.008   2.266  13.354 -0.6690  0.4228 -0.0206
  695MPD2    C210275   1.876   2.291  13.377  0.2098  0.2488 -0.0925
  695MPD2    C310276   1.784   2.309  13.267 -0.3655 -0.4367  0.0880
  695MPD2    C410277   1.841   2.298  13.139  0.3856  0.3371  0.3406
  695MPD2    C510278   1.976   2.275  13.125  0.3522  0.1618  0.2291
  695MPD2     H10279   1.837   2.290  13.478 -4.2364  0.8904 -1.7932
  695MPD2    H110280   1.779   2.307  13.051 -1.3630 -0.3106  1.5088
  695MPD2    H210281   2.162   2.239  13.203 -1.1643 -0.7972 -2.7214
  695MPD2    H310282   2.017   2.252  13.027  0.1379 -0.9839  0.4010
  695MPD2     N10283   1.647   2.328  13.289 -0.0304  0.5691 -0.4311
  695MPD2    H510284   1.619   2.293  13.381 -0.0256  1.7032  0.0012
  695MPD2    N110285   2.090   2.257  13.468 -0.4266  0.5955  0.3178
  695MPD2    H710286   2.037   2.236  13.552  2.1854 -1.5334  1.4169
  696TMC3    C110287   1.419   2.381  13.240  0.4333 -0.4004  0.1263
  696TMC3    C210288   1.383   2.308  13.358 -0.0109  0.1393  0.1288
  696TMC3    C310289   1.260   2.338  13.414 -0.4816  0.1518  0.1467
  696TMC3    C410290   1.338   2.478  13.183  0.5109 -0.3506  0.1738
  696TMC3    C510291   1.223   2.505  13.249  0.4124  0.2093 -0.1801
  696TMC3    C610292   1.181   2.436  13.358  0.2057  0.4671 -0.2743
  696TMC3     C10293   1.555   2.386  13.203  0.0821  1.3809 -0.5167
  696TMC3     O10294   1.578   2.450  13.100  0.4573  0.1867 -0.6923
  696TMC3     H10295   1.455   2.256  13.420 -0.1409 -1.4497 -1.0517
  696TMC3    H110296   1.369   2.536  13.096  1.5747 -0.9712  0.1357
  696TMC3    H210297   1.083   2.457  13.398 -0.1628 -2.5024  0.3879
  696TMC3    C710298   1.176   2.642  13.239 -0.4250  0.6462 -0.2878
  696TMC3    C810299   1.271   2.394  13.545  0.0433  0.2443  0.7734
  696TMC3    O110300   1.202   2.702  13.137 -0.5084  0.1837  0.0869
  696TMC3    O210301   1.219   2.501  13.563  0.1388 -0.1084  0.0143
  697MPD2     C10302   0.977   4.536  15.548 -0.2168 -0.4074  0.4508
  697MPD2    C110303   1.013   4.466  15.433  0.7127  0.2945  0.4098
  697MPD2    C210304   1.042   4.545  15.320 -0.4087  0.4054  0.0412
  697MPD2    C310305   1.036   4.687  15.329 -0.6412 -0.0511  0.8359
  697MPD2    C410306   1.018   0.028  15.449 -0.1503 -0.1326 -0.0853
  697MPD2    C510307   0.979   4.669  15.555  0.0188  0.1287  0.2963
  697MPD2     H10308   1.058   4.500  15.223  1.5103 -0.3985  0.7365
  697MPD2    H110309   1.016   0.135  15.467  0.7021 -0.3597  1.4368
  697MPD2    H210310   0.951   4.484  15.639 -0.5420  0.1143  0.6596
  697MPD2    H310311   0.952   0.008  15.644 -1.0311  2.4826 -1.5110
  697MPD2     N10312   1.058   0.045  15.212  0.3577 -0.0958  0.2342
  697MPD2    H510313   1.070   4.711  15.125 -0.3866  1.0951 -0.5744
  697MPD2    N110314   1.000   4.327  15.416  0.2541  0.1881  0.0789
  697MPD2    H710315   1.027   4.291  15.325  0.1803  0.6812 -0.1405
  698TMC3    C110316   1.098   0.213  15.065 -0.1659  0.2465 -0.0474
  698TMC3    C210317   1.176   0.323  15.058  0.0331 -0.1558 -0.6606
  698TMC3    C310318   1.254   0.340  14.946 -0.0576 -0.3937  0.3179
  698TMC3    C410319   1.106   0.115  14.966  0.1864  0.8672  0.1321
  698TMC3    C510320   1.192   0.131  14.866 -0.5570  0.3532 -0.8702
  698TMC3    C610321   1.268   0.245  14.849 -0.5325  0.3426 -0.5013
  698TMC3     C10322   1.061   0.182  15.203  0.5463 -0.0050  0.2728
  698TMC3     O10323   1.099   0.255  15.295  1.1562 -0.2101 -0.1034
  698TMC3     H10324   1.169   0.410  15.121  1.6995 -0.7572  0.3447
  698TMC3    H110325   1.044   0.026  14.963 -1.0494  1.6717  2.3682
  698TMC3    H210326   1.344   0.244  14.772 -1.6163  0.2159 -1.5765
  698TMC3    C710327   1.195   0.027  14.761  0.3513  0.4166 -0.1729
  698TMC3    C810328   1.321   0.472  14.939  0.0275  0.0139 -0.6937
  698TMC3    O110329   1.104   4.663  14.748 -0.0354 -0.2969  0.1570
  698TMC3    O210330   1.336   0.536  15.041  0.0478  0.3089 -0.0319
  699TMC3    C110331   1.454   2.597  12.659 -0.5647  0.1893  0.8801
  699TMC3    C210332   1.501   2.471  12.695 -0.2138  0.3329  0.3119
  699TMC3    C310333   1.414   2.385  12.753  0.5471  0.0479  0.1724
  699TMC3    C410334   1.326   2.646  12.684 -0.3705 -0.3271  0.5048
  699TMC3    C510335   1.244   2.558  12.745 -0.0864 -0.6100  0.5012
  699TMC3    C610336   1.290   2.430  12.786 -0.1356 -0.4409 -0.2570
  699TMC3     C10337   1.527   2.680  12.570 -0.0413  0.5139  0.3853
  699TMC3     O10338   1.468   2.747  12.490  0.5308  0.3963 -0.0632
  699TMC3     H10339   1.594   2.437  12.651  1.2782  2.5771  1.7327
  699TMC3    H110340   1.297   2.748  12.660  0.5222 -0.5079 -1.3249
  699TMC3    H210341   1.224   2.364  12.841 -0.3543  0.1819  0.2337
  699TMC3    C710342   1.134   2.603  12.830  0.3110 -0.1171  0.4008
  699TMC3    C810343   1.459   2.279  12.841  0.8807  0.3432  1.0766
  699TMC3    O110344   1.076   2.521  12.903  0.3476 -0.2340 -0.1224
  699TMC3    O210345   1.383   2.243  12.932  0.1462 -0.3354 -0.6754
  700TMC3    C110346   0.332   0.185  17.389  0.0549 -0.0165 -0.1267
  700TMC3    C210347   0.361   0.069  17.323 -0.3141 -0.3188 -0.1564
  700TMC3    C310348   0.477   0.002  17.356  0.9929 -0.6199 -0.7859
  700TMC3    C410349   0.401   0.232  17.500  0.0173 -0.2861 -0.1869
  700TMC3    C510350   0.521   0.162  17.538 -0.1340  0.4979  0.1946
  700TMC3    C610351   0.554   0.049  17.459 -1.1048 -0.5762  0.3360
  700TMC3     C10352   0.254   0.276  17.304  0.2619 -0.2301  0.5176
  700TMC3     O10353   0.192   0.230  17.210  0.0738  0.2384  0.2663
  700TMC3     H10354   0.315   0.052  17.227  1.1494 -0.5956 -0.8063
  700TMC3    H110355   0.370   0.318  17.557  2.6709 -0.3703  1.3757
  700TMC3    H210356   0.645   4.716  17.491 -0.6175 -1.4326 -2.4355
  700TMC3    C710357   0.624   0.235  17.612 -0.1480 -0.3051  0.4313
  700TMC3    C810358   0.529   4.603  17.287 -0.1291  0.2640 -0.0118
  700TMC3    O110359   0.613   0.359  17.618 -0.5194 -0.2194 -0.7595
  700TMC3    O210360   0.637   4.551  17.314  0.3989  0.3584  0.3953
  701TMC3    C110361   0.258   3.572  15.101  0.7639  0.0208  0.0246
  701TMC3    C210362   0.249   3.576  14.960 -0.4127 -0.1148 -0.2265
  701TMC3    C310363   0.345   3.650  14.896 -0.0332  0.7814  0.5964
  701TMC3    C410364   0.344   3.651  15.170 -0.0356  1.3289  0.3025
  701TMC3    C510365   0.422   3.729  15.105  0.4116  0.1457  0.0597
  701TMC3    C610366   0.439   3.726  14.966  0.3478 -0.3341  0.4773
  701TMC3     C10367   0.144   3.512  15.171  0.7336  0.7033  0.4626
  701TMC3     O10368   0.112   3.573  15.270 -0.4873  0.1373 -0.1224
  701TMC3     H10369   0.183   3.515  14.900 -0.4956  1.5120 -1.7906
  701TMC3    H110370   0.331   3.648  15.277 -3.9078 -1.7049 -0.2468
  701TMC3    H210371   0.496   3.804  14.917  0.9336 -0.9622  0.1558
  701TMC3    C710372   0.478   3.839  15.177 -0.6386  0.1468 -0.6003
  701TMC3    C810373   0.313   3.715  14.765 -0.0485  0.0898  0.1497
  701TMC3    O110374   0.494   3.934  15.101  0.0618  0.2004 -0.1976
  701TMC3    O210375   0.397   3.780  14.711  0.3687 -0.3355  0.0584
  702MPD2     C10376   4.481   1.093  10.341  0.6480  0.4983  0.8511
  702MPD2    C110377   4.426   1.205  10.395 -0.5959  0.3278 -1.0521
  702MPD2    C210378   4.436   1.323  10.318  0.0481 -0.0974  0.4641
  702MPD2    C310379   4.495   1.320  10.192  0.2059  0.3370 -1.0980
  702MPD2    C410380   4.565   1.214  10.147  0.2897  0.5108  0.0257
  702MPD2    C510381   4.550   1.099  10.220 -0.1147 -0.7358 -0.4724
  702MPD2     H10382   4.395   1.415  10.359 -0.2585 -0.4140  0.8710
  702MPD2    H110383   4.607   1.213  10.047  2.0568  0.4341  0.7857
  702MPD2    H210384   4.469   0.997  10.391  2.1932  0.1125  0.4772
  702MPD2    H310385   4.601   1.009  10.188  0.9172 -0.0445 -0.7911
  702MPD2     N10386   4.505   1.443  10.120  0.1066 -0.5657  0.0996
  702MPD2    H510387   4.570   1.450  10.043 -0.8006  0.9428 -0.5301
  702MPD2    N110388   4.359   1.212  10.516  0.1457 -0.1169  0.3623
  702MPD2    H710389   4.327   1.305  10.541 -0.6847 -0.2364 -0.2591
  703TMC3    C110390   4.464   1.665  10.085 -0.6059 -0.1049 -0.1270
  703TMC3    C210391   4.373   1.760  10.120  0.3028  0.0941  0.7156
  703TMC3    C310392   4.413   1.865  10.190  0.4482 -0.1490  0.0993
  703TMC3    C410393   4.602   1.694  10.094 -0.6745 -0.2785  0.7021
  703TMC3    C510394   4.636   1.808  10.169  0.2067  0.5059  0.2773
  703TMC3    C610395   4.545   1.900  10.210 -0.0833  0.0135  0.5736
  703TMC3     C10396   4.417   1.541  10.142  0.1212  0.1654 -0.0702
  703TMC3     O10397   4.305   1.543  10.195  0.3367  0.2537  0.0553
  703TMC3     H10398   4.270   1.738  10.095  0.2798 -1.4164  2.1194
  703TMC3    H110399   4.678   1.619  10.077 -1.1018 -0.1740 -1.6205
  703TMC3    H210400   4.562   1.992  10.265 -0.2524 -0.7962  1.9656
  703TMC3    C710401   0.058   1.832  10.187  0.1600  1.1180 -0.4154
  703TMC3    C810402   4.316   1.897  10.290  0.1765  0.1014  0.2528
  703TMC3    O110403   0.143   1.767  10.123  0.0999  0.3746 -0.2726
  703TMC3    O210404   4.312   2.005  10.344 -0.1902  0.2141 -0.6742
  704TMC3    C110405   2.001   4.493  11.666  0.1081 -0.1761 -0.1286
  704TMC3    C210406   2.102   4.530  11.748  0.1203 -0.0362 -0.3512
  704TMC3    C310407   2.155   4.442  11.841 -0.3389 -0.0094 -0.6118
  704TMC3    C410408   1.963   4.363  11.673  0.7338 -0.4467 -0.4105
  704TMC3    C510409   1.996   4.277  11.772 -0.4460  0.3402 -0.8745
  704TMC3    C610410   2.099   4.314  11.856 -0.0031  0.6929  0.0121
  704TMC3     C10411   1.985   4.575  11.548 -0.0263  0.2937  0.5474
  704TMC3     O10412   1.873   4.581  11.491  0.1267  0.5705 -0.0672
  704TMC3     H10413   2.150   4.627  11.743 -1.2320  0.6335 -0.3139
  704TMC3    H110414   1.884   4.332  11.605 -0.0047  0.5429  0.0020
  704TMC3    H210415   2.134   4.237  11.924  0.2909 -0.2534 -1.2270
  704TMC3    C710416   1.983   4.133  11.756 -0.1161 -0.0336 -0.5694
  704TMC3    C810417   2.293   4.453  11.854 -0.3413 -0.6285 -1.0247
  704TMC3    O110418   1.983   4.093  11.641  0.6731  0.5041 -0.2538
  704TMC3    O210419   2.356   4.541  11.800  0.6399 -0.4711 -0.5023
  705MPD2     C10420   1.746   1.770  15.953  0.7382 -0.5768 -0.7281
  705MPD2    C110421   1.744   1.903  15.985  0.5705  0.6776 -0.4292
  705MPD2    C210422   1.622   1.957  16.028 -0.7848  0.6530  1.1281
  705MPD2    C310423   1.512   1.879  16.030  0.1391 -0.4958  0.2780
  705MPD2    C410424   1.515   1.758  15.982  0.0360  0.3146  0.4872
  705MPD2    C510425   1.631   1.701  15.938 -0.2741 -0.4359  0.3670
  705MPD2     H10426   1.613   2.061  16.058 -1.4313  0.0240  3.0672
  705MPD2    H110427   1.420   1.707  15.977 -0.1317  0.5345  1.4395
  705MPD2    H210428   1.838   1.724  15.918  0.2547 -1.3600 -0.9663
  705MPD2    H310429   1.636   1.597  15.906 -1.1507  0.0545 -1.3420
  705MPD2     N10430   1.383   1.935  16.056 -0.0091 -0.3656  0.1576
  705MPD2    H510431   1.311   1.864  16.052 -1.3852  1.1291 -1.7056
  705MPD2    N110432   1.866   1.979  15.971  0.8870 -0.3206  0.7082
  705MPD2    H710433   1.852   2.079  15.987 -2.5493 -0.4176 -1.6591
  706TMC3    C110434   2.320   2.099  15.889  0.6708 -0.2141 -0.4207
  706TMC3    C210435   2.312   2.223  15.949  0.1165 -0.4834  0.4487
  706TMC3    C310436   2.198   2.245  16.025  0.5924 -0.5068  0.6301
  706TMC3    C410437   2.222   2.003  15.895  0.6393  0.3464 -0.1344
  706TMC3    C510438   2.107   2.032  15.957  0.0717  0.2761  0.8686
  706TMC3    C610439   2.097   2.150  16.030 -0.0431 -0.1782  0.0369
  706TMC3     C10440   2.443   2.069  15.823 -0.4613 -0.5916  0.0432
  706TMC3     O10441   2.541   2.139  15.858 -0.3084 -0.5032 -0.2093
  706TMC3     H10442   2.393   2.294  15.947 -0.3457 -0.0082 -1.6095
  706TMC3    H110443   2.235   1.908  15.844  0.6615  1.3300 -1.9805
  706TMC3    H210444   1.998   2.173  16.067  0.0081 -0.5427  0.4039
  706TMC3    C710445   1.993   1.933  15.948  0.0575  0.9258  0.4311
  706TMC3    C810446   2.177   2.367  16.095 -0.3352 -0.2629 -0.4042
  706TMC3    O110447   2.034   1.818  15.945 -0.7386 -0.7045 -0.0894
  706TMC3    O210448   2.093   2.366  16.187 -0.1441 -0.6006  0.7216
  707TMC3    C110449   4.544   1.866   1.732  0.1019  0.0986  0.1958
  707TMC3    C210450   4.621   1.760   1.774  0.5562 -0.5355 -0.2450
  707TMC3    C310451   4.587   1.689   1.885 -0.0285  0.5528  0.0890
  707TMC3    C410452   4.418   1.881   1.786 -0.0622 -0.3779 -1.3539
  707TMC3    C510453   4.388   1.808   1.898 -0.0245  0.1389  0.3987
  707TMC3    C610454   4.464   1.707   1.944  0.1181  0.0436  0.5296
  707TMC3     C10455   4.559   1.891   1.592  0.0317 -0.1169 -0.0442
  707TMC3     O10456   4.672   1.933   1.557 -0.0955  0.0743  0.2470
  707TMC3     H10457   0.004   1.750   1.735  0.6241  0.9621 -0.4480
  707TMC3    H110458   4.350   1.956   1.747  0.5333  0.2914 -1.1105
  707TMC3    H210459   4.456   1.654   2.038  1.0002  1.6864  1.5238
  707TMC3    C710460   4.245   1.816   1.946  0.5762  0.5000  0.4436
  707TMC3    C810461   4.674   1.584   1.931  0.0691  0.0893 -0.0669
  707TMC3    O110462   4.159   1.872   1.874  0.4774  0.1159 -0.1011
  707TMC3    O210463   4.671   1.544   2.048 -0.4836 -0.6685  0.1155
  708MPD2     C10464   0.398   0.752  13.870  0.4802  0.7674  0.1665
  708MPD2    C110465   0.411   0.892  13.874  0.1625 -0.2403  0.6259
  708MPD2    C210466   0.437   0.945  13.999 -0.4006  0.5325 -0.1228
  708MPD2    C310467   0.438   0.867  14.108  0.2242 -0.2963 -0.1753
  708MPD2    C410468   0.436   0.734  14.097 -0.0155  0.6058 -0.3766
  708MPD2    C510469   0.417   0.672  13.976  0.5261 -0.0045 -0.3562
  708MPD2     H10470   0.441   1.053  14.010  0.6286  0.3381  1.3512
  708MPD2    H110471   0.434   0.668  14.183  0.7945  0.8476 -0.1672
  708MPD2    H210472   0.380   0.698  13.778  2.3417  2.2922 -1.1119
  708MPD2    H310473   0.401   0.566  13.966 -0.7367  0.4926 -3.6173
  708MPD2     N10474   0.443   0.937  14.234  0.2162 -0.2092 -0.1518
  708MPD2    H510475   0.448   1.038  14.230 -0.6995 -0.1016  1.4946
  708MPD2    N110476   0.396   0.975  13.756  0.6520  0.0689  0.2978
  708MPD2    H710477   0.347   0.926  13.682 -1.0666 -0.0720  1.5203
  709TMC3    C110478   0.320   1.181  13.660  0.3760 -0.1715 -0.4893
  709TMC3    C210479   0.235   1.109  13.579  0.5811  0.5170 -0.3378
  709TMC3    C310480   0.103   1.141  13.575 -0.1647 -0.8290  0.3132
  709TMC3    C410481   0.272   1.296  13.721 -0.4201 -0.5969 -0.2546
  709TMC3    C510482   0.137   1.311  13.732 -0.0430  0.1427 -0.1987
  709TMC3    C610483   0.052   1.238  13.660 -0.4891  0.5574 -0.2125
  709TMC3     C10484   0.404   1.116  13.750  0.8302  0.2546 -0.0387
  709TMC3     O10485   0.471   1.193  13.824 -0.5081  0.0403  0.4737
  709TMC3     H10486   0.280   1.051  13.499  0.7891 -0.6887  0.6762
  709TMC3    H110487   0.330   1.363  13.783 -0.4668 -1.5626  0.8326
  709TMC3    H210488   4.663   1.255  13.669 -0.1294  3.7741 -2.2241
  709TMC3    C710489   0.099   1.317  13.872  0.1754  0.0004 -0.4121
  709TMC3    C810490   0.031   1.085  13.463 -0.1627  0.2379  0.5029
  709TMC3    O110491   0.169   1.394  13.943  0.3266 -0.5429  0.8024
  709TMC3    O210492   4.628   1.082  13.477  0.1910 -0.2487  0.4690
  710TMC3    C110493   1.804   2.952   0.028  0.2491  0.6379  0.0802
  710TMC3    C210494   1.863   2.837  17.659 -0.2933  0.4735  0.4180
  710TMC3    C310495   1.945   2.760   0.055 -0.4962  0.4279 -0.2331
  710TMC3    C410496   1.831   3.001   0.148 -0.0677  0.1464  0.1524
  710TMC3    C510497   1.928   2.932   0.218 -0.4093  0.5106  0.2767
  710TMC3    C610498   1.984   2.810   0.180 -0.6293 -0.3684 -0.1331
  710TMC3     C10499   1.705   3.019  17.616  0.1614 -0.5264  0.2283
  710TMC3     O10500   1.718   3.003  17.494 -0.1085 -0.6138 -0.3591
  710TMC3     H10501   1.830   2.797  17.564  0.7380  0.6134 -0.0081
  710TMC3    H110502   1.780   3.089   0.184  2.0989  1.2069  0.6491
  710TMC3    H210503   2.053   2.755   0.243 -0.3845  2.1687  1.8356
  710TMC3    C710504   1.942   2.961   0.361  0.5419  0.2213 -0.2730
  710TMC3    C810505   2.026   2.655  17.670 -0.1492 -0.0233 -0.5790
  710TMC3    O110506   1.959   2.870   0.443 -0.0795 -0.1680  0.7663
  710TMC3    O210507   2.116   2.610   0.067 -0.2296  0.3642 -0.4827
  711TMC3    C110508   1.238   3.477  14.917 -0.2911  0.5992 -0.6374
  711TMC3    C210509   1.337   3.558  14.967 -0.5267  0.0582 -0.3868
  711TMC3    C310510   1.452   3.501  15.012  0.2009 -0.3499 -0.1697
  711TMC3    C410511   1.255   3.345  14.900  0.1436 -0.3573 -0.0726
  711TMC3    C510512   1.374   3.294  14.933  0.3347  0.9601 -0.0632
  711TMC3    C610513   1.472   3.368  14.989 -0.5919  1.1987  0.3772
  711TMC3     C10514   1.094   3.519  14.905 -0.1616  0.1382  0.2476
  711TMC3     O10515   1.023   3.457  14.822 -0.1504 -0.0063  0.6784
  711TMC3     H10516   1.321   3.665  14.976 -1.6673 -0.1835  0.4444
  711TMC3    H110517   1.172   3.287  14.860 -1.5803  0.7456  1.8957
  711TMC3    H210518   1.566   3.316  15.000 -1.9472 -0.9372  1.7991
  711TMC3    C710519   1.404   3.157  14.907  0.6742 -0.6826  0.2101
  711TMC3    C810520   1.541   3.567  15.107 -0.1237  0.4314  0.6125
  711TMC3    O110521   1.514   3.115  14.941  0.3783  0.0119  0.0154
  711TMC3    O210522   1.520   3.684  15.130  0.3100  0.4596  0.0499
  712MPD2     C10523   2.305   4.044  13.355 -0.0244  0.4924  0.0264
  712MPD2    C110524   2.224   4.106  13.261 -0.0327 -0.9054 -0.5734
  712MPD2    C210525   2.254   4.239  13.232  1.0519  0.2219 -0.5386
  712MPD2    C310526   2.361   4.295  13.295  0.1583 -0.4430 -0.1962
  712MPD2    C410527   2.432   4.237  13.403 -0.2919  0.4061  0.0101
  712MPD2    C510528   2.405   4.106  13.430  0.0795  0.1625  0.1435
  712MPD2     H10529   2.219   4.275  13.136  1.0680  0.0275 -0.6185
  712MPD2    H110530   2.508   4.289  13.459  3.6632 -1.2710 -3.8045
  712MPD2    H210531   2.291   3.941  13.386 -0.7744 -0.0599 -2.1245
  712MPD2    H310532   2.461   4.046  13.500 -1.9852 -0.6224  1.1373
  712MPD2     N10533   2.409   4.429  13.258  0.2193 -0.2767 -0.4990
  712MPD2    H510534   2.492   4.456  13.310 -0.4682  0.3473  0.2720
  712MPD2    N110535   2.128   4.034  13.185 -0.1597  0.3053  0.1468
  712MPD2    H710536   2.088   4.096  13.116 -1.4965 -0.1520  0.5162
  713TMC3    C110537   2.444   4.629  13.131  0.7935  0.2745 -0.3285
  713TMC3    C210538   2.577   4.629  13.173 -0.2985  0.3825 -0.1964
  713TMC3    C310539   2.654   0.015  13.125  0.1229 -0.4225  0.3587
  713TMC3    C410540   2.394   0.006  13.051 -0.0779  0.3432  0.0207
  713TMC3    C510541   2.476   0.103  13.007  0.0362 -0.0973 -0.1665
  713TMC3    C610542   2.599   0.110  13.049 -0.5403  0.0236  0.1421
  713TMC3     C10543   2.361   4.509  13.150 -0.2112  0.4927 -0.0988
  713TMC3     O10544   2.261   4.495  13.080 -0.1323  0.1903  0.4739
  713TMC3     H10545   2.624   4.545  13.224 -2.1926 -0.6667 -0.1753
  713TMC3    H110546   2.299   4.713  12.999 -0.0647 -0.6744  0.1866
  713TMC3    H210547   2.659   0.193  13.014  0.4974  0.3243  2.5989
  713TMC3    C710548   2.424   0.220  12.931  0.7742 -0.2065  0.0202
  713TMC3    C810549   2.784   0.046  13.194 -0.1632  1.2674 -0.0374
  713TMC3    O110550   2.502   0.287  12.871 -0.4354 -0.3394 -0.3754
  713TMC3    O210551   2.820   0.160  13.161 -0.0170 -0.7970  0.1985
  714MPD2     C10552   4.399   3.563   1.132  0.0730 -0.9014  0.3486
  714MPD2    C110553   4.443   3.542   1.003 -0.0566  0.1796 -0.0383
  714MPD2    C210554   4.348   3.572   0.905 -0.0481  0.2635  0.0687
  714MPD2    C310555   4.228   3.643   0.928 -0.0647 -0.3605 -0.5085
  714MPD2    C410556   4.197   3.669   1.059  0.0851  0.4435 -0.8406
  714MPD2    C510557   4.281   3.631   1.164  0.5325  0.2981 -0.5522
  714MPD2     H10558   4.374   3.540   0.805  3.3914  0.0082  1.0368
  714MPD2    H110559   4.100   3.706   1.091  0.0342 -0.9091  0.5837
  714MPD2    H210560   4.467   3.545   1.215  0.5263 -2.7314 -0.4089
  714MPD2    H310561   4.273   3.664   1.267 -1.7579 -2.4483  0.1512
  714MPD2     N10562   4.152   3.680   0.818  0.3601  0.1331  0.0825
  714MPD2    H510563   4.193   3.652   0.729 -1.2619  1.0920 -0.9572
  714MPD2    N110564   4.568   3.478   0.986 -0.2469 -0.6950  0.2188
  714MPD2    H710565   4.634   3.489   1.062  0.6739 -1.2281 -0.5037
  715TMC3    C110566   0.042   3.400   0.893  0.2410  0.2745 -0.8157
  715TMC3    C210567   0.097   3.282   0.843  0.7819 -0.8662  0.3603
  715TMC3    C310568   0.234   3.276   0.850 -0.2771  0.4770 -0.6795
  715TMC3    C410569   0.109   3.495   0.953  0.6364 -0.3609 -0.2028
  715TMC3    C510570   0.241   3.485   0.962  0.1666 -0.7109  0.3685
  715TMC3    C610571   0.304   3.372   0.912  0.3442  0.8203 -0.0080
  715TMC3     C10572   4.618   3.423   0.865  0.4885 -0.5545 -0.0782
  715TMC3     O10573   4.569   3.393   0.759  0.0008  0.1017 -0.1618
  715TMC3     H10574   0.041   3.208   0.786 -0.7918  1.7830 -1.5407
  715TMC3    H110575   0.058   3.589   0.971  1.6702  0.0821  0.3904
  715TMC3    H210576   0.411   3.358   0.921  0.1984  0.0681  0.6103
  715TMC3    C710577   0.326   3.604   1.003  0.3586 -0.3127 -0.2877
  715TMC3    C810578   0.297   3.147   0.803 -0.0252  0.0041  0.0134
  715TMC3    O110579   0.434   3.607   0.951  0.0677  0.2819  0.4057
  715TMC3    O210580   0.229   3.073   0.738  0.3079  0.3377 -0.1514
  716MPD2     C10581   4.539   0.703   9.707  0.0568  0.9203 -0.0448
  716MPD2    C110582   4.495   0.701   9.578  0.2931  0.3031 -1.3618
  716MPD2    C210583   4.551   0.609   9.488 -0.4937 -0.5747  0.5508
  716MPD2    C310584   4.668   0.544   9.516  0.0430 -0.1380 -0.3277
  716MPD2    C410585   0.010   0.564   9.642 -0.4092  0.7264  0.4323
  716MPD2    C510586   4.656   0.635   9.733  0.4995  0.0032 -0.1536
  716MPD2     H10587   4.503   0.575   9.397 -0.5142 -0.6160  0.5769
  716MPD2    H110588   0.105   0.522   9.670  0.0543  1.0797 -0.5890
  716MPD2    H210589   4.490   0.755   9.789 -0.0667  0.2339  0.3098
  716MPD2    H310590   4.698   0.647   9.832  3.3972  0.3369 -1.4201
  716MPD2     N10591   0.012   0.460   9.421  0.2532 -0.8043  0.1091
  716MPD2    H510592   4.674   0.442   9.337 -1.3819 -1.4145  1.3076
  716MPD2    N110593   4.374   0.779   9.550 -0.7750  0.9551  0.5619
  716MPD2    H710594   4.335   0.836   9.624 -0.1403 -0.0762  1.6898
  717TMC3    C110595   0.131   0.302   9.318 -0.1714  0.1026 -0.6356
  717TMC3    C210596   0.057   0.346   9.209  0.3926  0.0022 -0.5510
  717TMC3    C310597   0.002   0.252   9.127 -0.5466 -0.2237  0.4281
  717TMC3    C410598   0.168   0.169   9.320 -0.2718  0.8169 -0.1386
  717TMC3    C510599   0.123   0.081   9.222 -0.2868 -0.0930 -0.2375
  717TMC3    C610600   0.034   0.123   9.122  0.4546 -0.0545 -0.1405
  717TMC3     C10601   0.129   0.391   9.436 -0.5907 -0.9491 -0.0879
  717TMC3     O10602   0.188   0.355   9.536 -0.2513  0.3942  0.1899
  717TMC3     H10603   0.041   0.453   9.202 -1.0064 -0.1200  0.8803
  717TMC3    H110604   0.236   0.139   9.398  1.3637 -0.6892 -2.1370
  717TMC3    H210605   4.696   0.048   9.066  0.2205 -0.1655  0.2357
  717TMC3    C710606   0.174   4.663   9.236 -0.1216  0.3545  0.1217
  717TMC3    C810607   4.618   0.306   9.037 -0.0285 -0.2457  0.7547
  717TMC3    O110608   0.224   4.642   9.348  0.0877 -0.6268 -0.0816
  717TMC3    O210609   4.575   0.416   9.068 -0.2342 -0.9141  0.2223
  718MPD2     C10610   4.293   4.613  12.664  0.2303  0.4278 -0.6007
  718MPD2    C110611   4.226   4.672  12.560  0.6386 -0.9473 -0.0043
  718MPD2    C210612   4.089   4.678  12.566 -0.5209  0.5538 -0.2850
  718MPD2    C310613   4.020   4.626  12.677  0.1323 -0.0010  0.9226
  718MPD2    C410614   4.090   4.568  12.777 -0.1052  0.4249  0.2109
  718MPD2    C510615   4.224   4.565  12.772  0.2965 -0.3012  0.6853
  718MPD2     H10616   4.042   0.011  12.482  0.4856 -1.9085 -2.3309
  718MPD2    H110617   4.046   4.517  12.862  1.6411  0.1386  0.9397
  718MPD2    H210618   4.402   4.608  12.663  0.2340  0.3539  0.6275
  718MPD2    H310619   4.270   4.521  12.860  0.3439 -1.4562  0.0811
  718MPD2     N10620   3.882   4.642  12.683  0.4850 -0.0077  0.5848
  718MPD2    H510621   3.850   4.696  12.603  1.6517 -0.6041 -0.2816
  718MPD2    N110622   4.283   0.016  12.448 -0.7119  0.5827 -0.6324
  718MPD2    H710623   4.222   0.054  12.376 -2.2900  0.7030  0.7721
  719TMC3    C110624   4.418   0.138  12.307 -0.1028 -0.5271 -0.1650
  719TMC3    C210625   4.303   0.134  12.233  0.1258  0.1902 -0.1197
  719TMC3    C310626   4.252   0.252  12.181 -0.0134 -0.0681 -0.2732
  719TMC3    C410627   4.483   0.254  12.336  0.5287  0.2401  0.2744
  719TMC3    C510628   4.434   0.366  12.275 -0.1723  0.1025  0.8474
  719TMC3    C610629   4.317   0.370  12.204  0.1953  0.1126 -0.6298
  719TMC3     C10630   4.418   0.045  12.417  0.1080 -1.5043 -0.0912
  719TMC3     O10631   4.512   0.053  12.491 -0.2970 -0.0176 -0.2979
  719TMC3     H10632   4.256   0.040  12.205  0.5728  0.2825 -1.1755
  719TMC3    H110633   4.581   0.257  12.381  1.4916  1.6673 -1.9419
  719TMC3    H210634   4.274   0.462  12.167  0.1481 -0.4125 -1.8567
  719TMC3    C710635   4.526   0.480  12.263 -0.2004  0.3574  0.8103
  719TMC3    C810636   4.109   0.255  12.205  0.2690  0.4219 -0.4192
  719TMC3    O110637   4.646   0.451  12.253 -0.4701 -0.4435 -0.0932
  719TMC3    O210638   4.073   0.149  12.249 -0.2363 -0.3750 -0.0341
  720MPD2     C10639   2.676   1.183  13.536  0.2354 -1.0229  0.7022
  720MPD2    C110640   2.754   1.284  13.481 -0.3745  0.0784  0.3822
  720MPD2    C210641   2.881   1.306  13.533  0.8292 -0.6097  0.5186
  720MPD2    C310642   2.929   1.231  13.641  0.0394  0.4867  0.2812
  720MPD2    C410643   2.845   1.144  13.709  0.5116 -0.5779  0.1984
  720MPD2    C510644   2.722   1.113  13.649  0.2744  0.2567  0.1493
  720MPD2     H10645   2.940   1.388  13.493 -0.3378  0.6387  1.3485
  720MPD2    H110646   2.868   1.098  13.804  0.5121  0.7840  0.8490
  720MPD2    H210647   2.583   1.153  13.489  0.1211  0.1494  0.1742
  720MPD2    H310648   2.666   1.030  13.689  3.1899 -1.5179  0.5191
  720MPD2     N10649   3.052   1.276  13.700  0.1141 -0.8815  0.2212
  720MPD2    H510650   3.090   1.366  13.672 -0.9463 -0.0129  1.5411
  720MPD2    N110651   2.716   1.367  13.380  0.1931  0.1122  0.0314
  720MPD2    H710652   2.792   1.427  13.351 -1.9091  2.9468  0.4037
  721TMC3    C110653   3.226   1.291  13.863 -0.2612  0.1524 -0.4345
  721TMC3    C210654   3.260   1.264  13.994 -0.0166  0.0237  0.4041
  721TMC3    C310655   3.365   1.328  14.048  0.0036 -0.6600  0.0417
  721TMC3    C410656   3.285   1.395  13.788 -0.4615  0.5728  0.4275
  721TMC3    C510657   3.389   1.463  13.852 -0.1936  0.1364 -0.3517
  721TMC3    C610658   3.431   1.421  13.976  0.7140 -0.3249  0.1221
  721TMC3     C10659   3.118   1.212  13.809 -0.6138 -0.0493  0.9559
  721TMC3     O10660   3.098   1.105  13.865 -0.4833 -0.0312  0.5826
  721TMC3     H10661   3.202   1.189  14.047  0.6371 -0.3633  0.5703
  721TMC3    H110662   3.248   1.418  13.689  1.7433  0.0894 -0.5169
  721TMC3    H210663   3.501   1.488  14.023 -0.0240  1.0221 -0.7146
  721TMC3    C710664   3.486   1.546  13.781 -0.6690  1.0680 -0.1275
  721TMC3    C810665   3.416   1.306  14.189  0.5442 -0.3187 -0.4713
  721TMC3    O110666   3.602   1.532  13.823 -0.5761 -0.4661 -0.3711
  721TMC3    O210667   3.513   1.373  14.225  0.2712  0.5503 -1.0775
  722MPD2     C10668   1.229   0.182  13.060 -0.3638  0.1514 -0.0811
  722MPD2    C110669   1.222   0.281  12.964  0.6940  1.1216  0.3933
  722MPD2    C210670   1.128   0.275  12.870 -0.4433 -0.3117 -0.0543
  722MPD2    C310671   1.034   0.175  12.871 -1.0687  0.4938 -0.0929
  722MPD2    C410672   1.039   0.076  12.966  0.1642  0.5983 -0.4312
  722MPD2    C510673   1.144   0.076  13.056 -0.0946  0.2768 -0.8659
  722MPD2     H10674   1.128   0.346  12.788  0.4093 -1.1247 -0.7601
  722MPD2    H110675   0.954   0.009  12.971 -0.9606  2.0138 -0.4556
  722MPD2    H210676   1.302   0.200  13.139  1.6889  1.4107 -2.2640
  722MPD2    H310677   1.145   4.716  13.131 -0.4698  1.3242  0.2107
  722MPD2     N10678   0.935   0.178  12.771 -0.0703  0.1855  0.0494
  722MPD2    H510679   0.925   0.266  12.721 -1.0292  0.1800  0.2301
  722MPD2    N110680   1.316   0.388  12.947 -0.4192 -0.2650  0.9753
  722MPD2    H710681   1.299   0.441  12.862 -1.1746 -2.0746 -0.0187
  723TMC3    C110682   0.745   0.133  12.650 -0.5318 -0.4783 -0.2220
  723TMC3    C210683   0.657   0.047  12.595 -0.5959  0.2794 -0.3020
  723TMC3    C310684   0.541   0.091  12.527  0.1568 -0.1529 -0.2430
  723TMC3    C410685   0.729   0.268  12.640 -0.0239  0.1468 -0.0454
  723TMC3    C510686   0.620   0.316  12.568  0.9441 -0.0197  0.6210
  723TMC3    C610687   0.536   0.228  12.505 -0.7755  0.4328 -0.1693
  723TMC3     C10688   0.852   0.083  12.734  0.6108 -0.1263  0.6208
  723TMC3     O10689   0.849   4.676  12.759 -0.6049 -0.0395  0.0036
  723TMC3     H10690   0.676   4.658  12.602 -0.5738  0.5198  3.2744
  723TMC3    H110691   0.790   0.345  12.685  0.1732  0.1046 -0.2426
  723TMC3    H210692   0.450   0.271  12.454  0.4634  1.8072 -1.1070
  723TMC3    C710693   0.624   0.454  12.518 -0.3805 -0.1788  0.9905
  723TMC3    C810694   0.464   0.005  12.432  0.6217 -0.2255 -0.7973
  723TMC3    O110695   0.587   0.485  12.407  0.0347 -0.6931  0.9004
  723TMC3    O210696   0.386   0.062  12.359 -0.0954 -0.5558 -0.1567
  724TMC3    C110697   1.999   2.887   9.844 -0.0750  0.9247 -0.4267
  724TMC3    C210698   2.019   2.882   9.705  0.1905 -0.2822 -0.3895
  724TMC3    C310699   2.112   2.966   9.653  0.2354  0.2429  0.0286
  724TMC3    C410700   2.059   2.979   9.925 -0.0952  0.2057  0.5668
  724TMC3    C510701   2.148   3.063   9.868  0.0239 -0.1250  0.5697
  724TMC3    C610702   2.171   3.062   9.732 -0.0491  0.4162  0.6943
  724TMC3     C10703   1.923   2.778   9.909 -0.1822  0.0546  0.4421
  724TMC3     O10704   1.960   2.751  10.020 -0.5434  0.3107  0.0000
  724TMC3     H10705   2.003   2.787   9.654  3.2337 -0.6649 -0.5947
  724TMC3    H110706   2.045   2.969  10.032  1.2631 -2.0805  0.5380
  724TMC3    H210707   2.257   3.123   9.707 -0.0225  0.1863  0.2265
  724TMC3    C710708   2.206   3.169   9.944  0.2793  0.4540  0.0430
  724TMC3    C810709   2.105   2.975   9.507 -0.0320  0.0046 -0.2253
  724TMC3    O110710   2.324   3.201   9.921  0.0106 -0.2534 -0.0664
  724TMC3    O210711   2.052   2.880   9.456  0.3883 -0.4411 -0.4853
  725TMC3    C110712   3.587   2.007  13.106 -0.4780  0.4992 -0.0294
  725TMC3    C210713   3.472   2.082  13.110  0.8900  0.6481 -0.2874
  725TMC3    C310714   3.378   2.059  13.012  0.3682 -0.6378 -0.0618
  725TMC3    C410715   3.592   1.894  13.026 -0.2489 -0.1509 -0.2439
  725TMC3    C510716   3.498   1.879  12.931  0.1397  0.2386 -0.0982
  725TMC3    C610717   3.393   1.962  12.915 -0.3033  0.0607 -0.3206
  725TMC3     C10718   3.709   2.087  13.125 -0.2299 -0.2899  0.1834
  725TMC3     O10719   3.694   2.206  13.149 -0.3258  0.1622 -0.0157
  725TMC3     H10720   3.464   2.165  13.180  1.4054  0.2879  0.1984
  725TMC3    H110721   3.681   1.838  13.051  0.4522  1.7750  1.5573
  725TMC3    H210722   3.314   1.944  12.843  0.7007  0.4996 -1.5227
  725TMC3    C710723   3.513   1.776  12.828 -0.2513  0.1620 -0.1886
  725TMC3    C810724   3.305   2.176  12.978 -0.1770 -0.4043 -0.7228
  725TMC3    O110725   3.426   1.770  12.743 -0.2702  0.1335  0.3238
  725TMC3    O210726   3.277   2.249  13.071 -0.0412  0.0205  0.5380
  726MPD2     C10727   1.052   2.995  10.063 -0.0011  0.3882  0.4516
  726MPD2    C110728   1.133   3.080  10.130  0.4018 -0.2872 -0.4630
  726MPD2    C210729   1.098   3.114  10.261 -0.4112  0.3386  1.0214
  726MPD2    C310730   0.980   3.065  10.316  0.2447  0.4498  0.1066
  726MPD2    C410731   0.901   2.971  10.243  0.3158  0.5012 -0.9019
  726MPD2    C510732   0.938   2.937  10.113 -0.4350 -0.4623 -0.7392
  726MPD2     H10733   1.145   3.195  10.315  1.4680 -0.0006 -0.1396
  726MPD2    H110734   0.807   2.933  10.279  1.1897  0.8726  1.7796
  726MPD2    H210735   1.072   2.972   9.959 -1.3848  0.2610  0.2140
  726MPD2    H310736   0.880   2.873  10.049  0.0745 -2.0976  0.4271
  726MPD2     N10737   0.921   3.103  10.439 -0.2716 -0.6906  0.6547
  726MPD2    H510738   0.832   3.057  10.454 -0.4329 -0.7939 -0.6750
  726MPD2    N110739   1.240   3.142  10.074  0.1653  0.5939 -0.4319
  726MPD2    H710740   1.293   3.201  10.137 -0.0809  0.3437  0.0100
  727TMC3    C110741   1.365   3.252   9.915 -0.9541 -0.9882  0.4998
  727TMC3    C210742   1.436   3.304  10.014  0.2496 -0.5826 -0.4150
  727TMC3    C310743   1.446   3.441  10.026 -0.8652 -0.3304  0.2393
  727TMC3    C410744   1.286   3.339   9.844 -0.1520  0.1078  0.1078
  727TMC3    C510745   1.288   3.473   9.864  0.3056 -0.4255 -0.2279
  727TMC3    C610746   1.377   3.536   9.948 -0.4673 -0.0964 -0.7802
  727TMC3     C10747   1.286   3.135   9.944 -0.3811  0.2833 -0.1748
  727TMC3     O10748   1.254   3.051   9.854  0.0323 -0.8135  0.1276
  727TMC3     H10749   1.498   3.243  10.078  1.3583  0.1432 -0.8012
  727TMC3    H110750   1.218   3.298   9.769  2.7838 -2.8502 -0.9207
  727TMC3    H210751   1.372   3.640   9.978  1.8071  0.2598 -1.6759
  727TMC3    C710752   1.169   3.541   9.831 -0.3510 -0.3547  0.2528
  727TMC3    C810753   1.564   3.494  10.092  0.1339  0.2836  0.1238
  727TMC3    O110754   1.094   3.490   9.747 -0.3836  0.5881 -0.1797
  727TMC3    O210755   1.672   3.435  10.084  0.8717  0.2009  0.0993
  728TMC3    C110756   0.476   2.107  15.298 -0.7777 -0.4067  0.2518
  728TMC3    C210757   0.518   1.975  15.324 -0.0037  0.7170 -1.0045
  728TMC3    C310758   0.640   1.961  15.397 -0.7698 -0.4851 -0.8500
  728TMC3    C410759   0.550   2.221  15.326  0.1470 -0.0753 -0.7438
  728TMC3    C510760   0.666   2.202  15.396 -0.1716 -0.2942  0.3866
  728TMC3    C610761   0.709   2.071  15.436 -0.5641  0.6503  0.2640
  728TMC3     C10762   0.338   2.122  15.252  0.0222 -0.6834  0.9067
  728TMC3     O10763   0.304   2.227  15.203  0.2034  0.0860 -0.0263
  728TMC3     H10764   0.470   1.887  15.283  1.6523 -0.6659  0.0328
  728TMC3    H110765   0.499   2.316  15.317 -1.7577 -1.1143 -0.9095
  728TMC3    H210766   0.807   2.062  15.482 -0.2101 -1.4151 -0.8900
  728TMC3    C710767   0.760   2.314  15.400 -0.4085  0.2523 -0.4176
  728TMC3    C810768   0.714   1.844  15.370 -0.0792  0.1453  0.1675
  728TMC3    O110769   0.873   2.295  15.450 -0.4431  0.2147 -0.4407
  728TMC3    O210770   0.681   1.774  15.275 -0.5441 -0.0032 -0.2177
  729MPD2     C10771   2.595   2.913  16.035 -0.4383  0.0413 -0.3075
  729MPD2    C110772   2.732   2.873  16.029 -0.0280  0.4087  0.3824
  729MPD2    C210773   2.797   2.832  16.148 -0.1059  0.1965  0.2604
  729MPD2    C310774   2.733   2.823  16.269 -0.5896 -0.1612  0.4085
  729MPD2    C410775   2.600   2.867  16.270 -0.0046 -0.2059  0.5802
  729MPD2    C510776   2.534   2.911  16.157 -0.1300  0.0556 -0.7089
  729MPD2     H10777   2.905   2.821  16.145  0.2228  3.0904  2.6824
  729MPD2    H110778   2.551   2.882  16.366 -1.5384 -0.3808 -0.1798
  729MPD2    H210779   2.535   2.955  15.955  0.3250  1.4844 -0.1242
  729MPD2    H310780   2.433   2.950  16.168 -0.4292 -1.0798  0.5660
  729MPD2     N10781   2.807   2.803  16.389 -0.4947  0.8846  0.2531
  729MPD2    H510782   2.771   2.856  16.467 -0.5664  1.6006 -0.2589
  729MPD2    N110783   2.805   2.899  15.914 -0.8124 -0.6956 -0.3638
  729MPD2    H710784   2.766   2.962  15.844  0.9318 -0.2965 -0.9797
  730TMC3    C110785   3.022   2.756  16.495  0.0925  0.5459 -0.3524
  730TMC3    C210786   3.142   2.778  16.435 -0.0067  0.1284 -0.7068
  730TMC3    C310787   3.229   2.872  16.490 -0.1946  0.2301 -0.1709
  730TMC3    C410788   2.984   2.839  16.602  0.0952 -0.7080  0.2978
  730TMC3    C510789   3.059   2.942  16.637 -0.0649 -0.0429 -0.2344
  730TMC3    C610790   3.183   2.958  16.586  0.4783 -0.2570  0.4146
  730TMC3     C10791   2.924   2.730  16.385 -0.2805 -0.3205  0.0053
  730TMC3     O10792   2.958   2.650  16.303  0.3836 -0.1948  0.0821
  730TMC3     H10793   3.162   2.736  16.338  0.2129 -2.4543  0.4439
  730TMC3    H110794   2.882   2.835  16.639  0.0955 -0.4082  0.3343
  730TMC3    H210795   3.252   3.037  16.617  2.4837 -1.3203 -1.3146
  730TMC3    C710796   3.008   3.059  16.700 -0.2041 -0.4671 -0.4115
  730TMC3    C810797   3.311   2.928  16.390 -0.3077 -0.2473  0.6735
  730TMC3    O110798   3.067   3.166  16.680  0.0383 -0.0485  0.7029
  730TMC3    O210799   3.356   2.864  16.301 -0.0516 -0.8054 -0.4002
  731MPD2     C10800   2.120   1.073  12.082 -0.6417  0.1197 -0.0003
  731MPD2    C110801   2.257   1.055  12.058 -0.3706  0.3968  0.1299
  731MPD2    C210802   2.335   0.978  12.136 -0.4218 -0.5456  0.3856
  731MPD2    C310803   2.265   0.922  12.241  0.9505  0.6893 -0.0488
  731MPD2    C410804   2.133   0.946  12.265 -0.7400  0.5042  0.8321
  731MPD2    C510805   2.059   1.022  12.185  0.1193 -0.1314 -0.1882
  731MPD2     H10806   2.440   0.971  12.108 -0.6369 -0.0158 -0.5602
  731MPD2    H110807   2.078   0.901  12.346 -1.3706 -2.9760 -1.5136
  731MPD2    H210808   2.075   1.140  12.009 -0.5449 -1.1645 -1.2497
  731MPD2    H310809   1.956   1.049  12.208  0.3335  1.3499 -0.9765
  731MPD2     N10810   2.325   0.830  12.330  0.5133 -0.1304  0.0787
  731MPD2    H510811   2.265   0.794  12.403  0.1723 -2.6211 -1.4205
  731MPD2    N110812   2.317   1.134  11.953 -0.0157  0.1068 -0.2250
  731MPD2    H710813   2.255   1.201  11.908  0.3316  0.0075 -0.8539
  732TMC3    C110814   2.463   1.212  11.798 -0.4728 -0.0152 -0.2148
  732TMC3    C210815   2.355   1.256  11.725 -0.7059  0.3228  0.7586
  732TMC3    C310816   2.370   1.367  11.648 -0.7362 -0.5517  0.2339
  732TMC3    C410817   2.588   1.266  11.788 -0.2752 -0.6347  0.2436
  732TMC3    C510818   2.592   1.382  11.712 -0.0381  0.0789 -0.1397
  732TMC3    C610819   2.486   1.436  11.648 -0.4451  0.2296  0.1305
  732TMC3     C10820   2.441   1.117  11.901  0.7546 -0.4565  0.1834
  732TMC3     O10821   2.536   1.044  11.931  0.5048  0.2072 -0.1121
  732TMC3     H10822   2.257   1.211  11.736 -0.6984  0.5315  1.6222
  732TMC3    H110823   2.673   1.215  11.830 -0.0302 -1.0435 -0.7606
  732TMC3    H210824   2.507   1.528  11.594  0.7321  0.4852  1.0303
  732TMC3    C710825   2.716   1.413  11.650  0.7199  0.7741 -0.4738
  732TMC3    C810826   2.245   1.430  11.600 -0.3260 -0.4009 -0.5074
  732TMC3    O110827   2.711   1.464  11.540  0.1717 -0.5103  0.1888
  732TMC3    O210828   2.237   1.553  11.607  0.7158 -0.4144  0.3920
  733TMC3    C110829   3.457   0.026  12.809  0.6369 -0.4390 -0.4220
  733TMC3    C210830   3.564   4.658  12.824 -0.4600 -0.3280 -0.3001
  733TMC3    C310831   3.686   4.707  12.786 -0.8452 -0.4109  0.1252
  733TMC3    C410832   3.472   0.153  12.751  0.7499  0.0160 -0.1207
  733TMC3    C510833   3.600   0.190  12.713  1.0142 -0.1154  0.0442
  733TMC3    C610834   3.705   0.110  12.726 -0.9230 -0.0085 -0.0364
  733TMC3     C10835   3.319   0.007  12.856  0.0191 -0.2986  0.3267
  733TMC3     O10836   3.241   0.100  12.840  0.2303  0.2868 -0.4689
  733TMC3     H10837   3.559   4.553  12.848  1.2147 -0.1458  0.8000
  733TMC3    H110838   3.388   0.217  12.725 -0.0551  0.1261  2.8181
  733TMC3    H210839   3.808   0.142  12.718 -1.2001  1.3634  1.8291
  733TMC3    C710840   3.605   0.294  12.610 -0.3403  0.6189  0.4385
  733TMC3    C810841   3.792   4.616  12.785 -0.1817  0.2716 -0.0259
  733TMC3    O110842   3.548   0.403  12.636 -0.5936 -0.8160  0.6742
  733TMC3    O210843   3.805   4.539  12.879  0.1879  0.4018 -0.2049
  734MPD2     C10844   0.797   2.405  12.160  0.2889 -0.3330  0.2451
  734MPD2    C110845   0.696   2.350  12.088  0.1919 -0.0666 -0.1457
  734MPD2    C210846   0.696   2.362  11.949  0.1440  0.4844  0.1165
  734MPD2    C310847   0.798   2.421  11.886  0.3490 -0.6450  0.1506
  734MPD2    C410848   0.908   2.466  11.961 -0.5423  0.3493  0.3369
  734MPD2    C510849   0.908   2.461  12.095 -0.7554  1.1285  0.4515
  734MPD2     H10850   0.624   2.313  11.886  2.6470 -0.5281 -1.9771
  734MPD2    H110851   0.999   2.509  11.920 -0.4296  0.8449  1.1151
  734MPD2    H210852   0.808   2.395  12.268 -1.5314  0.6810  0.5297
  734MPD2    H310853   0.996   2.493  12.150 -1.4857  2.5333  0.8173
  734MPD2     N10854   0.794   2.436  11.743 -0.0515 -0.7904  0.0435
  734MPD2    H510855   0.716   2.399  11.691 -0.3856  2.4509 -1.7971
  734MPD2    N110856   0.598   2.277  12.161 -0.2213 -0.3181  0.3177
  734MPD2    H710857   0.608   2.266  12.262 -0.9160  0.2334  0.4446
  735TMC3    C110858   0.428   2.106  12.179  0.9803  0.1885 -0.4100
  735TMC3    C210859   0.325   2.061  12.107  0.0518 -0.8478 -0.5507
  735TMC3    C310860   0.323   1.928  12.084  0.4550  0.0667 -0.0024
  735TMC3    C410861   0.523   2.018  12.237  0.3185 -0.2661  0.4235
  735TMC3    C510862   0.510   1.883  12.219 -0.0869 -0.3877  0.1082
  735TMC3    C610863   0.400   1.837  12.149  0.3708 -0.4111  0.0243
  735TMC3     C10864   0.491   2.211  12.098 -0.0023 -0.2517 -0.1831
  735TMC3     O10865   0.447   2.209  11.980 -0.0937  0.0328 -0.0483
  735TMC3     H10866   0.259   2.125  12.048 -0.0540  0.6645  1.2260
  735TMC3    H110867   0.613   2.052  12.287 -0.5195 -0.3797  2.0166
  735TMC3    H210868   0.404   1.736  12.110  1.4898  0.6573 -2.7038
  735TMC3    C710869   0.631   1.803  12.229  0.8776 -0.0006  0.2864
  735TMC3    C810870   0.289   1.883  11.956 -0.9437 -0.2116  0.5004
  735TMC3    O110871   0.735   1.863  12.255  0.0126  0.5614 -0.3119
  735TMC3    O210872   0.249   1.768  11.932  0.3413  0.3117 -0.0352
  736MPD2     C10873   0.675   1.440  12.252 -0.0658  1.1558 -0.4535
  736MPD2    C110874   0.706   1.571  12.220 -0.0037 -0.4557  0.3495
  736MPD2    C210875   0.829   1.602  12.164  0.0619 -0.2602 -0.7774
  736MPD2    C310876   0.910   1.497  12.112 -0.2509 -0.0814 -0.5864
  736MPD2    C410877   0.868   1.365  12.133 -0.2077  0.5660 -1.2990
  736MPD2    C510878   0.761   1.340  12.217  0.3086  0.9706 -0.7916
  736MPD2     H10879   0.858   1.700  12.128  0.0250 -0.2735 -0.8447
  736MPD2    H110880   0.920   1.285  12.082  1.5983  0.5194  0.6390
  736MPD2    H210881   0.579   1.425  12.300  0.3680  1.7050  0.5956
  736MPD2    H310882   0.732   1.237  12.233 -0.2093  1.6972  2.9101
  736MPD2     N10883   1.034   1.510  12.043 -0.2722 -0.1460 -0.1617
  736MPD2    H510884   1.098   1.432  12.030  1.1811  1.0529 -0.0295
  736MPD2    N110885   0.605   1.668  12.232 -0.8118  0.3418 -0.4891
  736MPD2    H710886   0.514   1.636  12.260 -0.1648 -1.3866 -0.3455
  737TMC3    C110887   1.176   1.631  11.883  0.5029  0.0580  0.1188
  737TMC3    C210888   1.178   1.747  11.804  0.6668  0.2019 -0.8198
  737TMC3    C310889   1.227   1.730  11.677 -0.4421  0.5321  0.0454
  737TMC3    C410890   1.213   1.505  11.836  0.2018 -0.3600 -0.6608
  737TMC3    C510891   1.279   1.499  11.714  0.0482 -0.0192  0.3402
  737TMC3    C610892   1.280   1.615  11.631  0.4286  0.2943  0.8664
  737TMC3     C10893   1.083   1.633  11.998 -0.2539  0.5087  0.0596
  737TMC3     O10894   1.047   1.737  12.052 -0.2671  0.1771 -0.1155
  737TMC3     H10895   1.136   1.842  11.835 -1.8912 -2.1503  2.8070
  737TMC3    H110896   1.199   1.415  11.895  0.5469 -0.5717 -0.8993
  737TMC3    H210897   1.346   1.614  11.545 -0.7482  0.6761 -0.0422
  737TMC3    C710898   1.320   1.365  11.674  0.2018  0.5127  0.1828
  737TMC3    C810899   1.246   1.851  11.603 -0.2890  0.4858 -0.7794
  737TMC3    O110900   1.272   1.273  11.740 -0.8370 -0.2412  0.2694
  737TMC3    O210901   1.245   1.956  11.665 -0.2437 -0.6451 -0.0071
  738MPD2     C10902   1.498   0.680  14.847  0.3463 -0.5129 -0.7213
  738MPD2    C110903   1.435   0.590  14.757 -0.5110  0.6695  0.0320
  738MPD2    C210904   1.462   0.602  14.623  0.4665 -0.3499 -0.5261
  738MPD2    C310905   1.538   0.712  14.585  0.2051 -0.2225 -0.2365
  738MPD2    C410906   1.603   0.792  14.669 -0.3626 -0.1197 -0.0066
  738MPD2    C510907   1.583   0.776  14.800 -0.5710 -0.0909  0.1346
  738MPD2     H10908   1.399   0.541  14.560 -1.4413  1.9924 -0.8932
  738MPD2    H110909   1.662   0.877  14.637  0.2543 -0.1917  0.9449
  738MPD2    H210910   1.481   0.684  14.954 -0.9912  0.1659 -0.9485
  738MPD2    H310911   1.635   0.829  14.878  0.1580 -2.3716  1.1998
  738MPD2     N10912   1.566   0.742  14.453 -0.6065  0.4645  0.3018
  738MPD2    H510913   1.652   0.793  14.438  0.2877 -0.5893  1.7920
  738MPD2    N110914   1.364   0.482  14.805 -0.5215  0.1934 -0.4696
  738MPD2    H710915   1.324   0.416  14.740  0.5459  1.8391 -2.7713
  739TMC3    C110916   1.557   0.721  14.215  0.0744 -0.4665 -0.2190
  739TMC3    C210917   1.529   0.633  14.113  0.4641  0.0026 -0.8387
  739TMC3    C310918   1.580   0.661  13.989 -0.5084 -0.0531 -0.0202
  739TMC3    C410919   1.638   0.830  14.196  0.6338 -0.3088  0.3930
  739TMC3    C510920   1.700   0.851  14.070  0.5194  0.0280 -0.4365
  739TMC3    C610921   1.670   0.759  13.970 -0.4834 -0.1136 -0.8819
  739TMC3     C10922   1.504   0.689  14.345 -0.2957  0.4788 -0.9074
  739TMC3     O10923   1.415   0.602  14.347 -0.1543  0.3427 -0.5558
  739TMC3     H10924   1.455   0.554  14.122  0.9512 -0.0103  3.1297
  739TMC3    H110925   1.656   0.897  14.279  1.4880 -2.0075  1.5859
  739TMC3    H210926   1.698   0.789  13.869 -0.9497  1.3917 -0.5638
  739TMC3    C710927   1.797   0.961  14.062 -0.6545 -0.6200  0.1024
  739TMC3    C810928   1.547   0.572  13.878 -0.4331  0.2444  0.5679
  739TMC3    O110929   1.833   1.012  14.169  0.9687  0.1789 -0.2245
  739TMC3    O210930   1.442   0.509  13.890 -0.1163  0.1302 -0.0198
  740TMC3    C110931   2.748   1.640  13.769  0.2463 -0.0850  0.1792
  740TMC3    C210932   2.803   1.610  13.899  0.0941 -0.7090  0.0983
  740TMC3    C310933   2.935   1.588  13.903  0.5083 -0.1417  0.1591
  740TMC3    C410934   2.819   1.644  13.655 -0.3384 -0.7787 -0.0756
  740TMC3    C510935   2.959   1.640  13.669 -0.2783 -0.4692  0.6901
  740TMC3    C610936   3.014   1.609  13.787 -0.1421 -0.6639  0.1606
  740TMC3     C10937   2.612   1.684  13.752 -0.4504 -1.0527 -0.2098
  740TMC3     O10938   2.578   1.735  13.643 -0.0405 -0.6089  0.3592
  740TMC3     H10939   2.745   1.627  13.990 -0.6772 -1.7155 -0.2039
  740TMC3    H110940   2.777   1.664  13.557 -2.3061  1.7087  1.2549
  740TMC3    H210941   3.120   1.628  13.798 -0.9256  3.1905  1.0088
  740TMC3    C710942   3.051   1.658  13.556  0.5227  0.3467  0.0162
  740TMC3    C810943   3.005   1.550  14.027  0.6528  0.6809  0.5056
  740TMC3    O110944   3.156   1.597  13.546  0.6041  0.9076 -0.0595
  740TMC3    O210945   3.129   1.551  14.007  0.1036 -0.5513  0.2908
  741TMC3    C110946   1.940   0.939  13.174 -0.9807 -0.0912  0.0358
  741TMC3    C210947   1.831   0.955  13.259 -0.6179 -0.1159 -0.4234
  741TMC3    C310948   1.771   0.846  13.315 -0.4644  0.1108  0.3131
  741TMC3    C410949   1.994   0.817  13.155  0.0650  0.4347 -0.1373
  741TMC3    C510950   1.926   0.710  13.215  1.1258 -0.6169 -0.3172
  741TMC3    C610951   1.811   0.720  13.282 -0.4578 -0.5000 -0.1668
  741TMC3     C10952   1.978   1.042  13.078 -0.0986  0.1143  0.1422
  741TMC3     O10953   2.070   1.012  13.001 -0.4367 -0.5333 -0.2095
  741TMC3     H10954   1.796   1.054  13.285  2.5908  0.8981  0.1444
  741TMC3    H110955   2.086   0.799  13.101  0.9185 -1.6526  2.0482
  741TMC3    H210956   1.777   0.633  13.337 -1.8815 -1.3296 -2.3855
  741TMC3    C710957   1.990   0.585  13.216 -0.4512  0.7671  0.5657
  741TMC3    C810958   1.684   0.850  13.432 -0.1107 -0.2181  0.0692
  741TMC3    O110959   1.916   0.492  13.192  0.3148 -0.2888  0.6430
  741TMC3    O210960   1.625   0.745  13.447 -0.6654 -0.1600 -0.2235
  742TMC3    C110961   1.455   4.280  15.098  0.5665  0.5531 -0.4115
  742TMC3    C210962   1.389   4.315  14.980  0.9992  0.3466  0.1806
  742TMC3    C310963   1.473   4.347  14.875 -0.5497 -0.0270  0.2783
  742TMC3    C410964   1.592   4.290  15.123  0.2398  0.1613  0.4101
  742TMC3    C510965   1.662   4.350  15.016 -0.6703 -0.1599  0.5913
  742TMC3    C610966   1.605   4.380  14.896 -0.2721 -0.5212  0.2472
  742TMC3     C10967   1.372   4.240  15.207  0.9434  0.0930  0.5509
  742TMC3     O10968   1.264   4.295  15.221  0.1534  0.3138  0.5473
  742TMC3     H10969   1.296   4.261  14.965  0.4212  1.3327  0.1976
  742TMC3    H110970   1.643   4.242  15.205 -0.4081  1.9699  1.8837
  742TMC3    H210971   1.664   4.426  14.818  0.4313  0.4799  1.3688
  742TMC3    C710972   1.801   4.315  15.008 -0.5699  0.3225  0.3181
  742TMC3    C810973   1.435   4.311  14.738 -0.2498  0.3998 -0.4704
  742TMC3    O110974   1.857   4.310  14.898 -0.2443  0.6683 -0.1820
  742TMC3    O210975   1.524   4.292  14.652  0.1323 -0.2566 -0.0320
  743MPD2     C10976   0.966   1.384   1.804 -0.2670  0.0783  0.0333
  743MPD2    C110977   0.961   1.452   1.683  0.0261  0.3720 -0.0519
  743MPD2    C210978   1.079   1.528   1.647 -0.0982  0.1345 -1.0556
  743MPD2    C310979   1.194   1.539   1.728  0.1783 -0.4549  1.1479
  743MPD2    C410980   1.186   1.474   1.847  0.6060  0.2603  0.2697
  743MPD2    C510981   1.078   1.398   1.883  0.4314 -0.5075 -0.2130
  743MPD2     H10982   1.081   1.588   1.557  1.0395  0.6574 -0.6900
  743MPD2    H110983   1.265   1.486   1.920  0.8938 -2.4287  0.4169
  743MPD2    H210984   0.883   1.325   1.839 -0.4405 -0.0246 -0.5448
  743MPD2    H310985   1.074   1.350   1.980  0.8854 -0.4575 -0.1678
  743MPD2     N10986   1.294   1.627   1.691 -0.0581  0.1494  0.2528
  743MPD2    H510987   1.302   1.643   1.591 -1.1879  0.9307  0.2898
  743MPD2    N110988   0.851   1.431   1.600  0.0366  0.1957  0.0714
  743MPD2    H710989   0.779   1.373   1.641  1.8790 -2.9166 -1.0722
  744TMC3    C110990   0.722   1.420   1.396  0.8560 -0.0392 -0.8717
  744TMC3    C210991   0.605   1.393   1.455 -0.1788 -0.0470 -0.1458
  744TMC3    C310992   0.496   1.376   1.376 -0.5111 -0.4696 -0.3559
  744TMC3    C410993   0.718   1.428   1.260  0.2175 -0.0095  0.2209
  744TMC3    C510994   0.609   1.403   1.183  0.2444  0.5560 -0.3335
  744TMC3    C610995   0.490   1.386   1.242  0.0161  0.2046 -0.0433
  744TMC3     C10996   0.834   1.478   1.469 -0.1786 -0.2662  0.1950
  744TMC3     O10997   0.904   1.553   1.406 -0.2321 -0.2934  0.4991
  744TMC3     H10998   0.600   1.408   1.562  1.0398 -0.4381 -0.0397
  744TMC3    H110999   0.816   1.456   1.222  0.8919 -0.6624  1.4703
  744TMC3    H211000   0.402   1.360   1.185 -0.1181  0.8693 -0.1476
  744TMC3    C711001   0.618   1.419   1.043 -0.0790  0.4011  0.1601
  744TMC3    C811002   0.372   1.372   1.450  0.7578  0.1516 -0.1294
  744TMC3    O111003   0.513   1.450   0.984  0.0342 -0.6143 -0.1245
  744TMC3    O211004   0.282   1.442   1.402  0.0440 -0.7211 -1.0306
  745TMC3    C111005   2.008   3.866  13.075  0.1593  0.0817  0.3754
  745TMC3    C211006   1.906   3.779  13.108  0.0146 -0.3770  0.0599
  745TMC3    C311007   1.779   3.810  13.071  0.1521 -0.3096  0.1972
  745TMC3    C411008   1.987   3.963  12.980  0.0201 -0.2758  0.3193
  745TMC3    C511009   1.861   3.981  12.932  0.4094 -0.6787  0.1020
  745TMC3    C611010   1.758   3.902  12.971 -0.1267 -0.3388 -0.1586
  745TMC3     C11011   2.089   3.903  13.193  0.0635  0.4392  0.9592
  745TMC3     O11012   2.082   3.826  13.288  0.3809 -0.0081 -0.1042
  745TMC3     H11013   1.931   3.700  13.179 -0.9227  1.8210  2.8448
  745TMC3    H111014   2.073   4.015  12.940 -0.3971 -0.2180 -0.4954
  745TMC3    H211015   1.656   3.929  12.946 -0.0131 -0.4149 -0.7021
  745TMC3    C711016   1.828   4.087  12.837 -0.4559  0.0216 -0.4942
  745TMC3    C811017   1.692   3.835  13.181 -0.3179 -0.3251  0.2022
  745TMC3    O111018   1.737   4.070  12.755  0.1665 -0.3478 -0.1448
  745TMC3    O211019   1.573   3.846  13.156  0.1069  0.0284  0.6591
  746TMC3    C111020   4.157   1.297  10.873  0.5441 -0.5148  0.5012
  746TMC3    C211021   4.204   1.274  10.750 -0.5178 -0.4189  0.5554
  746TMC3    C311022   4.242   1.145  10.712 -0.6260  0.5188  0.7307
  746TMC3    C411023   4.147   1.194  10.961  0.4099  0.7754  0.1793
  746TMC3    C511024   4.182   1.068  10.922 -0.4293  0.2889 -0.0862
  746TMC3    C611025   4.234   1.038  10.797 -0.5843  0.8222 -0.0317
  746TMC3     C11026   4.136   1.429  10.926  0.2070  0.8803 -0.6099
  746TMC3     O11027   4.074   1.430  11.033 -1.0915  0.2125 -0.0384
  746TMC3     H11028   4.196   1.354  10.677  0.1836  0.2482  1.2100
  746TMC3    H111029   4.097   1.216  11.055  1.1539 -0.9994  1.0005
  746TMC3    H211030   4.242   0.937  10.760 -2.0444  1.1214 -1.1416
  746TMC3    C711031   4.144   0.958  11.012 -0.3635  0.1614 -1.1260
  746TMC3    C811032   4.314   1.108  10.592  1.3516  0.0000 -0.2740
  746TMC3    O111033   4.032   0.970  11.058 -0.4153  0.0676 -0.7213
  746TMC3    O211034   4.329   0.990  10.571 -0.1267 -0.0200 -0.2139
  747TMC3    C111035   1.665   1.178  10.700 -0.5816 -0.3795  0.1862
  747TMC3    C211036   1.573   1.152  10.795 -0.0260  0.1845 -1.1864
  747TMC3    C311037   1.609   1.174  10.928  0.7606 -0.8061 -0.2184
  747TMC3    C411038   1.790   1.212  10.733 -0.0262  0.0400  0.0505
  747TMC3    C511039   1.826   1.221  10.865 -0.1691 -0.1759 -0.3724
  747TMC3    C611040   1.739   1.199  10.971  0.1705  0.4635 -0.1835
  747TMC3     C11041   1.655   1.098  10.578 -0.2830  0.1223  0.1127
  747TMC3     O11042   1.556   1.117  10.509  0.2232  0.4278 -0.8726
  747TMC3     H11043   1.470   1.138  10.764  0.1307 -2.2557 -0.5501
  747TMC3    H111044   1.865   1.228  10.656 -1.4150  0.7951 -1.1489
  747TMC3    H211045   1.768   1.207  11.075 -0.6524 -0.1330  0.0946
  747TMC3    C711046   1.919   1.329  10.881  0.1800 -0.2318 -0.2849
  747TMC3    C811047   1.520   1.117  11.029 -0.5509  0.4227 -0.3820
  747TMC3    O111048   1.903   1.424  10.807 -0.3430 -0.3176  0.5375
  747TMC3    O211049   1.451   1.018  11.006 -0.1332  1.0839 -0.5323
  748MPD2     C11050   3.346   3.225   1.224 -0.4130  0.8942 -0.5284
  748MPD2    C111051   3.367   3.084   1.229 -0.2339  0.4014 -0.1281
  748MPD2    C211052   3.477   3.038   1.162  0.0582  0.1167 -0.0520
  748MPD2    C311053   3.561   3.119   1.094 -0.3495  0.0177  0.4441
  748MPD2    C411054   3.526   3.246   1.072 -0.1892  0.3899  0.7026
  748MPD2    C511055   3.419   3.295   1.137  0.0455  0.0082  0.0556
  748MPD2     H11056   3.507   2.934   1.157 -1.1774 -0.1356 -2.0133
  748MPD2    H111057   3.588   3.317   1.018  0.4504 -0.9105 -0.2712
  748MPD2    H211058   3.262   3.265   1.281 -1.5454  1.0940 -2.3424
  748MPD2    H311059   3.411   3.404   1.142  0.6320  0.1263 -1.5387
  748MPD2     N11060   3.689   3.071   1.062  0.2126 -0.1918 -0.0536
  748MPD2    H511061   3.708   2.975   1.091  2.8592  0.2686 -0.2568
  748MPD2    N111062   3.283   3.020   1.316 -0.3358  0.0900 -0.3555
  748MPD2    H711063   3.225   3.075   1.378  0.4230  1.4131 -0.8103
  749TMC3    C111064   3.891   3.049   0.946 -0.3212  0.2959 -0.6411
  749TMC3    C211065   3.951   2.986   1.051 -0.2629 -0.5056  0.5304
  749TMC3    C311066   4.074   2.928   1.039 -0.4657  0.0530  0.0746
  749TMC3    C411067   3.959   3.049   0.831 -0.5166 -0.1320  0.2272
  749TMC3    C511068   4.060   2.963   0.812  0.7843  0.3195  0.2918
  749TMC3    C611069   4.118   2.894   0.920 -0.6741  0.3573 -0.7766
  749TMC3     C11070   3.776   3.130   0.973 -0.6718  0.2643  0.5851
  749TMC3     O11071   3.767   3.231   0.906 -0.2960  0.2951 -0.2126
  749TMC3     H11072   3.904   2.987   1.149  0.1282  0.0057  0.7103
  749TMC3    H111073   3.911   3.096   0.746  2.5041  2.4831 -0.0488
  749TMC3    H211074   4.207   2.836   0.902 -0.3959  0.4209  0.3763
  749TMC3    C711075   4.139   2.981   0.690  0.5237 -1.0329 -1.1327
  749TMC3    C811076   4.147   2.897   1.163 -1.1909 -0.3310  0.0203
  749TMC3    O111077   4.111   3.085   0.634 -0.3905  0.7481 -0.4037
  749TMC3    O211078   4.115   2.963   1.261  0.9465 -0.1761 -0.2259
  750MPD2     C11079   0.241   3.269  11.614  0.2083  0.4579 -0.0303
  750MPD2    C111080   0.112   3.224  11.610  0.8163  0.0409  0.1615
  750MPD2    C211081   0.058   3.174  11.494 -0.1248 -0.0201 -0.8235
  750MPD2    C311082   0.144   3.162  11.386  0.1868  0.7142  0.5534
  750MPD2    C411083   0.273   3.184  11.396  0.1577  0.1364 -0.3164
  750MPD2    C511084   0.326   3.236  11.505 -0.6779  0.9586 -0.8708
  750MPD2     H11085   4.673   3.138  11.482 -1.3087  2.9841  0.3220
  750MPD2    H111086   0.331   3.164  11.307 -1.7019  1.2401 -1.7806
  750MPD2    H211087   0.291   3.316  11.698  1.5232 -3.5480  1.4347
  750MPD2    H311088   0.429   3.271  11.505 -0.8335  1.4039 -0.6574
  750MPD2     N11089   0.092   3.121  11.262 -0.2878  0.5389 -0.1935
  750MPD2    H511090   0.152   3.113  11.180  1.0510 -0.5503  0.8906
  750MPD2    N111091   0.042   3.239  11.732  0.2851 -0.4550 -0.5551
  750MPD2    H711092   0.079   3.298  11.806  0.0786 -0.6397 -0.3021
  751TMC3    C111093   4.645   3.078  11.095 -0.0228  0.1498  0.4068
  751TMC3    C211094   4.517   3.034  11.090 -0.1672 -0.2114  0.2452
  751TMC3    C311095   4.474   2.964  10.980 -0.2364 -0.6612  0.2695
  751TMC3    C411096   0.025   3.055  10.997  0.4096 -0.3660 -0.0529
  751TMC3    C511097   4.697   2.975  10.893  0.5324 -0.2970 -0.0318
  751TMC3    C611098   4.569   2.929  10.889 -0.3828  0.7190 -0.1208
  751TMC3     C11099   4.675   3.142  11.222 -0.2462  0.5725 -0.5001
  751TMC3     O11100   4.578   3.186  11.284  0.0159 -0.4021  0.1615
  751TMC3     H11101   4.445   3.070  11.163  1.1613  2.5836  0.1974
  751TMC3    H111102   0.128   3.089  11.002 -0.1928  1.2985  1.1729
  751TMC3    H211103   4.544   2.865  10.805  1.0357  3.9675 -3.0436
  751TMC3    C711104   0.076   2.889  10.825  0.2019 -0.1059  0.2460
  751TMC3    C811105   4.353   2.882  10.979  0.6241 -0.2898 -0.4443
  751TMC3    O111106   0.189   2.919  10.797  0.2806  0.0154  0.2013
  751TMC3    O211107   4.341   2.802  10.887  0.6818  0.2447  0.4467
  752TMC3    C111108   3.799   2.668  16.358 -0.0314 -0.0358  0.3735
  752TMC3    C211109   3.690   2.694  16.426 -0.0522 -1.2153 -0.1419
  752TMC3    C311110   3.692   2.651  16.556  0.2958  0.3347 -0.0366
  752TMC3    C411111   3.918   2.631  16.417 -0.2682  0.2920  0.3074
  752TMC3    C511112   3.920   2.624  16.550  0.9021 -0.3422  0.0923
  752TMC3    C611113   3.807   2.630  16.624  0.4878  0.2736  0.0875
  752TMC3     C11114   3.799   2.674  16.216 -0.7554 -0.2516  0.3575
  752TMC3     O11115   3.893   2.632  16.148  0.3559  0.1874  0.0404
  752TMC3     H11116   3.594   2.705  16.376 -0.1799 -0.4014  0.2802
  752TMC3    H111117   4.005   2.616  16.355 -0.2491  1.7352 -0.0196
  752TMC3    H211118   3.799   2.626  16.732  0.8365  2.0415  0.1799
  752TMC3    C711119   4.042   2.580  16.612 -0.0180  0.0871  0.4305
  752TMC3    C811120   3.559   2.633  16.615 -0.0546  0.0129 -0.3212
  752TMC3    O111121   4.146   2.589  16.550  0.1594 -0.0807 -0.1900
  752TMC3    O211122   3.476   2.689  16.546  0.9510 -0.2470 -0.3454
  753TMC3    C111123   0.416   4.253  13.204 -1.1581 -0.3697 -0.4283
  753TMC3    C211124   0.453   4.207  13.330  0.0739  0.0852 -0.1772
  753TMC3    C311125   0.470   4.073  13.349  0.0025 -0.2510  0.3899
  753TMC3    C411126   0.402   4.162  13.100  0.4179 -0.1066  0.5006
  753TMC3    C511127   0.388   4.031  13.129 -0.1532  0.2028  0.1097
  753TMC3    C611128   0.429   3.984  13.250 -0.4990 -0.0244 -0.2621
  753TMC3     C11129   0.366   4.385  13.176 -0.0829 -0.6887 -0.0119
  753TMC3     O11130   0.332   4.407  13.058  0.3564 -0.0505  0.5702
  753TMC3     H11131   0.466   4.273  13.416 -0.6432 -0.6615  0.5049
  753TMC3    H111132   0.370   4.193  13.001  1.9148  0.6744  0.2682
  753TMC3    H211133   0.442   3.879  13.276  0.4393  0.4996  1.3686
  753TMC3    C711134   0.308   3.941  13.045 -0.2294  0.1682 -0.5092
  753TMC3    C811135   0.480   4.015  13.484  1.0841  0.4577 -0.0090
  753TMC3    O111136   0.259   3.973  12.939  0.1606  0.0666  0.0019
  753TMC3    O211137   0.428   3.902  13.502  0.2040  0.2664 -0.6335
  754MPD2     C11138   4.622   3.231  12.811  0.5370  0.3640  0.1535
  754MPD2    C111139   4.642   3.094  12.813 -0.8573  0.2866 -0.1053
  754MPD2    C211140   4.525   3.016  12.818  0.0715 -0.1386 -1.3915
  754MPD2    C311141   4.405   3.070  12.807  0.0938  0.0916 -0.2875
  754MPD2    C411142   4.385   3.203  12.793  0.1334 -1.0747  0.5327
  754MPD2    C511143   4.496   3.283  12.798  0.6051 -0.2234 -0.2451
  754MPD2     H11144   4.536   2.909  12.820 -0.8555 -0.2165 -0.8568
  754MPD2    H111145   4.294   3.261  12.794  0.9247  0.2239 -3.4603
  754MPD2    H211146   4.710   3.293  12.800  0.3242  0.8344  1.0507
  754MPD2    H311147   4.488   3.391  12.785 -1.3333 -0.3325  0.1379
  754MPD2     N11148   4.287   3.007  12.832  0.2360  0.0366  0.4188
  754MPD2    H511149   4.208   3.069  12.851 -0.0779 -0.6461  1.3580
  754MPD2    N111150   0.058   3.046  12.814 -0.3652  0.0157 -0.3007
  754MPD2    H711151   0.133   3.110  12.790 -0.1497  0.0710  0.5158
  755MPD2     C11152   3.398   3.257  12.872  0.1333  0.5595  0.0151
  755MPD2    C111153   3.465   3.229  12.991  0.2491  0.2681  0.2952
  755MPD2    C211154   3.573   3.149  12.977  0.4206 -0.6207 -0.5005
  755MPD2    C311155   3.623   3.103  12.859  0.4878 -0.3240 -0.8509
  755MPD2    C411156   3.553   3.136  12.745 -0.2272  0.3822 -0.4765
  755MPD2    C511157   3.441   3.216  12.752  0.2065 -0.0827  0.9296
  755MPD2     H11158   3.624   3.125  13.070 -1.8689  2.2130  1.4672
  755MPD2    H111159   3.585   3.103  12.647 -0.1091 -1.1322  0.0706
  755MPD2    H211160   3.299   3.302  12.879 -0.3382 -0.3220 -0.9683
  755MPD2    H311161   3.384   3.231  12.661  0.3704 -1.4424  0.6086
  755MPD2     N11162   3.741   3.023  12.839 -0.2790  0.4036  0.1599
  755MPD2    H511163   3.768   2.997  12.745  0.1997 -1.3470  0.7828
  755MPD2    N111164   3.417   3.271  13.116  0.3749  0.3115 -0.4932
  755MPD2    H711165   3.468   3.236  13.196  0.4854 -1.0765 -1.1725
  756MPD2     C11166   0.282   2.335   9.795 -0.8043 -0.1210 -0.1331
  756MPD2    C111167   0.194   2.356   9.688 -0.3420  0.3883 -0.0673
  756MPD2    C211168   0.106   2.257   9.647 -0.8064  0.4404 -0.2692
  756MPD2    C311169   0.110   2.132   9.711 -0.2525  0.6085 -0.1937
  756MPD2    C411170   0.191   2.114   9.823  0.2251 -0.2395  0.3543
  756MPD2    C511171   0.273   2.216   9.859 -0.2543  0.2235  0.4692
  756MPD2     H11172   0.047   2.283   9.560  1.8421  0.2857 -2.1143
  756MPD2    H111173   0.193   2.020   9.875  0.8841 -1.0969 -1.2270
  756MPD2    H211174   0.366   2.402   9.810  0.9205 -2.1443 -0.6952
  756MPD2    H311175   0.329   2.200   9.950 -0.0077  0.6652  0.3909
  756MPD2     N11176   0.029   2.026   9.678 -0.0115  0.2096 -0.3458
  756MPD2    H511177   0.048   1.944   9.734  1.6625 -0.1101 -1.3670
  756MPD2    N111178   0.198   2.479   9.620  0.2553  0.1478 -0.2133
  756MPD2    H711179   0.135   2.494   9.542 -1.7150  0.0516  1.3515
  757MPD2     C11180   3.996   1.772   9.033  0.3531  0.2035  0.1993
  757MPD2    C111181   3.991   1.825   9.159 -0.4511 -0.3470 -0.2295
  757MPD2    C211182   4.105   1.834   9.233  0.2332 -0.6564  0.3024
  757MPD2    C311183   4.226   1.792   9.186  0.2267 -0.0544  0.7304
  757MPD2    C411184   4.230   1.735   9.060 -0.1690 -0.0762  0.1649
  757MPD2    C511185   4.115   1.730   8.983 -0.0808 -0.1385  0.0408
  757MPD2     H11186   4.113   1.882   9.330  1.5148 -1.3167  0.5215
  757MPD2    H111187   4.326   1.699   9.025 -0.8117 -1.4899 -0.1554
  757MPD2    H211188   3.914   1.758   8.963  1.6763 -1.2224 -1.0674
  757MPD2    H311189   4.108   1.686   8.884  0.4722 -2.3995  0.9991
  757MPD2     N11190   4.332   1.797   9.275  0.4809 -0.2265  0.0362
  757MPD2    H511191   4.318   1.853   9.358 -0.0408  0.6552 -0.6443
  757MPD2    N111192   3.862   1.856   9.209  0.3744 -0.0932 -0.0250
  757MPD2    H711193   3.785   1.858   9.143 -1.4562 -1.6883  2.0732
  758MPD2     C11194   4.225   2.597  15.672  0.2050 -0.5992  0.1315
  758MPD2    C111195   4.314   2.518  15.743 -0.0519 -1.0599 -0.4395
  758MPD2    C211196   4.288   2.483  15.874 -0.5773  0.2876 -0.8784
  758MPD2    C311197   4.166   2.529  15.929  0.2829  0.5249  0.0022
  758MPD2    C411198   4.087   2.619  15.866 -0.0662 -0.6047 -0.3264
  758MPD2    C511199   4.118   2.656  15.733 -0.6766 -0.0195  0.5685
  758MPD2     H11200   4.354   2.418  15.932  0.7198  1.6862 -0.8003
  758MPD2    H111201   3.998   2.658  15.914 -0.0581 -0.0084 -0.7909
  758MPD2    H211202   4.252   2.608  15.568 -0.4267 -0.4476 -0.0218
  758MPD2    H311203   4.044   2.715  15.681 -1.3201 -1.4915 -0.1609
  758MPD2     N11204   4.128   2.494  16.063  0.2308  0.2433  0.3838
  758MPD2    H511205   4.052   2.535  16.115  0.3201  0.8182  0.0623
  758MPD2    N111206   4.425   2.470  15.661  0.0256 -0.1041 -0.1067
  758MPD2    H711207   4.422   2.494  15.562 -0.2865  1.6839  0.3397
  759MPD2     C11208   3.384   0.271  10.089 -0.0055 -0.0256  0.0159
  759MPD2    C111209   3.271   0.229  10.017  0.2250  0.3391  0.6803
  759MPD2    C211210   3.243   0.309   9.909  0.2820 -0.7184  0.9800
  759MPD2    C311211   3.311   0.425   9.867 -0.6991 -0.2633 -0.2597
  759MPD2    C411212   3.428   0.454   9.937 -0.2447 -0.6838 -0.1708
  759MPD2    C511213   3.465   0.372  10.046 -0.1007 -0.4244 -0.2079
  759MPD2     H11214   3.166   0.271   9.844 -1.4636  2.1885  1.3671
  759MPD2    H111215   3.484   0.545   9.916  1.4411 -1.5158  0.7885
  759MPD2    H211216   3.416   0.209  10.171 -1.2140 -0.3542  0.2409
  759MPD2    H311217   3.554   0.399  10.103 -0.7672 -0.0490  0.6424
  759MPD2     N11218   3.261   0.493   9.748 -0.0685  0.3280 -0.4142
  759MPD2    H511219   3.161   0.484   9.734 -0.1027  0.0018  0.0239
  759MPD2    N111220   3.193   0.114  10.058 -0.6428 -0.1902 -0.4244
  759MPD2    H711221   3.115   0.089   9.997 -0.8276 -1.2457  0.2419
  760MPD2     C11222   3.038   2.807  11.416  0.8526 -0.0178 -0.1882
  760MPD2    C111223   3.081   2.885  11.526  0.2504 -0.0484 -0.2709
  760MPD2    C211224   3.095   2.812  11.647  0.1076  0.8840  0.0837
  760MPD2    C311225   3.064   2.680  11.657 -0.1068 -0.4854  0.1412
  760MPD2    C411226   3.018   2.612  11.548 -0.2739 -0.2131 -0.1473
  760MPD2    C511227   2.997   2.678  11.426  0.7448 -0.2597 -0.0356
  760MPD2     H11228   3.134   2.859  11.737 -0.1300  2.0931 -0.4502
  760MPD2    H111229   2.988   2.509  11.567 -2.7145  0.9287  2.2530
  760MPD2    H211230   3.013   2.853  11.322  0.6376 -0.3270 -0.2820
  760MPD2    H311231   2.953   2.635  11.337 -2.1378  0.1469  1.1732
  760MPD2     N11232   3.067   2.609  11.775  0.5336 -0.6701  0.7687
  760MPD2    H511233   3.070   2.508  11.763 -3.1532 -0.8700  1.7590
  760MPD2    N111234   3.111   3.022  11.529 -0.2493 -0.3986  0.7625
  760MPD2    H711235   3.165   3.066  11.603 -0.9019  1.7605 -0.0200
  761MPD2     C11236   3.926   2.726  11.207  0.3479 -0.1890  0.5583
  761MPD2    C111237   3.988   2.680  11.093  0.2314 -0.1609  0.2623
  761MPD2    C211238   4.103   2.751  11.057  0.4229  0.7422 -0.4815
  761MPD2    C311239   4.139   2.870  11.110  0.3136 -0.2613  0.1124
  761MPD2    C411240   4.073   2.915  11.218  0.3339  0.1693  0.1142
  761MPD2    C511241   3.963   2.845  11.266  0.2232  0.3679 -0.4169
  761MPD2     H11242   4.160   2.701  10.980 -1.2957  1.5024 -2.2620
  761MPD2    H111243   4.128   2.985  11.279 -0.2318 -0.5581  1.4756
  761MPD2    H211244   3.845   2.665  11.247 -1.1624 -0.9297 -3.5807
  761MPD2    H311245   3.925   2.869  11.364  1.8405  1.6273 -0.1081
  761MPD2     N11246   4.268   2.919  11.080 -0.0697  0.3944  0.1979
  761MPD2    H511247   4.286   3.015  11.107  1.4497 -0.1555  1.1732
  761MPD2    N111248   3.939   2.563  11.037  0.4275  0.1712 -0.1785
  761MPD2    H711249   3.859   2.517  11.080 -0.1517 -0.1356 -1.5877
  762MPD2     C11250   3.968   1.722  10.629  0.3722  1.1297  0.0465
  762MPD2    C111251   4.025   1.848  10.611 -0.1410 -0.3257  0.2721
  762MPD2    C211252   4.122   1.875  10.518  0.0704 -0.6239  0.0126
  762MPD2    C311253   4.148   1.771  10.427  0.6783 -0.0495  0.2836
  762MPD2    C411254   4.089   1.647  10.435  0.3577  0.3204  0.4250
  762MPD2    C511255   3.999   1.626  10.541 -0.3541 -0.3794  0.3283
  762MPD2     H11256   4.180   1.967  10.527 -1.2768  0.2671 -0.5519
  762MPD2    H111257   4.103   1.564  10.367 -1.0691 -1.5235  2.3816
  762MPD2    H211258   3.894   1.696  10.703  0.4635 -3.3216 -1.4166
  762MPD2    H311259   3.948   1.532  10.555 -0.1124 -0.5306  0.1921
  762MPD2     N11260   4.241   1.785  10.320  0.1212 -0.2674 -0.6324
  762MPD2    H511261   4.248   1.700  10.266 -2.8632 -1.7504  1.3450
  762MPD2    N111262   3.988   1.941  10.705  0.1426  0.2317 -0.0121
  762MPD2    H711263   3.920   1.905  10.771 -0.8750  1.9142 -0.1402
  763MPD2     C11264   1.546   2.234  15.531  0.4526  0.8834  0.1765
  763MPD2    C111265   1.490   2.359  15.501 -0.3762 -0.1802  0.4312
  763MPD2    C211266   1.481   2.442  15.612  0.2549 -0.3778  0.4617
  763MPD2    C311267   1.500   2.395  15.747  0.5435 -0.9464  0.4393
  763MPD2    C411268   1.540   2.268  15.765  0.4603  0.6808  0.8973
  763MPD2    C511269   1.561   2.182  15.658 -0.2117  0.2283  0.3000
  763MPD2     H11270   1.439   2.541  15.596  1.1019 -0.3388 -1.5361
  763MPD2    H111271   1.548   2.227  15.865  1.3362 -0.6318  0.2895
  763MPD2    H211272   1.564   2.164  15.450 -0.2778  1.8708 -0.8455
  763MPD2    H311273   1.605   2.085  15.674  1.7120  0.5717 -2.7647
  763MPD2     N11274   1.474   2.470  15.861 -0.0178 -0.3033  0.0472
  763MPD2    H511275   1.502   2.432  15.951  0.4576 -0.6185 -0.2382
  763MPD2    N111276   1.447   2.401  15.370 -0.1487 -0.1677 -0.1891
  763MPD2    H711277   1.439   2.502  15.357  2.5279 -0.1424 -1.6772
  764MPD2     C11278   3.537   4.426  16.806 -0.3652 -0.7136  0.0235
  764MPD2    C111279   3.520   4.292  16.820  0.1893  0.2717  0.2904
  764MPD2    C211280   3.446   4.245  16.930 -0.6843  0.4228 -0.1340
  764MPD2    C311281   3.388   4.339  17.010  0.3368  0.1740  0.5409
  764MPD2    C411282   3.396   4.468  16.993 -0.5788  0.0745  0.9460
  764MPD2    C511283   3.467   4.512  16.887  0.8288 -0.0878  0.2779
  764MPD2     H11284   3.440   4.141  16.961 -1.3652  0.0092 -1.6971
  764MPD2    H111285   3.351   4.542  17.057 -0.6906 -0.4121  1.4367
  764MPD2    H211286   3.592   4.475  16.727 -0.5728 -0.4749  0.0262
  764MPD2    H311287   3.474   4.618  16.868 -2.0767 -0.0684 -0.6035
  764MPD2     N11288   3.328   4.275  17.123 -0.1951  0.2960 -0.0598
  764MPD2    H511289   3.316   4.175  17.115  0.8561  0.2289 -0.8477
  764MPD2    N111290   3.575   4.199  16.723 -0.3626 -0.4680 -1.3354
  764MPD2    H711291   3.572   4.099  16.741  3.0678 -0.1690  0.8609
  765MPD2     C11292   3.608   1.549  15.466 -0.4395  0.2688  0.3192
  765MPD2    C111293   3.677   1.668  15.447  0.5357  0.0845  0.1457
  765MPD2    C211294   3.813   1.667  15.458 -0.1125 -0.3891  0.1517
  765MPD2    C311295   3.880   1.559  15.511 -0.1270 -0.0433  0.0907
  765MPD2    C411296   3.811   1.438  15.531 -0.3269  0.4705  0.5233
  765MPD2    C511297   3.678   1.437  15.502 -0.4309  0.1301 -0.1147
  765MPD2     H11298   3.871   1.755  15.435 -2.3598  0.4472 -2.3163
  765MPD2    H111299   3.860   1.348  15.565  2.7299  2.0532  0.3150
  765MPD2    H211300   3.500   1.540  15.475 -0.4947 -0.5343 -1.1472
  765MPD2    H311301   3.618   1.347  15.507 -2.1835  1.2719 -0.5506
  765MPD2     N11302   4.018   1.567  15.532  0.0412  0.2898  0.1719
  765MPD2    H511303   4.063   1.651  15.496 -0.1307  0.4094  0.2325
  765MPD2    N111304   3.606   1.774  15.381 -0.2998 -0.4056 -0.1099
  765MPD2    H711305   3.507   1.760  15.364 -0.7610  0.8144  1.5469
  766MPD2     C11306   3.194   1.883  14.884 -0.2097 -0.4176  0.1156
  766MPD2    C111307   3.257   1.964  14.978 -0.8019  0.2589 -0.2354
  766MPD2    C211308   3.380   2.026  14.948  0.0086  0.9664 -0.3872
  766MPD2    C311309   3.438   2.009  14.820 -1.2292 -0.0482  0.0758
  766MPD2    C411310   3.386   1.914  14.730  0.6913  0.6213 -0.1138
  766MPD2    C511311   3.264   1.852  14.767  0.3998  0.3738 -0.5645
  766MPD2     H11312   3.427   2.095  15.017  0.1397  0.8157 -0.3271
  766MPD2    H111313   3.428   1.892  14.632 -0.2334  0.4322 -0.4683
  766MPD2    H211314   3.095   1.848  14.910 -0.9909  0.5870 -1.5092
  766MPD2    H311315   3.220   1.778  14.700 -1.4288  1.0615 -0.1178
  766MPD2     N11316   3.548   2.092  14.788  0.3572 -1.0906  0.2822
  766MPD2    H511317   3.580   2.145  14.868  0.6464 -1.4800  0.4214
  766MPD2    N111318   3.190   1.982  15.102 -0.1255 -0.2433  0.5796
  766MPD2    H711319   3.094   1.950  15.095  0.2095 -0.8405 -1.2652
  767MPD2     C11320   2.948   2.160  14.877 -0.0362 -0.2670 -0.1254
  767MPD2    C111321   3.040   2.226  14.801  0.2442 -1.1107 -0.3606
  767MPD2    C211322   3.091   2.168  14.683  0.1644 -0.3771 -0.2234
  767MPD2    C311323   3.024   2.055  14.628 -0.3607  0.2226  0.6620
  767MPD2    C411324   2.928   1.990  14.709 -0.1846  0.0457 -0.0595
  767MPD2    C511325   2.900   2.043  14.830 -0.9064  0.1531  0.4919
  767MPD2     H11326   3.168   2.205  14.615  0.5925  1.2783  1.1782
  767MPD2    H111327   2.885   1.895  14.679 -1.8677  0.2169  1.8522
  767MPD2    H211328   2.910   2.210  14.966 -3.6631 -0.4040 -1.6186
  767MPD2    H311329   2.821   1.998  14.890 -1.8492 -1.4095 -1.9183
  767MPD2     N11330   3.069   2.003  14.508  0.8027 -0.1521  0.4109
  767MPD2    H511331   3.144   2.058  14.468  2.5446 -2.7935  0.0612
  767MPD2    N111332   3.095   2.344  14.852 -0.3990 -0.0379 -0.0643
  767MPD2    H711333   3.078   2.368  14.949 -0.6565 -1.4179  0.2214
  768MPD2     C11334   4.270   0.114  10.744 -0.2998 -0.4894 -0.3015
  768MPD2    C111335   4.212   0.219  10.814  0.4593  0.6798  0.7376
  768MPD2    C211336   4.291   0.332  10.826  0.1924  0.1554 -0.0915
  768MPD2    C311337   4.426   0.333  10.781 -0.6548  0.4333  0.1092
  768MPD2    C411338   4.478   0.228  10.715  0.5704  0.1248 -0.6262
  768MPD2    C511339   4.401   0.112  10.695 -0.0045  0.3235 -0.6091
  768MPD2     H11340   4.257   0.417  10.883 -3.2138 -1.5293  0.4072
  768MPD2    H111341   4.582   0.232  10.683  1.0494  0.2211  0.9161
  768MPD2    H211342   4.213   0.024  10.725  0.1803 -1.5616  3.3686
  768MPD2    H311343   4.442   0.028  10.638  1.6290  0.0324  0.9766
  768MPD2     N11344   4.509   0.444  10.807  0.5275 -0.1873  0.8259
  768MPD2    H511345   4.607   0.432  10.781  0.6130  0.9875  0.6134
  768MPD2    N111346   4.087   0.208  10.876  0.5242 -0.2440  0.1783
  768MPD2    H711347   4.055   0.299  10.906  0.6720 -0.9389  2.4358
  769MPD2     C11348   4.684   3.777  14.385 -0.2960  0.0720 -0.3269
  769MPD2    C111349   4.622   3.777  14.508  0.4660 -0.0298 -0.6010
  769MPD2    C211350   4.696   3.756  14.622 -0.3163 -0.7717  0.5345
  769MPD2    C311351   0.116   3.750  14.621 -0.0606  0.1761  0.2754
  769MPD2    C411352   0.181   3.770  14.498 -0.0032 -0.8733  0.1511
  769MPD2    C511353   0.102   3.772  14.388 -0.1209  0.1627 -0.6022
  769MPD2     H11354   4.656   3.727  14.719  3.4104 -0.2154  2.2360
  769MPD2    H111355   0.287   3.755  14.488 -0.0883 -1.2305 -0.2018
  769MPD2    H211356   4.638   3.785  14.287 -1.7912 -0.8903  0.2941
  769MPD2    H311357   0.156   3.778  14.294 -0.6816 -2.0598 -1.0564
  769MPD2     N11358   0.177   3.712  14.741 -0.3565  0.4076  0.4876
  769MPD2    H511359   0.116   3.683  14.816  2.1090 -0.1488  2.2788
  769MPD2    N111360   4.482   3.786  14.503  0.1666 -0.6246  0.1710
  769MPD2    H711361   4.441   3.806  14.413 -0.2615 -1.7235  0.1190
  770MPD2     C11362   3.952   3.083  14.752 -0.0254  0.1858 -1.4058
  770MPD2    C111363   4.084   3.108  14.722 -0.1312  0.0595 -0.5537
  770MPD2    C211364   4.116   3.238  14.686 -0.0239 -0.2481 -0.6009
  770MPD2    C311365   4.023   3.336  14.681 -0.6560 -0.0496 -0.0681
  770MPD2    C411366   3.893   3.307  14.707  0.0123  0.2934 -0.1351
  770MPD2    C511367   3.856   3.178  14.729 -0.1575  1.0673  0.8134
  770MPD2     H11368   4.220   3.260  14.665 -0.1180 -0.0417 -0.8570
  770MPD2    H111369   3.805   3.370  14.705 -0.7862 -0.8276 -0.6085
  770MPD2    H211370   3.920   2.983  14.781 -1.3775  1.1792  0.5218
  770MPD2    H311371   3.750   3.168  14.745 -0.4975  0.2707 -1.8842
  770MPD2     N11372   4.062   3.466  14.642 -0.1836  0.0509  0.5904
  770MPD2    H511373   4.161   3.482  14.627 -0.3655  0.6448  0.0361
  770MPD2    N111374   4.174   3.000  14.722 -0.4350  0.1667 -0.1995
  770MPD2    H711375   4.145   2.912  14.763  0.3512 -0.0235 -0.0501
  771MPD2     C11376   1.370   1.231  13.483  0.3977 -0.4770 -0.0858
  771MPD2    C111377   1.299   1.350  13.467  0.4300  0.4707 -0.0438
  771MPD2    C211378   1.168   1.349  13.420 -0.3719  0.1871 -0.1287
  771MPD2    C311379   1.121   1.232  13.375  0.2069  0.6990 -0.4721
  771MPD2    C411380   1.191   1.118  13.402  0.0848 -0.0634  1.1347
  771MPD2    C511381   1.320   1.105  13.449 -0.2505 -0.1334 -0.8013
  771MPD2     H11382   1.113   1.442  13.411 -1.7662 -0.7451 -1.2716
  771MPD2    H111383   1.152   1.022  13.372  0.9949  0.0839 -0.5320
  771MPD2    H211384   1.473   1.231  13.517  0.6881  1.0531 -0.9365
  771MPD2    H311385   1.374   1.011  13.458  1.6513  0.6917 -3.6120
  771MPD2     N11386   0.991   1.233  13.314  0.4781  0.5370 -0.3968
  771MPD2    H511387   0.935   1.317  13.314  0.3548  0.4483  1.4952
  771MPD2    N111388   1.351   1.480  13.489 -0.5210 -0.2151 -0.2481
  771MPD2    H711389   1.292   1.553  13.452 -1.7564 -0.0492  2.0653
  772MPD2     C11390   1.133   2.089  13.737 -0.8702  0.3960 -0.3882
  772MPD2    C111391   1.087   1.986  13.664 -1.1901 -0.3050  0.3284
  772MPD2    C211392   0.955   1.947  13.675 -0.2167  0.4665  1.2652
  772MPD2    C311393   0.864   2.019  13.748 -0.4335 -0.0305  0.5636
  772MPD2    C411394   0.915   2.121  13.830 -0.4419 -0.3987 -0.4449
  772MPD2    C511395   1.050   2.154  13.831 -0.9227 -0.2002  0.5676
  772MPD2     H11396   0.930   1.853  13.627 -0.1028 -0.0745  2.2573
  772MPD2    H111397   0.851   2.172  13.902 -0.5076 -0.5261 -0.4139
  772MPD2    H211398   1.236   2.120  13.731 -0.8547  0.3853 -0.1873
  772MPD2    H311399   1.080   2.231  13.902  0.7452  1.4451 -1.9301
  772MPD2     N11400   0.732   1.981  13.776 -0.4407 -0.3760  0.2417
  772MPD2    H511401   0.686   2.037  13.847  0.6779  2.4890 -1.3426
  772MPD2    N111402   1.179   1.910  13.589 -0.2047 -0.0889 -0.0952
  772MPD2    H711403   1.138   1.830  13.543 -0.6778 -0.3192  0.7344
  773MPD2     C11404   0.057   2.678   0.250  0.0185 -0.1591 -0.6954
  773MPD2    C111405   0.097   2.695   0.118  0.2576 -0.6686  0.4949
  773MPD2    C211406   0.220   2.762   0.090 -0.2362 -0.5400  0.3888
  773MPD2    C311407   0.306   2.793   0.194  0.6068  0.4144 -0.0998
  773MPD2    C411408   0.269   2.772   0.325 -0.2843 -0.2805 -0.0270
  773MPD2    C511409   0.146   2.713   0.349  0.2460  0.2867  0.6226
  773MPD2     H11410   0.248   2.778  17.659  1.3409 -1.2046  0.6965
  773MPD2    H111411   0.329   2.805   0.409 -1.6854  1.6744  0.1960
  773MPD2    H211412   4.675   2.647   0.282  0.4959 -0.6851  0.2654
  773MPD2    H311413   0.114   2.707   0.453  0.0623 -1.4288  0.4648
  773MPD2     N11414   0.439   2.827   0.169  0.3553 -0.0494 -0.4227
  773MPD2    H511415   0.469   2.836   0.072 -1.0981 -1.5480 -1.0122
  773MPD2    N111416   0.007   2.673   0.011  0.1796  0.1466  0.0891
  773MPD2    H711417   0.026   2.722  17.597  0.6687 -0.3862 -0.1092
  774MPD2     C11418   4.634   2.005  13.113  0.0862 -1.0080  0.1456
  774MPD2    C111419   4.532   2.091  13.154  0.3624  0.7812  0.6866
  774MPD2    C211420   4.548   2.225  13.135 -0.1445  0.5385 -0.4818
  774MPD2    C311421   4.671   2.278  13.092  0.2415 -0.6457  0.1716
  774MPD2    C411422   0.053   2.188  13.054  0.1347  0.2578 -0.3371
  774MPD2    C511423   0.033   2.050  13.052 -0.0586 -0.3830  0.5667
  774MPD2     H11424   4.469   2.291  13.168 -0.2965 -0.1981  0.6162
  774MPD2    H111425   0.145   2.226  13.011  0.5078  0.3090  0.5077
  774MPD2    H211426   4.633   1.901  13.147 -2.4768 -1.0670 -0.1068
  774MPD2    H311427   0.115   1.985  13.022  0.2126 -0.4369  1.4197
  774MPD2     N11428   4.694   2.415  13.092 -0.2027  0.8286 -0.2568
  774MPD2    H511429   4.620   2.465  13.141 -0.1003 -1.2947  2.0601
  774MPD2    N111430   4.424   2.027  13.229  0.1910  0.2525  1.0465
  774MPD2    H711431   4.411   1.929  13.210  1.3881  0.8753 -2.8753
  775MPD2     C11432   0.875   3.272  15.577  0.3295 -0.3443 -0.2603
  775MPD2    C111433   0.782   3.377  15.569  0.0708  1.1027  0.0757
  775MPD2    C211434   0.827   3.510  15.574  0.2235 -0.6769 -0.9032
  775MPD2    C311435   0.964   3.526  15.599  0.1874 -0.4091 -0.6426
  775MPD2    C411436   1.049   3.421  15.592  0.4159 -0.1552 -0.1791
  775MPD2    C511437   1.007   3.293  15.578  0.3320  1.1590 -0.6195
  775MPD2     H11438   0.758   3.593  15.572  1.2010  0.1612  0.2264
  775MPD2    H111439   1.155   3.446  15.595  0.7525 -1.8183  1.8744
  775MPD2    H211440   0.845   3.168  15.574  1.1209 -0.5469 -1.5346
  775MPD2    H311441   1.072   3.207  15.566 -3.2768 -1.3335 -2.3029
  775MPD2     N11442   1.022   3.650  15.584  0.4298  0.2057 -0.3966
  775MPD2    H511443   1.123   3.651  15.588  0.5427 -2.7137 -3.0161
  775MPD2    N111444   0.649   3.342  15.556  0.1098 -0.3421  0.3185
  775MPD2    H711445   0.624   3.244  15.546 -0.8373 -0.0663 -0.0645
  776MPD2     C11446   4.346   3.923  12.031 -1.5764 -0.2748 -0.0123
  776MPD2    C111447   4.448   3.855  11.967  0.5909 -0.0326  0.7814
  776MPD2    C211448   4.528   3.927  11.876  0.2640 -0.0027 -0.6847
  776MPD2    C311449   4.503   4.064  11.858 -0.0567  0.0751 -0.5384
  776MPD2    C411450   4.403   4.128  11.931 -0.1292 -0.1204  0.0311
  776MPD2    C511451   4.326   4.055  12.018 -0.1769 -0.1195  0.6721
  776MPD2     H11452   4.615   3.880  11.831  0.4629  0.3220 -0.6396
  776MPD2    H111453   4.378   4.230  11.908  0.7782 -0.1051 -0.8866
  776MPD2    H211454   4.280   3.871  12.100 -2.2220  0.6948  0.0976
  776MPD2    H311455   4.244   4.099  12.073 -0.6235 -0.1788  0.0505
  776MPD2     N11456   4.573   4.149  11.767  0.4092 -1.1973  0.1897
  776MPD2    H511457   4.547   4.247  11.770  1.4313 -0.8316 -2.6922
  776MPD2    N111458   4.454   3.714  11.981 -0.3883  0.2036 -0.1378
  776MPD2    H711459   4.388   3.665  12.040 -1.7203  1.9363 -0.1776
  777MPD2     C11460   4.600   1.984   0.685  0.7900  0.2898  0.0436
  777MPD2    C111461   0.007   2.038   0.686 -0.0918 -0.8472 -0.4842
  777MPD2    C211462   0.104   1.992   0.604  0.5005 -0.0914 -0.0605
  777MPD2    C311463   0.080   1.882   0.527  0.3556 -0.7260 -0.3816
  777MPD2    C411464   4.670   1.833   0.520 -0.4092 -0.2095  0.3011
  777MPD2    C511465   4.574   1.874   0.604  0.2572  1.1895  0.0177
  777MPD2     H11466   0.205   2.027   0.616  1.2497 -1.9352 -0.9487
  777MPD2    H111467   4.640   1.753   0.454 -1.8255 -0.1577  0.9012
  777MPD2    H211468   4.530   2.014   0.762  0.3155  0.0626 -0.2991
  777MPD2    H311469   4.475   1.830   0.605  0.1546  1.4246  0.1427
  777MPD2     N11470   0.183   1.828   0.455 -0.3928  0.1071  0.0624
  777MPD2    H511471   0.275   1.857   0.485 -0.0170 -1.6215  0.5961
  777MPD2    N111472   0.033   2.138   0.784 -0.3972 -0.4134 -0.1442
  777MPD2    H711473   4.680   2.154   0.856 -3.5383 -0.2622 -3.2291
  778MPD2     C11474   1.682   1.699  14.058 -0.2861  0.6916 -0.6475
  778MPD2    C111475   1.609   1.607  13.984  0.4408  0.7976 -0.4718
  778MPD2    C211476   1.665   1.567  13.862 -0.1629 -0.2226  0.7110
  778MPD2    C311477   1.782   1.621  13.813 -0.2545 -0.0510 -0.4539
  778MPD2    C411478   1.851   1.715  13.891 -0.5840 -0.1142  0.3452
  778MPD2    C511479   1.797   1.753  14.002 -0.2733  0.2110 -0.3046
  778MPD2     H11480   1.614   1.491  13.804  0.9407  0.3673 -1.0134
  778MPD2    H111481   1.935   1.773  13.853 -0.6484 -1.7144 -2.2161
  778MPD2    H211482   1.665   1.728  14.161  0.7264  1.0975 -0.5856
  778MPD2    H311483   1.850   1.824  14.064 -0.5388 -2.5025  3.0222
  778MPD2     N11484   1.831   1.575  13.692 -0.2145 -0.0561 -0.6356
  778MPD2    H511485   1.797   1.489  13.651 -0.9555 -0.3303  0.5553
  778MPD2    N111486   1.486   1.553  14.024  0.1901  0.0705 -0.1105
  778MPD2    H711487   1.447   1.479  13.967 -0.4114  0.1020  0.2601
  779MPD2     C11488   0.681   0.214  14.043 -0.5392  0.4164  0.8076
  779MPD2    C111489   0.813   0.190  14.007 -0.0944 -0.4820 -0.0203
  779MPD2    C211490   0.878   0.288  13.929 -0.6187  0.3803  0.3813
  779MPD2    C311491   0.808   0.396  13.887  0.4337  0.4126 -0.7070
  779MPD2    C411492   0.680   0.412  13.922 -0.3325 -0.6253 -0.0949
  779MPD2    C511493   0.619   0.328  14.006  0.4437 -0.1256 -0.1543
  779MPD2     H11494   0.983   0.268  13.910 -0.3312  1.3022  0.9872
  779MPD2    H111495   0.628   0.501  13.888  0.5270  0.4410  1.3920
  779MPD2    H211496   0.619   0.142  14.096  0.6422 -1.4780 -0.3611
  779MPD2    H311497   0.517   0.350  14.037 -0.4045 -0.4256 -2.7303
  779MPD2     N11498   0.881   0.496  13.813 -0.2905 -0.6057  0.8124
  779MPD2    H511499   0.983   0.495  13.821 -0.1527 -1.9729 -1.1887
  779MPD2    N111500   0.879   0.070  14.040  0.3539 -0.0409 -0.3932
  779MPD2    H711501   0.971   0.056  14.000  1.0046 -3.4665  2.2637
  780MPD2     C11502   4.441   0.238   0.504 -0.3284  0.2762 -1.0131
  780MPD2    C111503   4.455   0.120   0.432 -0.7999 -0.2317  0.0474
  780MPD2    C211504   4.572   0.102   0.358 -0.1158 -0.2438 -0.1017
  780MPD2    C311505   4.682   0.187   0.362 -0.3028  0.9580  0.4775
  780MPD2    C411506   4.672   0.296   0.442  0.0069  0.8620 -0.3507
  780MPD2    C511507   4.550   0.325   0.507 -0.1881 -0.3995  0.2720
  780MPD2     H11508   4.582   0.008   0.304  0.4483  0.0531 -0.5145
  780MPD2    H111509   0.023   0.379   0.442  0.2609  0.6512  0.2954
  780MPD2    H211510   4.354   0.267   0.562 -1.9916 -3.5697 -1.5709
  780MPD2    H311511   4.547   0.424   0.551  1.2055 -1.0277  1.8106
  780MPD2     N11512   0.089   0.172   0.304 -0.4430  1.0503 -0.5205
  780MPD2    H511513   0.164   0.228   0.344 -0.8216  0.7048  0.6601
  780MPD2    N111514   4.349   0.025   0.441 -0.1053  0.0140 -0.4443
  780MPD2    H711515   4.291   0.028   0.524  1.8538  0.7847  0.8708
  781MPD2     C11516   2.761   2.331  11.364 -0.2948  0.0131  0.1537
  781MPD2    C111517   2.627   2.307  11.381  0.0700 -0.8943 -1.1247
  781MPD2    C211518   2.550   2.276  11.270 -0.0792 -0.0331 -0.1399
  781MPD2    C311519   2.611   2.271  11.146  0.8050  0.4110  0.1420
  781MPD2    C411520   2.743   2.294  11.124 -0.4707 -0.8149 -0.0298
  781MPD2    C511521   2.811   2.334  11.236 -0.2484  0.1647 -0.7461
  781MPD2     H11522   2.446   2.257  11.294 -0.5791  2.2552 -0.5583
  781MPD2    H111523   2.791   2.289  11.027 -0.1830  1.4809 -0.0046
  781MPD2    H211524   2.823   2.373  11.442  0.8349  0.2745 -0.8826
  781MPD2    H311525   2.906   2.385  11.223 -0.4486  0.7556  0.1267
  781MPD2     N11526   2.541   2.226  11.028 -0.3411 -0.5889  0.0174
  781MPD2    H511527   2.599   2.232  10.945 -1.0209 -2.2333 -0.5612
  781MPD2    N111528   2.558   2.314  11.510 -0.4923  0.2086  0.1413
  781MPD2    H711529   2.461   2.286  11.512 -0.0524 -1.4384 -1.0385
  782MPD2     C11530   0.339   3.187  10.074  0.3712 -0.3841 -0.0998
  782MPD2    C111531   0.322   3.096  10.170 -0.1915  0.2649 -0.3456
  782MPD2    C211532   0.354   3.120  10.297 -0.5241  0.3192  0.0617
  782MPD2    C311533   0.413   3.244  10.325 -0.2730  0.5168 -0.4452
  782MPD2    C411534   0.433   3.338  10.229 -0.1761  0.5674  0.1163
  782MPD2    C511535   0.382   3.309  10.103  0.0009  0.3448 -0.2949
  782MPD2     H11536   0.344   3.043  10.373  0.4846 -0.5543 -0.6958
  782MPD2    H111537   0.475   3.438  10.239 -0.4085  0.7617 -0.8840
  782MPD2    H211538   0.310   3.162   9.973 -1.2674 -0.2675  0.3459
  782MPD2    H311539   0.394   3.379  10.021  1.0165  0.9427  0.3699
  782MPD2     N11540   0.475   3.258  10.453 -0.0998  0.2907  0.4216
  782MPD2    H511541   0.459   3.184  10.520 -1.5805  0.3165  0.1078
  782MPD2    N111542   0.268   2.971  10.125 -0.2238 -0.5732 -0.3721
  782MPD2    H711543   0.261   2.958  10.025  0.6510  4.3169 -1.0777
  783MPD2     C11544   0.050   2.521  10.844 -0.2528 -0.0646  0.1030
  783MPD2    C111545   0.084   2.643  10.785 -0.5100 -0.0518 -0.3018
  783MPD2    C211546   0.122   2.644  10.653 -0.0091  0.2825  0.5857
  783MPD2    C311547   0.141   2.532  10.578 -0.1991  0.0758  0.0354
  783MPD2    C411548   0.118   2.413  10.646  0.7855 -0.0433 -0.4357
  783MPD2    C511549   0.076   2.408  10.775  0.3258 -0.0500 -0.0180
  783MPD2     H11550   0.135   2.735  10.596  1.2033 -0.1938  0.1054
  783MPD2    H111551   0.122   2.325  10.582 -2.6550  0.0093 -0.7296
  783MPD2    H211552   0.008   2.513  10.943 -3.7510  0.1109 -1.3766
  783MPD2    H311553   0.055   2.312  10.821  0.5914  0.6682  1.5873
  783MPD2     N11554   0.150   2.561  10.438  0.2405 -0.3413  0.7863
  783MPD2    H511555   0.164   2.656  10.404  1.7713 -0.7727  0.2452
  783MPD2    N111556   0.042   2.759  10.853 -0.0362 -0.3363 -0.7447
  783MPD2    H711557   4.708   2.738  10.938  1.0935  1.1189  0.2890
  784MPD2     C11558   2.981   3.749   0.358 -0.2236  0.4567 -1.2004
  784MPD2    C111559   3.015   3.616   0.391 -0.1574  0.2103 -0.1376
  784MPD2    C211560   2.913   3.522   0.369 -0.1406  0.4069  0.0248
  784MPD2    C311561   2.787   3.552   0.310  0.6086  0.4873 -0.6246
  784MPD2    C411562   2.748   3.683   0.287  0.1611 -1.2020 -0.9023
  784MPD2    C511563   2.846   3.773   0.317  0.4076  0.8732  0.6914
  784MPD2     H11564   2.949   3.423   0.394  2.1900  0.9772 -1.0880
  784MPD2    H111565   2.646   3.714   0.266  0.5284  1.3507  1.1162
  784MPD2    H211566   3.049   3.832   0.376  1.2408 -1.4594  2.1650
  784MPD2    H311567   2.825   3.878   0.301 -0.4506  0.6803  0.5507
  784MPD2     N11568   2.688   3.450   0.298  0.9658  0.7791  0.5959
  784MPD2    H511569   2.716   3.355   0.321  1.2864  0.8248  0.3989
  784MPD2    N111570   3.131   3.571   0.459 -0.1047 -0.5633  0.4406
  784MPD2    H711571   3.141   3.470   0.456  1.7435 -0.3601 -0.0890
  785MPD2     C11572   2.523   0.741  10.105  0.1781 -0.1488  0.7230
  785MPD2    C111573   2.526   0.843  10.194  0.3556 -0.0931 -0.7591
  785MPD2    C211574   2.411   0.915  10.231  0.0814 -0.6281  0.1263
  785MPD2    C311575   2.290   0.886  10.166  0.0715  0.5011  0.2376
  785MPD2    C411576   2.294   0.785  10.074 -0.3519 -1.1092 -0.4444
  785MPD2    C511577   2.405   0.708  10.043  0.0981 -0.5146 -0.2819
  785MPD2     H11578   2.411   1.011  10.282  0.8760 -0.1051 -0.8609
  785MPD2    H111579   2.204   0.764  10.018 -0.8109 -0.1830 -0.0556
  785MPD2    H211580   2.610   0.679  10.089 -0.9778 -2.3878  3.0898
  785MPD2    H311581   2.403   0.627   9.972  2.4563 -0.7796 -0.0384
  785MPD2     N11582   2.180   0.967  10.202  0.4716  0.3874  0.4770
  785MPD2    H511583   2.190   1.034  10.278 -2.2257  0.7675  0.4803
  785MPD2    N111584   2.646   0.897  10.249  0.0202 -0.5233 -0.0598
  785MPD2    H711585   2.634   0.969  10.320  1.0148 -1.1993  0.7970
  786MPD2     C11586   1.070   4.187  14.387  0.8687  0.2635 -0.7844
  786MPD2    C111587   1.203   4.140  14.405  0.1256 -0.4554 -0.1613
  786MPD2    C211588   1.266   4.176  14.520 -0.2499  0.3422  0.0635
  786MPD2    C311589   1.223   4.264  14.615 -0.8737 -1.0513 -0.4239
  786MPD2    C411590   1.090   4.300  14.604 -0.2700  0.1916  1.0609
  786MPD2    C511591   1.020   4.266  14.492  0.1420  0.7253 -0.3129
  786MPD2     H11592   1.364   4.132  14.536  0.0291  0.4949 -1.1848
  786MPD2    H111593   1.041   4.369  14.672 -2.6095  0.3669 -0.8043
  786MPD2    H211594   1.006   4.156  14.305  1.0316  0.8038 -1.1114
  786MPD2    H311595   0.916   4.297  14.489  0.4262  1.7509  0.1159
  786MPD2     N11596   1.296   4.301  14.730 -0.1010  0.2074  0.6540
  786MPD2    H511597   1.244   4.353  14.800 -1.9059  0.5187 -0.9181
  786MPD2    N111598   1.263   4.056  14.311  0.2693  0.1396 -0.2694
  786MPD2    H711599   1.351   4.010  14.330 -0.2389 -0.8674 -0.3840
  787MPD2     C11600   1.545   3.617  14.596 -0.8663 -0.5681 -0.8696
  787MPD2    C111601   1.552   3.567  14.474  0.9833  0.6733  0.1755
  787MPD2    C211602   1.651   3.467  14.444 -0.4787  0.3957 -1.2021
  787MPD2    C311603   1.732   3.416  14.549  0.3735 -0.5457  0.5910
  787MPD2    C411604   1.730   3.479  14.671  0.1373 -0.1132  0.4440
  787MPD2    C511605   1.639   3.583  14.693 -0.1854  0.3721  0.3815
  787MPD2     H11606   1.666   3.422  14.346 -0.1377 -0.2676 -0.8491
  787MPD2    H111607   1.800   3.448  14.748  1.7914 -0.4667 -1.1845
  787MPD2    H211608   1.463   3.686  14.612 -0.9611 -0.4221 -1.9624
  787MPD2    H311609   1.628   3.631  14.789  0.6005 -0.1124  0.7177
  787MPD2     N11610   1.825   3.312  14.516 -0.2595 -0.0600  0.0535
  787MPD2    H511611   1.823   3.286  14.418 -0.1594  2.0670 -0.5076
  787MPD2    N111612   1.462   3.624  14.379  0.3949  0.4116  0.2549
  787MPD2    H711613   1.395   3.692  14.414  1.7843  1.6330  0.5548
  788MPD2     C11614   3.770   1.960   0.696  0.1542  0.2578  0.1170
  788MPD2    C111615   3.676   1.947   0.597 -0.0765  0.3627 -0.1377
  788MPD2    C211616   3.581   2.044   0.592  0.5261  0.0342  0.5424
  788MPD2    C311617   3.585   2.161   0.667  0.7964  0.6741 -0.3577
  788MPD2    C411618   3.683   2.165   0.764 -0.1915  0.2915  0.1421
  788MPD2    C511619   3.774   2.065   0.782  0.6193 -0.3273 -0.3969
  788MPD2     H11620   3.500   2.016   0.525 -0.4511 -1.4986  2.3416
  788MPD2    H111621   3.682   2.241   0.841 -0.3884  1.8848 -1.4537
  788MPD2    H211622   3.839   1.879   0.717 -0.8796 -1.2331 -2.2646
  788MPD2    H311623   3.826   2.074   0.877  0.3976 -2.0006 -0.1211
  788MPD2     N11624   3.498   2.273   0.649 -0.1928  0.4726 -0.4548
  788MPD2    H511625   3.517   2.361   0.696  1.5569 -0.0212 -0.2362
  788MPD2    N111626   3.670   1.839   0.511 -0.1228  0.1500 -0.2030
  788MPD2    H711627   3.591   1.835   0.447 -0.5132  0.2457  0.2755
  789MPD2     C11628   3.987   1.999  16.108  0.5559 -0.2860  0.4898
  789MPD2    C111629   3.911   1.891  16.143 -0.1208 -0.2161  0.3112
  789MPD2    C211630   3.773   1.907  16.139 -0.1355  0.0448  0.1784
  789MPD2    C311631   3.709   2.023  16.091 -0.2734 -0.2545 -0.5335
  789MPD2    C411632   3.790   2.118  16.040  0.1874  0.0977  0.3438
  789MPD2    C511633   3.926   2.109  16.053 -0.6025  0.6390  0.7602
  789MPD2     H11634   3.719   1.821  16.175 -0.9363  0.2037 -0.6457
  789MPD2    H111635   3.751   2.200  15.981 -3.1710 -0.0796  2.2759
  789MPD2    H211636   4.095   1.994  16.099  0.4105  2.4809 -2.6924
  789MPD2    H311637   3.987   2.190  16.014  0.2328  0.6012  1.9692
  789MPD2     N11638   3.579   2.045  16.098  0.0344  0.4408 -0.3016
  789MPD2    H511639   3.536   2.135  16.079 -1.3527 -0.1383  0.0653
  789MPD2    N111640   3.956   1.765  16.183 -0.5396  0.0358 -0.4854
  789MPD2    H711641   3.884   1.695  16.198  0.2927 -1.2175 -2.3088
  790MPD2     C11642   0.067   4.113  13.274  0.3420  0.3990  0.4461
  790MPD2    C111643   0.018   3.987  13.278 -0.0287  0.4557  0.2528
  790MPD2    C211644   4.638   3.943  13.183 -0.9101  0.0222 -0.3149
  790MPD2    C311645   4.610   4.029  13.075  0.4441  0.3808 -0.1093
  790MPD2    C411646   4.650   4.158  13.075 -0.0957 -0.5765  0.2560
  790MPD2    C511647   0.022   4.197  13.171  0.3732 -0.5644 -0.7211
  790MPD2     H11648   4.596   3.845  13.202  0.9622 -0.7290 -0.0164
  790MPD2    H111649   4.621   4.224  12.994  1.1116  2.1891  2.0562
  790MPD2    H211650   0.137   4.146  13.350 -0.5903  3.9848 -0.2478
  790MPD2    H311651   0.060   4.297  13.183 -1.1910  0.2470 -2.4569
  790MPD2     N11652   4.515   3.980  12.986 -0.3191  0.1975  0.4857
  790MPD2    H511653   4.494   3.881  12.992  1.2494 -0.1638 -0.0494
  790MPD2    N111654   0.053   3.904  13.394 -0.1233 -0.4953 -0.3450
  790MPD2    H711655   0.107   3.948  13.468 -0.4816 -1.4188  0.4576
  791MPD2     C11656   3.835   4.240  12.617 -0.3206 -0.3129  0.0052
  791MPD2    C111657   3.857   4.104  12.633 -0.0545 -0.1970  0.1994
  791MPD2    C211658   3.743   4.016  12.621 -0.1339  0.7528 -0.0262
  791MPD2    C311659   3.620   4.065  12.573  0.5087 -0.4934  0.3375
  791MPD2    C411660   3.603   4.196  12.553  0.2693  0.5100 -0.0738
  791MPD2    C511661   3.709   4.278  12.574 -0.4422  0.0084  0.0441
  791MPD2     H11662   3.759   3.913  12.651 -1.0426  0.6307  0.0276
  791MPD2    H111663   3.507   4.238  12.524 -1.2806 -1.0441  2.7870
  791MPD2    H211664   3.916   4.311  12.623 -1.6457  1.3097 -1.5156
  791MPD2    H311665   3.693   4.382  12.547  0.0628 -0.1110 -0.7105
  791MPD2     N11666   3.511   3.975  12.584  0.0597 -0.4479 -0.7383
  791MPD2    H511667   3.533   3.879  12.604 -4.3388 -0.6994  2.9540
  791MPD2    N111668   3.992   4.072  12.661  0.3715  0.8018 -0.3628
  791MPD2    H711669   4.064   4.143  12.664  0.7363  0.3490  1.7298
  792MPD2     C11670   0.312   3.395  11.108 -0.3862 -0.1627  0.1236
  792MPD2    C111671   0.249   3.491  11.033  0.2849 -0.0894  0.8586
  792MPD2    C211672   0.201   3.458  10.903 -0.1451 -0.4658 -1.0025
  792MPD2    C311673   0.228   3.334  10.841  0.5341  0.1474 -0.1172
  792MPD2    C411674   0.307   3.248  10.918  0.1083  0.6325 -0.4998
  792MPD2    C511675   0.349   3.278  11.041  0.2352 -0.5869 -0.2017
  792MPD2     H11676   0.139   3.528  10.849  0.0487 -0.9277 -1.8260
  792MPD2    H111677   0.347   3.162  10.866 -0.7484  0.7337 -1.3341
  792MPD2    H211678   0.354   3.424  11.203 -0.2067  1.7200 -0.5319
  792MPD2    H311679   0.404   3.200  11.093 -0.9302 -0.4136  1.2954
  792MPD2     N11680   0.200   3.299  10.711 -0.1048 -0.0604  0.3216
  792MPD2    H511681   0.223   3.202  10.689  2.7617  0.6732  0.1093
  792MPD2    N111682   0.235   3.621  11.095 -0.5340  0.6809 -0.2268
  792MPD2    H711683   0.261   3.640  11.191 -0.1730 -1.0552  0.0200
  793MPD2     C11684   0.047   3.342   9.644  0.3490 -0.3285 -0.4950
  793MPD2    C111685   0.021   3.210   9.682  0.7890 -0.5135 -0.3538
  793MPD2    C211686   4.717   3.180   9.818  0.4443  0.0454 -0.2489
  793MPD2    C311687   0.002   3.281   9.912  0.1837  0.2383  0.2430
  793MPD2    C411688   0.007   3.414   9.870 -0.4149  0.9054 -0.3799
  793MPD2    C511689   0.031   3.437   9.739  0.4567 -0.1477 -0.1736
  793MPD2     H11690   4.706   3.077   9.850  0.8956  0.0684 -0.0174
  793MPD2    H111691   4.711   3.502   9.931 -0.4835  1.2148 -0.8377
  793MPD2    H211692   0.063   3.365   9.539 -0.9200 -1.1728 -0.8680
  793MPD2    H311693   0.038   3.539   9.703  0.2723  0.4073  1.3958
  793MPD2     N11694   4.716   3.243  10.044  0.0408 -0.2485 -0.6976
  793MPD2    H511695   4.700   3.144  10.056 -1.0704 -0.1827 -1.5788
  793MPD2    N111696   0.038   3.106   9.585  0.2710  0.4854  0.6756
  793MPD2    H711697   0.077   3.136   9.496  0.8367  0.8693  1.0486
  794MPD2     C11698   4.687   2.572  16.887 -0.0020  0.3456  0.8336
  794MPD2    C111699   4.596   2.629  16.968 -0.6962 -1.1930 -0.8595
  794MPD2    C211700   4.498   2.717  16.925  0.2661  0.5753 -0.3360
  794MPD2    C311701   4.492   2.739  16.785 -1.6239 -0.1797  0.1934
  794MPD2    C411702   4.573   2.665  16.702  0.0320  0.0150  0.4914
  794MPD2    C511703   4.681   2.600  16.754 -0.0591  0.0423  0.1425
  794MPD2     H11704   4.423   2.751  16.995  0.7306 -1.1614  0.9945
  794MPD2    H111705   4.564   2.663  16.594 -2.4961  2.4897  0.6428
  794MPD2    H211706   0.036   2.493  16.922 -0.5623 -0.2164  0.6268
  794MPD2    H311707   0.016   2.542  16.678  0.8909  0.4445  0.4989
  794MPD2     N11708   4.394   2.812  16.721  0.1699 -0.4177  0.3504
  794MPD2    H511709   4.392   2.804  16.620 -0.6262 -1.6565  0.4656
  794MPD2    N111710   4.599   2.577  17.099 -0.5321  0.3002  0.3060
  794MPD2    H711711   4.641   2.486  17.117 -0.7297 -0.4548 -2.9585
  795MPD2     C11712   2.068   0.521  12.729 -0.1546  0.1061 -0.2981
  795MPD2    C111713   2.018   0.466  12.841  0.1381  0.2577 -0.0979
  795MPD2    C211714   2.083   0.367  12.911  0.4968  0.5033  0.0613
  795MPD2    C311715   2.212   0.333  12.872 -0.0503 -0.9948  0.4344
  795MPD2    C411716   2.267   0.389  12.763  0.4618  0.3868 -0.0384
  795MPD2    C511717   2.193   0.481  12.690 -0.2076 -0.1235  0.0943
  795MPD2     H11718   2.036   0.326  13.000 -1.2204  0.0271 -1.0518
  795MPD2    H111719   2.361   0.355  12.721 -0.9644 -0.5581 -2.4264
  795MPD2    H211720   2.013   0.602  12.682 -0.2537 -0.4010 -1.0613
  795MPD2    H311721   2.240   0.529  12.604  1.2328 -0.4721  0.6887
  795MPD2     N11722   2.283   0.228  12.936  0.5260  0.1697 -0.6256
  795MPD2    H511723   2.233   0.172  13.005  2.1041  1.1416  1.3187
  795MPD2    N111724   1.901   0.519  12.899  0.5921 -0.3994 -0.1575
  795MPD2    H711725   1.881   0.479  12.990  1.9896 -1.1821 -0.1970
  796MPD2     C11726   1.846   2.014  15.290  0.2487 -0.0448  0.1078
  796MPD2    C111727   1.930   2.022  15.401  0.3029 -0.2293  0.8969
  796MPD2    C211728   1.975   2.137  15.460  0.3384  0.7223 -0.0673
  796MPD2    C311729   1.911   2.252  15.421  0.6196  0.0387 -0.3931
  796MPD2    C411730   1.824   2.250  15.316 -0.4040  0.2178 -1.0211
  796MPD2    C511731   1.793   2.134  15.248 -0.3199 -0.2572 -0.1947
  796MPD2     H11732   2.039   2.128  15.547 -2.3018  1.9481  2.0153
  796MPD2    H111733   1.772   2.339  15.283 -1.6857 -0.5948 -1.1552
  796MPD2    H211734   1.821   1.919  15.243 -0.6964 -1.0424  2.5878
  796MPD2    H311735   1.718   2.141  15.170 -1.5651  1.1014  1.1086
  796MPD2     N11736   1.923   2.361  15.506  0.6338 -0.0669 -0.1942
  796MPD2    H511737   1.974   2.339  15.591  0.8925 -1.9053 -0.8280
  796MPD2    N111738   1.981   1.898  15.446 -0.3131 -0.3005  0.0309
  796MPD2    H711739   1.943   1.815  15.402  0.9395 -2.6280  3.3606
  797MPD2     C11740   2.310   1.223  17.073  0.0699 -0.7262  0.1522
  797MPD2    C111741   2.441   1.225  17.049 -0.0408  0.0643 -0.1380
  797MPD2    C211742   2.494   1.294  16.942  0.4895  0.3804 -0.0148
  797MPD2    C311743   2.418   1.389  16.872  0.0641  0.4238 -0.0090
  797MPD2    C411744   2.286   1.402  16.911 -0.0890  0.1634  0.5683
  797MPD2    C511745   2.233   1.307  16.994  0.8853  0.0714 -0.1768
  797MPD2     H11746   2.601   1.302  16.925  0.4970 -1.5080 -0.9499
  797MPD2    H111747   2.227   1.480  16.864  0.7418 -0.5363 -1.6588
  797MPD2    H211748   2.268   1.159  17.149 -0.3578 -0.3026  0.2691
  797MPD2    H311749   2.127   1.304  17.013  0.7359  1.9964 -0.6323
  797MPD2     N11750   2.478   1.467  16.771  0.4394 -0.6567  0.1697
  797MPD2    H511751   2.570   1.440  16.739  0.9540  1.8816 -0.4866
  797MPD2    N111752   2.538   1.162  17.137 -0.3990 -0.0762  0.7195
  797MPD2    H711753   2.629   1.178  17.096 -0.6561 -0.1777  0.1110
  798MPD2     C11754   3.140   1.612  16.998 -0.5316  0.1544 -0.7369
  798MPD2    C111755   3.027   1.547  16.954  1.0168  0.3830 -0.0518
  798MPD2    C211756   2.959   1.455  17.036  0.1225 -0.1076 -0.5700
  798MPD2    C311757   3.012   1.418  17.160  0.0561  0.3411  0.9796
  798MPD2    C411758   3.131   1.475  17.206 -0.6314  0.3038  0.4731
  798MPD2    C511759   3.190   1.570  17.123 -0.0342  0.4467  0.8766
  798MPD2     H11760   2.865   1.403  17.018 -0.1093  0.7599 -1.8733
  798MPD2    H111761   3.182   1.454  17.299  1.7670 -1.2619 -1.1799
  798MPD2    H211762   3.179   1.696  16.941 -1.0122  0.7970 -0.1138
  798MPD2    H311763   3.269   1.628  17.170  1.3541  1.7717 -3.0892
  798MPD2     N11764   2.932   1.327  17.232  1.0933 -0.3529  0.3051
  798MPD2    H511765   2.849   1.298  17.180  1.6034  0.4050 -0.9192
  798MPD2    N111766   2.954   1.606  16.845 -0.0273 -0.8011 -0.2199
  798MPD2    H711767   3.004   1.679  16.795  0.0058  0.1403  1.1830
  799MPD2     C11768   1.680   2.978  14.624  0.3338  0.1352  0.3868
  799MPD2    C111769   1.657   2.888  14.525  0.0238  0.3308  0.2950
  799MPD2    C211770   1.567   2.915  14.426 -0.2407 -0.0119  0.4121
  799MPD2    C311771   1.506   3.037  14.415  0.6866  0.1696 -0.2452
  799MPD2    C411772   1.535   3.128  14.511 -0.1388 -0.3944 -0.0434
  799MPD2    C511773   1.622   3.101  14.611 -0.3192  0.2131  0.3649
  799MPD2     H11774   1.544   2.839  14.352  1.2323  0.3602 -0.4213
  799MPD2    H111775   1.491   3.227  14.509 -1.4564 -0.9856 -0.7244
  799MPD2    H211776   1.740   2.967  14.714  0.7479 -1.5967 -0.1007
  799MPD2    H311777   1.648   3.182  14.677  0.4469  0.2425  0.0197
  799MPD2     N11778   1.419   3.075  14.316  0.4700  0.0239 -0.1706
  799MPD2    H511779   1.371   3.165  14.321  0.2342  0.0985 -3.4873
  799MPD2    N111780   1.720   2.757  14.519 -0.3944  0.0376  0.4103
  799MPD2    H711781   1.700   2.698  14.439 -3.1988  2.3092 -0.5454
  800MPD2     C11782   1.705   4.136  13.596  0.3981  0.4462  0.2284
  800MPD2    C111783   1.831   4.073  13.577  0.2208 -0.4828 -0.5504
  800MPD2    C211784   1.847   3.989  13.471 -0.1720 -0.2758  0.0348
  800MPD2    C311785   1.739   3.945  13.399 -0.5044  0.0261 -0.5505
  800MPD2    C411786   1.607   3.997  13.426 -0.3158  0.1829  0.9881
  800MPD2    C511787   1.597   4.086  13.526 -0.3230 -0.1208 -0.7319
  800MPD2     H11788   1.946   3.946  13.453  1.0758  3.1031 -1.1653
  800MPD2    H111789   1.518   3.978  13.367  1.4064  0.6597 -1.7913
  800MPD2    H211790   1.685   4.227  13.652 -1.8702  0.7663 -1.0951
  800MPD2    H311791   1.507   4.147  13.531  0.0147  0.0882  2.8517
  800MPD2     N11792   1.772   3.863  13.289  0.0543 -0.4168  0.0650
  800MPD2    H511793   1.867   3.828  13.284  0.6386  0.9667  1.4687
  800MPD2    N111794   1.944   4.135  13.650  0.4156  0.2687 -0.2673
  800MPD2    H711795   1.935   4.217  13.709  0.1306 -2.0462  2.9501
  801MPD2     C11796   2.183   0.085  13.625  0.0898 -0.7355  0.4592
  801MPD2    C111797   2.091   4.702  13.627  0.6605 -0.8746 -0.2783
  801MPD2    C211798   1.957   0.022  13.650  0.2943  0.4526 -0.2732
  801MPD2    C311799   1.920   0.155  13.667 -0.1404 -0.0634 -0.4044
  801MPD2    C411800   2.014   0.257  13.658 -0.2127 -0.2836 -0.3354
  801MPD2    C511801   2.147   0.216  13.640 -0.3456 -0.0184  0.2954
  801MPD2     H11802   1.888   4.657  13.663  1.5047 -0.2642  1.5604
  801MPD2    H111803   1.995   0.363  13.671  1.1995 -0.1547  0.7063
  801MPD2    H211804   2.288   0.075  13.600 -0.0649  0.8809 -0.8543
  801MPD2    H311805   2.222   0.295  13.644  1.3153 -1.5361 -0.6892
  801MPD2     N11806   1.784   0.192  13.709 -0.3912  0.1278 -0.3009
  801MPD2    H511807   1.761   0.290  13.725  0.5162  0.4429 -0.8396
  801MPD2    N111808   2.135   4.567  13.641  0.5626  0.3130 -0.2286
  801MPD2    H711809   2.063   4.505  13.676 -0.5105  1.4039 -0.4819
  802MPD2     C11810   1.491   4.237  17.215 -0.3319  0.0919 -0.6198
  802MPD2    C111811   1.467   4.375  17.220  0.5677  0.0135 -0.0167
  802MPD2    C211812   1.484   4.447  17.110  0.2158 -0.4500  0.4321
  802MPD2    C311813   1.508   4.390  16.990 -0.0421  0.5962 -0.6662
  802MPD2    C411814   1.504   4.252  16.974  0.0433  0.1277  0.3373
  802MPD2    C511815   1.498   4.179  17.090  0.2106 -0.4047  0.0072
  802MPD2     H11816   1.476   4.554  17.127  1.9306 -0.3148  0.3825
  802MPD2    H111817   1.503   4.206  16.876  2.0002 -0.9192  0.8087
  802MPD2    H211818   1.485   4.175  17.304  1.3921  0.3043 -0.3612
  802MPD2    H311819   1.519   4.073  17.082  0.0481 -0.3385 -1.3045
  802MPD2     N11820   1.530   4.478  16.881 -0.4684  0.0858 -0.4463
  802MPD2    H511821   1.524   4.578  16.900 -0.8903  0.0336 -0.2979
  802MPD2    N111822   1.430   4.447  17.335  0.3678 -0.5407 -0.1994
  802MPD2    H711823   1.427   4.549  17.332  1.1744 -0.4300  3.2954
  803MPD2     C11824   2.672   4.251  11.175 -0.1135  0.6440  0.6313
  803MPD2    C111825   2.786   4.187  11.229  0.4092 -0.3821  0.6118
  803MPD2    C211826   2.773   4.060  11.268 -0.0167  0.6999  0.1354
  803MPD2    C311827   2.652   3.993  11.258  0.4317  0.4891  0.3147
  803MPD2    C411828   2.542   4.059  11.212 -0.2561  0.9579 -0.1006
  803MPD2    C511829   2.554   4.183  11.163 -0.1669  0.1975 -0.5385
  803MPD2     H11830   2.854   4.028  11.332  0.5862  1.3934 -0.2774
  803MPD2    H111831   2.445   4.012  11.208  1.0760 -1.6679 -1.5177
  803MPD2    H211832   2.675   4.354  11.140 -0.4052  0.1196 -0.9411
  803MPD2    H311833   2.467   4.234  11.120  0.1254  0.3933 -0.9019
  803MPD2     N11834   2.626   3.867  11.322  0.1769 -0.6053  0.5241
  803MPD2    H511835   2.529   3.837  11.323  0.1656 -0.6904 -2.6110
  803MPD2    N111836   2.900   4.261  11.259  0.1647  0.0509 -0.2500
  803MPD2    H711837   2.971   4.204  11.303  1.5931  2.3115  0.3823
  804MPD2     C11838   2.035   0.045  16.592  0.9408  0.0540  0.0111
  804MPD2    C111839   2.017   0.029  16.731  0.0865 -0.3086 -0.3482
  804MPD2    C211840   2.061   0.126  16.815 -0.4295 -0.6398 -0.3844
  804MPD2    C311841   2.136   0.235  16.768 -0.7197  0.1672 -0.0786
  804MPD2    C411842   2.141   0.257  16.634 -0.2932  0.5597  0.3004
  804MPD2    C511843   2.085   0.163  16.545  0.8778 -0.3233 -0.3858
  804MPD2     H11844   2.049   0.120  16.922 -0.5195  0.0290 -0.3595
  804MPD2    H111845   2.178   0.352  16.597 -3.5703  0.7431 -2.4822
  804MPD2    H211846   2.005   4.690  16.516 -0.1852 -0.3365  0.8217
  804MPD2    H311847   2.105   0.181  16.440  0.6182 -1.1892 -0.5872
  804MPD2     N11848   2.183   0.326  16.862  0.3136  0.3886  0.3700
  804MPD2    H511849   2.142   0.326  16.955 -0.8826 -2.7323 -0.1270
  804MPD2    N111850   1.971   4.626  16.789 -0.9461 -0.2821  0.0234
  804MPD2    H711851   1.951   4.633  16.889 -2.0642 -1.4942 -0.1204
  805MPD2     C11852   1.747   3.662  15.298 -0.4324 -0.1053 -0.2538
  805MPD2    C111853   1.742   3.537  15.252 -0.4232  0.2184 -0.9426
  805MPD2    C211854   1.819   3.442  15.312 -0.3946 -0.9069 -0.4515
  805MPD2    C311855   1.916   3.471  15.405  0.3354  0.3021  0.1903
  805MPD2    C411856   1.938   3.607  15.443 -0.4847  0.8186  0.3448
  805MPD2    C511857   1.841   3.690  15.393  0.7357  1.0781 -0.1963
  805MPD2     H11858   1.809   3.338  15.282 -1.1679 -0.8329 -0.4373
  805MPD2    H111859   2.005   3.646  15.518 -3.3968  1.3274  2.6777
  805MPD2    H211860   1.686   3.744  15.263  0.1449  1.4053  2.2460
  805MPD2    H311861   1.861   3.791  15.426  1.0787  0.8744  0.2261
  805MPD2     N11862   2.000   3.367  15.455  0.4726 -0.0524  0.3095
  805MPD2    H511863   1.990   3.271  15.423 -1.4613  1.6880 -4.2715
  805MPD2    N111864   1.648   3.494  15.155 -0.5540 -0.0988 -0.4360
  805MPD2    H711865   1.646   3.394  15.134 -1.8719 -0.3325  0.8252
  806MPD2     C11866   2.641   2.981   0.100 -0.5161  0.3638  0.0787
  806MPD2    C111867   2.723   3.056   0.179 -0.1717 -0.1536 -0.0068
  806MPD2    C211868   2.788   3.169   0.134  0.2280 -0.3883  0.5719
  806MPD2    C311869   2.745   3.223   0.012  0.5687  0.5547  0.0021
  806MPD2    C411870   2.659   3.150  17.604 -0.2104  0.7993 -0.1671
  806MPD2    C511871   2.608   3.030  17.647 -0.7540 -0.7208  0.5734
  806MPD2     H11872   2.868   3.216   0.190 -1.0972 -1.3709  3.2925
  806MPD2    H111873   2.626   3.185  17.507  0.4198 -1.9874 -1.3796
  806MPD2    H211874   2.594   2.894   0.143 -1.2361  1.8652  2.3185
  806MPD2    H311875   2.542   2.973  17.582 -1.2812 -0.1248  0.5851
  806MPD2     N11876   2.793   3.342  17.634  0.0739 -0.2779 -0.8519
  806MPD2    H511877   2.757   3.389  17.551  0.9679 -0.5905 -1.4127
  806MPD2    N111878   2.745   3.017   0.320  0.1585 -0.0879  0.3788
  806MPD2    H711879   2.704   2.929   0.350  0.0551  0.5392  2.0731
  807MPD2     C11880   2.698   3.345   1.146 -0.2394 -0.4434 -0.4804
  807MPD2    C111881   2.636   3.225   1.124  0.3434  0.1789 -0.1504
  807MPD2    C211882   2.562   3.173   1.219 -0.0162  0.0520  0.3324
  807MPD2    C311883   2.562   3.225   1.353 -0.2326 -0.0226  0.8167
  807MPD2    C411884   2.631   3.337   1.381  0.0859  0.4289  0.1413
  807MPD2    C511885   2.693   3.395   1.276  0.3692  0.2185  0.2331
  807MPD2     H11886   2.518   3.077   1.199 -0.3121 -0.0073  1.2430
  807MPD2    H111887   2.619   3.386   1.477  0.0750  1.2659 -0.2943
  807MPD2    H211888   2.738   3.409   1.069  0.2429 -0.2588 -0.0753
  807MPD2    H311889   2.736   3.492   1.296 -1.7627  1.2156  0.0438
  807MPD2     N11890   2.489   3.154   1.455  0.0183  0.5654  0.0033
  807MPD2    H511891   2.485   3.203   1.543 -0.9607 -2.8249  1.8627
  807MPD2    N111892   2.641   3.163   0.996 -0.0975  0.1720 -0.5782
  807MPD2    H711893   2.602   3.070   0.989  0.4856  0.1728 -3.9386
  808MPD2     C11894   2.951   3.880   9.134  0.8043 -0.6718 -0.2501
  808MPD2    C111895   2.830   3.937   9.106 -0.3311 -0.6299 -0.2539
  808MPD2    C211896   2.814   4.074   9.122 -0.4272 -0.5710 -0.0846
  808MPD2    C311897   2.915   4.158   9.164 -0.2073 -0.3886 -0.4035
  808MPD2    C411898   3.039   4.097   9.183  0.0348 -0.1704  0.2175
  808MPD2    C511899   3.058   3.963   9.168  0.7670  0.7601 -0.5378
  808MPD2     H11900   2.718   4.113   9.092 -0.0240  1.0601  0.7458
  808MPD2    H111901   3.129   4.153   9.206 -1.4505  1.6080  1.6681
  808MPD2    H211902   2.973   3.776   9.113 -0.1908 -1.2453  1.5939
  808MPD2    H311903   3.150   3.917   9.204 -0.4240 -0.6621  0.6851
  808MPD2     N11904   2.902   4.300   9.186  0.1925 -0.5599  0.4396
  808MPD2    H511905   2.983   4.354   9.216  0.6140 -2.0247  1.8976
  808MPD2    N111906   2.719   3.864   9.060 -0.4039 -0.2756  0.0528
  808MPD2    H711907   2.634   3.911   9.029 -0.1244  0.9830  1.1972
  809MPD2     C11908   3.527   0.286   9.166 -0.1454  0.3436 -0.0075
  809MPD2    C111909   3.508   0.154   9.154  0.3598  0.3105 -0.0278
  809MPD2    C211910   3.381   0.104   9.135  0.5539  0.3490  0.4914
  809MPD2    C311911   3.273   0.182   9.154 -0.0862 -0.1581 -0.2703
  809MPD2    C411912   3.285   0.312   9.174 -0.7363 -0.4582 -0.0343
  809MPD2    C511913   3.412   0.363   9.170 -0.0612  0.5288 -0.1315
  809MPD2     H11914   3.364   4.716   9.121 -1.3182  0.4745  1.7548
  809MPD2    H111915   3.199   0.378   9.177 -1.3107 -1.2009 -0.2217
  809MPD2    H211916   3.621   0.339   9.168 -0.5064  1.0161 -0.8722
  809MPD2    H311917   3.436   0.467   9.188 -2.1139  1.3200 -1.8976
  809MPD2     N11918   3.138   0.135   9.147 -0.0439 -0.0216 -0.2090
  809MPD2    H511919   3.064   0.204   9.150  0.9920  1.0499  0.7962
  809MPD2    N111920   3.615   0.058   9.154  0.0684 -0.4146 -0.2348
  809MPD2    H711921   3.593   4.678   9.137 -1.1832  0.1413 -1.8702
  810MPD2     C11922   2.031   3.586   9.263 -0.2557 -0.1370 -0.2147
  810MPD2    C111923   2.004   3.537   9.392 -0.2994 -0.4186 -0.2771
  810MPD2    C211924   2.079   3.592   9.491 -0.2580  0.1865 -0.0260
  810MPD2    C311925   2.176   3.697   9.472  0.2664  0.1752 -0.2821
  810MPD2    C411926   2.194   3.747   9.348  0.0904 -0.2784  0.1785
  810MPD2    C511927   2.122   3.683   9.244 -0.1980  0.0554  0.5985
  810MPD2     H11928   2.051   3.555   9.589 -0.3920  0.6168  0.0965
  810MPD2    H111929   2.270   3.821   9.323 -0.3325 -0.2899 -1.1520
  810MPD2    H211930   1.975   3.547   9.179  0.0161  0.4016 -0.6470
  810MPD2    H311931   2.148   3.715   9.144 -1.7000  1.7486  0.7447
  810MPD2     N11932   2.242   3.751   9.584 -0.0194  0.2540 -0.3316
  810MPD2    H511933   2.292   3.839   9.578 -2.6266  1.7179 -0.2862
  810MPD2    N111934   1.908   3.433   9.404 -0.0799 -0.0536  0.0067
  810MPD2    H711935   1.853   3.409   9.322  0.4056 -1.2095  0.0293
  811MPD2     C11936   1.207   3.526   9.302  0.3081  0.1337 -0.7526
  811MPD2    C111937   1.273   3.523   9.417  0.7966 -0.1281  0.4875
  811MPD2    C211938   1.269   3.630   9.500  0.5956 -0.3553 -0.5460
  811MPD2    C311939   1.197   3.739   9.468 -0.3983 -0.2780  0.1914
  811MPD2    C411940   1.121   3.742   9.356 -0.6432  0.5095 -0.6423
  811MPD2    C511941   1.130   3.639   9.262 -0.7523  0.6156 -0.0151
  811MPD2     H11942   1.334   3.626   9.586  1.1159 -1.3362 -0.9854
  811MPD2    H111943   1.052   3.820   9.328 -1.4882 -0.5305 -1.4453
  811MPD2    H211944   1.215   3.441   9.236 -2.9449 -1.2624  0.6106
  811MPD2    H311945   1.080   3.641   9.166  0.9894 -2.1419 -0.9739
  811MPD2     N11946   1.190   3.847   9.559  0.7658 -0.4986  0.0975
  811MPD2    H511947   1.247   3.839   9.643  1.1457  0.6452 -0.0546
  811MPD2    N111948   1.351   3.411   9.439  0.5362  0.4592 -0.1112
  811MPD2    H711949   1.329   3.335   9.376  0.2840  1.8610 -1.7105
  812MPD2     C11950   0.832   3.566  11.946  0.9487 -0.3283  1.0547
  812MPD2    C111951   0.709   3.620  11.988  0.0756  0.4457 -0.1257
  812MPD2    C211952   0.621   3.546  12.065 -0.0770  0.0565  0.2729
  812MPD2    C311953   0.661   3.417  12.101  0.2318  0.2468 -0.6035
  812MPD2    C411954   0.780   3.367  12.059 -0.3468 -0.1835  0.2149
  812MPD2    C511955   0.866   3.439  11.980 -0.0317 -0.4269  0.0199
  812MPD2     H11956   0.529   3.583  12.108  0.7067  0.5844  1.5040
  812MPD2    H111957   0.817   3.270  12.090 -1.2940 -0.7158 -0.3466
  812MPD2    H211958   0.900   3.619  11.881 -0.7126 -0.4751 -0.8162
  812MPD2    H311959   0.953   3.391  11.937 -0.9265 -1.5211 -0.5713
  812MPD2     N11960   0.587   3.342  12.199  0.9487 -0.7014 -0.3587
  812MPD2    H511961   0.506   3.382  12.247  2.1931  1.3645  0.0272
  812MPD2    N111962   0.688   3.749  11.937 -0.1574 -0.2182  0.4316
  812MPD2    H711963   0.757   3.785  11.872  0.2556 -1.4541  0.1883
  813MPD2     C11964   4.703   0.634  12.573 -0.4204  0.2867 -0.0798
  813MPD2    C111965   4.677   0.772  12.570 -0.2490  0.2777 -0.1705
  813MPD2    C211966   4.578   0.823  12.649  0.4485 -0.8715  0.0156
  813MPD2    C311967   4.509   0.740  12.737  0.1690 -0.3017  1.0732
  813MPD2    C411968   4.548   0.610  12.749 -0.6190 -0.1276  0.0666
  813MPD2    C511969   4.629   0.554  12.653 -0.0522 -0.0057 -0.1675
  813MPD2     H11970   4.555   0.929  12.656 -1.2583 -1.4260  2.4714
  813MPD2    H111971   4.496   0.539  12.812 -1.5624  1.0324  0.5746
  813MPD2    H211972   0.059   0.583  12.513 -1.9125 -0.7620 -1.0346
  813MPD2    H311973   4.644   0.447  12.662 -0.0508  0.1253  1.3681
  813MPD2     N11974   4.433   0.798  12.849  0.0546 -1.0112  0.4252
  813MPD2    H511975   4.417   0.898  12.854 -0.2143 -1.0308 -0.0996
  813MPD2    N111976   0.044   0.855  12.507 -0.7742  0.3881 -0.7575
  813MPD2    H711977   0.138   0.819  12.498 -2.2137 -3.6852  0.7071
  814MPD2     C11978   0.084   2.339  12.059  0.2246  0.1497  0.4230
  814MPD2    C111979   0.133   2.359  11.935 -0.9237  0.0116  0.0498
  814MPD2    C211980   0.215   2.468  11.915  0.3582 -0.1129  0.1305
  814MPD2    C311981   0.238   2.555  12.013  0.4010 -0.1770  0.5637
  814MPD2    C411982   0.191   2.534  12.139 -0.6350  0.9625 -0.1369
  814MPD2    C511983   0.111   2.429  12.167  0.0501  0.5944  0.4209
  814MPD2     H11984   0.262   2.487  11.820  2.5714  1.6542  1.5867
  814MPD2    H111985   0.212   2.613  12.210 -1.3924  0.1643  0.9895
  814MPD2    H211986   0.009   2.264  12.083  0.7615 -0.6813 -0.4802
  814MPD2    H311987   0.074   2.406  12.266 -0.9795  1.7751  0.3109
  814MPD2     N11988   0.317   2.670  11.991 -0.0089 -0.4603  0.4475
  814MPD2    H511989   0.297   2.744  12.058  0.4338 -0.2957  0.3989
  814MPD2    N111990   0.105   2.274  11.827  0.3508 -0.1795 -0.5579
  814MPD2    H711991   0.125   2.310  11.734  1.0536 -0.4807 -0.5260
  815MPD2     C11992   0.753   1.082  11.212  0.1143  0.1050 -0.2081
  815MPD2    C111993   0.759   0.951  11.258 -0.0275  0.0583 -0.1050
  815MPD2    C211994   0.708   0.924  11.384  0.3345 -0.0622  0.6503
  815MPD2    C311995   0.648   1.026  11.458 -0.4586 -0.1003  0.4244
  815MPD2    C411996   0.644   1.153  11.407 -0.2917 -0.2140 -0.2497
  815MPD2    C511997   0.699   1.184  11.284  0.0173  0.2584 -0.2962
  815MPD2     H11998   0.708   0.821  11.420 -0.6592  0.1736  1.3358
  815MPD2    H111999   0.589   1.234  11.454 -0.3656  0.4862 -1.5338
  815MPD2    H212000   0.809   1.109  11.123  0.0495 -0.7717 -0.5089
  815MPD2    H312001   0.694   1.287  11.252 -1.7020  0.0140 -0.8326
  815MPD2     N12002   0.588   0.981  11.573 -0.0859  0.7173 -0.2032
  815MPD2    H512003   0.609   0.885  11.599  0.2020  1.1933  1.3658
  815MPD2    N112004   0.811   0.854  11.176 -0.1585  0.5060 -0.1547
  815MPD2    H712005   0.831   0.877  11.080  0.1700  1.2639  0.0937
  816MPD2     C12006   0.358   4.397  17.036  0.0532 -0.1822 -0.1658
  816MPD2    C112007   0.460   4.456  17.099 -0.1462 -0.2584 -0.1488
  816MPD2    C212008   0.585   4.404  17.091  0.3279 -0.1663  0.4902
  816MPD2    C312009   0.605   4.283  17.025  0.5496  0.5198  0.1048
  816MPD2    C412010   0.499   4.213  16.968 -0.4678  0.1900  0.4811
  816MPD2    C512011   0.376   4.271  16.978  0.6958  0.1378  0.5907
  816MPD2     H12012   0.677   4.430  17.143 -0.3543 -0.1493  1.6925
  816MPD2    H112013   0.515   4.117  16.919  4.2864  0.6371  1.1277
  816MPD2    H212014   0.257   4.435  17.043  0.9135  2.5285 -2.5342
  816MPD2    H312015   0.293   4.214  16.938  1.6296 -1.1443  0.4713
  816MPD2     N12016   0.735   4.238  17.038  0.3321 -0.5102 -0.3050
  816MPD2    H512017   0.805   4.293  17.086 -0.9366  1.0425 -0.2133
  816MPD2    N112018   0.439   4.567  17.189 -0.1765  0.5956  0.4964
  816MPD2    H712019   0.343   4.602  17.192 -0.4515 -0.2109  1.1620
  817MPD2     C12020   4.685   1.030   9.731 -0.4011  0.4535  0.1395
  817MPD2    C112021   0.014   1.046   9.607  0.0463  0.7376 -0.0720
  817MPD2    C212022   4.659   1.122   9.515 -0.1692  0.5714  0.4033
  817MPD2    C312023   4.535   1.177   9.554 -0.0833 -0.2073 -0.3664
  817MPD2    C412024   4.491   1.152   9.685 -0.1249  0.1397  0.3009
  817MPD2    C512025   4.565   1.087   9.778 -0.5021 -0.2808 -0.4143
  817MPD2     H12026   4.704   1.139   9.418  1.3993 -3.0190  0.5060
  817MPD2    H112027   4.392   1.180   9.719  0.3074  1.4322  0.4915
  817MPD2    H212028   0.020   0.977   9.809  0.5924 -0.9794 -1.5122
  817MPD2    H312029   4.539   1.074   9.883 -1.3300 -2.8312 -0.9592
  817MPD2     N12030   4.460   1.249   9.454  0.2129 -0.0100 -0.2760
  817MPD2    H512031   4.489   1.235   9.358  0.8937 -1.9448  0.2115
  817MPD2    N112032   0.136   0.987   9.567  0.1357 -0.1043  0.2022
  817MPD2    H712033   0.164   1.007   9.472  1.7043 -2.7236  0.1074
  818MPD2     C12034   3.764   0.898   9.916 -0.3730  0.2690 -0.5995
  818MPD2    C112035   3.747   0.816  10.025  0.2142  0.4021  0.1984
  818MPD2    C212036   3.771   0.680  10.014 -0.4627 -0.2396  0.5722
  818MPD2    C312037   3.809   0.623   9.895 -0.3958  0.3331  0.3643
  818MPD2    C412038   3.813   0.703   9.785  0.0029 -0.6112 -0.4361
  818MPD2    C512039   3.798   0.839   9.798 -0.5436 -0.4698  0.0946
  818MPD2     H12040   3.770   0.615  10.101  0.9514  0.0925  0.8403
  818MPD2    H112041   3.833   0.661   9.687  0.9938 -2.4722  0.5606
  818MPD2    H212042   3.745   1.005   9.910 -1.3567 -0.0032 -2.1520
  818MPD2    H312043   3.800   0.897   9.707  1.7137 -0.7211 -0.0283
  818MPD2     N12044   3.829   0.490   9.871 -0.4746 -0.3727  0.3919
  818MPD2    H512045   3.830   0.466   9.772  2.6053 -0.4896  0.4339
  818MPD2    N112046   3.696   0.856  10.153  0.5613  0.1625  0.0793
  818MPD2    H712047   3.689   0.781  10.221 -0.9909  0.3937  0.1876
  819MPD2     C12048   2.065   2.712  15.345 -0.3574 -0.2956 -0.9513
  819MPD2    C112049   2.100   2.612  15.254 -1.2507  0.1715  0.1591
  819MPD2    C212050   2.231   2.561  15.257  0.7034  0.5159 -0.1606
  819MPD2    C312051   2.317   2.603  15.363 -0.2352  0.0652  0.4859
  819MPD2    C412052   2.279   2.696  15.453  0.2425  0.3294  0.3266
  819MPD2    C512053   2.153   2.743  15.440  0.3030 -0.9196  0.5553
  819MPD2     H12054   2.261   2.483  15.188  0.9358  0.1454  0.3552
  819MPD2    H112055   2.348   2.741  15.524 -1.1563  0.2908  1.7198
  819MPD2    H212056   1.966   2.755  15.336 -0.7545 -0.4541  2.4331
  819MPD2    H312057   2.111   2.813  15.511 -3.0296 -2.9335  0.6066
  819MPD2     N12058   2.456   2.570  15.353  0.0004  0.0130  0.6273
  819MPD2    H512059   2.484   2.519  15.270  2.4193  0.0533  1.4135
  819MPD2    N112060   1.998   2.572  15.164  0.0276 -0.4337  0.4022
  819MPD2    H712061   1.904   2.590  15.199 -0.4204  0.9248 -1.4824
  820MPD2     C12062   1.239   2.937  14.658  0.4883  0.1018 -0.7090
  820MPD2    C112063   1.326   2.962  14.767 -0.3656 -0.1309  0.3187
  820MPD2    C212064   1.420   2.870  14.811  0.1795 -0.4857 -0.3458
  820MPD2    C312065   1.428   2.743  14.753 -0.2376 -0.3609 -0.2654
  820MPD2    C412066   1.348   2.716  14.642  0.2807  0.6140  0.1359
  820MPD2    C512067   1.253   2.809  14.597  0.3578  0.9503 -0.4273
  820MPD2     H12068   1.489   2.902  14.888  1.4279  1.4362 -2.2615
  820MPD2    H112069   1.339   2.613  14.610  1.4962  0.4995  0.1468
  820MPD2    H212070   1.184   3.018  14.613 -0.5045 -1.4675 -2.2993
  820MPD2    H312071   1.199   2.788  14.505  1.0565  3.5174 -1.4377
  820MPD2     N12072   1.510   2.637  14.804  0.5640 -0.3420 -0.4098
  820MPD2    H512073   1.509   2.556  14.744  0.7261 -0.0118 -0.8610
  820MPD2    N112074   1.317   3.097  14.819  0.2194 -0.1767  0.0517
  820MPD2    H712075   1.241   3.150  14.777  0.7923 -0.8253 -1.8278
  821MPD2     C12076   1.867   4.321  12.651 -0.1895  0.1607  0.4100
  821MPD2    C112077   1.958   4.281  12.749 -0.4434  0.2676  0.1763
  821MPD2    C212078   2.079   4.352  12.757  0.4834 -0.7770 -0.4452
  821MPD2    C312079   2.101   4.462  12.681 -0.1069 -0.0760  0.2234
  821MPD2    C412080   2.003   4.503  12.590  0.0336 -0.4803 -0.2405
  821MPD2    C512081   1.887   4.434  12.578 -0.2351  0.2920 -0.3425
  821MPD2     H12082   2.153   4.313  12.826  1.6535  2.7056  0.3094
  821MPD2    H112083   2.009   4.587  12.522  2.0709 -0.0708  0.4446
  821MPD2    H212084   1.772   4.269  12.652  0.7108 -1.4808  0.5066
  821MPD2    H312085   1.800   4.470  12.525 -0.1809 -1.4672 -1.6345
  821MPD2     N12086   2.222   4.533  12.667 -0.0040 -0.2991  0.0697
  821MPD2    H512087   2.231   4.605  12.596  0.8319  1.5032  2.0037
  821MPD2    N112088   1.928   4.180  12.843  0.4794  0.3281 -0.3650
  821MPD2    H712089   1.980   4.185  12.930  1.9279 -3.1977 -1.0307
  822MPD2     C12090   2.507   4.271  15.401 -0.5431 -0.2973  0.2377
  822MPD2    C112091   2.584   4.246  15.512 -0.2812 -0.6865 -0.7635
  822MPD2    C212092   2.535   4.289  15.632  0.0028  0.1377 -0.4004
  822MPD2    C312093   2.414   4.362  15.643  0.3968  0.1809  0.6742
  822MPD2    C412094   2.350   4.398  15.530 -0.1184  0.3510 -0.2013
  822MPD2    C512095   2.392   4.347  15.413 -0.4620  0.5123 -0.0879
  822MPD2     H12096   2.593   4.263  15.719 -1.5697 -0.4267  0.4661
  822MPD2    H112097   2.264   4.464  15.524 -0.3740  0.2953  2.4660
  822MPD2    H212098   2.535   4.235  15.303  0.8373  0.7756  0.2349
  822MPD2    H312099   2.352   4.391  15.322  1.8347 -1.6007 -2.1086
  822MPD2     N12100   2.375   4.403  15.776  0.5194 -0.2141  0.7256
  822MPD2    H512101   2.426   4.367  15.856 -0.2605 -0.9391  0.8976
  822MPD2    N112102   2.709   4.180  15.514 -0.5560 -0.1789 -0.4683
  822MPD2    H712103   2.750   4.168  15.606 -1.4158 -0.1363 -0.0792
  823MPD2     C12104   2.231   4.363  16.628  0.2848 -0.0352  0.5473
  823MPD2    C112105   2.249   4.310  16.501  0.5926  0.2931  0.7544
  823MPD2    C212106   2.321   4.188  16.494  0.4251  0.1136  0.5654
  823MPD2    C312107   2.366   4.115  16.608 -0.5930  0.2039  0.2710
  823MPD2    C412108   2.335   4.175  16.732 -0.1561 -0.3000 -0.1132
  823MPD2    C512109   2.264   4.291  16.738  0.3221 -0.6386  0.0913
  823MPD2     H12110   2.333   4.154  16.392 -2.4464 -0.8676  0.5472
  823MPD2    H112111   2.361   4.139  16.831  1.1085  1.3297  0.1345
  823MPD2    H212112   2.178   4.456  16.643 -2.5610 -1.9240  2.3459
  823MPD2    H312113   2.256   4.350  16.829  2.6081 -1.1801  0.6386
  823MPD2     N12114   2.470   4.012  16.604  0.2172  0.0470  0.0135
  823MPD2    H512115   2.508   3.994  16.697  1.0124 -1.7996 -0.6692
  823MPD2    N112116   2.208   4.387  16.388  0.0647 -0.0996  0.5758
  823MPD2    H712117   2.161   4.473  16.415 -0.3920 -0.3883  0.7135
  824MPD2     C12118   2.997   3.428  15.352 -0.4819  0.2754 -0.5065
  824MPD2    C112119   3.111   3.509  15.360 -0.8989  0.6455 -0.4406
  824MPD2    C212120   3.239   3.461  15.350 -0.0034  0.1563  0.0171
  824MPD2    C312121   3.251   3.328  15.309 -0.7536  0.4560  0.5544
  824MPD2    C412122   3.144   3.244  15.296 -0.5910  0.4158  0.0401
  824MPD2    C512123   3.020   3.293  15.314  0.2000 -0.1353  0.1531
  824MPD2     H12124   3.323   3.526  15.372 -0.2447 -0.2097  2.0186
  824MPD2    H112125   3.162   3.143  15.262 -1.0533  0.8666 -1.5455
  824MPD2    H212126   2.897   3.468  15.368 -1.5528 -1.7176 -2.2621
  824MPD2    H312127   2.932   3.233  15.294 -1.4808  2.1956  0.4043
  824MPD2     N12128   3.383   3.281  15.273  0.2155 -0.1034  0.3738
  824MPD2    H512129   3.454   3.354  15.276  1.6909 -1.6371  2.6181
  824MPD2    N112130   3.095   3.643  15.387  0.1164 -0.5483 -0.2984
  824MPD2    H712131   3.184   3.692  15.376  0.2507 -1.0980 -1.7538
  825MPD2     C12132   4.152   3.452  14.985 -0.0887 -0.2064 -0.5937
  825MPD2    C112133   4.018   3.489  15.012  0.1378 -0.3477 -0.6792
  825MPD2    C212134   3.986   3.624  15.027  0.1817  0.1889  0.0372
  825MPD2    C312135   4.089   3.710  15.022  1.0745  0.6301  0.0186
  825MPD2    C412136   4.222   3.671  15.006 -0.3941 -0.0589  0.0002
  825MPD2    C512137   4.253   3.541  14.995  0.1138 -0.3197  0.8316
  825MPD2     H12138   3.886   3.656  15.054 -0.2795 -0.9994 -0.2831
  825MPD2    H112139   4.308   3.735  14.994 -0.8448  0.8508  1.6580
  825MPD2    H212140   4.177   3.350  14.959 -2.1818 -0.2067 -2.5937
  825MPD2    H312141   4.353   3.498  14.994  1.3610  2.5662 -2.4581
  825MPD2     N12142   4.074   3.853  15.033  0.1604  0.0396 -0.6242
  825MPD2    H512143   4.158   3.910  15.037  0.2564 -0.0201 -1.7755
  825MPD2    N112144   3.920   3.389  15.009  0.2500 -0.2058  0.2436
  825MPD2    H712145   3.960   3.296  15.004  0.6440 -0.0237 -0.0740
  826MPD2     C12146   3.849   3.724  13.411 -0.3734  0.0977  0.0339
  826MPD2    C112147   3.749   3.699  13.323  0.3139 -0.2717  0.2304
  826MPD2    C212148   3.654   3.790  13.293  0.1785  0.7003  0.1100
  826MPD2    C312149   3.656   3.908  13.365 -0.2074 -0.2301  0.6414
  826MPD2    C412150   3.755   3.931  13.455 -0.3249  0.2036 -0.7121
  826MPD2    C512151   3.852   3.841  13.482 -0.6477  0.3234  0.3860
  826MPD2     H12152   3.589   3.786  13.207 -0.5414 -0.5852  0.7153
  826MPD2    H112153   3.764   4.020  13.515 -1.2111  0.5167 -1.0363
  826MPD2    H212154   3.931   3.654  13.421 -0.0573  0.7179  1.8315
  826MPD2    H312155   3.935   3.863  13.547 -1.6665 -2.3171  2.5980
  826MPD2     N12156   3.556   4.006  13.362 -0.2565 -0.4482  0.7753
  826MPD2    H512157   3.573   4.092  13.413  2.1644 -0.6120  0.2056
  826MPD2    N112158   3.770   3.582  13.246  0.2780 -0.0101 -0.1355
  826MPD2    H712159   3.859   3.533  13.253 -0.0595 -0.5734  0.2575
  827MPD2     C12160   4.257   4.680   9.611 -0.7205 -0.0960  0.5581
  827MPD2    C112161   4.311   4.581   9.687  0.6525  0.5965 -0.1928
  827MPD2    C212162   4.303   4.449   9.639 -0.1081 -0.2957  0.0838
  827MPD2    C312163   4.251   4.423   9.511  0.1256 -0.2108  0.5946
  827MPD2    C412164   4.208   4.529   9.432 -0.5889  0.5515  0.0860
  827MPD2    C512165   4.203   4.654   9.484 -0.8553 -0.3570  0.5975
  827MPD2     H12166   4.332   4.364   9.699  0.2651 -1.0264 -1.1338
  827MPD2    H112167   4.176   4.526   9.329 -0.9701  0.1292  0.2186
  827MPD2    H212168   4.260   0.067   9.638  1.0813  0.0057 -0.0280
  827MPD2    H312169   4.163   0.022   9.431  0.9304 -0.7217 -1.3471
  827MPD2     N12170   4.271   4.285   9.463  0.1839  0.1181  0.1429
  827MPD2    H512171   4.299   4.214   9.531 -1.6427 -0.5040  0.2526
  827MPD2    N112172   4.357   4.613   9.817 -0.4183 -0.5139 -0.3362
  827MPD2    H712173   4.351   4.712   9.841  0.0903 -1.4666  3.6407
  828MPD2     C12174   2.641   4.466  12.412  0.0354  0.3947  0.2567
  828MPD2    C112175   2.657   4.555  12.306  0.0174  0.5446  0.2622
  828MPD2    C212176   2.785   4.582  12.257 -0.1320  0.3724  0.1982
  828MPD2    C312177   2.898   4.511  12.306 -0.4791 -0.6152  0.3515
  828MPD2    C412178   2.878   4.427  12.417 -0.3777 -0.5553 -0.0063
  828MPD2    C512179   2.751   4.404  12.469  0.1208 -0.2548 -0.2620
  828MPD2     H12180   2.797   4.648  12.171  0.9279  0.8897  0.7551
  828MPD2    H112181   2.965   4.394  12.472 -0.5668  1.3852  1.4648
  828MPD2    H212182   2.552   4.450  12.472  1.6645  0.3972  2.6657
  828MPD2    H312183   2.749   4.340  12.556 -0.6619  0.8564  0.5489
  828MPD2     N12184   3.034   4.537  12.269  0.2873 -0.4481 -0.6924
  828MPD2    H512185   3.103   4.473  12.307  0.5658  0.7727  0.8636
  828MPD2    N112186   2.542   4.613  12.238 -0.1401  0.0030  0.1723
  828MPD2    H712187   2.563   4.673  12.158  1.1493  0.9144  1.1897
  829MPD2     C12188   2.632   0.320  11.574  0.2666  0.9013 -0.3104
  829MPD2    C112189   2.493   0.340  11.567  0.5320 -0.1078  0.3404
  829MPD2    C212190   2.412   0.292  11.677  0.3817 -0.7620 -0.0347
  829MPD2    C312191   2.475   0.207  11.773 -0.4958  0.0931  0.5311
  829MPD2    C412192   2.613   0.197  11.771  0.1781 -0.3313 -0.5498
  829MPD2    C512193   2.690   0.257  11.680  0.0073 -0.3885  0.1741
  829MPD2     H12194   2.308   0.320  11.688 -0.2611 -2.6218 -1.3287
  829MPD2    H112195   2.667   0.141  11.847  1.7598  0.7535 -0.8756
  829MPD2    H212196   2.686   0.348  11.485  1.8389  2.7479  1.2413
  829MPD2    H312197   2.798   0.262  11.687  0.0824 -1.5509 -0.1783
  829MPD2     N12198   2.410   0.141  11.880 -0.3258  0.0773 -0.4184
  829MPD2    H512199   2.473   0.102  11.949 -1.1758  0.6222  0.6521
  829MPD2    N112200   2.453   0.414  11.457 -0.4749  0.2098  0.1368
  829MPD2    H712201   2.524   0.439  11.390 -0.6202 -1.5297 -0.6799
  830MPD2     C12202   2.713   2.475  14.819 -0.1686  0.1937  0.9579
  830MPD2    C112203   2.796   2.571  14.879  0.8266  0.6915 -0.2538
  830MPD2    C212204   2.865   2.661  14.804  0.1579 -0.3471  1.1302
  830MPD2    C312205   2.854   2.669  14.671 -0.8817 -0.0739  0.0138
  830MPD2    C412206   2.785   2.565  14.611  0.3719  0.2873  0.2788
  830MPD2    C512207   2.722   2.468  14.685 -0.0532 -0.2515  0.2696
  830MPD2     H12208   2.931   2.728  14.859 -0.7273  1.4703 -0.0167
  830MPD2    H112209   2.784   2.559  14.503 -0.5011 -0.1911  0.3054
  830MPD2    H212210   2.650   2.404  14.871  0.0822 -0.3299  0.5337
  830MPD2    H312211   2.669   2.392  14.629 -0.3542  1.9734 -2.4840
  830MPD2     N12212   2.914   2.761  14.583  0.3023 -0.0379 -0.3546
  830MPD2    H512213   2.893   2.751  14.485 -2.0360  0.1481  0.1223
  830MPD2    N112214   2.791   2.571  15.021 -0.0982 -0.6559 -0.1983
  830MPD2    H712215   2.711   2.520  15.057  0.4830 -1.5029 -0.0889
  831MPD2     C12216   2.610   4.518  16.131 -0.3244 -0.0341  0.4207
  831MPD2    C112217   2.648   4.439  16.023  0.0782 -1.0518 -0.1051
  831MPD2    C212218   2.621   4.310  16.018 -0.3499  0.7701 -0.5597
  831MPD2    C312219   2.557   4.249  16.122  0.6394  0.1342  0.5074
  831MPD2    C412220   2.527   4.316  16.235 -0.5016  0.1919  0.1748
  831MPD2    C512221   2.555   4.454  16.235  0.2995  0.2869 -0.8084
  831MPD2     H12222   2.658   4.254  15.933  0.9962  2.8135 -1.3245
  831MPD2    H112223   2.504   4.276  16.333 -0.4407 -1.0223 -0.3124
  831MPD2    H212224   2.620   4.626  16.142  0.7881 -0.3055  2.1540
  831MPD2    H312225   2.531   4.500  16.330  1.7449 -3.1640  1.2297
  831MPD2     N12226   2.499   4.118  16.117  1.0241  0.6222 -0.1190
  831MPD2    H512227   2.470   4.079  16.206  0.3823  2.3276  0.4132
  831MPD2    N112228   2.698   4.511  15.916  1.1341  0.3150 -0.6175
  831MPD2    H712229   2.695   4.612  15.922 -2.9022  0.3320 -2.7627
  832MPD2     C12230   1.343   0.652  17.292  0.5243 -0.1234  0.2015
  832MPD2    C112231   1.347   0.791  17.291 -0.7400  0.5268 -0.1184
  832MPD2    C212232   1.232   0.863  17.263  0.1369 -0.2051 -0.5778
  832MPD2    C312233   1.109   0.796  17.247 -0.3057 -1.1818  0.6313
  832MPD2    C412234   1.108   0.660  17.250 -0.3320  0.1617  0.1087
  832MPD2    C512235   1.220   0.588  17.281 -0.6479 -0.1671 -0.2763
  832MPD2     H12236   1.230   0.970  17.280  1.1037 -0.1610 -0.7044
  832MPD2    H112237   1.013   0.607  17.244 -0.0863 -0.4747  1.8449
  832MPD2    H212238   1.435   0.594  17.292  2.9585  3.7550  1.0268
  832MPD2    H312239   1.214   0.480  17.282  2.1935 -0.3375 -0.5295
  832MPD2     N12240   0.991   0.869  17.234 -0.0720 -0.0599  0.0496
  832MPD2    H512241   0.902   0.822  17.223  0.8623 -2.5054  2.8514
  832MPD2    N112242   1.474   0.854  17.316  0.4725  0.1322  0.3215
  832MPD2    H712243   1.547   0.795  17.355 -0.0350 -0.0011  1.0541
  833MPD2     C12244   3.610   2.435  12.741  0.0147  0.3965  0.4254
  833MPD2    C112245   3.601   2.490  12.615 -0.3598  0.4679  0.9631
  833MPD2    C212246   3.599   2.406  12.500 -0.4334 -0.1471  0.7448
  833MPD2    C312247   3.608   2.267  12.517 -0.6646  0.7422  0.2301
  833MPD2    C412248   3.602   2.217  12.644 -0.4770 -0.0803 -0.6563
  833MPD2    C512249   3.614   2.302  12.753 -0.6065 -0.3233  0.4641
  833MPD2     H12250   3.571   2.444  12.403  2.4674 -0.1075 -0.0825
  833MPD2    H112251   3.605   2.110  12.662 -0.8082 -0.1156 -0.8094
  833MPD2    H212252   3.612   2.496  12.831 -1.3491 -2.2245  2.2573
  833MPD2    H312253   3.606   2.255  12.850  0.7052 -0.4018  0.5290
  833MPD2     N12254   3.599   2.193  12.403  0.2244  0.1844 -1.2952
  833MPD2    H512255   3.606   2.244  12.316 -4.1444 -0.6830 -2.1454
  833MPD2    N112256   3.583   2.627  12.612 -0.5281  0.1582 -0.6019
  833MPD2    H712257   3.563   2.671  12.701  1.2825 -0.0236 -0.0949
  834MPD2     C12258   2.942   1.716  11.739  0.0330  0.3789  0.3088
  834MPD2    C112259   3.058   1.751  11.669  0.9801 -0.4108  0.0467
  834MPD2    C212260   3.167   1.817  11.732 -0.0661  0.0610  0.4257
  834MPD2    C312261   3.167   1.847  11.862  0.3805  0.1032 -0.4944
  834MPD2    C412262   3.047   1.816  11.928  0.7318  0.9355 -0.1415
  834MPD2    C512263   2.941   1.760  11.872  0.1051 -0.6537  0.3576
  834MPD2     H12264   3.254   1.840  11.672  0.0592  2.4027  1.4983
  834MPD2    H112265   3.038   1.842  12.033  0.2160 -0.7920  0.2376
  834MPD2    H212266   2.861   1.664  11.690  1.6638 -1.4741 -0.3912
  834MPD2    H312267   2.853   1.744  11.933 -1.3539  1.1245 -1.2708
  834MPD2     N12268   3.285   1.897  11.927 -0.1901  0.3100 -0.5920
  834MPD2    H512269   3.358   1.914  11.859  1.8113  0.4501  1.6205
  834MPD2    N112270   3.043   1.718  11.530 -0.1939  0.9465 -0.1447
  834MPD2    H712271   2.947   1.690  11.510 -0.2536  1.3984 -0.4752
  835MPD2     C12272   3.477   0.063  10.922 -0.4830  0.1713  0.4497
  835MPD2    C112273   3.373   0.154  10.929  0.2610  0.9360 -0.6642
  835MPD2    C212274   3.339   0.212  11.050 -0.4902 -0.0260  0.6911
  835MPD2    C312275   3.386   0.163  11.173 -0.3339 -0.2996 -0.3739
  835MPD2    C412276   3.484   0.068  11.161  0.2600  0.4345  0.3200
  835MPD2    C512277   3.523   0.025  11.039  0.1929 -0.1966  0.2378
  835MPD2     H12278   3.262   0.287  11.038  0.0641  0.4611  0.2201
  835MPD2    H112279   3.539   0.022  11.243  0.0543 -0.1860  0.1112
  835MPD2    H212280   3.517   0.024  10.829  0.8457  1.7775  0.3551
  835MPD2    H312281   3.597   4.663  11.043  0.3957 -0.0113  0.1917
  835MPD2     N12282   3.344   0.209  11.299 -0.0146  0.7714 -0.0454
  835MPD2    H512283   3.395   0.185  11.383 -0.5458  2.0384  0.6441
  835MPD2    N112284   3.303   0.218  10.822 -0.1904  0.1807  0.1135
  835MPD2    H712285   3.223   0.276  10.845 -0.1078  0.4671 -0.3362
  836MPD2     C12286   2.758   0.745  11.336  0.3326 -0.4870  0.2953
  836MPD2    C112287   2.780   0.680  11.457  0.3837  0.7337  0.4694
  836MPD2    C212288   2.678   0.681  11.553 -0.5732 -0.1976 -0.5873
  836MPD2    C312289   2.566   0.760  11.542  0.2328  0.3047  0.2614
  836MPD2    C412290   2.556   0.839  11.427 -0.2724  1.2579 -0.3289
  836MPD2    C512291   2.644   0.821  11.319 -0.1685  0.2328 -1.0953
  836MPD2     H12292   2.687   0.620  11.643  2.2202  0.1163 -0.6565
  836MPD2    H112293   2.488   0.923  11.418 -0.0432  1.3637 -1.0321
  836MPD2    H212294   2.826   0.741  11.252  0.6068 -0.6083  0.5248
  836MPD2    H312295   2.634   0.870  11.223 -1.6992  1.6879 -0.1896
  836MPD2     N12296   2.464   0.778  11.640  0.0176  0.0852  0.1059
  836MPD2    H512297   2.385   0.835  11.610  0.0709  0.5584  0.8791
  836MPD2    N112298   2.901   0.609  11.473  0.5750  0.5201 -0.4623
  836MPD2    H712299   2.963   0.611  11.393  2.2998  1.3036  0.9052
  837MPD2     C12300   1.655   4.426   9.802 -0.8436 -0.1361  0.3272
  837MPD2    C112301   1.527   4.434   9.862 -0.6255  0.0252 -0.2390
  837MPD2    C212302   1.494   4.531   9.949 -0.3677  0.5702  0.0339
  837MPD2    C312303   1.583   4.632   9.977  0.7568 -0.5318  0.2902
  837MPD2    C412304   1.715   4.624   9.931  0.1914  0.0796  0.0706
  837MPD2    C512305   1.752   4.521   9.841 -0.4852  0.5778 -0.0537
  837MPD2     H12306   1.396   4.533   9.994 -0.8622  1.8242 -1.0936
  837MPD2    H112307   1.790   4.701   9.946  0.3240  0.0715 -0.5510
  837MPD2    H212308   1.689   4.340   9.746  1.4315  0.7332  0.3675
  837MPD2    H312309   1.852   4.516   9.799 -0.4952  0.3068 -0.0445
  837MPD2     N12310   1.532   0.014  10.068 -0.2656 -0.4273 -0.1377
  837MPD2    H512311   1.441   4.713  10.109 -0.6133 -0.2982 -0.8431
  837MPD2    N112312   1.431   4.331   9.836  0.5351 -0.1252 -0.4700
  837MPD2    H712313   1.340   4.344   9.880 -0.9282  2.7609 -4.3860
  838MPD2     C12314   4.344   2.511  11.139  0.5979 -0.0839  0.4903
  838MPD2    C112315   4.357   2.601  11.248 -0.1936 -0.2982  0.5460
  838MPD2    C212316   4.267   2.590  11.354  0.7023  0.3130  0.4109
  838MPD2    C312317   4.170   2.492  11.361  0.4737  0.8430 -0.1320
  838MPD2    C412318   4.155   2.411  11.250 -0.2873 -0.4750  0.5683
  838MPD2    C512319   4.247   2.414  11.150  0.6102 -0.3404 -0.1707
  838MPD2     H12320   4.275   2.661  11.435  0.8132  0.4600  0.2688
  838MPD2    H112321   4.082   2.332  11.244  0.0241 -0.8434  1.6851
  838MPD2    H212322   4.415   2.517  11.057 -0.9677  0.3742 -0.8397
  838MPD2    H312323   4.222   2.349  11.066 -0.1679 -0.7258  0.3662
  838MPD2     N12324   4.098   2.480  11.478  0.2092 -0.0148 -0.6885
  838MPD2    H512325   4.129   2.532  11.559  1.1783 -0.8451 -0.5138
  838MPD2    N112326   4.454   2.696  11.268 -0.2503  0.2606 -0.8157
  838MPD2    H712327   4.462   2.738  11.360 -0.1812 -1.7824  0.1156
  839MPD2     C12328   4.447   2.353  11.833  0.0132  0.0521  0.4888
  839MPD2    C112329   4.476   2.319  11.703 -0.4595 -0.0988 -1.0065
  839MPD2    C212330   4.573   2.406  11.642  0.9057 -0.1891 -0.0324
  839MPD2    C312331   4.621   2.517  11.706  0.4701 -0.2072 -0.4808
  839MPD2    C412332   4.576   2.556  11.831  0.1672  0.2459 -0.9764
  839MPD2    C512333   4.487   2.470  11.896 -0.2150  0.1958 -0.2371
  839MPD2     H12334   4.606   2.385  11.540  2.1832 -0.4541  0.4298
  839MPD2    H112335   4.625   2.637  11.884  1.3549 -1.4856  0.5993
  839MPD2    H212336   4.378   2.293  11.891 -1.9378  0.8230 -1.0415
  839MPD2    H312337   4.466   2.493  12.000  3.7557  2.0760  0.1452
  839MPD2     N12338   0.001   2.604  11.654 -0.2557  0.7251  0.1874
  839MPD2    H512339   0.005   2.700  11.688 -0.1236  1.3727 -1.6771
  839MPD2    N112340   4.410   2.216  11.638 -0.2767  0.6856 -0.3682
  839MPD2    H712341   4.433   2.213  11.539  0.9583 -2.1981  0.0278
  840MPD2     C12342   0.122   0.307   9.909  0.8025  0.5228 -0.6125
  840MPD2    C112343   0.061   0.305  10.031 -0.1555 -0.9803  0.0645
  840MPD2    C212344   0.111   0.383  10.132  0.4623  0.2313 -0.1135
  840MPD2    C312345   0.229   0.459  10.117 -0.1276  0.6016 -0.1372
  840MPD2    C412346   0.276   0.477   9.989 -0.0298  0.8762 -0.4693
  840MPD2    C512347   0.224   0.399   9.892 -0.4844  0.0115 -0.6551
  840MPD2     H12348   0.054   0.386  10.224  0.6124 -3.6388  0.0931
  840MPD2    H112349   0.354   0.550   9.971 -0.2507  0.5934 -2.5538
  840MPD2    H212350   0.093   0.238   9.831  0.8446  1.1040 -1.1466
  840MPD2    H312351   0.276   0.404   9.797 -3.5041 -1.7725 -2.4288
  840MPD2     N12352   0.294   0.526  10.219  0.1528  0.2982  0.4766
  840MPD2    H512353   0.372   0.588  10.202  1.3061 -1.5883 -1.1919
  840MPD2    N112354   4.664   0.222  10.054 -0.1278  0.5325 -0.4677
  840MPD2    H712355   4.627   0.162   9.981  3.6242 -0.1842 -1.7289
  841MPD2     C12356   0.186   1.002  14.771  0.2599 -0.1395  0.9199
  841MPD2    C112357   0.150   0.884  14.704  0.7480 -0.1430 -0.3567
  841MPD2    C212358   0.244   0.784  14.697  0.5171 -0.1010 -0.1217
  841MPD2    C312359   0.371   0.802  14.749 -0.0200  0.3677  0.2658
  841MPD2    C412360   0.401   0.915  14.819  0.1903  0.2477  0.3027
  841MPD2    C512361   0.307   1.013  14.828 -0.3196 -0.4417  1.1678
  841MPD2     H12362   0.217   0.688  14.653 -1.3327  1.0407 -1.4362
  841MPD2    H112363   0.498   0.927  14.865  0.1575 -1.2419  0.7591
  841MPD2    H212364   0.123   1.091  14.776  0.3866  0.0682 -0.9749
  841MPD2    H312365   0.335   1.102  14.885 -2.3832  0.8550  0.1467
  841MPD2     N12366   0.462   0.692  14.712 -0.4696  0.2123 -0.6275
  841MPD2    H512367   0.415   0.613  14.668  1.8259 -0.7421 -1.3809
  841MPD2    N112368   0.025   0.862  14.649  0.0127  0.5350 -0.2120
  841MPD2    H712369   0.020   0.769  14.609 -2.3976  0.5435  0.0734
  842MPD2     C12370   0.198   0.795  16.463  0.3966  0.4271  0.9401
  842MPD2    C112371   0.098   0.886  16.446  0.2550 -0.2275  0.2391
  842MPD2    C212372   0.019   0.934  16.547  0.3532 -0.4175 -0.1831
  842MPD2    C312373   0.056   0.904  16.679 -0.1597  0.4748  0.3067
  842MPD2    C412374   0.157   0.807  16.694 -0.4803 -0.2368  0.1943
  842MPD2    C512375   0.227   0.756  16.587 -0.1878  0.3864  0.5897
  842MPD2     H12376   4.673   1.020  16.533  0.1892 -0.4688  0.2376
  842MPD2    H112377   0.187   0.782  16.795 -1.5208  2.1183  1.0935
  842MPD2    H212378   0.252   0.756  16.377 -0.2904  2.1079 -0.2585
  842MPD2    H312379   0.300   0.675  16.594  0.2083  0.8425  1.7921
  842MPD2     N12380   0.017   0.984  16.788 -0.3776 -0.6581  0.7251
  842MPD2    H512381   0.068   0.972  16.874 -0.6023  1.5186  1.1551
  842MPD2    N112382   0.069   0.922  16.316  0.1040 -0.7080  0.0406
  842MPD2    H712383   0.139   0.899  16.247  1.3752  3.1964  0.0035
  843MPD2     C12384   2.397   1.437  17.336  0.2971  0.0214 -0.3968
  843MPD2    C112385   2.443   1.445  17.461  0.8406 -0.1669 -0.1418
  843MPD2    C212386   2.561   1.512  17.494 -0.1639  0.0743 -0.2779
  843MPD2    C312387   2.634   1.568  17.389  0.0063  0.1618 -0.0468
  843MPD2    C412388   2.580   1.566  17.261  0.1308 -0.5584 -0.0120
  843MPD2    C512389   2.465   1.499  17.236 -0.0936 -0.2717  0.3366
  843MPD2     H12390   2.605   1.513  17.593 -1.6536 -1.3456  0.3961
  843MPD2    H112391   2.628   1.608  17.174  0.7253  0.9736  1.0544
  843MPD2    H212392   2.312   1.373  17.318  1.7954 -1.8055 -1.0517
  843MPD2    H312393   2.422   1.501  17.136  0.7941 -0.8167 -0.0484
  843MPD2     N12394   2.761   1.628  17.410 -0.0486  0.1960 -0.0139
  843MPD2    H512395   2.789   1.621  17.507  0.5322 -0.8102 -0.2492
  843MPD2    N112396   2.359   1.387  17.557  0.5187 -0.1511 -0.2402
  843MPD2    H712397   2.278   1.344  17.513  0.5712  1.0464 -1.5311
  844MPD2     C12398   0.535   0.815  16.887 -0.0926  0.3159  0.5677
  844MPD2    C112399   0.620   0.718  16.938  0.1036 -0.2617  0.4342
  844MPD2    C212400   0.760   0.739  16.935  0.5777 -0.1921  0.9272
  844MPD2    C312401   0.816   0.853  16.884  0.1565 -0.3218 -0.0812
  844MPD2    C412402   0.727   0.956  16.848  0.5798 -0.1802 -0.0042
  844MPD2    C512403   0.592   0.938  16.857 -0.6516  0.2225  0.0091
  844MPD2     H12404   0.827   0.660  16.968  1.0093 -1.1899 -2.3455
  844MPD2    H112405   0.760   1.056  16.821 -0.6244  1.0950  3.1868
  844MPD2    H212406   0.427   0.806  16.880  0.3863 -3.8691 -1.5350
  844MPD2    H312407   0.524   1.018  16.829 -3.9195 -1.7857  2.0707
  844MPD2     N12408   0.952   0.866  16.873  0.7583 -0.3973 -0.5115
  844MPD2    H512409   1.004   0.782  16.900 -0.6137 -1.3277 -0.7675
  844MPD2    N112410   0.580   0.586  16.970  0.0364 -0.3865 -0.4494
  844MPD2    H712411   0.648   0.533  17.022  1.3613  0.1205 -1.6708
  845MPD2     C12412   1.610   1.594  17.134 -0.5034 -0.2453 -0.4055
  845MPD2    C112413   1.473   1.588  17.156  0.4037 -0.6216  0.8614
  845MPD2    C212414   1.408   1.467  17.137  0.3603 -0.2843  0.6715
  845MPD2    C312415   1.479   1.361  17.092 -0.0861 -0.3108 -0.1837
  845MPD2    C412416   1.616   1.366  17.082 -0.6742  0.2571  0.1021
  845MPD2    C512417   1.684   1.484  17.099 -0.2886  0.3479 -0.1280
  845MPD2     H12418   1.301   1.458  17.151  0.2561 -1.9514 -1.1276
  845MPD2    H112419   1.675   1.279  17.058 -1.0524 -0.0578  0.3091
  845MPD2    H212420   1.663   1.688  17.128  3.3872 -2.3453  0.7297
  845MPD2    H312421   1.791   1.498  17.086 -0.4166 -0.8407 -2.4624
  845MPD2     N12422   1.399   1.244  17.056 -0.3121  0.2493 -0.1072
  845MPD2    H512423   1.298   1.254  17.063 -0.1857  0.8525  0.9125
  845MPD2    N112424   1.403   1.705  17.175  0.1439  0.2281 -0.1637
  845MPD2    H712425   1.451   1.793  17.165  2.2557 -0.8088  0.8361
  846MPD2     C12426   3.136   1.821  13.073 -0.4454  0.5102  0.6235
  846MPD2    C112427   3.037   1.902  13.126 -0.7679  0.1427 -0.3991
  846MPD2    C212428   2.996   1.873  13.256 -0.1371  0.7897 -0.2090
  846MPD2    C312429   3.050   1.769  13.331 -0.2183  0.2487  0.5456
  846MPD2    C412430   3.145   1.690  13.272  1.2307  0.5903  0.3345
  846MPD2    C512431   3.198   1.716  13.146  0.0094 -0.3670  0.2248
  846MPD2     H12432   2.909   1.930  13.287 -0.0463 -0.1249  1.7281
  846MPD2    H112433   3.201   1.615  13.326  1.5146  1.5631  1.3818
  846MPD2    H212434   3.157   1.833  12.967  0.6415  0.0508  0.7872
  846MPD2    H312435   3.272   1.659  13.091  1.3687  0.0655  1.6264
  846MPD2     N12436   3.002   1.750  13.462  0.0721  1.0671 -0.0230
  846MPD2    H512437   2.923   1.806  13.489  0.7470  0.9877  2.1280
  846MPD2    N112438   2.978   2.010  13.051 -0.2251  0.3658 -0.1034
  846MPD2    H712439   2.913   2.075  13.093 -0.5503 -1.0650  1.6163
  847MPD2     C12440   2.943   2.562  13.449  0.9863 -0.2652  0.0078
  847MPD2    C112441   2.954   2.645  13.555  0.3553  0.2156 -0.2254
  847MPD2    C212442   3.036   2.618  13.659  0.2787 -0.7537 -0.0733
  847MPD2    C312443   3.110   2.500  13.655 -0.5248  0.3532  0.2154
  847MPD2    C412444   3.091   2.405  13.556 -0.1393  0.1791 -0.1748
  847MPD2    C512445   3.020   2.441  13.440 -0.5778  0.1634  1.0098
  847MPD2     H12446   3.056   2.692  13.736  2.3087 -0.7402 -0.6014
  847MPD2    H112447   3.141   2.309  13.562 -1.1274 -0.3745 -0.8066
  847MPD2    H212448   2.876   2.585  13.368 -0.7459  2.3902  2.1998
  847MPD2    H312449   3.004   2.382  13.351 -1.5571  0.8273  0.7473
  847MPD2     N12450   3.199   2.480  13.767  0.4756  0.4045  0.1096
  847MPD2    H512451   3.223   2.559  13.826 -1.0370  1.0239 -0.1214
  847MPD2    N112452   2.881   2.767  13.567 -0.1090  0.0507  0.0869
  847MPD2    H712453   2.889   2.815  13.656  1.7647 -0.0754 -0.0085
  848MPD2     C12454   0.515   1.347  16.779  0.5611  0.6175  0.5780
  848MPD2    C112455   0.645   1.306  16.805  0.5221  0.1286  0.0067
  848MPD2    C212456   0.733   1.310  16.699 -0.2986 -0.8207 -0.4731
  848MPD2    C312457   0.687   1.349  16.574 -0.1717 -0.0888 -0.0312
  848MPD2    C412458   0.554   1.375  16.547  0.2397  0.6048  0.6039
  848MPD2    C512459   0.470   1.379  16.653  0.4625  1.3082  0.2287
  848MPD2     H12460   0.837   1.282  16.711 -0.6338 -1.2353  1.5588
  848MPD2    H112461   0.526   1.399  16.445  1.7968 -1.0294 -0.2176
  848MPD2    H212462   0.449   1.366  16.864 -1.4856  0.9467 -1.0662
  848MPD2    H312463   0.369   1.414  16.635  1.1686  2.1958 -1.9634
  848MPD2     N12464   0.756   1.347  16.454  0.2114 -0.1402 -0.4217
  848MPD2    H512465   0.715   1.343  16.361 -1.2590 -0.2077  0.2286
  848MPD2    N112466   0.687   1.270  16.934 -0.0659 -0.2972  0.0969
  848MPD2    H712467   0.784   1.240  16.940 -0.4535 -1.5499  0.0826
  849MPD2     C12468   4.563   1.135  14.063 -0.4966 -0.4839  0.3430
  849MPD2    C112469   4.684   1.205  14.044  0.4965  0.5700 -0.0654
  849MPD2    C212470   0.050   1.238  14.151 -0.2884 -0.4440 -0.3834
  849MPD2    C312471   0.007   1.215  14.282 -0.3610 -0.3438  0.6629
  849MPD2    C412472   4.601   1.161  14.301 -0.0739  0.1620  0.0033
  849MPD2    C512473   4.515   1.129  14.193 -0.2524 -0.3298 -0.7011
  849MPD2     H12474   0.152   1.273  14.138 -1.1422  2.4050  0.6095
  849MPD2    H112475   4.559   1.156  14.401 -0.2392  1.7611  0.0159
  849MPD2    H212476   4.501   1.101  13.980  0.6432 -0.3962 -0.5419
  849MPD2    H312477   4.418   1.085  14.213  0.5142 -1.9466 -0.5752
  849MPD2     N12478   0.084   1.219  14.398 -0.2856 -0.6193 -0.7044
  849MPD2    H512479   0.043   1.180  14.483  2.4152  1.4105  1.5258
  849MPD2    N112480   4.715   1.231  13.908  0.4880  0.2688 -0.0902
  849MPD2    H712481   4.658   1.178  13.843  0.7174 -1.4369  1.0955
  850MPD2     C12482   2.561   3.602  14.328 -0.5586  0.4433 -0.1278
  850MPD2    C112483   2.531   3.684  14.435 -0.4597  0.1493  0.2483
  850MPD2    C212484   2.635   3.723  14.520 -0.3962  0.2240  0.3779
  850MPD2    C312485   2.766   3.669  14.503 -0.2814  0.4977  0.4838
  850MPD2    C412486   2.782   3.585  14.397 -0.5455 -0.0365  0.0558
  850MPD2    C512487   2.684   3.555  14.302  0.7237  0.3098 -0.2053
  850MPD2     H12488   2.619   3.790  14.605  0.6138  1.8614 -0.7154
  850MPD2    H112489   2.874   3.528  14.386 -1.1857 -0.6248 -2.2809
  850MPD2    H212490   2.478   3.563  14.270  0.4716 -0.0197 -1.2989
  850MPD2    H312491   2.704   3.495  14.214  2.9809 -1.1802  1.3319
  850MPD2     N12492   2.884   3.703  14.583  0.4106  0.4913  0.0212
  850MPD2    H512493   2.970   3.662  14.548 -0.6570  1.1840 -3.4479
  850MPD2    N112494   2.394   3.726  14.454 -0.7971  0.2074 -0.0489
  850MPD2    H712495   2.342   3.718  14.367 -0.0120 -0.8497 -0.4221
  851MPD2     C12496   2.865   3.576  14.999 -0.7047  0.4856  0.1060
  851MPD2    C112497   2.773   3.532  14.906 -0.2512 -0.1904  0.0634
  851MPD2    C212498   2.816   3.462  14.794 -0.3717 -0.4426  0.0349
  851MPD2    C312499   2.939   3.410  14.789  0.7320  0.1080 -1.1758
  851MPD2    C412500   3.031   3.448  14.884 -0.4750 -0.9637 -0.3194
  851MPD2    C512501   2.993   3.532  14.988  0.0527 -0.5245  0.2560
  851MPD2     H12502   2.750   3.445  14.710  0.0027 -1.8197  0.0202
  851MPD2    H112503   3.135   3.418  14.886  0.0801  0.9979  1.0173
  851MPD2    H212504   2.838   3.633  15.087 -0.2111 -0.8971  1.1418
  851MPD2    H312505   3.068   3.551  15.065  1.3194  1.2960 -1.4190
  851MPD2     N12506   2.964   3.330  14.677 -0.7745  0.0445 -0.0838
  851MPD2    H512507   2.893   3.291  14.615 -1.4173  0.8872  0.1322
  851MPD2    N112508   2.638   3.561  14.932  0.0488 -0.2033  0.6972
  851MPD2    H712509   2.621   3.633  15.001 -1.7053  1.7800 -1.8068
  852MPD2     C12510   1.821   1.415   9.759 -0.4601 -0.1174  0.2520
  852MPD2    C112511   1.912   1.435   9.859 -0.9816  0.6448 -0.0434
  852MPD2    C212512   2.028   1.505   9.834 -0.1321 -0.2064  0.0681
  852MPD2    C312513   2.062   1.550   9.710 -0.2489 -0.5103 -0.4549
  852MPD2    C412514   1.983   1.517   9.602  0.6618  0.2775  0.4301
  852MPD2    C512515   1.858   1.457   9.632  0.4098  0.0421  0.1324
  852MPD2     H12516   2.091   1.531   9.919  1.9275 -0.3359 -1.4220
  852MPD2    H112517   2.014   1.558   9.506 -0.0667  3.2182  1.4631
  852MPD2    H212518   1.730   1.358   9.774 -0.0145 -0.8610  0.1569
  852MPD2    H312519   1.787   1.441   9.552 -0.3197  0.3810  0.7003
  852MPD2     N12520   2.193   1.606   9.705  0.4884 -0.0053 -0.0460
  852MPD2    H512521   2.229   1.621   9.798 -0.4413  0.1486  0.2935
  852MPD2    N112522   1.887   1.405   9.990 -0.5543 -0.6771  0.2973
  852MPD2    H712523   1.954   1.436  10.059 -0.4405 -0.0137 -0.1128
  853MPD2     C12524   4.140   1.115  12.216 -0.7528  0.6449  0.7909
  853MPD2    C112525   4.121   1.250  12.173 -0.1157  0.1778  0.0844
  853MPD2    C212526   4.102   1.280  12.041 -0.0067 -0.3209 -0.2463
  853MPD2    C312527   4.096   1.172  11.956  0.2736  0.9035  0.7152
  853MPD2    C412528   4.132   1.047  11.992  0.0011 -0.1133 -0.3338
  853MPD2    C512529   4.140   1.015  12.122 -0.0291  0.0878  0.1873
  853MPD2     H12530   4.087   1.383  12.011 -1.8770  0.3938  3.0682
  853MPD2    H112531   4.148   0.975  11.913 -0.3094  0.0572 -0.5504
  853MPD2    H212532   4.140   1.096  12.323  3.2336 -1.5354  0.4052
  853MPD2    H312533   4.156   0.912  12.150 -0.5987  0.4847  1.9801
  853MPD2     N12534   4.081   1.191  11.816  0.0368 -0.1011  0.7225
  853MPD2    H512535   4.110   1.113  11.757  1.3142  3.2882 -3.0678
  853MPD2    N112536   4.140   1.335  12.284  0.5997 -0.5061 -0.3411
  853MPD2    H712537   4.154   1.283  12.371 -0.7635  1.0966  0.8187
  854MPD2     C12538   1.192   1.989  13.009  0.1404  0.3025 -0.4507
  854MPD2    C112539   1.210   1.930  12.883  0.1717  0.1304 -0.3191
  854MPD2    C212540   1.274   1.808  12.890 -0.3213 -0.4002  0.1041
  854MPD2    C312541   1.331   1.751  13.005  0.1258 -0.7632  0.5782
  854MPD2    C412542   1.311   1.807  13.124  0.5066 -0.3501 -0.5323
  854MPD2    C512543   1.249   1.932  13.122  0.0376  0.2509 -0.2528
  854MPD2     H12544   1.316   1.766  12.799  0.5248 -2.8483  1.6064
  854MPD2    H112545   1.345   1.763  13.217 -1.0761 -0.0213  0.1912
  854MPD2    H212546   1.145   2.087  13.016  0.2031  0.3431 -0.5934
  854MPD2    H312547   1.235   1.984  13.215  1.5224  0.4002 -0.1188
  854MPD2     N12548   1.409   1.632  12.991 -0.3801  0.2316  0.2564
  854MPD2    H512549   1.430   1.593  12.900 -0.6057 -1.4256  0.9134
  854MPD2    N112550   1.147   1.992  12.770 -0.0436  0.2616  0.0249
  854MPD2    H712551   1.082   2.066  12.791 -0.3323  0.1539 -0.4852
  855MPD2     C12552   1.011   0.792  12.921  0.0128  0.0839 -0.2003
  855MPD2    C112553   1.108   0.760  13.010  0.5251 -0.2698 -0.4548
  855MPD2    C212554   1.204   0.859  13.041  0.0525 -0.9196  0.2262
  855MPD2    C312555   1.197   0.988  12.992 -0.6605 -0.5780 -0.4902
  855MPD2    C412556   1.089   1.011  12.912  0.0143  0.0903 -0.2438
  855MPD2    C512557   1.002   0.918  12.872  0.0894 -0.3640  0.3493
  855MPD2     H12558   1.283   0.824  13.106  0.8137 -0.5643 -0.5095
  855MPD2    H112559   1.084   1.111  12.869 -1.3491 -0.1692 -0.6910
  855MPD2    H212560   0.939   0.718  12.886 -0.6028  1.3299 -1.5404
  855MPD2    H312561   0.932   0.931  12.791 -1.0674 -1.5468  1.1503
  855MPD2     N12562   1.288   1.091  13.026  0.4039  1.0245 -0.4021
  855MPD2    H512563   1.275   1.182  12.985 -1.7299  0.5726 -0.7216
  855MPD2    N112564   1.112   0.640  13.083 -0.4144 -0.4135  0.0314
  855MPD2    H712565   1.187   0.646  13.151 -0.9718  1.2531  0.5044
  856MPD2     C12566   3.649   2.315  13.665  0.0518  0.2877 -0.3125
  856MPD2    C112567   3.677   2.421  13.748 -0.2725 -0.0637  0.1071
  856MPD2    C212568   3.621   2.542  13.720  0.0603 -0.1175  0.6224
  856MPD2    C312569   3.539   2.564  13.607 -0.0076  0.1094  0.8171
  856MPD2    C412570   3.523   2.458  13.519  0.4636 -0.8117 -0.2821
  856MPD2    C512571   3.577   2.337  13.546  0.2014  0.3904  0.3027
  856MPD2     H12572   3.626   2.619  13.797 -3.0203 -1.0905  1.7986
  856MPD2    H112573   3.455   2.460  13.435 -1.4646 -0.5378  1.2804
  856MPD2    H212574   3.683   2.213  13.680  0.4526  0.4948  0.1522
  856MPD2    H312575   3.571   2.261  13.469 -0.4948  0.8652 -0.0983
  856MPD2     N12576   3.471   2.687  13.587  0.0804  1.0732 -0.0301
  856MPD2    H512577   3.391   2.685  13.523  0.5265 -0.2290 -0.5334
  856MPD2    N112578   3.767   2.407  13.850  0.0022  0.3941 -0.1342
  856MPD2    H712579   3.793   2.488  13.905  0.6997  1.0307 -1.3952
  857MPD2     C12580   0.305   4.262  12.274  0.0407  0.2826 -0.5105
  857MPD2    C112581   0.407   4.241  12.359  0.7926 -0.3343  0.3066
  857MPD2    C212582   0.449   4.360  12.426  0.3019  0.7577 -0.2351
  857MPD2    C312583   0.410   4.486  12.394 -0.7230  0.3944 -0.9665
  857MPD2    C412584   0.313   4.496  12.297 -0.7686 -0.1708 -0.5819
  857MPD2    C512585   0.261   4.385  12.244  0.2554 -0.4992  0.1981
  857MPD2     H12586   0.522   4.348  12.506  0.8217  0.5822 -0.7409
  857MPD2    H112587   0.266   4.589  12.267  1.4811  1.4849  1.1125
  857MPD2    H212588   0.261   4.172  12.234 -1.3248  1.8439 -2.5393
  857MPD2    H312589   0.175   4.383  12.179 -1.3777  0.6742  2.3406
  857MPD2     N12590   0.476   4.592  12.463 -0.3658  0.5661 -0.3482
  857MPD2    H512591   0.536   4.566  12.541 -1.1778  1.1566  0.4777
  857MPD2    N112592   0.454   4.111  12.370  0.0144 -0.2171  1.0061
  857MPD2    H712593   0.404   4.046  12.309 -1.2197  1.4449  0.2489
  858MPD2     C12594   1.764   3.127  16.184  0.3864 -0.6693  0.5070
  858MPD2    C112595   1.635   3.113  16.216 -0.0364 -0.4377  0.5247
  858MPD2    C212596   1.589   3.172  16.336 -0.5687  0.7884  0.1605
  858MPD2    C312597   1.674   3.255  16.404 -0.1451 -0.5817 -0.4357
  858MPD2    C412598   1.810   3.259  16.377  0.3004 -0.1283 -0.3544
  858MPD2    C512599   1.854   3.200  16.265 -0.5720 -0.1956 -0.5343
  858MPD2     H12600   1.487   3.162  16.373  0.4023 -0.5362  2.4197
  858MPD2    H112601   1.877   3.331  16.423  1.0321  0.9024 -3.0587
  858MPD2    H212602   1.805   3.074  16.099  1.7295 -1.0702  1.4137
  858MPD2    H312603   1.952   3.207  16.218 -1.1624 -0.9810 -1.8840
  858MPD2     N12604   1.638   3.325  16.521 -0.1105  0.6309 -0.0589
  858MPD2    H512605   1.724   3.346  16.571  0.9939 -1.9495 -0.9004
  858MPD2    N112606   1.559   3.027  16.133 -0.0521 -0.4177  1.1656
  858MPD2    H712607   1.613   2.975  16.065 -0.3657  1.5938 -0.6248
  859MPD2     C12608   4.704   0.636  15.208 -0.0775 -0.5673 -0.0548
  859MPD2    C112609   4.642   0.719  15.115 -0.2253  0.6272 -0.3495
  859MPD2    C212610   4.537   0.668  15.037 -0.2002  0.1869  0.3220
  859MPD2    C312611   4.497   0.534  15.034  0.3055  0.0768  0.8405
  859MPD2    C412612   4.565   0.453  15.124  0.1821  0.3074 -0.2542
  859MPD2    C512613   4.672   0.499  15.202  0.4179 -0.3782  0.0389
  859MPD2     H12614   4.493   0.726  14.957 -0.8723  1.0363  1.3077
  859MPD2    H112615   4.536   0.348  15.124  0.9499  0.0999 -0.1748
  859MPD2    H212616   0.061   0.676  15.275  1.7904 -1.0059 -1.8390
  859MPD2    H312617   4.710   0.418  15.264 -0.4328 -0.7318  0.1075
  859MPD2     N12618   4.405   0.463  14.951 -0.3661 -0.7977 -0.2339
  859MPD2    H512619   4.380   0.369  14.980 -3.0522 -0.0918 -0.2848
  859MPD2    N112620   4.692   0.847  15.110 -0.1766  0.4889 -0.7309
  859MPD2    H712621   0.068   0.850  15.149 -1.1987 -1.7573  1.8738
  860MPD2     C12622   1.933   1.301  11.454 -0.1064  0.9290  0.6729
  860MPD2    C112623   2.010   1.373  11.534  0.0601 -0.1832 -0.0550
  860MPD2    C212624   1.956   1.467  11.612  0.2667 -0.1581  0.9568
  860MPD2    C312625   1.823   1.495  11.610  0.6647  0.1045 -0.5174
  860MPD2    C412626   1.740   1.439  11.515  0.1848 -0.3053  0.4790
  860MPD2    C512627   1.803   1.338  11.442  0.1831  0.4207  0.7997
  860MPD2     H12628   2.019   1.524  11.679 -0.3307  0.3555  1.0771
  860MPD2    H112629   1.635   1.465  11.502  0.2407 -1.1516 -1.8417
  860MPD2    H212630   1.973   1.229  11.384 -1.5164 -0.5667  1.4229
  860MPD2    H312631   1.751   1.268  11.377 -1.9518  1.6950  1.1555
  860MPD2     N12632   1.776   1.598  11.702  0.1167  0.5721 -0.1953
  860MPD2    H512633   1.829   1.608  11.789  1.0660 -2.2655 -0.4470
  860MPD2    N112634   2.150   1.346  11.547 -0.3841 -0.6681  0.0776
  860MPD2    H712635   2.186   1.271  11.488 -0.3237 -0.7319  0.1950
  861MPD2     C12636   1.087   3.942  10.852  0.5187 -0.1259  0.2628
  861MPD2    C112637   1.062   4.072  10.890 -0.1377 -0.0319 -0.4287
  861MPD2    C212638   0.960   4.143  10.831 -0.3335  0.2098  0.4457
  861MPD2    C312639   0.866   4.085  10.748  0.4036  0.1010 -0.7027
  861MPD2    C412640   0.889   3.956  10.711 -0.5755 -1.2077 -0.2624
  861MPD2    C512641   0.993   3.883  10.766  0.0953 -0.2113 -0.5703
  861MPD2     H12642   0.947   4.243  10.870 -0.7843  0.5951 -0.6964
  861MPD2    H112643   0.814   3.906  10.650 -0.3674 -0.9212 -0.7559
  861MPD2    H212644   1.163   3.887  10.907 -0.5427 -2.2367 -0.3757
  861MPD2    H312645   1.007   3.779  10.739 -1.5614 -0.7398  0.6152
  861MPD2     N12646   0.744   4.128  10.699 -0.2091 -0.3777  1.1408
  861MPD2    H512647   0.683   4.073  10.639  1.2684 -1.0992  0.2853
  861MPD2    N112648   1.151   4.149  10.980  0.3455 -0.4165 -1.0208
  861MPD2    H712649   1.152   4.250  10.967  1.1983 -0.5963 -2.3443
  862MPD2     C12650   0.439   4.168  10.019  0.4032  0.0039  0.0146
  862MPD2    C112651   0.519   4.116  10.121  0.2994 -0.2290  0.0682
  862MPD2    C212652   0.554   3.986  10.115  0.0116 -0.4595  0.6006
  862MPD2    C312653   0.531   3.906  10.011  0.2323  0.1505  0.3632
  862MPD2    C412654   0.457   3.951   9.907 -0.0350  0.0837 -0.0235
  862MPD2    C512655   0.409   4.082   9.915 -0.2851  0.0750  0.1955
  862MPD2     H12656   0.619   3.964  10.198 -0.5671  0.1399  1.2073
  862MPD2    H112657   0.454   3.890   9.817 -0.9606  0.7914 -0.4657
  862MPD2    H212658   0.389   4.264  10.021  1.6732  0.6618  0.6662
  862MPD2    H312659   0.350   4.132   9.839 -0.5330  1.9547  1.6298
  862MPD2     N12660   0.579   3.774  10.001 -0.5753  0.5061  0.2118
  862MPD2    H512661   0.587   3.728   9.911  1.3521  2.7724 -0.7919
  862MPD2    N112662   0.548   4.181  10.247 -0.1755 -0.1817 -0.5367
  862MPD2    H712663   0.592   4.125  10.318  0.0724  1.6654  0.7802
  863MPD2     C12664   4.578   2.139  16.523 -0.4709 -0.3770 -0.1652
  863MPD2    C112665   4.460   2.122  16.586 -0.4874 -0.2882 -0.0857
  863MPD2    C212666   4.458   2.078  16.719 -0.3601 -0.0976 -0.4836
  863MPD2    C312667   4.583   2.052  16.774  0.5163 -0.0714 -0.3659
  863MPD2    C412668   4.703   2.079  16.704  0.2188 -0.1303 -0.1264
  863MPD2    C512669   4.700   2.122  16.579  0.2046 -0.1630  0.8863
  863MPD2     H12670   4.367   2.065  16.776  1.1676 -0.6389  1.8209
  863MPD2    H112671   0.077   2.055  16.757  0.8571 -1.1212 -1.6629
  863MPD2    H212672   4.582   2.176  16.421 -0.4745  0.0535 -0.0081
  863MPD2    H312673   0.068   2.120  16.513  0.9030  1.0936  1.7569
  863MPD2     N12674   4.605   2.012  16.903 -0.5714  0.3086  0.2506
  863MPD2    H512675   4.699   2.022  16.941 -0.9513 -2.4059  1.9331
  863MPD2    N112676   4.348   2.175  16.518 -0.0703 -0.3358  0.5344
  863MPD2    H712677   4.361   2.214  16.425  0.3086  0.8519  1.0760
  864MPD2     C12678   4.629   3.900  16.597 -0.0559  0.4410  0.3209
  864MPD2    C112679   0.009   3.817  16.553 -0.5030 -0.4461  0.3630
  864MPD2    C212680   0.098   3.861  16.452  0.2837  0.2100  0.0009
  864MPD2    C312681   0.095   3.987  16.396  0.4889  0.5250 -0.3316
  864MPD2    C412682   4.703   4.061  16.428 -0.4307 -0.3077  0.0982
  864MPD2    C512683   4.624   4.020  16.532 -0.0083 -0.4303  0.0038
  864MPD2     H12684   0.160   3.790  16.399 -0.0100  0.3568 -0.5469
  864MPD2    H112685   4.678   4.154  16.377  0.0637 -0.0786  0.2792
  864MPD2    H212686   4.561   3.881  16.680 -0.4937 -0.7969 -0.3255
  864MPD2    H312687   4.542   4.085  16.562  0.4147  0.1457 -0.0936
  864MPD2     N12688   0.194   4.038  16.305  0.0386 -0.3233 -0.2955
  864MPD2    H512689   0.181   4.125  16.255 -0.5681 -0.3469 -0.1734
  864MPD2    N112690   0.003   3.684  16.602  0.4239 -0.1705  0.0875
  864MPD2    H712691   4.637   3.671  16.659 -1.5500  0.0734 -2.7742
  865MPD2     C12692   0.152   3.873  15.440 -0.0561  0.7885  0.3549
  865MPD2    C112693   0.148   3.790  15.544  0.8680  0.7573  0.5481
  865MPD2    C212694   0.181   3.848  15.671  0.7489 -0.0494  0.2664
  865MPD2    C312695   0.217   3.978  15.680  0.6342 -0.2164 -0.3402
  865MPD2    C412696   0.214   4.060  15.568  0.1833 -0.6247 -0.7351
  865MPD2    C512697   0.183   4.006  15.446  0.3581 -0.1415 -0.1156
  865MPD2     H12698   0.173   3.794  15.765 -0.4382 -0.6262 -0.1641
  865MPD2    H112699   0.250   4.162  15.577  1.0924 -0.8348 -1.9944
  865MPD2    H212700   0.140   3.828  15.343  2.8190  1.6592 -0.4036
  865MPD2    H312701   0.171   4.066  15.357 -1.6272 -0.2356  0.0854
  865MPD2     N12702   0.270   4.021  15.803  0.0859 -0.2440  0.1355
  865MPD2    H512703   0.276   3.946  15.871 -0.4660 -0.3204  0.1037
  865MPD2    N112704   0.130   3.653  15.536  0.2339 -0.0223 -0.3870
  865MPD2    H712705   0.120   3.614  15.442 -1.0319  0.3080 -0.3847
  866MPD2     C12706   1.440   4.319  10.382 -0.5083  0.5710 -0.8507
  866MPD2    C112707   1.503   4.378  10.486 -0.1614  0.6980  0.6722
  866MPD2    C212708   1.443   4.481  10.557 -0.3148  0.0174 -0.2395
  866MPD2    C312709   1.317   4.526  10.520  0.7431  0.3919  0.0767
  866MPD2    C412710   1.248   4.466  10.423  0.1456 -0.0275 -0.4262
  866MPD2    C512711   1.319   4.370  10.348  0.7858  0.3879 -0.3100
  866MPD2     H12712   1.504   4.535  10.628  1.3162 -1.5886 -0.4080
  866MPD2    H112713   1.147   4.490  10.393 -0.0947 -1.5626 -0.8257
  866MPD2    H212714   1.487   4.233  10.338  1.6288  0.9175  0.7427
  866MPD2    H312715   1.270   4.334  10.258  1.1195  0.6076 -0.5794
  866MPD2     N12716   1.240   4.623  10.598  0.0673  0.1142  0.6286
  866MPD2    H512717   1.148   4.639  10.557  1.0869  2.5064 -0.7200
  866MPD2    N112718   1.640   4.332  10.508  0.1957  0.2957 -0.2104
  866MPD2    H712719   1.689   4.287  10.431 -0.8549 -0.4764 -0.4340
  867MPD2     C12720   3.851   3.420  16.948 -0.0529 -0.1069 -0.0994
  867MPD2    C112721   3.921   3.419  16.832 -0.3800 -0.2187  0.7533
  867MPD2    C212722   3.929   3.538  16.759  0.2174 -0.1097  0.6320
  867MPD2    C312723   3.855   3.654  16.807 -0.0681 -1.0432 -0.6550
  867MPD2    C412724   3.802   3.648  16.926  0.2144 -0.0506 -0.4113
  867MPD2    C512725   3.796   3.532  16.999 -0.5010  0.6066 -0.1045
  867MPD2     H12726   3.995   3.542  16.674  0.7312  0.7689  1.0687
  867MPD2    H112727   3.760   3.738  16.970  0.8701 -1.4705  3.0765
  867MPD2    H212728   3.856   3.330  17.007 -4.3801 -0.1931  0.0863
  867MPD2    H312729   3.747   3.535  17.095 -0.7797  2.7913 -0.3173
  867MPD2     N12730   3.832   3.773  16.730 -0.7600 -0.1225  0.2668
  867MPD2    H512731   3.785   3.848  16.779 -2.1204 -1.5387  1.1391
  867MPD2    N112732   3.987   3.300  16.800  0.0229 -0.5008 -0.4041
  867MPD2    H712733   3.968   3.217  16.855 -1.2145  1.2963  1.8869
  868MPD2     C12734   0.939   2.910  12.788 -0.1738  0.7849  0.0157
  868MPD2    C112735   0.990   2.803  12.856  0.2136  1.1316 -0.1941
  868MPD2    C212736   0.951   2.774  12.986  1.1487  0.4239  0.2735
  868MPD2    C312737   0.865   2.861  13.047 -0.8338  0.0456 -0.3279
  868MPD2    C412738   0.817   2.972  12.988  0.0891  0.1267 -0.2946
  868MPD2    C512739   0.854   2.997  12.855 -0.2683  0.1021 -0.5761
  868MPD2     H12740   0.987   2.686  13.039  1.0204  2.1629  3.2508
  868MPD2    H112741   0.750   3.042  13.036 -0.3977 -0.8594  0.4537
  868MPD2    H212742   0.959   2.924  12.683 -0.6318 -3.5458 -0.6459
  868MPD2    H312743   0.810   3.087  12.813 -0.9013 -0.4065 -1.0059
  868MPD2     N12744   0.826   2.820  13.178 -0.1144  0.5301  0.7271
  868MPD2    H512745   0.852   2.728  13.212  2.1231  0.9249  0.0458
  868MPD2    N112746   1.087   2.731  12.796  0.4154 -0.0093  0.3534
  868MPD2    H712747   1.123   2.777  12.714  0.5086  0.7343  0.8110
  869MPD2     C12748   1.857   1.745   1.854 -0.3218 -0.1323  0.2645
  869MPD2    C112749   1.813   1.643   1.773  0.5994  0.3880  0.2433
  869MPD2    C212750   1.861   1.630   1.641  0.7589 -0.4182  0.4290
  869MPD2    C312751   1.947   1.731   1.584  0.3738 -0.4047  0.2614
  869MPD2    C412752   1.992   1.830   1.670  0.6323 -0.1309 -1.1083
  869MPD2    C512753   1.955   1.831   1.796 -0.1347 -0.8325 -0.1571
  869MPD2     H12754   1.840   1.538   1.589 -0.5123  0.6928 -1.0190
  869MPD2    H112755   2.038   1.913   1.620  1.6802  1.1403  1.9959
  869MPD2    H212756   1.826   1.751   1.957  1.6433 -1.0448  0.9003
  869MPD2    H312757   1.991   1.915   1.855  1.1803 -1.8828  0.5151
  869MPD2     N12758   1.995   1.735   1.451  0.1012 -0.1834  0.7485
  869MPD2    H512759   2.047   1.817   1.421  0.7902 -0.3724  1.4348
  869MPD2    N112760   1.730   1.546   1.833  0.2273  0.1999 -0.0662
  869MPD2    H712761   1.713   1.566   1.931 -0.6108 -0.8132 -0.0039
  870MPD2     C12762   1.586   4.702   1.347  0.3663 -0.0226  0.0610
  870MPD2    C112763   1.587   4.598   1.257 -0.2790  0.3262 -0.0197
  870MPD2    C212764   1.477   4.562   1.178  0.3258  0.5632 -0.1423
  870MPD2    C312765   1.357   4.620   1.194  0.1702  0.1212  0.9955
  870MPD2    C412766   1.345   0.005   1.287  0.6043 -0.5003 -0.8067
  870MPD2    C512767   1.461   0.039   1.350 -0.3234 -0.3174 -0.5739
  870MPD2     H12768   1.477   4.476   1.112  0.6732  1.3131 -1.1224
  870MPD2    H112769   1.259   0.068   1.309  0.3812 -0.3389 -2.1494
  870MPD2    H212770   1.670   0.011   1.411 -1.0608  0.5957  1.6607
  870MPD2    H312771   1.452   0.123   1.418  3.1294 -1.3627  1.1595
  870MPD2     N12772   1.252   4.579   1.106  0.0872  0.3671 -0.8853
  870MPD2    H512773   1.272   4.495   1.052  1.1111  0.9848 -1.4674
  870MPD2    N112774   1.708   4.521   1.256  0.5460 -0.0761  0.1917
  870MPD2    H712775   1.783   4.556   1.315 -0.3176 -0.1360  1.3053
  871MPD2     C12776   2.746   3.721  15.944 -1.0385 -0.3240  0.2370
  871MPD2    C112777   2.756   3.622  16.039 -0.6952  0.4224 -0.5032
  871MPD2    C212778   2.823   3.507  16.011  0.2117 -0.0161 -0.0856
  871MPD2    C312779   2.863   3.475  15.883  0.1613 -0.2413  0.4646
  871MPD2    C412780   2.838   3.569  15.784 -0.5134  0.4731  0.5374
  871MPD2    C512781   2.788   3.691  15.812 -0.0678  0.7915 -0.2408
  871MPD2     H12782   2.848   3.449  16.100 -3.6525  1.0708  1.6902
  871MPD2    H112783   2.869   3.549  15.682 -0.2274  0.7752  0.5668
  871MPD2    H212784   2.713   3.822  15.967 -0.2790  0.0525 -0.3452
  871MPD2    H312785   2.769   3.754  15.726  0.0527  1.0627 -0.0694
  871MPD2     N12786   2.926   3.351  15.856  0.1596 -0.3511  0.7888
  871MPD2    H512787   2.927   3.279  15.927  0.6393 -1.0678  0.0491
  871MPD2    N112788   2.722   3.664  16.172 -0.3919 -0.5513  0.1005
  871MPD2    H712789   2.706   3.762  16.191 -2.0188 -1.3516  2.7828
  872MPD2     C12790   3.614   1.937  13.455  0.1847 -0.0133 -0.5833
  872MPD2    C112791   3.690   1.849  13.528  0.4559 -0.7132 -0.1843
  872MPD2    C212792   3.631   1.751  13.610 -0.3504  0.4754  0.6523
  872MPD2    C312793   3.500   1.729  13.609 -0.6991  0.5477 -0.5618
  872MPD2    C412794   3.423   1.814  13.530 -0.2553 -0.1840  0.2516
  872MPD2    C512795   3.480   1.915  13.468 -0.2123 -0.5898 -0.1891
  872MPD2     H12796   3.705   1.699  13.671  0.3244  1.9516  1.0956
  872MPD2    H112797   3.319   1.791  13.508 -0.0774  1.6545 -2.5204
  872MPD2    H212798   3.651   2.019  13.394 -0.3726  2.4284  2.4026
  872MPD2    H312799   3.417   1.964  13.395 -0.0729  0.5091  0.4339
  872MPD2     N12800   3.431   1.629  13.681 -0.9408  0.0937  0.6268
  872MPD2    H512801   3.337   1.603  13.655 -1.1490 -0.6220  2.0890
  872MPD2    N112802   3.833   1.863  13.537  0.3024  0.6087  0.1768
  872MPD2    H712803   3.877   1.794  13.598 -3.4932  0.1849  2.4429
  873MPD2     C12804   0.742   2.260   0.490 -0.1370 -0.3737 -0.0160
  873MPD2    C112805   0.841   2.310   0.581  0.8443  0.1962  0.5944
  873MPD2    C212806   0.966   2.253   0.581  0.3066 -0.7443  0.2780
  873MPD2    C312807   0.993   2.151   0.494  0.1629 -0.5774 -0.6837
  873MPD2    C412808   0.905   2.105   0.400  0.4998  0.0358 -0.3489
  873MPD2    C512809   0.784   2.161   0.405  0.1395 -0.5126  0.3702
  873MPD2     H12810   1.043   2.293   0.646  2.7648 -0.8685 -2.5767
  873MPD2    H112811   0.931   2.019   0.338 -0.7172 -0.6619  0.1042
  873MPD2    H212812   0.645   2.303   0.467 -1.0445 -2.4036  0.0285
  873MPD2    H312813   0.710   2.113   0.341 -0.3953  1.0561 -0.1807
  873MPD2     N12814   1.118   2.081   0.491 -0.5634 -0.5061  0.5469
  873MPD2    H512815   1.117   1.997   0.435  0.2780 -1.7202  2.3505
  873MPD2    N112816   0.800   2.404   0.677 -0.5438 -0.2543  0.2442
  873MPD2    H712817   0.700   2.411   0.692 -0.6566 -1.2455 -0.0404
  874MPD2     C12818   0.383   1.493  15.775  0.4321 -0.1746  0.0796
  874MPD2    C112819   0.390   1.389  15.858  0.7828 -0.0556  0.1551
  874MPD2    C212820   0.513   1.357  15.918 -0.0705 -0.7147 -0.3462
  874MPD2    C312821   0.617   1.439  15.893 -0.0072  0.4245 -0.5353
  874MPD2    C412822   0.603   1.547  15.807 -0.3742  0.1575 -0.3998
  874MPD2    C512823   0.489   1.573  15.743 -0.8686 -0.3846  0.1291
  874MPD2     H12824   0.520   1.275  15.989 -0.2428  1.2160  1.9103
  874MPD2    H112825   0.679   1.609  15.761  0.6198 -0.9838 -0.3243
  874MPD2    H212826   0.282   1.518  15.744  1.0496  1.8969 -0.2528
  874MPD2    H312827   0.475   1.661  15.681 -2.6384 -0.4911  0.3588
  874MPD2     N12828   0.732   1.416  15.969  0.0171  0.6755 -0.4301
  874MPD2    H512829   0.728   1.329  16.020 -0.0893  0.2277 -1.2133
  874MPD2    N112830   0.265   1.327  15.899 -0.1967 -0.2587  0.1032
  874MPD2    H712831   0.186   1.381  15.864 -0.3344  0.1148  1.0007
  875MPD2     C12832   1.440   4.555  14.337  0.2826 -1.2468  0.9526
  875MPD2    C112833   1.307   4.559  14.374  0.3110 -0.3227 -0.4249
  875MPD2    C212834   1.256   4.615  14.494 -0.4084 -0.1568  0.6066
  875MPD2    C312835   1.350   4.665  14.580 -0.0808 -0.4509 -0.3381
  875MPD2    C412836   1.481   4.671  14.535  0.1260 -0.0135 -0.1989
  875MPD2    C512837   1.534   4.606  14.427  0.4455  0.4162  0.3223
  875MPD2     H12838   1.149   4.618  14.508 -0.5412 -0.2752 -0.3785
  875MPD2    H112839   1.553   4.708  14.606  0.5250  1.2970 -1.2830
  875MPD2    H212840   1.481   4.507  14.248 -0.7246 -0.6795  0.1803
  875MPD2    H312841   1.641   4.600  14.414  0.4446  0.3925  0.3265
  875MPD2     N12842   1.319   0.012  14.701  0.2283  0.2118  0.1855
  875MPD2    H512843   1.398   0.042  14.756 -1.6895  0.1864  2.9910
  875MPD2    N112844   1.207   4.515  14.286  0.1069 -0.1248  0.2882
  875MPD2    H712845   1.110   4.525  14.316 -0.2947  0.5500 -1.2924
  876MPD2     C12846   4.693   1.050  15.705  0.2886 -0.0193  0.2604
  876MPD2    C112847   0.117   1.035  15.700 -0.0291  1.1452  0.1194
  876MPD2    C212848   0.161   0.929  15.774 -0.2519 -0.4518  0.1609
  876MPD2    C312849   0.083   0.839  15.838  0.0179  0.0063  0.5423
  876MPD2    C412850   4.663   0.859  15.842 -0.4903 -0.8178 -0.2009
  876MPD2    C512851   4.608   0.967  15.779  0.1196  0.1773 -0.9453
  876MPD2     H12852   0.269   0.919  15.779 -0.1863 -0.6561 -1.4875
  876MPD2    H112853   4.603   0.785  15.894 -0.0539  0.6014  2.3540
  876MPD2    H212854   4.646   1.139  15.664 -0.2407 -0.2789  0.3005
  876MPD2    H312855   4.500   0.979  15.777  0.1775  0.9505  0.7793
  876MPD2     N12856   0.143   0.732  15.915 -0.1993 -0.6085  0.2382
  876MPD2    H512857   0.243   0.718  15.924 -0.3228 -1.0598  0.9771
  876MPD2    N112858   0.193   1.127  15.621 -0.1179  0.2854 -0.0214
  876MPD2    H712859   0.132   1.201  15.587 -1.3403 -0.9242 -0.4738
  877MPD2     C12860   0.215   1.725  15.122 -0.1398 -0.2781 -0.4648
  877MPD2    C112861   0.345   1.696  15.139  0.2490 -0.0113 -0.1237
  877MPD2    C212862   0.433   1.760  15.057 -0.1382  0.1726 -0.3414
  877MPD2    C312863   0.385   1.849  14.962  0.5829 -0.4991  0.2199
  877MPD2    C412864   0.252   1.896  14.963  0.4026  0.2470  0.6668
  877MPD2    C512865   0.170   1.826  15.045 -0.3724 -0.8716 -0.7953
  877MPD2     H12866   0.530   1.711  15.058  0.5039  1.4588  1.1265
  877MPD2    H112867   0.208   1.970  14.897  1.0276 -0.8635 -0.9756
  877MPD2    H212868   0.137   1.688  15.187  0.2733 -0.6845 -0.2007
  877MPD2    H312869   0.066   1.856  15.045  0.2517  1.3293 -0.7265
  877MPD2     N12870   0.468   1.899  14.866 -0.2553 -0.0969  0.1451
  877MPD2    H512871   0.422   1.957  14.797  1.7662  0.0944 -1.0240
  877MPD2    N112872   0.385   1.605  15.243 -0.0854 -0.7435 -0.0419
  877MPD2    H712873   0.483   1.599  15.269  0.0041  1.4802  0.1139
  878MPD2     C12874   0.051   0.836  13.008  0.7907 -0.2243 -0.8281
  878MPD2    C112875   0.135   0.941  13.001  0.2662  0.0941 -0.4347
  878MPD2    C212876   0.157   1.016  13.117  0.7583  0.0061  0.3189
  878MPD2    C312877   0.085   0.994  13.240  0.6468  0.4500 -0.0273
  878MPD2    C412878   4.704   0.900  13.237 -0.2989 -0.2754 -0.3879
  878MPD2    C512879   4.705   0.814  13.129 -0.6730  0.1098  1.1047
  878MPD2     H12880   0.225   1.100  13.117  0.8005 -0.0277 -0.3560
  878MPD2    H112881   4.652   0.867  13.326 -0.9768 -1.3042 -1.1719
  878MPD2    H212882   0.029   0.768  12.927 -0.4688 -1.7846  0.8263
  878MPD2    H312883   4.630   0.736  13.135 -0.7529  0.2425  1.9098
  878MPD2     N12884   0.108   1.074  13.351  0.1298  0.1605  0.2089
  878MPD2    H512885   0.201   1.116  13.354 -0.0900  0.5879  0.9514
  878MPD2    N112886   0.189   0.976  12.871 -0.3321 -0.7949  0.1691
  878MPD2    H712887   0.177   0.917  12.790  0.2926  0.4836 -0.8652
  879MPD2     C12888   0.528   2.409  16.991 -0.0123  0.0629 -0.4409
  879MPD2    C112889   0.624   2.326  16.936 -0.9679  0.1983 -0.9185
  879MPD2    C212890   0.599   2.268  16.811 -0.4298  0.7216  0.2181
  879MPD2    C312891   0.482   2.306  16.738  0.1121 -0.3330  0.5100
  879MPD2    C412892   0.384   2.377  16.796 -0.4414  0.0108 -0.3264
  879MPD2    C512893   0.411   2.424  16.921  0.0447  0.2600 -0.6927
  879MPD2     H12894   0.678   2.211  16.764  0.5274  1.4077  1.0216
  879MPD2    H112895   0.294   2.416  16.749 -1.0645 -1.9398 -0.7366
  879MPD2    H212896   0.542   2.458  17.087  2.7920 -3.2093  0.7931
  879MPD2    H312897   0.333   2.477  16.975  0.1238 -0.1959 -0.1202
  879MPD2     N12898   0.460   2.259  16.610  0.3213  0.5972  0.0922
  879MPD2    H512899   0.372   2.283  16.567 -0.5708 -2.5697  0.1703
  879MPD2    N112900   0.739   2.303  17.009 -0.1647 -0.3386  0.3737
  879MPD2    H712901   0.751   2.358  17.093  0.8209  3.2844 -2.1645
  880MPD2     C12902   1.686   3.564   0.190 -0.0891  0.2134 -0.9249
  880MPD2    C112903   1.793   3.647   0.211 -0.0437  0.0937  0.6620
  880MPD2    C212904   1.928   3.608   0.194 -0.7482  0.3407  0.6415
  880MPD2    C312905   1.953   3.476   0.156  0.1869  0.3037  0.2023
  880MPD2    C412906   1.840   3.393   0.133 -0.1971  0.7325  0.2911
  880MPD2    C512907   1.716   3.437   0.150  0.2076 -0.0517 -0.2086
  880MPD2     H12908   2.014   3.672   0.209  0.5100 -1.0154 -0.7979
  880MPD2    H112909   1.855   3.289   0.104 -0.5870  0.6101  0.5242
  880MPD2    H212910   1.581   3.586   0.207 -0.1542 -0.2008 -0.7889
  880MPD2    H312911   1.633   3.372   0.126 -1.2312  1.5870  0.3032
  880MPD2     N12912   2.086   3.439   0.168 -0.1750  0.3414 -0.1367
  880MPD2    H512913   2.146   3.516   0.193  1.7528 -0.8676 -1.0514
  880MPD2    N112914   1.754   3.772   0.260 -0.5240 -0.2308 -0.1727
  880MPD2    H712915   1.658   3.800   0.247 -0.4573  0.3233  0.5208
  881MPD2     C12916   1.780   4.648  17.372  0.6951  0.2558 -0.8711
  881MPD2    C112917   1.792   4.515  17.346  0.2130  0.1739  0.8987
  881MPD2    C212918   1.777   4.424  17.445 -0.1244 -0.2100  0.4885
  881MPD2    C312919   1.760   4.463  17.581  0.2795  0.7704  0.5412
  881MPD2    C412920   1.758   4.599  17.600 -0.0658  0.3588  0.0669
  881MPD2    C512921   1.765   4.691  17.501  0.3666  0.1743 -0.5278
  881MPD2     H12922   1.767   4.317  17.430 -0.0754 -0.0577 -0.6311
  881MPD2    H112923   1.753   4.639   0.028  0.6837  0.9553 -0.1366
  881MPD2    H212924   1.791   4.711  17.285  2.1572  1.1941 -0.0074
  881MPD2    H312925   1.766   0.080  17.521  0.4586  0.3617 -1.5133
  881MPD2     N12926   1.744   4.377   0.021 -0.0731  0.2268 -0.1778
  881MPD2    H512927   1.739   4.423   0.112  0.7281 -0.2489  0.1011
  881MPD2    N112928   1.784   4.481  17.207  0.9656 -0.7865 -0.1598
  881MPD2    H712929   1.751   4.552  17.142 -0.2889 -1.7801 -0.5839
  882MPD2     C12930   0.636   1.711  14.067 -0.0641  0.0622 -0.1205
  882MPD2    C112931   0.559   1.781  14.160 -0.2749  0.2400  0.1588
  882MPD2    C212932   0.422   1.756  14.160 -0.3690 -0.1276 -0.0000
  882MPD2    C312933   0.364   1.649  14.087 -0.1821 -0.6977 -0.3765
  882MPD2    C412934   0.444   1.587  13.998  0.4370  0.5046 -0.3626
  882MPD2    C512935   0.573   1.620  13.982  0.7262  0.0116 -0.1400
  882MPD2     H12936   0.352   1.817  14.216 -0.4167  1.7111 -2.0674
  882MPD2    H112937   0.416   1.497  13.943 -0.2359  1.3521 -1.3981
  882MPD2    H212938   0.741   1.737  14.061 -0.0674  0.1382  0.1255
  882MPD2    H312939   0.624   1.564  13.904 -1.0703  1.4922 -2.4003
  882MPD2     N12940   0.232   1.600  14.115 -0.0127  0.0402 -0.5010
  882MPD2    H512941   0.203   1.531  14.046  3.1998 -0.6909 -1.0984
  882MPD2    N112942   0.620   1.857  14.266 -0.0837  0.5811 -0.2550
  882MPD2    H712943   0.721   1.861  14.267 -0.0287 -0.3945 -2.1217
  883MPD2     C12944   2.312   1.259  15.798  0.3379 -0.0538  0.8783
  883MPD2    C112945   2.399   1.266  15.689 -0.2139  0.3053  0.7161
  883MPD2    C212946   2.533   1.296  15.714  0.3042  0.4249  0.1666
  883MPD2    C312947   2.585   1.311  15.842 -0.6945  0.1227  0.0790
  883MPD2    C412948   2.500   1.284  15.948  0.0902 -1.2914 -0.4588
  883MPD2    C512949   2.366   1.263  15.923  0.1780  0.8972 -0.8969
  883MPD2     H12950   2.600   1.304  15.629  0.5867  0.3307  0.3805
  883MPD2    H112951   2.527   1.310  16.049  0.7188  1.7013 -1.3834
  883MPD2    H212952   2.205   1.247  15.792  0.3907  0.8736 -2.2450
  883MPD2    H312953   2.296   1.245  16.004 -0.1689  3.8959 -0.5265
  883MPD2     N12954   2.724   1.328  15.856  0.0861  0.3446  0.4289
  883MPD2    H512955   2.777   1.341  15.771 -1.1506  0.8044 -0.2657
  883MPD2    N112956   2.348   1.260  15.557  0.0868 -0.3962  0.4002
  883MPD2    H712957   2.417   1.254  15.482  0.2823 -1.8185  0.6944
  884MPD2     C12958   4.104   2.384  14.918 -0.6887  0.0801  0.1206
  884MPD2    C112959   4.050   2.466  14.817 -0.4367 -0.0108  0.0651
  884MPD2    C212960   3.913   2.480  14.811 -0.5052  0.0387  0.3171
  884MPD2    C312961   3.826   2.421  14.904  0.1599 -0.2410 -0.0442
  884MPD2    C412962   3.887   2.345  15.007  0.1736  0.0573  0.5291
  884MPD2    C512963   4.022   2.324  15.009 -0.3159  0.6603  0.7645
  884MPD2     H12964   3.875   2.534  14.726  1.6220 -0.3809 -0.8979
  884MPD2    H112965   3.828   2.307  15.090  1.0429 -0.5918  0.8452
  884MPD2    H212966   4.206   2.377  14.954 -1.6882  0.2693  3.0485
  884MPD2    H312967   4.074   2.261  15.081 -0.2335 -1.5163 -1.1892
  884MPD2     N12968   3.690   2.454  14.895  0.2040  0.4289 -0.4817
  884MPD2    H512969   3.670   2.525  14.824 -2.4587  0.9500  0.7880
  884MPD2    N112970   4.124   2.534  14.721 -0.3123  0.0614 -0.2538
  884MPD2    H712971   4.074   2.597  14.658  0.6289  0.3540 -0.7171
  885MPD2     C12972   2.590   2.497  17.621  0.8099  0.1674 -0.8103
  885MPD2    C112973   2.627   2.387  17.550 -0.0955  0.1242 -0.9864
  885MPD2    C212974   2.640   2.403  17.409 -0.0031 -0.4701 -0.2342
  885MPD2    C312975   2.599   2.524  17.344 -0.0841  0.1956  0.0659
  885MPD2    C412976   2.554   2.629  17.423 -0.1377  0.4833  0.3135
  885MPD2    C512977   2.549   2.613  17.559 -0.4854 -0.2219  0.1371
  885MPD2     H12978   2.676   2.322  17.346 -2.4513 -1.3564 -0.5065
  885MPD2    H112979   2.532   2.730  17.389  0.9280  1.0006  1.1743
  885MPD2    H212980   2.570   2.490   0.054  2.7228 -1.3066 -0.5491
  885MPD2    H312981   2.514   2.700  17.614 -1.9211 -0.3160 -0.6403
  885MPD2     N12982   2.628   2.549  17.209 -0.1073 -0.7947  0.1020
  885MPD2    H512983   2.690   2.486  17.160 -1.5175 -0.1947 -2.4925
  885MPD2    N112984   2.667   2.282  17.629  0.2080  0.2083 -0.3711
  885MPD2    H712985   2.651   2.289   0.056 -0.5098 -1.1530 -0.3829
  886MPD2     C12986   3.769   0.618  15.023 -0.6274  0.0731 -0.9699
  886MPD2    C112987   3.874   0.685  15.083  0.4226  0.1857  0.0775
  886MPD2    C212988   3.852   0.819  15.101  0.2140 -0.2653  0.1803
  886MPD2    C312989   3.740   0.887  15.065 -0.3071 -0.1019  0.7596
  886MPD2    C412990   3.641   0.817  14.998  0.0851  0.3611  0.6374
  886MPD2    C512991   3.660   0.686  14.973 -0.3229 -0.3274 -0.7289
  886MPD2     H12992   3.936   0.872  15.145  0.0636  2.0202 -2.2620
  886MPD2    H112993   3.548   0.856  14.959 -0.9340 -2.2389  0.4652
  886MPD2    H212994   3.769   0.514  14.994  0.5218 -0.1592 -0.1633
  886MPD2    H312995   3.587   0.637  14.909 -2.1477  2.3478 -0.6881
  886MPD2     N12996   3.737   1.024  15.084 -0.3305  0.3762 -0.1998
  886MPD2    H512997   3.826   1.071  15.099 -1.0464  1.3155  1.1102
  886MPD2    N112998   3.988   0.618  15.145  0.2844  0.8567 -0.1422
  886MPD2    H712999   4.051   0.676  15.199 -1.7972  1.3877  1.7021
  887MPD2     C13000   4.594   0.806  15.447  0.4645  0.4233 -0.9130
  887MPD2    C113001   4.462   0.834  15.417 -0.2058 -0.8635  0.0915
  887MPD2    C213002   4.423   0.957  15.383  0.5519  0.4013 -0.0042
  887MPD2    C313003   4.513   1.069  15.393  0.9248 -0.7596 -0.1362
  887MPD2    C413004   4.646   1.035  15.414 -0.2753 -0.9878 -0.4541
  887MPD2    C513005   4.687   0.908  15.440  0.0543  0.6306 -0.3161
  887MPD2     H13006   4.319   0.979  15.367  0.5289 -1.0003 -1.6438
  887MPD2    H113007   0.007   1.110  15.414 -0.4988 -0.7561 -1.8546
  887MPD2    H213008   4.632   0.705  15.454  0.2861  0.3954 -0.3311
  887MPD2    H313009   0.073   0.880  15.457  0.2880  1.8627  0.2487
  887MPD2     N13010   4.458   1.201  15.395  0.5686 -0.0473  0.2512
  887MPD2    H513011   4.357   1.209  15.385  0.4580  0.5172  1.7348
  887MPD2    N113012   4.365   0.733  15.401 -0.1674 -0.8732 -0.5398
  887MPD2    H713013   4.283   0.766  15.350 -1.3055 -0.7838  1.3156
  888MPD2     C13014   1.482   1.089  14.279 -0.2034  0.4402 -0.2850
  888MPD2    C113015   1.482   1.129  14.402  0.2735 -0.4045 -0.2877
  888MPD2    C213016   1.565   1.236  14.440 -0.1808  0.3211  0.7929
  888MPD2    C313017   1.637   1.305  14.352  0.3134  0.4194  0.5360
  888MPD2    C413018   1.629   1.268  14.219  0.1888  0.3562  0.8291
  888MPD2    C513019   1.550   1.157  14.190  0.5219 -0.0240  0.1269
  888MPD2     H13020   1.576   1.251  14.547  0.8499 -0.7250  0.8391
  888MPD2    H113021   1.678   1.320  14.137 -1.8336  0.5718 -0.2471
  888MPD2    H213022   1.420   1.010  14.239  2.2435 -1.8179  0.3965
  888MPD2    H313023   1.553   1.127  14.086 -0.6829 -3.1196  0.9782
  888MPD2     N13024   1.709   1.418  14.396  0.2604 -0.1663  0.2926
  888MPD2    H513025   1.708   1.435  14.496  1.8833 -1.3469  0.5222
  888MPD2    N113026   1.404   1.065  14.498  0.7855 -0.1672  0.5366
  888MPD2    H713027   1.430   1.081  14.595  0.6467 -0.5312  0.6334
  889MPD2     C13028   0.667   0.743  12.494 -0.3855 -0.0160  0.3278
  889MPD2    C113029   0.657   0.679  12.618 -0.6765 -0.3949 -0.1523
  889MPD2    C213030   0.667   0.756  12.731  0.1156 -0.5894 -0.1259
  889MPD2    C313031   0.668   0.896  12.728  1.2293  0.4570 -0.5080
  889MPD2    C413032   0.648   0.959  12.607 -0.5784  0.0586 -0.4065
  889MPD2    C513033   0.655   0.879  12.490 -0.4004  0.9853  0.0882
  889MPD2     H13034   0.636   0.709  12.824 -0.5179 -0.6250 -0.3579
  889MPD2    H113035   0.641   1.066  12.593 -0.5270  0.2201  0.8617
  889MPD2    H213036   0.663   0.686  12.402 -1.9017  0.3548  0.1583
  889MPD2    H313037   0.650   0.926  12.392 -0.8146 -2.3601 -1.5185
  889MPD2     N13038   0.671   0.968  12.854 -0.6798  0.3936  0.0542
  889MPD2    H513039   0.685   0.912  12.938  0.0600 -2.1472 -1.7921
  889MPD2    N113040   0.649   0.540  12.627 -0.8081 -0.4188 -0.3785
  889MPD2    H713041   0.656   0.507  12.723 -1.8582  0.7164  0.0768
  890MPD2     C13042   0.867   2.790  15.321  0.4907  0.7428 -0.1372
  890MPD2    C113043   0.774   2.761  15.236 -0.1873 -0.2657  0.0485
  890MPD2    C213044   0.731   2.626  15.234  0.5348  0.1099 -0.6431
  890MPD2    C313045   0.781   2.532  15.322 -0.4508 -0.4358  0.6070
  890MPD2    C413046   0.880   2.572  15.407  0.4932 -0.1629 -0.6112
  890MPD2    C513047   0.925   2.698  15.402 -0.7530 -0.3527  0.6101
  890MPD2     H13048   0.648   2.589  15.175  0.4615 -0.3180 -0.2818
  890MPD2    H113049   0.933   2.503  15.473  3.2188  0.1274 -2.4879
  890MPD2    H213050   0.900   2.891  15.339  1.8183  0.1798  0.5857
  890MPD2    H313051   0.999   2.733  15.473 -4.6746  1.5205  3.7380
  890MPD2     N13052   0.721   2.411  15.316  0.3360  0.2535  0.1070
  890MPD2    H513053   0.630   2.406  15.272  0.8266  2.0603 -1.1043
  890MPD2    N113054   0.712   2.875  15.171  0.7435  0.4837 -0.9801
  890MPD2    H713055   0.729   2.969  15.206 -0.9890  0.5887 -0.4431
  891MPD2     C13056   2.911   1.057  16.369  0.1022 -0.0002  0.5384
  891MPD2    C113057   2.838   0.977  16.455  0.7927 -0.0166 -0.3539
  891MPD2    C213058   2.908   0.928  16.564 -0.0512  0.0215  0.2431
  891MPD2    C313059   3.049   0.954  16.578 -0.0699 -0.3618  0.2737
  891MPD2    C413060   3.110   1.025  16.482 -0.5630 -0.0492 -0.1688
  891MPD2    C513061   3.043   1.087  16.384 -0.8131 -0.2658 -0.7915
  891MPD2     H13062   2.864   0.860  16.636  1.4665 -0.0085  1.1502
  891MPD2    H113063   3.215   1.050  16.497 -0.3327 -1.1311  0.0029
  891MPD2    H213064   2.866   1.092  16.277 -3.6294  1.6897  2.9988
  891MPD2    H313065   3.096   1.149  16.312 -2.7330  1.2548 -0.8622
  891MPD2     N13066   3.107   0.927  16.705 -0.3769 -0.3895  0.0809
  891MPD2    H513067   3.058   0.877  16.778  1.9854 -0.8500  1.3685
  891MPD2    N113068   2.705   0.954  16.413  0.8478 -0.3404 -0.0343
  891MPD2    H713069   2.670   0.986  16.324 -0.8263  0.1475  0.7949
  892MPD2     C13070   4.183   1.777  14.811  0.0774 -0.0603  0.0247
  892MPD2    C113071   4.189   1.850  14.697  0.5483 -0.3490 -0.1631
  892MPD2    C213072   4.259   1.803  14.590  0.3594  0.1206  0.4979
  892MPD2    C313073   4.329   1.687  14.597 -0.5354 -0.0704  0.2515
  892MPD2    C413074   4.316   1.613  14.710  0.5227 -0.0946  0.3165
  892MPD2    C513075   4.249   1.660  14.817 -0.4113  0.3038  0.5151
  892MPD2     H13076   4.267   1.870  14.505  2.1203 -0.7877 -0.0390
  892MPD2    H113077   4.385   1.532  14.730  1.3794  0.5518 -0.0294
  892MPD2    H213078   4.134   1.803  14.904  1.9188 -0.6825  1.1630
  892MPD2    H313079   4.245   1.608  14.912 -3.0321 -0.8540 -0.2431
  892MPD2     N13080   4.408   1.645  14.482  0.0900 -0.3757  0.4157
  892MPD2    H513081   4.395   1.699  14.397  2.5441 -0.3380  0.0882
  892MPD2    N113082   4.120   1.974  14.681  0.6517  0.2144 -0.1949
  892MPD2    H713083   4.129   2.023  14.592  1.5742  0.1399 -0.1476
  893MPD2     C13084   0.619   0.959   1.343  0.7398  0.4371 -0.1377
  893MPD2    C113085   0.635   0.945   1.205 -1.3834  0.0744  0.0062
  893MPD2    C213086   0.526   0.983   1.125 -0.0426 -0.0276  1.1028
  893MPD2    C313087   0.401   1.016   1.181  0.6266  0.1942 -0.5281
  893MPD2    C413088   0.383   1.019   1.313  0.5896 -0.8848  1.1843
  893MPD2    C513089   0.493   0.990   1.391 -0.1833  0.1420 -0.2284
  893MPD2     H13090   0.535   0.985   1.017 -1.4079 -5.3909  0.9065
  893MPD2    H113091   0.292   1.040   1.368  1.1612  2.3503  0.8972
  893MPD2    H213092   0.699   0.940   1.414  0.6773 -1.6794 -0.6139
  893MPD2    H313093   0.474   1.004   1.496  1.3754  0.4964  0.0102
  893MPD2     N13094   0.286   1.049   1.109  0.1299  0.5020 -0.3842
  893MPD2    H513095   0.202   1.059   1.164  0.2579 -1.9739  0.2620
  893MPD2    N113096   0.765   0.908   1.165 -0.2148 -0.4017 -0.6209
  893MPD2    H713097   0.839   0.911   1.235 -1.7466  2.5666  0.8723
  894MPD2     C13098   4.201   3.218   0.111 -0.3489 -0.4667  0.0474
  894MPD2    C113099   4.131   3.180   0.223  0.2301  0.0134 -0.1478
  894MPD2    C213100   4.089   3.278   0.313 -0.5755  0.6015 -0.3058
  894MPD2    C313101   4.104   3.412   0.280 -0.4325 -0.3707 -0.2204
  894MPD2    C413102   4.177   3.446   0.172  0.5697 -0.2580 -0.5191
  894MPD2    C513103   4.238   3.350   0.092  0.2133 -0.7131 -0.1281
  894MPD2     H13104   4.026   3.249   0.397 -0.2186 -1.5108 -0.7641
  894MPD2    H113105   4.183   3.552   0.148 -0.5101 -0.3475 -1.1790
  894MPD2    H213106   4.234   3.153   0.032 -0.2909  1.6565 -1.6763
  894MPD2    H313107   4.303   3.369   0.008  1.5395  0.8027  1.2438
  894MPD2     N13108   4.046   3.510   0.369  0.4733  0.5793 -0.0417
  894MPD2    H513109   3.989   3.475   0.446 -0.3525 -0.5445 -1.1603
  894MPD2    N113110   4.102   3.049   0.251 -0.1398  0.4953 -0.3765
  894MPD2    H713111   4.045   3.036   0.334  3.0606 -1.1262  1.5803
  895MPD2     C13112   3.494   1.025  13.268 -0.2557  0.3464 -0.0137
  895MPD2    C113113   3.421   0.958  13.174 -0.2702 -0.0719 -0.2485
  895MPD2    C213114   3.427   0.819  13.166 -0.2598  0.1739 -0.5112
  895MPD2    C313115   3.529   0.752  13.227 -0.7546  0.1790 -0.2947
  895MPD2    C413116   3.601   0.817  13.327 -0.1067 -0.3922 -0.4461
  895MPD2    C513117   3.580   0.952  13.344 -0.9753 -0.1051 -0.0057
  895MPD2     H13118   3.381   0.779  13.077 -0.9976  0.2409 -0.1662
  895MPD2    H113119   3.683   0.772  13.381  0.0251  2.0283  1.3770
  895MPD2    H213120   3.483   1.132  13.281 -0.2977  0.3940 -0.4196
  895MPD2    H313121   3.641   1.008  13.414  0.3746 -0.8649 -0.5990
  895MPD2     N13122   3.552   0.624  13.174  0.3647 -0.3495 -0.0228
  895MPD2    H513123   3.488   0.589  13.103 -0.4457  0.5811  0.2514
  895MPD2    N113124   3.338   1.018  13.073  0.4138  0.0220  0.1300
  895MPD2    H713125   3.298   0.953  13.006 -0.8059  0.7284  0.1809
  896MPD2     C13126   1.015   4.167   0.937  0.5573  0.0487  0.8345
  896MPD2    C113127   0.980   4.093   0.822  0.1805  0.2808 -0.0076
  896MPD2    C213128   0.843   4.077   0.792  0.1633  0.6675  0.1358
  896MPD2    C313129   0.745   4.126   0.874  0.1047  0.4599  0.1095
  896MPD2    C413130   0.784   4.210   0.975  0.5272 -0.4975  0.2292
  896MPD2    C513131   0.913   4.228   1.004 -0.4854  0.0961 -0.4053
  896MPD2     H13132   0.808   4.008   0.715  2.4773  0.2047 -0.4837
  896MPD2    H113133   0.721   4.264   1.045 -0.1980  1.4776 -1.9277
  896MPD2    H213134   1.117   4.186   0.967  0.5403  1.1903  0.1375
  896MPD2    H313135   0.940   4.282   1.094  0.2029 -0.5560 -0.2164
  896MPD2     N13136   0.609   4.099   0.833  0.1625 -0.3292  0.0570
  896MPD2    H513137   0.607   4.048   0.746 -2.4942  1.4821 -0.9296
  896MPD2    N113138   1.084   4.025   0.758 -0.1117 -0.3632  0.2645
  896MPD2    H713139   1.176   4.023   0.801 -0.0870 -0.5543  0.2030
  897MPD2     C13140   1.812   0.011  10.481 -0.1861  0.6798  0.1761
  897MPD2    C113141   1.845   0.116  10.556 -0.2012 -0.1618  0.4492
  897MPD2    C213142   1.746   0.194  10.616  0.3141  0.3739  0.2619
  897MPD2    C313143   1.618   0.169  10.576  0.7669  0.2643  0.3209
  897MPD2    C413144   1.588   0.063  10.496  0.1457  0.1656 -0.9026
  897MPD2    C513145   1.688   4.698  10.460 -0.1949 -0.4200 -0.4568
  897MPD2     H13146   1.768   0.291  10.659 -1.8364  0.9101  0.1871
  897MPD2    H113147   1.485   0.037  10.472 -0.6359  1.7223  0.7336
  897MPD2    H213148   1.895   4.671  10.441  0.5296  0.9011  1.3333
  897MPD2    H313149   1.665   4.615  10.393  2.1085 -0.0985 -1.6350
  897MPD2     N13150   1.521   0.251  10.636 -0.1544  0.3747  0.0012
  897MPD2    H513151   1.556   0.318  10.704  2.5286 -1.3970  0.3445
  897MPD2    N113152   1.974   0.172  10.529 -0.2138  0.0887 -0.8302
  897MPD2    H713153   2.026   0.126  10.454 -0.6989  0.3633 -1.3295
  898MPD2     C13154   4.685   0.852  17.385  0.3596  0.3138  0.0077
  898MPD2    C113155   4.603   0.965  17.380 -0.1041  0.2176  0.2469
  898MPD2    C213156   4.508   0.970  17.278 -0.3753 -0.0883 -0.2572
  898MPD2    C313157   4.499   0.868  17.189 -0.1044 -0.4370  0.1192
  898MPD2    C413158   4.578   0.755  17.190  0.6152 -0.2177 -1.1124
  898MPD2    C513159   4.672   0.752  17.290 -0.5983  0.9911  0.0409
  898MPD2     H13160   4.442   1.056  17.272  1.3062  1.2911  0.7012
  898MPD2    H113161   4.574   0.677  17.116 -0.4899  0.7772 -2.0931
  898MPD2    H213162   0.030   0.839  17.473  1.9645  1.1596 -1.0068
  898MPD2    H313163   0.024   0.670  17.304  0.1380  1.8674  1.5640
  898MPD2     N13164   4.405   0.893  17.090 -0.3699  0.1372  0.1430
  898MPD2    H513165   4.357   0.982  17.098 -0.8293 -0.1132  0.1751
  898MPD2    N113166   4.606   1.075  17.475  0.3429 -0.0488  0.0932
  898MPD2    H713167   4.545   1.155  17.461 -0.9652 -0.9612  0.4678
  899MPD2     C13168   4.332   1.615  17.512 -0.2468 -0.2881 -0.0626
  899MPD2    C113169   4.411   1.715  17.563  0.2829  0.1062 -0.2014
  899MPD2    C213170   4.405   1.749   0.025  0.1599 -0.0742  0.3593
  899MPD2    C313171   4.330   1.670   0.111 -0.0219  1.1001  0.0112
  899MPD2    C413172   4.263   1.563   0.059  0.4526 -0.5439 -0.7194
  899MPD2    C513173   4.268   1.535  17.596  0.1669 -0.0482  0.1580
  899MPD2     H13174   4.467   1.832   0.056  0.1899  0.3046 -0.7153
  899MPD2    H113175   4.197   1.502   0.118  1.2731 -0.1190  0.6344
  899MPD2    H213176   4.336   1.579  17.410  0.7431  3.8328 -1.4499
  899MPD2    H313177   4.224   1.441  17.566 -2.8737  1.5619 -0.4678
  899MPD2     N13178   4.302   1.711   0.242 -0.0857 -0.6976  0.0174
  899MPD2    H513179   4.246   1.646   0.295  0.1836 -2.5298 -1.9483
  899MPD2    N113180   4.474   1.792  17.463  0.2730 -0.0581 -0.1655
  899MPD2    H713181   4.474   1.756  17.368 -0.8299  0.0988 -0.2147
  900MPD2     C13182   4.329   3.854  12.362 -0.4468  0.3643  0.4726
  900MPD2    C113183   4.243   3.752  12.316 -0.0548  0.2668  0.2755
  900MPD2    C213184   4.112   3.781  12.276  0.3292 -0.0621  0.2346
  900MPD2    C313185   4.068   3.913  12.275 -0.2361 -0.5291  0.2042
  900MPD2    C413186   4.154   4.012  12.312  0.1376  0.0287  0.2417
  900MPD2    C513187   4.290   3.984  12.340 -0.1785 -0.2254  1.0325
  900MPD2     H13188   4.045   3.708  12.233  0.4621  0.4065 -0.7624
  900MPD2    H113189   4.119   4.114  12.300  2.0292  0.6259 -0.2447
  900MPD2    H213190   4.426   3.830  12.403 -0.9910 -1.1542  0.8580
  900MPD2    H313191   4.355   4.065  12.371 -0.3212  0.3345 -0.0986
  900MPD2     N13192   3.928   3.935  12.242  0.2416 -0.2649  0.2817
  900MPD2    H513193   3.870   3.853  12.230 -0.0724 -0.0319  0.2089
  900MPD2    N113194   4.294   3.621  12.314 -0.6392 -0.0693  0.7722
  900MPD2    H713195   4.392   3.597  12.327 -0.1217  2.8407  2.1048
  901MPD2     C13196   4.176   2.545  12.564  0.0458 -0.2044  0.3211
  901MPD2    C113197   4.303   2.564  12.525 -0.0940  0.0651  0.1169
  901MPD2    C213198   4.352   2.692  12.498  0.1999  0.3110  0.2183
  901MPD2    C313199   4.274   2.807  12.497 -0.3566 -0.4213 -0.6464
  901MPD2    C413200   4.144   2.783  12.535 -0.5330 -0.9395  0.3675
  901MPD2    C513201   4.099   2.659  12.575  0.2255 -0.5015  0.1804
  901MPD2     H13202   4.458   2.701  12.475 -0.2605  1.7512 -1.3079
  901MPD2    H113203   4.076   2.865  12.554  0.1290 -0.7650  1.9524
  901MPD2    H213204   4.138   2.450  12.601 -1.8337  0.5847  0.3972
  901MPD2    H313205   3.996   2.647  12.606  0.1087  0.5183  0.1879
  901MPD2     N13206   4.321   2.936  12.466 -0.4111  0.1515  0.5037
  901MPD2    H513207   4.418   2.939  12.438 -0.4243  1.9743  0.6011
  901MPD2    N113208   4.374   2.446  12.517 -0.1921 -0.9862  0.3929
  901MPD2    H713209   4.325   2.362  12.548 -0.7004 -1.0953 -0.7288
  902MPD2     C13210   3.824   1.584  12.779  0.1051 -0.0632 -0.5496
  902MPD2    C113211   3.696   1.633  12.743 -0.1882  0.5380 -0.6568
  902MPD2    C213212   3.645   1.614  12.616 -0.3331 -0.3296 -0.3487
  902MPD2    C313213   3.718   1.530  12.529  1.0866 -0.3100  0.5900
  902MPD2    C413214   3.835   1.480  12.570  0.2608  0.1047  1.2441
  902MPD2    C513215   3.893   1.507  12.690 -0.5127 -0.3505  0.6551
  902MPD2     H13216   3.557   1.665  12.580 -0.5186 -0.9356 -0.7631
  902MPD2    H113217   3.901   1.433  12.498 -0.0541  0.5585  0.6569
  902MPD2    H213218   3.868   1.602  12.877 -0.9554  0.2048 -0.1247
  902MPD2    H313219   3.986   1.455  12.709  0.2452  0.8427  0.2075
  902MPD2     N13220   3.680   1.494  12.405  0.3461 -0.7361  0.3645
  902MPD2    H513221   3.723   1.413  12.362  1.1230  0.7358 -1.5689
  902MPD2    N113222   3.632   1.713  12.842  0.0301 -0.0427  0.1521
  902MPD2    H713223   3.684   1.726  12.928  0.2204  0.3049 -0.0128
  903MPD2     C13224   3.222   1.372  11.624  0.4932  0.4571  0.2305
  903MPD2    C113225   3.185   1.383  11.759  0.5029  0.6550 -0.1761
  903MPD2    C213226   3.047   1.382  11.795  0.9280 -0.0456  0.0729
  903MPD2    C313227   2.953   1.383  11.696  0.6272 -0.0379 -0.5058
  903MPD2    C413228   2.993   1.371  11.564 -0.2445 -0.8166  0.8119
  903MPD2    C513229   3.126   1.364  11.528  0.0947 -0.3699  0.2081
  903MPD2     H13230   3.018   1.389  11.900  2.5352  1.7994  0.3858
  903MPD2    H113231   2.927   1.370  11.477  1.9653  0.2231 -0.8733
  903MPD2    H213232   3.326   1.361  11.597  0.4446 -0.4130  0.3939
  903MPD2    H313233   3.149   1.366  11.421  0.8444 -0.1539  0.3712
  903MPD2     N13234   2.822   1.385  11.737  0.2831  0.0600 -0.2703
  903MPD2    H513235   2.806   1.374  11.836  0.8054  2.0431  0.0459
  903MPD2    N113236   3.294   1.396  11.850 -0.2908  0.2023 -0.3803
  903MPD2    H713237   3.388   1.380  11.816 -0.4090 -0.5525 -0.3521
  904MPD2     C13238   2.806   0.493  13.467 -0.1074 -0.4328  0.6071
  904MPD2    C113239   2.908   0.595  13.474 -0.1363 -0.3991  0.2020
  904MPD2    C213240   3.020   0.564  13.541 -0.5159 -0.6413  0.1436
  904MPD2    C313241   3.054   0.441  13.597 -0.7347  0.1988  0.3068
  904MPD2    C413242   2.959   0.346  13.583  0.2477 -0.0171 -0.0187
  904MPD2    C513243   2.834   0.371  13.520  0.1596 -0.2542 -1.0131
  904MPD2     H13244   3.099   0.639  13.546  0.4942 -1.6554 -0.4414
  904MPD2    H113245   2.975   0.243  13.612  1.8363  0.5508  1.0883
  904MPD2    H213246   2.706   0.504  13.426 -0.9378  1.8788  3.2822
  904MPD2    H313247   2.763   0.289  13.526  0.1246 -0.2519 -1.4449
  904MPD2     N13248   3.187   0.415  13.649 -0.3116 -0.2553  0.0891
  904MPD2    H513249   3.263   0.481  13.635  0.6205 -1.5260 -0.8513
  904MPD2    N113250   2.887   0.726  13.425 -0.0187  0.4133 -0.1044
  904MPD2    H713251   2.966   0.790  13.424  0.2984 -0.0103 -2.1213
  905MPD2     C13252   2.843   0.503  12.902  0.2771  0.3044 -0.1291
  905MPD2    C113253   2.938   0.603  12.905 -0.2615  0.4920  0.2277
  905MPD2    C213254   3.070   0.562  12.899 -0.3251 -0.3832  0.4053
  905MPD2    C313255   3.101   0.427  12.895 -0.6214  0.0193  0.3891
  905MPD2    C413256   3.004   0.336  12.857  1.2473  0.0827  0.6111
  905MPD2    C513257   2.871   0.377  12.872 -0.2137 -0.1417 -0.7775
  905MPD2     H13258   3.157   0.626  12.909  1.3495 -1.8428 -4.7833
  905MPD2    H113259   3.033   0.233  12.836 -2.4744 -0.2140 -3.1032
  905MPD2    H213260   2.739   0.525  12.922  0.3524  1.1995 -0.7127
  905MPD2    H313261   2.796   0.300  12.858 -1.6192  1.4800 -2.2171
  905MPD2     N13262   3.230   0.373  12.910 -0.3720  0.4139  0.8117
  905MPD2    H513263   3.236   0.272  12.914 -0.8145  0.3646  0.2341
  905MPD2    N113264   2.896   0.740  12.940  0.0872 -0.2296 -1.0257
  905MPD2    H713265   2.796   0.754  12.945  0.1552  0.2375 -0.9653
  906MPD2     C13266   0.446   0.664  11.055 -0.2379 -0.1945 -0.3093
  906MPD2    C113267   0.402   0.575  10.958 -0.0041  0.1036 -0.1410
  906MPD2    C213268   0.386   0.443  11.003 -0.0590  0.7577  0.2934
  906MPD2    C313269   0.393   0.403  11.135 -0.0125  0.0055 -1.1799
  906MPD2    C413270   0.434   0.491  11.228 -0.3164  0.1089 -0.1511
  906MPD2    C513271   0.457   0.621  11.185 -0.5489 -0.5573  0.1020
  906MPD2     H13272   0.343   0.381  10.925 -0.8177  0.8842  0.6038
  906MPD2    H113273   0.420   0.468  11.333  0.8709 -0.0107 -0.0134
  906MPD2    H213274   0.481   0.765  11.041 -0.9443 -0.2507 -2.4943
  906MPD2    H313275   0.495   0.689  11.261 -0.7904 -0.7923  0.4310
  906MPD2     N13276   0.351   0.275  11.173  0.3679 -0.3495  0.6687
  906MPD2    H513277   0.354   0.261  11.274  1.6124  2.6786  1.0546
  906MPD2    N113278   0.353   0.611  10.825 -0.4460  0.2617 -0.0707
  906MPD2    H713279   0.344   0.538  10.756 -0.3873  0.1900 -0.0029
  907MPD2     C13280   4.384   4.399  15.363 -0.4490 -0.6312  0.2950
  907MPD2    C113281   4.318   4.281  15.396 -0.1830  0.2797 -0.1494
  907MPD2    C213282   4.374   4.193  15.485 -0.9105  0.6047 -0.1996
  907MPD2    C313283   4.481   4.224  15.558  0.0708 -0.6630  0.0119
  907MPD2    C413284   4.557   4.331  15.509 -0.7512 -0.1628  0.0335
  907MPD2    C513285   4.513   4.423  15.418 -0.2389 -0.0161  0.3096
  907MPD2     H13286   4.322   4.101  15.511 -1.3757  0.5899 -1.1792
  907MPD2    H113287   4.657   4.351  15.545 -0.4153 -0.6521 -0.6338
  907MPD2    H213288   4.349   4.457  15.279 -0.5218 -1.4544 -0.2429
  907MPD2    H313289   4.560   4.518  15.395  1.5879 -1.0088 -0.0708
  907MPD2     N13290   4.503   4.149  15.676 -0.8773 -0.1862  0.2684
  907MPD2    H513291   4.434   4.079  15.699  0.2512 -1.1209  0.8223
  907MPD2    N113292   4.203   4.239  15.327 -0.0860  0.3701  0.3802
  907MPD2    H713293   4.180   4.142  15.342  0.5328  0.1598 -0.0472
  908MPD2     C13294   2.295   4.522   9.919 -0.2929  0.0258  0.3135
  908MPD2    C113295   2.171   4.542   9.980 -0.2060  0.8627 -0.6086
  908MPD2    C213296   2.150   4.656  10.061  0.5734  0.1225 -0.1755
  908MPD2    C313297   2.245   0.035  10.083  0.2745 -0.2341 -0.6174
  908MPD2    C413298   2.366   0.008  10.018 -0.0317 -0.2605 -0.0674
  908MPD2    C513299   2.390   4.616   9.945  0.7217  0.3864 -0.1728
  908MPD2     H13300   2.050   4.672  10.099  1.3353  2.9466  0.6408
  908MPD2    H113301   2.442   0.084  10.033  0.1589 -0.5548  0.4866
  908MPD2    H213302   2.331   4.437   9.863  0.2603  0.2203  0.3720
  908MPD2    H313303   2.494   4.615   9.916  0.9095 -2.0362  0.5847
  908MPD2     N13304   2.221   0.149  10.166  0.4173  0.2957 -0.1068
  908MPD2    H513305   2.128   0.170  10.199  0.3753  0.0387 -0.0601
  908MPD2    N113306   2.061   4.448   9.962  0.1198 -0.0410  0.0766
  908MPD2    H713307   1.979   4.472  10.016 -0.2219  0.3892 -0.6428
  909MPD2     C13308   2.399   3.373  11.828 -0.2736 -0.4435 -0.3823
  909MPD2    C113309   2.311   3.415  11.725 -0.1642  0.1761 -0.0674
  909MPD2    C213310   2.179   3.445  11.759 -0.1916  0.4864 -1.1174
  909MPD2    C313311   2.133   3.428  11.889  0.9824  0.8621  0.4113
  909MPD2    C413312   2.221   3.396  11.988  0.2982  0.3813 -0.2045
  909MPD2    C513313   2.348   3.372  11.955  0.1128  0.0511 -0.0808
  909MPD2     H13314   2.106   3.467  11.683 -2.0222 -1.8327 -0.0067
  909MPD2    H113315   2.195   3.378  12.092 -0.0358 -0.5774 -0.4573
  909MPD2    H213316   2.505   3.367  11.805 -0.8127  0.5114 -3.1039
  909MPD2    H313317   2.424   3.344  12.027 -1.1487 -0.8319  0.9018
  909MPD2     N13318   1.996   3.457  11.914 -0.0456  0.5978  0.5909
  909MPD2    H513319   1.935   3.488  11.839 -1.7215 -0.6934  1.4090
  909MPD2    N113320   2.349   3.416  11.589 -0.0291  0.1256 -0.3115
  909MPD2    H713321   2.276   3.453  11.530  1.2772  2.4688 -0.4460
  910MPD2     C13322   2.908   0.148  15.311  0.5362 -0.0430  0.3004
  910MPD2    C113323   3.029   0.175  15.263  0.2694  0.0971 -0.2029
  910MPD2    C213324   3.055   0.200  15.130  0.0181 -0.6763 -0.5300
  910MPD2    C313325   2.957   0.210  15.032  0.8036  0.5624  0.4560
  910MPD2    C413326   2.831   0.177  15.080  0.8009  0.2928  0.1608
  910MPD2    C513327   2.808   0.145  15.213  0.3085 -0.4841  0.0264
  910MPD2     H13328   3.158   0.229  15.111 -0.1942 -0.2682 -1.0603
  910MPD2    H113329   2.752   0.168  15.006  0.1705  0.7584  0.7794
  910MPD2    H213330   2.878   0.121  15.411 -1.9186 -1.5366 -0.8434
  910MPD2    H313331   2.708   0.116  15.241  0.9911 -0.8819  2.0730
  910MPD2     N13332   2.961   0.254  14.896  0.2767 -0.1254 -0.4952
  910MPD2    H513333   2.876   0.248  14.841  1.1046 -0.4335 -1.7613
  910MPD2    N113334   3.140   0.148  15.347  0.1142 -0.3775  0.2992
  910MPD2    H713335   3.234   0.146  15.309  1.0559  0.5973  2.5825
  911MPD2     C13336   1.085   1.087  16.491 -0.1180  0.0995 -0.0736
  911MPD2    C113337   1.146   1.058  16.369  0.1482  0.7412  0.4366
  911MPD2    C213338   1.073   0.994  16.272 -0.1373  0.0851  0.0599
  911MPD2    C313339   0.937   0.964  16.296  0.7280  0.0232 -0.0574
  911MPD2    C413340   0.879   1.009  16.419 -0.4956 -0.7091  0.5274
  911MPD2    C513341   0.959   1.062  16.515 -0.1750 -0.0003 -0.1939
  911MPD2     H13342   1.116   0.960  16.179  0.4325  1.0491 -0.0349
  911MPD2    H113343   0.775   0.989  16.442 -0.6542 -1.2540 -0.6832
  911MPD2    H213344   1.132   1.151  16.566  0.4424 -2.5507  1.8231
  911MPD2    H313345   0.919   1.089  16.612 -0.9148 -0.3115 -0.4067
  911MPD2     N13346   0.857   0.885  16.214  0.3600 -0.1976  0.1386
  911MPD2    H513347   0.780   0.834  16.256 -0.1961  0.4601 -0.0841
  911MPD2    N113348   1.286   1.072  16.367  0.7983  0.1184  0.4525
  911MPD2    H713349   1.333   1.119  16.444  0.6055 -2.8582  2.3861
  912MPD2     C13350   0.736   0.086  16.297  0.4560 -0.9567  0.3289
  912MPD2    C113351   0.706   0.225  16.322 -0.3332  0.1982  0.3015
  912MPD2    C213352   0.635   0.248  16.439 -0.2114  0.0472  0.4001
  912MPD2    C313353   0.598   0.146  16.529 -0.2092 -0.6216 -0.8633
  912MPD2    C413354   0.617   0.014  16.493  0.1954 -0.1975  0.9619
  912MPD2    C513355   0.692   4.708  16.383 -0.2677 -0.5245 -0.2495
  912MPD2     H13356   0.595   0.346  16.462  3.4651  1.3807  1.2286
  912MPD2    H113357   0.579   4.647  16.550 -1.4671  0.6350  1.0959
  912MPD2    H213358   0.793   0.055  16.210 -0.9182 -1.7992 -0.2841
  912MPD2    H313359   0.729   4.607  16.365  0.6556 -0.3107  0.4306
  912MPD2     N13360   0.541   0.181  16.652 -0.2697  0.4464  0.1154
  912MPD2    H513361   0.538   0.280  16.673  0.2027  0.5775 -0.4277
  912MPD2    N113362   0.744   0.315  16.219 -0.7171  0.9833 -0.0781
  912MPD2    H713363   0.793   0.279  16.138 -0.0187  1.8788 -0.0577
  913MPD2     C13364   1.506   1.971  10.207 -0.6450 -0.0182  0.6540
  913MPD2    C113365   1.621   2.033  10.215  0.3056 -0.1259 -0.9162
  913MPD2    C213366   1.672   2.089  10.102  1.0851  0.4526 -0.2938
  913MPD2    C313367   1.613   2.080   9.978  0.0803 -0.2993  0.1587
  913MPD2    C413368   1.498   2.010   9.971 -0.5309 -0.1865 -0.4469
  913MPD2    C513369   1.445   1.965  10.087  0.3580  0.2178  0.5708
  913MPD2     H13370   1.764   2.145  10.115  1.6880 -0.6425  0.1582
  913MPD2    H113371   1.438   1.982   9.885 -0.0512 -0.9153 -0.5373
  913MPD2    H213372   1.457   1.930  10.295 -0.8160 -1.1276  0.0323
  913MPD2    H313373   1.347   1.921  10.075 -0.2286  1.4940  0.7324
  913MPD2     N13374   1.668   2.139   9.859  0.0031  0.2595  0.4273
  913MPD2    H513375   1.614   2.134   9.773  1.1064 -0.4979 -0.2198
  913MPD2    N113376   1.678   2.044  10.337  0.2802  0.5145 -0.0296
  913MPD2    H713377   1.625   2.018  10.419 -1.3565  3.5413 -0.1414
  914MPD2     C13378   4.001   1.900  11.967 -0.0433 -0.3331  0.0632
  914MPD2    C113379   4.014   2.041  11.980 -0.2691  0.4679 -0.4379
  914MPD2    C213380   4.110   2.083  12.068 -0.4888  1.1314 -0.6826
  914MPD2    C313381   4.185   1.994  12.141 -0.3352  0.7536 -0.1237
  914MPD2    C413382   4.174   1.860  12.117  0.4444  0.2779  0.7791
  914MPD2    C513383   4.091   1.808  12.022 -0.2532 -0.4650 -0.2118
  914MPD2     H13384   4.131   2.189  12.079  1.2168  0.6238  1.0510
  914MPD2    H113385   4.253   1.797  12.156  0.0297 -0.9372 -0.3480
  914MPD2    H213386   3.924   1.865  11.900 -0.7928  1.0593  0.1964
  914MPD2    H313387   4.084   1.700  12.009 -1.6900 -0.6843  2.2901
  914MPD2     N13388   4.288   2.047  12.226 -0.1933 -0.2401  0.5277
  914MPD2    H513389   4.280   2.148  12.226 -1.9734 -0.3807  0.8512
  914MPD2    N113390   3.936   2.133  11.903  0.0307 -0.2846  0.1892
  914MPD2    H713391   3.890   2.095  11.821  0.2720 -0.4746  0.1418
  915MPD2     C13392   2.704   1.813  15.461 -0.5378  0.0235 -0.3122
  915MPD2    C113393   2.566   1.798  15.439 -0.4337 -0.3633  0.2431
  915MPD2    C213394   2.477   1.857  15.521 -0.1141 -0.0120 -0.0483
  915MPD2    C313395   2.521   1.947  15.617 -0.6486 -0.2495  0.4103
  915MPD2    C413396   2.654   1.965  15.643  0.5392  0.3022  0.4015
  915MPD2    C513397   2.741   1.896  15.564 -0.5351 -0.0309 -0.2775
  915MPD2     H13398   2.371   1.860  15.499 -0.8264  1.5804  3.6400
  915MPD2    H113399   2.690   2.021  15.729  1.1174  1.3865 -0.5336
  915MPD2    H213400   2.773   1.760  15.397 -0.0483  1.5828 -1.0943
  915MPD2    H313401   2.847   1.905  15.585 -0.8081 -2.0006  1.9399
  915MPD2     N13402   2.422   1.991  15.710  0.1048  0.4577 -0.0707
  915MPD2    H513403   2.323   1.979  15.694 -0.8367  2.9185  3.9201
  915MPD2    N113404   2.521   1.711  15.335 -0.1621  0.5122  0.7109
  915MPD2    H713405   2.597   1.675  15.279  0.0815  1.5777  0.3471
  916MPD2     C13406   0.661   0.567  15.693 -0.2067 -0.0454  0.2249
  916MPD2    C113407   0.611   0.454  15.752 -0.2686 -0.1983 -0.1982
  916MPD2    C213408   0.632   0.330  15.704 -0.5276  0.4951 -0.3173
  916MPD2    C313409   0.697   0.318  15.579  0.1157  0.2336  0.1277
  916MPD2    C413410   0.757   0.430  15.526 -0.1685  0.6726 -0.3828
  916MPD2    C513411   0.742   0.554  15.586 -0.4013  0.2087 -0.1275
  916MPD2     H13412   0.584   0.250  15.758 -0.1421 -1.2707 -2.5847
  916MPD2    H113413   0.798   0.431  15.425  0.9847  3.6726  0.1141
  916MPD2    H213414   0.646   0.661  15.746  1.6704 -0.9002  2.2772
  916MPD2    H313415   0.784   0.639  15.532  0.3916 -0.3156 -0.3325
  916MPD2     N13416   0.699   0.194  15.512  0.5284  0.1016 -0.6685
  916MPD2    H513417   0.661   0.114  15.562  0.3195  0.5255 -0.1559
  916MPD2    N113418   0.531   0.482  15.863 -0.4022 -0.3780 -0.3354
  916MPD2    H713419   0.499   0.577  15.876  0.7504 -0.0826  0.3417
  917MPD2     C13420   0.875   2.755  10.764  0.4958 -0.3035  0.0136
  917MPD2    C113421   0.959   2.789  10.871  0.6336 -0.3883  0.9738
  917MPD2    C213422   1.082   2.841  10.837  0.2454 -0.1854 -0.1726
  917MPD2    C313423   1.123   2.870  10.702  0.1735 -1.0401 -0.0899
  917MPD2    C413424   1.034   2.837  10.600 -0.5875 -0.1092  0.1374
  917MPD2    C513425   0.911   2.780  10.631 -0.4173 -1.1173  0.4315
  917MPD2     H13426   1.156   2.863  10.914  0.6911 -0.7140 -0.4510
  917MPD2    H113427   1.060   2.854  10.496 -1.3604 -2.3847 -0.4342
  917MPD2    H213428   0.776   2.714  10.780 -0.8694  2.7211 -0.6676
  917MPD2    H313429   0.845   2.745  10.553  1.0660  1.8157 -2.1201
  917MPD2     N13430   1.242   2.922  10.661  0.2575  0.3471 -0.0659
  917MPD2    H513431   1.240   2.957  10.565 -1.0028  0.2946 -0.0603
  917MPD2    N113432   0.919   2.772  11.007  0.2495  0.0415 -0.1349
  917MPD2    H713433   0.832   2.722  11.024  0.1000 -0.1785 -1.5964
  918MPD2     C13434   1.231   3.305  11.725  0.6274  0.3064  0.1418
  918MPD2    C113435   1.294   3.179  11.735 -0.0380  0.0480 -0.2231
  918MPD2    C213436   1.216   3.067  11.707 -0.0817  0.9542  0.1270
  918MPD2    C313437   1.086   3.083  11.655 -0.0306 -0.0314 -0.7711
  918MPD2    C413438   1.027   3.209  11.651  0.5653 -0.3249 -0.2631
  918MPD2    C513439   1.101   3.323  11.684  0.0198  0.1067  1.2095
  918MPD2     H13440   1.260   2.968  11.718 -2.4849 -0.1904 -0.7119
  918MPD2    H113441   0.927   3.231  11.615  0.0170  2.0427  2.7377
  918MPD2    H213442   1.277   3.398  11.757  0.1316  0.8583 -0.7659
  918MPD2    H313443   1.063   3.424  11.679 -0.3912 -0.1078  0.0505
  918MPD2     N13444   1.023   2.975  11.591 -0.1268 -0.1938 -0.3676
  918MPD2    H513445   1.078   2.892  11.573 -0.1848 -0.2520 -0.2792
  918MPD2    N113446   1.428   3.160  11.781 -0.9098 -1.1634  0.3050
  918MPD2    H713447   1.452   3.063  11.802  1.9042 -1.0723 -2.4589
  919MPD2     C13448   1.330   2.055  11.401  0.6391  0.0607 -0.2316
  919MPD2    C113449   1.303   1.920  11.372  0.7263  0.6343 -0.1616
  919MPD2    C213450   1.320   1.883  11.237  0.2131  0.3230  0.4406
  919MPD2    C313451   1.367   1.975  11.142 -0.5634  0.1137  0.3247
  919MPD2    C413452   1.387   2.109  11.174  0.0069  0.0209 -0.1094
  919MPD2    C513453   1.382   2.138  11.309 -0.5266 -0.5215  0.4807
  919MPD2     H13454   1.312   1.776  11.221  0.5906  0.6648 -1.9109
  919MPD2    H113455   1.421   2.181  11.101 -0.9426 -0.2702 -0.8437
  919MPD2    H213456   1.307   2.089  11.502 -1.9794 -1.5108 -0.2895
  919MPD2    H313457   1.384   2.240  11.346  0.4632 -0.2589 -0.3185
  919MPD2     N13458   1.400   1.939  11.008 -0.6511 -0.2100  0.2930
  919MPD2    H513459   1.421   2.012  10.941  0.6902 -1.3392 -0.5093
  919MPD2    N113460   1.271   1.825  11.470  0.1285  0.3225 -0.2320
  919MPD2    H713461   1.250   1.731  11.437 -2.6159  1.3949 -1.5356
  920MPD2     C13462   1.219   2.313  10.119 -0.1185  0.3380  0.2596
  920MPD2    C113463   1.122   2.224  10.143  0.8265 -0.3119 -0.5546
  920MPD2    C213464   1.133   2.147  10.259  0.3061 -0.5277  0.1292
  920MPD2    C313465   1.242   2.150  10.344 -0.0068  0.6982 -0.0510
  920MPD2    C413466   1.335   2.240  10.315  0.3368  0.7215  0.1252
  920MPD2    C513467   1.325   2.327  10.207 -0.1827 -0.0312 -0.7938
  920MPD2     H13468   1.049   2.091  10.298 -0.6934  1.5263  0.9115
  920MPD2    H113469   1.416   2.275  10.378  0.8801  0.7915 -0.6136
  920MPD2    H213470   1.222   2.388  10.041 -1.0557  0.9507  0.8224
  920MPD2    H313471   1.403   2.402  10.201  1.3390 -1.6642 -1.3434
  920MPD2     N13472   1.251   2.062  10.450  0.3090  0.7753 -0.3738
  920MPD2    H513473   1.169   2.003  10.461  0.2134  1.1352  0.8522
  920MPD2    N113474   0.999   2.215  10.076  0.2814 -0.4852 -0.6290
  920MPD2    H713475   0.939   2.142  10.113 -1.0705 -0.4801 -2.7900
  921MPD2     C13476   2.038   1.233  16.690  0.4511 -0.2461  0.1205
  921MPD2    C113477   2.013   1.116  16.614  0.3825  0.4581 -0.2500
  921MPD2    C213478   1.887   1.061  16.607  0.0356  0.2864 -0.2184
  921MPD2    C313479   1.789   1.111  16.688 -0.3093 -0.2937 -0.3160
  921MPD2    C413480   1.827   1.212  16.779 -1.3029 -0.2365  0.3899
  921MPD2    C513481   1.942   1.270  16.779  0.9660  0.7631  0.1526
  921MPD2     H13482   1.866   0.962  16.568  3.2759 -0.3042 -0.4813
  921MPD2    H113483   1.755   1.246  16.853  1.1247 -0.0239  2.6108
  921MPD2    H213484   2.138   1.275  16.687  0.3406  0.1089  1.5013
  921MPD2    H313485   1.961   1.356  16.843  2.1712  0.9284 -0.4246
  921MPD2     N13486   1.664   1.049  16.707  0.2545 -0.8237  0.1162
  921MPD2    H513487   1.618   1.067  16.795 -1.3351  0.5964 -0.9835
  921MPD2    N113488   2.122   1.051  16.544 -0.2345  0.0003 -0.3939
  921MPD2    H713489   2.212   1.097  16.547 -0.5200  0.5858 -0.9973
  922MPD2     C13490   3.491   3.355  16.161  0.3996  0.2539 -0.3672
  922MPD2    C113491   3.428   3.384  16.279  0.1622 -0.8276 -0.5537
  922MPD2    C213492   3.368   3.288  16.363  0.5811 -0.6027 -0.2300
  922MPD2    C313493   3.378   3.160  16.314  0.7003  0.4369  0.6824
  922MPD2    C413494   3.445   3.124  16.202  0.2779 -0.0769  0.3352
  922MPD2    C513495   3.495   3.221  16.120 -0.4128 -0.4689  0.4924
  922MPD2     H13496   3.316   3.305  16.456 -0.5544 -1.7858 -0.6462
  922MPD2    H113497   3.471   3.020  16.185 -0.3606 -0.4114  1.4627
  922MPD2    H213498   3.548   3.425  16.100 -0.8563  0.1055 -1.7250
  922MPD2    H313499   3.552   3.191  16.032  0.8055  1.1017  0.7360
  922MPD2     N13500   3.317   3.066  16.403  0.1048 -0.5029  0.6901
  922MPD2    H513501   3.262   3.107  16.477 -2.2405  0.6156 -1.6611
  922MPD2    N113502   3.416   3.510  16.328 -0.2430 -0.3178 -0.4745
  922MPD2    H713503   3.373   3.524  16.419  1.3909  0.0136  0.2558
  923MPD2     C13504   4.367   0.345   8.580  0.0646 -0.1898  0.6600
  923MPD2    C113505   4.351   0.417   8.694  0.7701 -0.2579 -0.3256
  923MPD2    C213506   4.423   0.374   8.812 -0.4137  0.4408  0.7783
  923MPD2    C313507   4.523   0.275   8.807 -0.3115 -1.0171  0.7700
  923MPD2    C413508   4.535   0.215   8.683 -0.3645 -0.2697 -0.2837
  923MPD2    C513509   4.454   0.240   8.573  0.0077  0.0193 -0.4980
  923MPD2     H13510   4.405   0.411   8.912 -0.5493  0.1195  0.8735
  923MPD2    H113511   4.607   0.135   8.667  1.6033  1.4493  0.0663
  923MPD2    H213512   4.309   0.360   8.490  2.7718  0.2063 -0.9932
  923MPD2    H313513   4.460   0.184   8.480  0.0485  1.1004 -1.1580
  923MPD2     N13514   4.602   0.231   8.920 -0.4130  0.1445 -0.0090
  923MPD2    H513515   4.665   0.152   8.904  0.7929  0.8970  0.9973
  923MPD2    N113516   4.256   0.519   8.696  0.1159 -0.4778  0.0025
  923MPD2    H713517   4.203   0.527   8.610 -1.4088 -1.2008  0.8720
  924MPD2     C13518   4.263   3.617  15.400  0.6861  0.2366  0.2027
  924MPD2    C113519   4.226   3.601  15.535  1.3442  0.2220  0.4766
  924MPD2    C213520   4.327   3.629  15.630 -0.7191 -0.5619  0.3440
  924MPD2    C313521   4.455   3.649  15.591 -0.2307  0.7623  0.2040
  924MPD2    C413522   4.495   3.660  15.462  0.1315  0.7463  0.2385
  924MPD2    C513523   4.396   3.640  15.370  0.3366 -0.7132 -0.0489
  924MPD2     H13524   4.305   3.615  15.736  1.9934  1.6280  1.1987
  924MPD2    H113525   4.597   3.677  15.430  0.0860  0.4698 -0.0473
  924MPD2    H213526   4.197   3.590  15.318  0.6614  0.4864  0.1407
  924MPD2    H313527   4.424   3.640  15.265  1.1666  1.0971  0.1736
  924MPD2     N13528   4.555   3.682  15.687 -0.5585 -0.4079  0.2641
  924MPD2    H513529   4.646   3.699  15.648 -0.6684  1.6966  0.9680
  924MPD2    N113530   4.089   3.600  15.569 -0.3603 -0.5905 -0.0369
  924MPD2    H713531   4.026   3.604  15.489  1.0513 -0.3900 -1.1297
  925MPD2     C13532   3.462   1.233  14.471 -0.3247  0.6714  0.8054
  925MPD2    C113533   3.360   1.181  14.397  0.2960 -0.4901 -0.1280
  925MPD2    C213534   3.274   1.085  14.449  0.3953  0.3251 -0.2546
  925MPD2    C313535   3.296   1.042  14.579  0.1383  0.0197 -0.0324
  925MPD2    C413536   3.401   1.096  14.657 -0.4812 -0.7413 -0.3878
  925MPD2    C513537   3.484   1.187  14.600  0.1658 -0.2303 -0.4169
  925MPD2     H13538   3.203   1.034  14.385 -1.5048  1.2265  1.1259
  925MPD2    H113539   3.428   1.067  14.758  0.4801  0.4436 -0.3167
  925MPD2    H213540   3.539   1.294  14.428 -0.5136  0.3721  0.0363
  925MPD2    H313541   3.568   1.228  14.654  0.6992  0.1259 -1.5055
  925MPD2     N13542   3.218   0.942  14.648 -0.6625 -0.1393 -0.0908
  925MPD2    H513543   3.239   0.935  14.747 -1.6907 -0.1841  0.1238
  925MPD2    N113544   3.331   1.219  14.260  0.5046  0.7873  0.0294
  925MPD2    H713545   3.254   1.174  14.212  0.4576 -0.8019  1.5743
  926MPD2     C13546   1.527   4.183  13.118  0.1656  0.2720  0.2595
  926MPD2    C113547   1.413   4.226  13.043  0.9418 -0.1370  0.0837
  926MPD2    C213548   1.423   4.320  12.947  0.2419  0.3026 -0.0973
  926MPD2    C313549   1.545   4.381  12.917 -0.1495  0.1834 -0.2018
  926MPD2    C413550   1.658   4.335  12.992  0.8128  1.0803 -0.6355
  926MPD2    C513551   1.649   4.235  13.085  0.2477 -0.1092  0.7599
  926MPD2     H13552   1.329   4.358  12.907  0.3655  1.6971  0.9421
  926MPD2    H113553   1.760   4.370  12.976 -0.4813  3.6961 -3.1068
  926MPD2    H213554   1.521   4.098  13.185  0.5711  0.7079  0.8424
  926MPD2    H313555   1.733   4.192  13.138  2.2655  2.5294 -0.3457
  926MPD2     N13556   1.558   4.488  12.824  0.1793  0.4742  0.2121
  926MPD2    H513557   1.650   4.528  12.815  0.3774 -0.5048 -2.0744
  926MPD2    N113558   1.282   4.187  13.070  0.1218 -0.0921  0.0006
  926MPD2    H713559   1.214   4.250  13.030 -0.0578 -1.8218 -2.4275
  927MPD2     C13560   2.036   2.578  17.316 -0.7971 -0.4793  0.1428
  927MPD2    C113561   2.073   2.561  17.446 -0.1505  0.7842 -0.6726
  927MPD2    C213562   2.175   2.475  17.478  0.0613  0.0126  0.4453
  927MPD2    C313563   2.221   2.379  17.385  0.2144  0.2539  0.1331
  927MPD2    C413564   2.178   2.394  17.255  0.1205 -0.4135  0.7011
  927MPD2    C513565   2.086   2.490  17.218  0.0824  1.3951 -0.2365
  927MPD2     H13566   2.211   2.478  17.580  0.9455  1.0018  0.0985
  927MPD2    H113567   2.225   2.342  17.173 -1.1472  1.7800 -1.3991
  927MPD2    H213568   1.966   2.656  17.289  1.2512  0.6154 -2.0029
  927MPD2    H313569   2.053   2.493  17.115 -0.4421 -0.8295 -0.1530
  927MPD2     N13570   2.317   2.284  17.428 -0.0397 -0.2023  0.2122
  927MPD2    H513571   2.330   2.272  17.528  2.0180  0.1704 -0.0132
  927MPD2    N113572   2.002   2.641  17.536 -0.1003  0.2776  0.1058
  927MPD2    H713573   1.920   2.688  17.498 -0.5133 -0.1958  0.4036
  928MPD2     C13574   0.902   1.324   0.841 -0.3967 -0.5343 -0.4892
  928MPD2    C113575   0.788   1.392   0.869 -0.1492  0.5709 -0.2225
  928MPD2    C213576   0.720   1.458   0.770 -0.1555 -0.1501 -0.7164
  928MPD2    C313577   0.766   1.451   0.635 -0.1519 -0.0885 -0.6234
  928MPD2    C413578   0.885   1.387   0.612 -0.6097  0.3158 -0.0100
  928MPD2    C513579   0.944   1.312   0.710 -0.3534 -0.1351  0.0590
  928MPD2     H13580   0.634   1.520   0.793  1.1055  1.2401  0.2438
  928MPD2    H113581   0.923   1.379   0.510 -1.2047 -0.7669 -0.1467
  928MPD2    H213582   0.959   1.269   0.915  0.6626 -0.6968 -1.4203
  928MPD2    H313583   1.028   1.248   0.684  0.4400  1.0345 -0.2170
  928MPD2     N13584   0.709   1.515   0.524 -0.4117 -0.2104 -0.3579
  928MPD2    H513585   0.749   1.505   0.432 -1.4698 -3.4762 -0.4704
  928MPD2    N113586   0.747   1.391   1.002  0.3421 -0.0200 -0.3453
  928MPD2    H713587   0.811   1.355   1.073  0.0286  1.8656  0.9024
  929MPD2     C13588   4.097   0.571   9.612  0.0038  0.2080 -0.0197
  929MPD2    C113589   4.131   0.452   9.673  0.0172  0.6512 -0.2169
  929MPD2    C213590   4.068   0.334   9.632 -0.1272  0.5407 -1.0381
  929MPD2    C313591   3.958   0.345   9.543  0.0366 -0.0470  0.4013
  929MPD2    C413592   3.950   0.462   9.475 -0.7124  0.0546 -0.1632
  929MPD2    C513593   4.011   0.582   9.509 -0.3340  0.2353  0.3924
  929MPD2     H13594   4.096   0.236   9.668 -0.2038  0.9827  0.2436
  929MPD2    H113595   3.878   0.470   9.394  1.4864 -1.4600 -2.2465
  929MPD2    H213596   4.159   0.658   9.629  2.2892 -1.3880 -0.1629
  929MPD2    H313597   3.991   0.679   9.465  0.8867  0.4033  0.2108
  929MPD2     N13598   3.880   0.234   9.509 -0.1609 -0.0301  0.2305
  929MPD2    H513599   3.835   0.245   9.419 -1.0418 -0.1627  0.6563
  929MPD2    N113600   4.239   0.450   9.767 -0.4230  0.4183 -0.1578
  929MPD2    H713601   4.266   0.543   9.798  0.0112  0.1785  0.1873
  930MPD2     C13602   1.501   2.535  13.974 -0.3126  0.3831  0.4327
  930MPD2    C113603   1.450   2.609  13.870 -0.3568  0.4101  1.1897
  930MPD2    C213604   1.418   2.541  13.757 -0.3874  0.6822 -0.2907
  930MPD2    C313605   1.412   2.402  13.743 -0.6978  0.3924  0.2962
  930MPD2    C413606   1.463   2.330  13.847 -0.9333 -0.5235  0.8820
  930MPD2    C513607   1.513   2.400  13.961 -0.6646 -0.2184 -0.5624
  930MPD2     H13608   1.385   2.599  13.672  0.1959  0.7721 -0.4529
  930MPD2    H113609   1.473   2.222  13.853 -0.2919 -0.4397  1.3900
  930MPD2    H213610   1.549   2.581  14.060  1.5064 -1.9525  0.6785
  930MPD2    H313611   1.550   2.330  14.035 -1.1888 -1.0053 -1.0412
  930MPD2     N13612   1.357   2.333  13.630  0.4469 -0.2685  0.2026
  930MPD2    H513613   1.389   2.238  13.609 -0.5188 -0.3534 -0.9134
  930MPD2    N113614   1.477   2.751  13.867 -0.3330 -0.6407  0.3928
  930MPD2    H713615   1.492   2.793  13.958  0.0412 -0.9719  0.4857
  931MPD2     C13616   1.978   3.294   0.507  0.3909  0.4102  0.0734
  931MPD2    C113617   1.955   3.160   0.506  0.7719 -0.3252  0.2181
  931MPD2    C213618   1.958   3.094   0.626  0.1630  0.6986  0.2188
  931MPD2    C313619   1.962   3.168   0.743 -0.2617  1.2919 -0.4662
  931MPD2    C413620   1.995   3.300   0.735  0.8226  1.0344  0.0522
  931MPD2    C513621   2.003   3.370   0.618 -0.0293 -0.0628  0.0163
  931MPD2     H13622   1.929   2.989   0.626  0.8456  0.5074  2.1812
  931MPD2    H113623   2.009   3.353   0.828 -0.7671  0.7007  0.4852
  931MPD2    H213624   1.986   3.353   0.416 -1.0103 -0.2581 -0.4865
  931MPD2    H313625   2.034   3.474   0.621 -0.8719  0.1857  0.0763
  931MPD2     N13626   1.950   3.110   0.869  0.4437  0.1687  0.0333
  931MPD2    H513627   1.923   3.171   0.946  1.7032  1.2015 -0.3572
  931MPD2    N113628   1.948   3.097   0.384 -0.3749 -0.1147  0.5665
  931MPD2    H713629   1.958   3.153   0.300  0.2023  0.7435  1.2104
  932MPD2     C13630   2.908   1.141  11.249 -0.1911 -0.0623  0.0284
  932MPD2    C113631   3.012   1.220  11.189  0.1553 -0.3443 -0.4776
  932MPD2    C213632   3.141   1.169  11.194  0.0632 -0.3191 -0.2386
  932MPD2    C313633   3.173   1.045  11.248 -0.0732 -0.3756  0.7083
  932MPD2    C413634   3.068   0.974  11.301 -0.0605 -0.1381 -0.3265
  932MPD2    C513635   2.942   1.025  11.295  0.0238  0.0024 -0.1718
  932MPD2     H13636   3.221   1.231  11.156 -0.2241  0.4412  0.3777
  932MPD2    H113637   3.079   0.871  11.333  4.1883  0.2090 -0.7093
  932MPD2    H213638   2.804   1.172  11.250 -0.3950 -0.7212 -0.2929
  932MPD2    H313639   2.857   0.969  11.333 -0.0010 -1.9579 -3.1552
  932MPD2     N13640   3.299   0.982  11.244  0.2196 -0.0454 -0.0945
  932MPD2    H513641   3.308   0.907  11.312  1.7684 -1.1627 -1.5331
  932MPD2    N113642   2.990   1.349  11.133  0.2478 -0.0460  0.1498
  932MPD2    H713643   3.071   1.386  11.085 -1.5037  0.8411 -2.1370
  933MPD2     C13644   0.326   1.241   1.793 -0.6506 -0.2328 -0.3696
  933MPD2    C113645   0.295   1.318   1.684 -0.0085 -0.4229  0.9077
  933MPD2    C213646   0.205   1.420   1.701 -0.3765  0.0406  0.5685
  933MPD2    C313647   0.136   1.444   1.820  0.2710  0.3196 -0.0850
  933MPD2    C413648   0.174   1.373   1.933  0.0806  0.4338  0.6687
  933MPD2    C513649   0.266   1.265   1.916 -0.4702  0.0910 -0.2146
  933MPD2     H13650   0.169   1.476   1.615 -1.2879  0.9756  1.5663
  933MPD2    H113651   0.135   1.386   2.034 -1.3606  0.7790  0.0739
  933MPD2    H213652   0.410   1.173   1.796 -1.1472 -0.8204  0.1323
  933MPD2    H313653   0.294   1.200   1.998 -0.0005  0.6982  0.0994
  933MPD2     N13654   0.030   1.540   1.819  0.1251  0.3465  0.4743
  933MPD2    H513655   0.009   1.582   1.729  0.4719 -0.6177 -0.0456
  933MPD2    N113656   0.379   1.306   1.570 -0.0057  0.8339  0.1842
  933MPD2    H713657   0.448   1.232   1.579 -0.4033  0.5876  1.2145
  934MPD2     C13658   0.390   3.981   1.340 -0.5057  0.5339 -0.2559
  934MPD2    C113659   0.483   3.929   1.251 -0.0583  0.3195  0.4626
  934MPD2    C213660   0.448   3.827   1.169  0.7490 -0.2485 -0.9232
  934MPD2    C313661   0.313   3.786   1.169 -0.0778 -0.5354 -0.0825
  934MPD2    C413662   0.224   3.837   1.257  0.3907  0.1000  0.3477
  934MPD2    C513663   0.258   3.938   1.344  0.5038  0.2773  0.8168
  934MPD2     H13664   0.514   3.784   1.095  0.4546 -1.4654 -0.4827
  934MPD2    H113665   0.121   3.801   1.257  0.0635  1.0278  0.3592
  934MPD2    H213666   0.410   4.066   1.404 -1.1774  0.2812  0.2895
  934MPD2    H313667   0.177   3.978   1.404  0.6420  0.9274  0.5693
  934MPD2     N13668   0.263   3.672   1.100  0.2597  0.9652 -0.2100
  934MPD2    H513669   0.172   3.644   1.136  1.2615  0.2350  1.7623
  934MPD2    N113670   0.622   3.972   1.255 -0.0043 -0.0236  0.4809
  934MPD2    H713671   0.691   3.923   1.200  2.0552  2.8034  0.5520
  935MPD2     C13672   0.685   2.823   0.726  0.8134 -0.5862  0.4765
  935MPD2    C113673   0.554   2.824   0.683 -1.2184  0.3646  0.6083
  935MPD2    C213674   0.470   2.916   0.732  0.0073  0.5614  0.1957
  935MPD2    C313675   0.511   3.019   0.818  0.7417  0.3012 -0.2438
  935MPD2    C413676   0.644   3.014   0.860  0.1333  0.2923 -0.7479
  935MPD2    C513677   0.729   2.918   0.815 -0.2197 -0.1726 -0.7190
  935MPD2     H13678   0.374   2.908   0.682 -0.0212 -0.5974  0.4343
  935MPD2    H113679   0.672   3.092   0.929 -1.7900  1.0330 -0.8297
  935MPD2    H213680   0.757   2.746   0.700 -1.0483 -2.7012  1.5313
  935MPD2    H313681   0.825   2.921   0.864 -2.3812  2.8866  3.3100
  935MPD2     N13682   0.426   3.125   0.854 -0.0917 -0.0726  0.0381
  935MPD2    H513683   0.472   3.188   0.919  1.7447  0.1871 -1.5086
  935MPD2    N113684   0.498   2.723   0.598  0.9956  0.3494  0.4156
  935MPD2    H713685   0.400   2.738   0.576  0.7403  1.8956  2.6172
  936MPD2     C13686   3.682   0.475  12.392 -0.3885  0.5011 -0.1886
  936MPD2    C113687   3.737   0.348  12.405  0.1815  0.3809  0.3480
  936MPD2    C213688   3.844   0.317  12.333 -0.4424 -1.7837 -0.1667
  936MPD2    C313689   3.908   0.401  12.248  0.2425  0.3027  0.5914
  936MPD2    C413690   3.859   0.527  12.242 -0.6027  0.3387 -0.2646
  936MPD2    C513691   3.743   0.565  12.305  0.0536 -0.5515 -0.0424
  936MPD2     H13692   3.895   0.223  12.351  0.2141 -1.3087  0.4842
  936MPD2    H113693   3.902   0.595  12.170  1.9956 -1.0092  0.0102
  936MPD2    H213694   3.596   0.503  12.452 -1.0984  0.0553 -0.9784
  936MPD2    H313695   3.698   0.661  12.282 -0.9194 -0.6778  1.3272
  936MPD2     N13696   4.043   0.379  12.199  0.2009  0.5134 -0.2668
  936MPD2    H513697   4.088   0.452  12.145  1.1117  1.5467  1.9148
  936MPD2    N113698   3.691   0.262  12.506 -0.0414 -0.3942 -0.0850
  936MPD2    H713699   3.727   0.167  12.498 -2.1175 -1.1623 -0.1719
  937MPD2     C13700   1.379   1.117  11.520  0.1581  0.4703  0.3436
  937MPD2    C113701   1.413   1.242  11.479  0.0221 -0.6648 -0.5486
  937MPD2    C213702   1.444   1.267  11.350 -0.3051  0.0515  0.3430
  937MPD2    C313703   1.449   1.171  11.256 -0.1930  0.1457 -0.2271
  937MPD2    C413704   1.434   1.039  11.299 -0.6476  0.5797 -0.2069
  937MPD2    C513705   1.398   1.018  11.428 -0.1179  0.7176  0.2180
  937MPD2     H13706   1.464   1.368  11.316  0.5892  0.0119  0.7648
  937MPD2    H113707   1.449   0.956  11.231  1.6998 -0.0607  1.1006
  937MPD2    H213708   1.349   1.088  11.620 -1.0491  1.3038  0.2248
  937MPD2    H313709   1.379   0.916  11.460 -3.8145  0.9589 -1.1385
  937MPD2     N13710   1.505   1.204  11.136 -0.5724  0.1646 -0.2227
  937MPD2    H513711   1.536   1.299  11.121 -0.7128  0.0810 -1.0636
  937MPD2    N113712   1.376   1.359  11.550  0.5438  0.2909 -0.0926
  937MPD2    H713713   1.391   1.446  11.499 -0.4488 -0.2169 -1.2489
  938MPD2     C13714   4.499   2.864   0.360 -0.5220  0.3962  0.0725
  938MPD2    C113715   4.449   2.983   0.400 -0.1620 -0.4602 -1.0091
  938MPD2    C213716   4.355   2.990   0.503  0.4408 -0.1630 -0.0327
  938MPD2    C313717   4.314   2.869   0.560 -0.0415  0.6300  0.3782
  938MPD2    C413718   4.370   2.749   0.521  0.2679 -0.0340 -0.2111
  938MPD2    C513719   4.453   2.747   0.415 -0.2757 -1.4802  0.8290
  938MPD2     H13720   4.310   3.085   0.530  0.4029  0.3223 -1.8131
  938MPD2    H113721   4.330   2.654   0.554 -0.5329  0.7825  1.1651
  938MPD2    H213722   4.571   2.857   0.279 -0.1144 -0.6575  0.5242
  938MPD2    H313723   4.481   2.654   0.367 -0.4941 -0.1532 -1.8696
  938MPD2     N13724   4.215   2.871   0.663 -0.4449 -0.4129  0.3179
  938MPD2    H513725   4.183   2.783   0.700  0.6863 -0.6890  0.6246
  938MPD2    N113726   4.472   3.100   0.328  0.3621 -0.9889 -0.7541
  938MPD2    H713727   4.429   3.179   0.375 -0.3457 -1.4045 -0.7021
  939MPD2     C13728   0.661   3.430   0.354 -0.0623  0.5499 -0.1680
  939MPD2    C113729   0.584   3.477   0.253 -0.2292 -1.0468  0.2340
  939MPD2    C213730   0.571   3.407   0.131 -1.0229  0.5351  0.0341
  939MPD2    C313731   0.657   3.300   0.104  0.3804 -0.1788 -0.5432
  939MPD2    C413732   0.743   3.261   0.205  0.3239  0.6167 -0.1557
  939MPD2    C513733   0.744   3.328   0.318 -0.2112  0.6894  0.3518
  939MPD2     H13734   0.503   3.444   0.056 -0.0561  0.6777 -0.7641
  939MPD2    H113735   0.826   3.193   0.186 -0.6657 -0.5595 -0.2482
  939MPD2    H213736   0.676   3.483   0.448  0.9243  1.4743 -0.8475
  939MPD2    H313737   0.831   3.310   0.380  1.3023 -0.6049 -2.1516
  939MPD2     N13738   0.663   3.234  17.652 -0.0758  0.4799 -0.2830
  939MPD2    H513739   0.588   3.248  17.585 -0.0445 -0.5818 -0.5385
  939MPD2    N113740   0.513   3.595   0.292  0.2401  0.0523 -0.4989
  939MPD2    H713741   0.535   3.636   0.383 -3.9733 -2.0443  1.4615
  940MPD2     C13742   4.276   4.413  13.401 -0.6399 -0.6474  0.3896
  940MPD2    C113743   4.402   4.477  13.407 -0.4942 -0.0265 -0.8079
  940MPD2    C213744   4.471   4.493  13.287  0.0845  0.2546  0.8020
  940MPD2    C313745   4.421   4.443  13.166 -0.9761  0.3009  0.0387
  940MPD2    C413746   4.303   4.376  13.170  0.6449 -0.2693  0.1059
  940MPD2    C513747   4.234   4.361  13.283  0.8832 -0.2671 -0.7743
  940MPD2     H13748   4.562   4.552  13.288 -0.4662  1.1033  1.0724
  940MPD2    H113749   4.265   4.320  13.085 -1.7622 -0.0038  0.9910
  940MPD2    H213750   4.203   4.405  13.480 -0.8483 -0.1541  0.2477
  940MPD2    H313751   4.130   4.335  13.267  0.1908  1.3780  1.0305
  940MPD2     N13752   4.485   4.453  13.039 -0.0619  0.2062 -0.0261
  940MPD2    H513753   4.440   4.400  12.965 -2.1598  0.7018  0.9057
  940MPD2    N113754   4.465   4.519  13.532  0.5709  0.3001  0.1934
  940MPD2    H713755   4.565   4.536  13.531  1.0955 -2.5647  3.1119
  941MPD2     C13756   3.965   3.157   9.448 -0.7024  0.4092 -0.2091
  941MPD2    C113757   3.968   3.197   9.581  0.2271 -0.6706 -0.5529
  941MPD2    C213758   3.872   3.165   9.672  0.3775  0.5315  0.4564
  941MPD2    C313759   3.770   3.073   9.641 -0.1748 -0.4938 -0.3593
  941MPD2    C413760   3.757   3.035   9.507  0.1080  0.0317 -0.4599
  941MPD2    C513761   3.860   3.072   9.417 -0.3236 -0.4434  0.2460
  941MPD2     H13762   3.881   3.211   9.769  0.9292 -1.7667  1.5047
  941MPD2    H113763   3.678   2.966   9.479 -0.5689 -0.0350  1.5604
  941MPD2    H213764   4.028   3.196   9.368  1.0406 -0.9853  0.4696
  941MPD2    H313765   3.851   3.053   9.310 -1.2558  1.8795 -0.0968
  941MPD2     N13766   3.683   3.027   9.738  0.8379  0.5927 -0.2298
  941MPD2    H513767   3.595   2.982   9.717  0.4820  0.5554  1.3484
  941MPD2    N113768   4.075   3.278   9.623 -0.3867 -0.1281  0.3582
  941MPD2    H713769   4.078   3.302   9.722 -2.6901  0.1962  0.3437
  942MPD2     C13770   3.222   0.563   8.890 -0.4339  0.3842  0.6161
  942MPD2    C113771   3.253   0.431   8.849 -0.0699 -0.2227  0.2978
  942MPD2    C213772   3.382   0.384   8.846 -0.2077  0.1443 -0.0122
  942MPD2    C313773   3.480   0.473   8.865  0.1810 -0.1495 -0.1871
  942MPD2    C413774   3.454   0.603   8.898  0.0338 -0.4901 -0.8574
  942MPD2    C513775   3.326   0.654   8.908  0.4168  0.3526  0.7122
  942MPD2     H13776   3.404   0.284   8.809  1.0807  0.7329 -0.8769
  942MPD2    H113777   3.536   0.672   8.917 -0.0653 -0.4139 -0.7069
  942MPD2    H213778   3.121   0.603   8.895 -0.1742  1.2522 -0.8500
  942MPD2    H313779   3.305   0.759   8.922  1.2717  0.5132  0.7796
  942MPD2     N13780   3.620   0.447   8.863  0.0679 -0.4945  0.0374
  942MPD2    H513781   3.681   0.516   8.905  0.9170 -0.9579 -0.4280
  942MPD2    N113782   3.153   0.340   8.795  0.3177  0.0029  0.4948
  942MPD2    H713783   3.191   0.247   8.786  1.5580  0.3700  1.8353
  943MPD2     C13784   2.562   3.695   9.401  0.1270  0.1647 -0.2246
  943MPD2    C113785   2.604   3.594   9.489 -0.0214 -0.2152 -0.3832
  943MPD2    C213786   2.662   3.623   9.613  0.3170 -0.0917 -0.3852
  943MPD2    C313787   2.699   3.755   9.636  0.3795  0.3634 -0.1661
  943MPD2    C413788   2.669   3.848   9.545 -0.1669 -0.0996  0.8626
  943MPD2    C513789   2.608   3.822   9.426  0.5281 -0.4449  0.0532
  943MPD2     H13790   2.668   3.543   9.686 -1.1184 -1.2372 -1.5403
  943MPD2    H113791   2.692   3.954   9.551  0.3325 -0.0233 -2.1870
  943MPD2    H213792   2.505   3.672   9.312  1.3014 -3.0829 -0.1420
  943MPD2    H313793   2.593   3.896   9.349 -2.8366 -0.5043  0.6616
  943MPD2     N13794   2.731   3.795   9.763  0.0360  0.0542 -0.0996
  943MPD2    H513795   2.735   3.894   9.787  0.9748  0.1595 -0.6803
  943MPD2    N113796   2.555   3.462   9.455 -0.2517 -0.7107  0.1631
  943MPD2    H713797   2.509   3.456   9.364 -1.4972  0.9423  0.6948
  944MPD2     C13798   2.150   2.787  10.462 -0.0415  0.1147 -0.5694
  944MPD2    C113799   2.273   2.734  10.475 -0.3634  0.7980  0.1120
  944MPD2    C213800   2.340   2.764  10.588 -0.5924 -0.2496 -0.1014
  944MPD2    C313801   2.285   2.842  10.690 -0.7983 -0.2610 -0.0823
  944MPD2    C413802   2.163   2.903  10.667  0.6164 -0.0730  0.0379
  944MPD2    C513803   2.100   2.872  10.547  0.2749 -0.4058 -0.2363
  944MPD2     H13804   2.417   2.693  10.618 -2.2691 -1.4420  1.3280
  944MPD2    H113805   2.130   2.984  10.732 -1.4623 -1.5647  0.8309
  944MPD2    H213806   2.091   2.756  10.376  2.6463 -2.2754 -1.5669
  944MPD2    H313807   2.012   2.932  10.526 -1.4693 -2.7250  0.5232
  944MPD2     N13808   2.359   2.856  10.810  0.5579 -0.4312  0.5834
  944MPD2    H513809   2.435   2.792  10.830  1.9157  0.7241 -0.9246
  944MPD2    N113810   2.334   2.667  10.368  0.3384  0.1899 -0.1583
  944MPD2    H713811   2.270   2.659  10.289  0.2809 -0.4581 -0.0447
    1TCq1    O113812   0.088   3.422  13.668  0.2757  0.0772 -0.1673
    1TCq1    C113813   0.096   3.410  13.802 -0.3687  0.1952 -0.0736
    1TCq1    O213814   0.001   3.415  13.880  0.0914 -0.6303  0.3555
    1TCq1    C213815   0.237   3.362  13.834 -0.3589  0.4244  0.3549
    1TCq1    C313816   0.292   3.262  13.762 -1.0282  0.6227  0.2289
    1TCq1    C413817   0.416   3.217  13.799  0.1906  0.5414 -0.0896
    1TCq1    C513818   0.485   3.284  13.898  0.2417  0.4355  0.3574
    1TCq1    C613819   0.425   3.387  13.972  0.8191  0.1307  0.5165
    1TCq1    C713820   0.296   3.418  13.941 -0.0783 -0.4918  0.7133
    1TCq1    C813821   0.484   3.437  14.096 -0.3159  0.0895 -0.2161
    1TCq1    O413822   0.582   3.382  14.148 -0.1086  0.1180  0.2531
    1TCq1    C913823   0.466   3.106  13.725 -0.2466 -0.0372 -0.3444
    1TCq1    O513824   0.551   3.032  13.784  0.2245 -0.3040  0.2075
    1TCq1    O613825   0.413   3.088  13.608  0.3361  0.5493  0.2045
    1TCq1    H113826   0.171   3.418  13.615 -0.4338  1.2726 -1.3785
    1TCq1    H213827   0.241   3.213  13.679  2.3634  0.2539 -1.6218
    1TCq1    H313828   0.583   3.246  13.924  0.1104 -0.5277 -0.5531
    1TCq1    H413829   0.245   3.500  13.991 -0.0022  1.3931 -2.3027
    2MPD2     C13830   0.561   3.824  14.421  0.5044 -0.0753  0.0433
    2MPD2    C113831   0.476   3.859  14.326 -0.3284 -0.7467 -0.2091
    2MPD2    C213832   0.431   3.771  14.232 -0.2052 -0.1794  0.2152
    2MPD2    C313833   0.475   3.640  14.232  0.6278 -0.2812  0.4157
    2MPD2    C413834   0.567   3.607  14.325  0.3365  0.3836  0.0060
    2MPD2    C513835   0.614   3.695  14.413  0.4994  0.2559 -0.3033
    2MPD2     H13836   0.356   3.804  14.162  0.1980  1.5805  0.6221
    2MPD2    H113837   0.590   3.504  14.350  2.9761  0.7718 -0.8259
    2MPD2    H213838   0.597   3.901  14.488  1.5059  1.0490 -1.7822
    2MPD2    H313839   0.674   3.662  14.497  0.1771 -1.0672 -0.5907
    2MPD2     N13840   0.434   3.560  14.128 -0.6797  0.3451 -0.2880
    2MPD2    H513841   0.375   3.597  14.053 -0.9704 -0.3111 -0.3825
    2MPD2    N113842   0.438   3.997  14.329  0.1018  0.1758  0.1042
    2MPD2    H713843   0.492   4.055  14.392  1.4454 -1.0604  0.0925
    3TMC2    C113844   0.344   4.201  14.254 -0.6833  0.6409  0.0148
    3TMC2    C213845   0.440   4.270  14.330  0.1416 -0.3378  0.1237
    3TMC2    C313846   0.475   4.393  14.288 -0.6885 -0.4017  0.1421
    3TMC2    C413847   0.311   4.253  14.129  0.0611 -0.1771  0.1512
    3TMC2    C513848   0.362   4.374  14.078 -0.3457 -0.5103  1.0212
    3TMC2    C613849   0.446   4.440  14.164 -0.2418 -0.8900  0.5311
    3TMC2     C13850   0.336   4.056  14.261 -0.3567  0.6247  0.4076
    3TMC2     O13851   0.250   4.000  14.200  0.2875  0.5409 -0.1568
    3TMC2     H13852   0.461   4.242  14.433  0.0868  2.5118  0.9030
    3TMC2    H113853   0.249   4.197  14.060 -0.8993  0.2473  0.6618
    3TMC2    H213854   0.477   4.543  14.160  1.2444 -1.3699  0.0021
    3TMC2    C713855   0.384   4.391  13.936  0.3514 -0.7470 -0.2178
    3TMC2    C813856   0.573   4.465  14.372 -0.0974  0.8230  0.3266
    3TMC2    O113857   0.332   4.309  13.861  0.3263 -0.1144 -0.0170
    3TMC2    O213858   0.550   4.569  14.431 -0.0062  0.0707 -0.1593
    3TMC2    O513859   0.695   4.431  14.322 -0.1322 -0.4308  0.5227
    3TMC2    H513860   0.693   4.339  14.289  0.5999  0.7316 -2.7512
    4MPD2     C13861   4.339   0.471  13.389  0.1563  0.0601  0.7960
    4MPD2    C113862   4.411   0.436  13.279 -0.3904  0.2627  0.7052
    4MPD2    C213863   4.545   0.426  13.281  0.1515  0.5541 -0.0766
    4MPD2    C313864   4.618   0.491  13.384  0.3242 -0.4909 -0.3385
    4MPD2    C413865   4.542   0.528  13.497  0.5297 -0.4023 -0.4053
    4MPD2    C513866   4.408   0.515  13.499  0.4520  0.4304 -0.4918
    4MPD2     H13867   4.597   0.401  13.189  0.0590 -0.6484  0.1971
    4MPD2    H113868   4.589   0.572  13.584 -1.0300  0.0972  0.1788
    4MPD2    H213869   4.231   0.476  13.402  0.1916  0.9082  0.7342
    4MPD2    H313870   4.353   0.559  13.581 -1.7176 -0.2026 -1.5991
    4MPD2     N13871   0.040   0.483  13.382 -0.2173 -0.5505 -0.9464
    4MPD2    H513872   0.080   0.458  13.292  0.1820 -0.0741 -0.9033
    4MPD2    N113873   4.332   0.379  13.171 -0.1598 -0.9872 -0.4867
    4MPD2    H713874   4.235   0.359  13.190 -0.6611  2.3264  0.4975
    5TCq2    C113875   0.124   0.491  13.495  0.2445 -0.4271  0.3904
    5TCq2    O213876   0.099   0.503  13.611 -0.5660  0.3712  0.7321
    5TCq2    C213877   0.258   0.455  13.465 -0.1951  0.4443 -0.4599
    5TCq2    C313878   0.321   0.493  13.343 -0.2593 -0.3643 -0.0704
    5TCq2    C413879   0.446   0.430  13.321 -0.6022 -0.3236  0.1272
    5TCq2    C513880   0.503   0.356  13.427  0.0379 -0.3431 -0.1483
    5TCq2    C613881   0.450   0.348  13.550  0.2460  0.3192 -0.5734
    5TCq2    C713882   0.322   0.390  13.569  0.1453 -0.2595  0.0192
    5TCq2    C813883   0.492   0.244  13.644 -0.3726  0.2178  0.2808
    5TCq2    O413884   0.454   0.251  13.763  0.1977 -0.7290 -0.0647
    5TCq2    C913885   0.524   0.474  13.209  0.0448 -0.0647 -0.6586
    5TCq2    O513886   0.467   0.561  13.131  0.4174 -0.1967  0.2242
    5TCq2    O613887   0.621   0.408  13.175 -0.3215 -0.2279 -0.2728
    5TCq2    H213888   0.276   0.554  13.266 -1.8323 -0.8481  0.4719
    5TCq2    H313889   0.604   0.323  13.402  0.0410  0.3770 -1.1095
    5TCq2    H413890   0.260   0.368  13.655  0.6357 -2.0448 -0.0711
    6MPD1     C13891   3.270   1.383  12.454  0.2831  0.6219 -0.0418
    6MPD1    C113892   3.308   1.453  12.570 -0.5141  1.1984 -0.6064
    6MPD1    C213893   3.403   1.388  12.651  0.1438  0.0873  0.6821
    6MPD1    C313894   3.467   1.268  12.605 -0.0341 -0.4643  0.2782
    6MPD1    C413895   3.425   1.214  12.485  0.0797  0.3130 -0.1125
    6MPD1    C513896   3.314   1.261  12.416 -0.7232  0.3033 -0.3830
    6MPD1     H13897   3.430   1.423  12.749 -2.4700 -0.4277  1.5983
    6MPD1    H113898   3.472   1.121  12.455  0.4554  0.5695 -0.3155
    6MPD1    H213899   3.185   1.419  12.396 -0.1200 -1.6008 -0.8034
    6MPD1    H313900   3.277   1.210  12.328 -1.5602  0.0226  0.1380
    6MPD1     N13901   3.576   1.199  12.668 -0.2155  0.5305 -0.1873
    6MPD1    H513902   3.611   1.128  12.605  0.6879 -1.6268  2.7533
    6MPD1    N113903   3.241   1.571  12.603  0.1924  0.0511  0.1226
    6MPD1    H613904   3.293   1.637  12.660 -1.9991 -0.1081  2.3068
    6MPD1    H713905   3.217   1.623  12.519 -2.0441 -0.5575  0.3813
    7MPD2     C13906   3.787   0.799  12.830  0.5548  0.2676  0.2530
    7MPD2    C113907   3.852   0.759  12.940 -0.5344  0.0930 -0.5652
    7MPD2    C213908   3.892   0.626  12.938 -0.5553  0.8042  0.2719
    7MPD2    C313909   3.888   0.544  12.820 -0.6442  0.2295  0.3542
    7MPD2    C413910   3.825   0.591  12.711  0.5570  0.4900 -0.5097
    7MPD2    C513911   3.778   0.716  12.716  0.2672  0.0988 -0.4847
    7MPD2     H13912   3.939   0.588  13.028 -1.5157  1.5064  1.0736
    7MPD2    H113913   3.818   0.539  12.616  0.7493  0.7910 -0.6867
    7MPD2    H213914   3.732   0.892  12.823  0.4739  0.2023  0.0167
    7MPD2    H313915   3.735   0.753  12.624 -2.6495 -1.3800  0.3130
    7MPD2     N13916   3.943   0.409  12.819  0.2092  0.2327 -0.4949
    7MPD2    H513917   3.963   0.373  12.727 -0.6052  0.3720 -0.7255
    7MPD2    N113918   3.875   0.833  13.057 -0.4992  0.2059 -0.0526
    7MPD2    H713919   3.911   0.783  13.138  1.8067 -0.4612 -1.4924
    8TMC3    C113920   4.072   0.246  12.889 -0.0670  0.7450 -0.2734
    8TMC3    C213921   4.159   0.243  12.992  0.0125  0.2480  1.4664
    8TMC3    C313922   4.295   0.260  12.965 -0.1598  0.1858 -0.2845
    8TMC3    C413923   4.112   0.253  12.755  0.2655 -0.4702  0.0549
    8TMC3    C513924   4.245   0.265  12.732  0.2624 -0.2458 -0.3231
    8TMC3    C613925   4.334   0.272  12.838  0.4784  0.2270  0.2502
    8TMC3     C13926   3.969   0.334  12.927 -0.2329 -0.7514  1.4510
    8TMC3     O13927   3.924   0.351  13.039 -0.1329  0.6085 -0.0965
    8TMC3     H13928   4.119   0.230  13.092 -0.4186  0.1295  1.2794
    8TMC3    H113929   4.047   0.225  12.674 -0.8222  3.2902 -0.3398
    8TMC3    H213930   4.439   0.292  12.820  0.3418  0.4936 -0.2545
    8TMC3    C713931   4.259   0.345  12.612 -0.1297 -0.9424 -0.5041
    8TMC3    C813932   4.387   0.308  13.064 -0.3023 -0.6871 -0.4541
    8TMC3    O113933   4.203   0.302  12.515 -0.1967  0.0930  0.0791
    8TMC3    O213934   4.502   0.279  13.041  0.3116  0.0831  0.0229
    9TMC3    C113935   3.744   1.178  12.815 -0.4547 -0.4400 -0.5401
    9TMC3    C213936   3.837   1.161  12.716  0.2002 -1.0006 -0.3721
    9TMC3    C313937   3.950   1.089  12.744  0.2106 -0.0720  0.7205
    9TMC3    C413938   3.758   1.128  12.944 -0.1222 -0.4874  0.2708
    9TMC3    C513939   3.866   1.055  12.961 -0.0961 -0.3033 -0.0924
    9TMC3    C613940   3.966   1.037  12.872  0.3203 -0.6837  0.1917
    9TMC3     C13941   3.624   1.243  12.789  0.9794 -0.1959  0.3251
    9TMC3     O13942   3.573   1.299  12.882  0.1657  0.1509 -0.0202
    9TMC3     H13943   3.818   1.217  12.625 -0.6741  2.8569  2.1919
    9TMC3    H113944   3.672   1.119  13.010  0.0510  1.2703  0.7455
    9TMC3    H213945   4.060   0.988  12.893  0.5982 -0.5510 -0.7236
    9TMC3    C713946   3.861   0.973  13.078  1.0361  0.0179  0.1310
    9TMC3    C813947   4.007   1.022  12.629  0.2552 -0.6199  0.6731
    9TMC3    O113948   3.881   1.028  13.185  0.2570  0.0524 -0.2150
    9TMC3    O213949   3.973   1.060  12.519  0.2932 -0.3645 -0.1240
   10MPD2     C13950   4.181   0.582  12.440  0.7225  0.1427 -0.2137
   10MPD2    C113951   4.200   0.583  12.577 -0.3976  0.0877  0.0252
   10MPD2    C213952   4.163   0.700  12.640 -0.0099  0.0099 -0.3151
   10MPD2    C313953   4.120   0.808  12.572 -0.7060 -0.6446 -0.1350
   10MPD2    C413954   4.108   0.809  12.432  0.5369  0.1200  0.4818
   10MPD2    C513955   4.145   0.695  12.368 -0.4088  0.6008  0.9801
   10MPD2     H13956   4.161   0.693  12.748 -0.8598  0.0140 -0.3272
   10MPD2    H113957   4.071   0.896  12.378  1.7792  1.2444  1.4496
   10MPD2    H213958   4.204   0.499  12.375 -2.3162 -1.4627  0.7832
   10MPD2    H313959   4.142   0.699  12.260  0.2643 -0.7430  0.9063
   10MPD2     N13960   4.086   0.908  12.661  0.0701  0.1386 -0.9567
   10MPD2    H513961   4.103   0.893  12.760 -0.3418  0.7750 -0.7941
   10MPD2    N113962   4.239   0.472  12.655 -0.2739 -0.8760  0.3909
   10MPD2    H713963   4.241   0.490  12.754 -0.5662  0.2293  0.2035
   11MPD2     C13964   0.518   4.453  13.674  0.0995 -0.3770  1.1885
   11MPD2    C113965   0.498   4.541  13.779  0.0824  0.3906 -0.3083
   11MPD2    C213966   0.501   4.674  13.753 -0.9618 -0.1217  0.4473
   11MPD2    C313967   0.527   4.715  13.621  0.1194 -0.2009 -0.6318
   11MPD2    C413968   0.557   4.624  13.525  0.3162  0.2123  0.4564
   11MPD2    C513969   0.560   4.495  13.552 -0.1253 -0.0781 -0.3421
   11MPD2     H13970   0.480   0.029  13.831 -0.8869 -1.4513  1.7294
   11MPD2    H113971   0.593   4.656  13.428 -0.0002 -1.7895 -0.3234
   11MPD2    H213972   0.511   4.349  13.701  2.7960 -0.9917 -0.4971
   11MPD2    H313973   0.602   4.426  13.479  0.6600  0.7840 -0.7144
   11MPD2     N13974   0.531   0.133  13.575  0.5702  0.0726  0.2914
   11MPD2    H513975   0.552   0.157  13.478  1.5608  0.5415  0.6108
   11MPD2    N113976   0.453   4.504  13.905 -0.4969  0.0427 -0.6363
   11MPD2    H713977   0.480   4.568  13.979 -0.9697 -1.1146  0.5595
    1MPD1     C13978   1.807   1.338  16.207  0.2636  0.4218  0.3192
    1MPD1    C113979   1.918   1.265  16.252  0.1398 -0.5127 -0.3182
    1MPD1    C213980   1.985   1.182  16.166  0.5921 -0.3581  0.2016
    1MPD1    C313981   1.928   1.149  16.044  1.0223 -0.1316  0.3474
    1MPD1    C413982   1.800   1.198  16.011  0.2778 -0.3501  0.2628
    1MPD1    C513983   1.747   1.301  16.090 -0.1334  0.2783 -0.1206
    1MPD1     H13984   2.073   1.129  16.202  1.0897  0.9088  0.8524
    1MPD1    H113985   1.746   1.167  15.922 -2.4454  1.8056  1.1700
    1MPD1    H213986   1.751   1.412  16.263 -0.2149 -0.1916  0.6404
    1MPD1    H313987   1.649   1.340  16.069 -1.1279 -1.0263  2.1397
    1MPD1     N13988   2.001   1.060  15.958  0.2456 -0.6653 -0.2798
    1MPD1    H513989   1.959   1.050  15.867 -3.3345  0.1656  1.2871
    1MPD1    N113990   1.983   1.323  16.365  0.0119 -0.2599 -0.0812
    1MPD1    H613991   2.056   1.265  16.406 -0.6260  0.0317  1.4762
    1MPD1    H713992   1.926   1.342  16.447  1.7389 -0.5435  1.1949
    2MPD1     C13993   3.000   1.013  15.858 -0.1128  0.0942 -0.1338
    2MPD1    C113994   2.945   0.943  15.956 -0.0948  0.7255  0.7863
    2MPD1    C213995   2.816   0.900  15.936 -0.3521 -0.0965  0.7292
    2MPD1    C313996   2.731   0.942  15.832  0.4528  0.2858 -0.0914
    2MPD1    C413997   2.795   1.036  15.745 -0.2103  0.3502  0.5542
    2MPD1    C513998   2.927   1.064  15.757  0.4249 -0.7660  0.7133
    2MPD1     H13999   2.784   0.827  16.010  0.5740 -0.1889  1.0291
    2MPD1    H114000   2.746   1.081  15.659 -1.5277  3.2268  2.8209
    2MPD1    H214001   3.107   1.028  15.851  0.2551 -2.0043  0.8242
    2MPD1    H314002   2.967   1.133  15.684 -0.7646 -1.1047 -0.2644
    2MPD1     N14003   2.598   0.911  15.827  0.3948  0.2627  0.0947
    2MPD1    H514004   2.555   0.860  15.903 -0.6320  0.3249 -0.4387
    2MPD1    N114005   3.027   0.885  16.062 -0.5071  0.2174  0.6447
    2MPD1    H614006   3.102   0.950  16.081 -0.4859  0.3727  0.0455
    2MPD1    H714007   2.974   0.857  16.144  0.1921 -2.4695  0.1770
    3TMC3    C114008   2.386   0.919  15.729 -0.3286 -0.4789 -0.1409
    3TMC3    C214009   2.314   0.884  15.621 -0.3538  0.3467  0.4288
    3TMC3    C314010   2.178   0.890  15.634  0.0003 -0.4767 -0.4148
    3TMC3    C414011   2.329   0.946  15.852  0.3909 -0.8622  0.5116
    3TMC3    C514012   2.191   0.965  15.853 -0.2111 -0.0713  0.0226
    3TMC3    C614013   2.110   0.934  15.746  0.1917  0.1959 -0.1666
    3TMC3     C14014   2.523   0.936  15.713  0.7329 -0.1693  0.3229
    3TMC3     O14015   2.567   0.957  15.595 -0.4792 -0.1019  0.6056
    3TMC3     H14016   2.364   0.865  15.527 -0.4044 -2.0484  0.8860
    3TMC3    H114017   2.384   0.960  15.944  2.0598 -0.4126 -0.5609
    3TMC3    H214018   2.002   0.928  15.752  0.4846 -3.9749  1.4294
    3TMC3    C714019   2.124   0.996  15.982  0.4081 -0.4905 -0.7355
    3TMC3    C814020   2.098   0.865  15.517 -0.3443  0.2620 -0.3916
    3TMC3    O114021   2.198   0.998  16.077  0.4874 -0.4761  0.4454
    3TMC3    O214022   1.985   0.914  15.516 -0.1254  0.5660  0.1626
    4MPD1     C14023   1.967   0.699  15.039 -0.4279  0.2242 -0.2093
    4MPD1    C114024   2.097   0.659  15.068 -0.3483  0.3369  0.0485
    4MPD1    C214025   2.160   0.687  15.190  0.2836  0.1739 -0.6464
    4MPD1    C314026   2.093   0.768  15.283 -0.3011  0.3021  0.5559
    4MPD1    C414027   1.963   0.811  15.250  0.0020  0.3232  0.2160
    4MPD1    C514028   1.907   0.778  15.131 -0.1952 -0.0134  0.1764
    4MPD1     H14029   2.259   0.648  15.205 -0.0531 -0.7057 -0.7011
    4MPD1    H114030   1.898   0.850  15.328  1.8833  1.5643  1.1433
    4MPD1    H214031   1.914   0.680  14.946 -0.8757  0.8419 -0.0777
    4MPD1    H314032   1.806   0.810  15.108 -0.7126 -1.8815 -0.1830
    4MPD1     N14033   2.154   0.792  15.408  0.1599  0.0772 -0.5018
    4MPD1    H514034   2.247   0.751  15.411 -0.4793 -1.3015  0.6379
    4MPD1    N114035   2.168   0.574  14.978 -0.0328  0.0634  0.0981
    4MPD1    H614036   2.142   0.599  14.883 -2.4184 -2.8658 -0.0318
    4MPD1    H714037   2.266   0.599  14.991  0.5784 -2.7825  0.8512
    1TCq1    O114038   4.064   0.479  11.775 -0.2515 -0.4774 -0.2074
    1TCq1    C114039   4.041   0.346  11.803  0.2861 -0.3292 -0.1274
    1TCq1    O214040   4.087   0.270  11.889 -0.2890  0.0669  0.1373
    1TCq1    C214041   3.949   0.304  11.695 -0.0957  0.5909  0.0362
    1TCq1    C314042   3.974   0.180  11.639  0.0693  0.4125 -0.0795
    1TCq1    C414043   3.886   0.127  11.547  0.6652 -0.2134  0.1863
    1TCq1    C514044   3.784   0.202  11.499 -0.2843 -0.4719  0.4626
    1TCq1    C614045   3.760   0.327  11.556  0.1806 -0.3898  0.0776
    1TCq1    C714046   3.842   0.381  11.648 -0.3314  0.4704 -0.0086
    1TCq1    C814047   3.649   0.398  11.505  0.5393 -0.1016 -0.4991
    1TCq1    O414048   3.608   0.363  11.394  0.4246 -0.3307 -0.7645
    1TCq1    C914049   3.943   0.034  11.454 -0.4208  0.2544 -1.1941
    1TCq1    O514050   4.067   0.022  11.446  0.1919 -0.2446 -0.2282
    1TCq1    O614051   3.864   4.682  11.386 -0.0006  0.1079  0.4603
    1TCq1    H114052   4.038   0.513  11.686 -0.2455 -0.8953 -0.3678
    1TCq1    H214053   4.079   0.153  11.651 -0.0605  0.4848  1.1369
    1TCq1    H314054   3.728   0.164  11.415  0.2245  0.1741 -0.1650
    1TCq1    H414055   3.814   0.469  11.704 -0.3632 -0.1864  1.0279
    2MPD1     C14056   3.303   0.768  11.489  0.0998 -0.4785 -0.0616
    2MPD1    C114057   3.365   0.772  11.612  0.2699  0.0896  0.0557
    2MPD1    C214058   3.478   0.692  11.633 -0.0527  0.5994  0.1304
    2MPD1    C314059   3.507   0.593  11.540  0.0202  0.2179  0.2876
    2MPD1    C414060   3.441   0.586  11.422 -0.0038 -0.0959 -0.4121
    2MPD1    C514061   3.340   0.672  11.394  0.6130 -0.6359  0.9635
    2MPD1     H14062   3.524   0.700  11.731 -1.4867 -0.5570  0.8836
    2MPD1    H114063   3.466   0.511  11.348 -0.2774  1.2604 -1.8736
    2MPD1    H214064   3.211   0.814  11.455 -0.3466 -2.3742 -1.4157
    2MPD1    H314065   3.279   0.666  11.305  3.2963 -3.9207 -0.6258
    2MPD1     N14066   3.613   0.507  11.580 -0.1018 -0.0241  0.3321
    2MPD1    H514067   3.652   0.517  11.673 -3.3082  1.8648  1.4705
    2MPD1    N114068   3.330   0.878  11.703 -0.4151  0.8018  0.0937
    2MPD1    H614069   3.230   0.896  11.691 -0.5732  0.0986  0.3380
    2MPD1    H714070   3.356   0.862  11.800  0.7207  0.3043 -0.2977
    1TCq1    O114071   4.615   0.650   8.150 -0.2535 -0.5740 -0.3529
    1TCq1    C114072   4.552   0.573   8.236  0.2260  0.6157  0.4131
    1TCq1    O214073   4.591   0.551   8.350 -0.5567 -0.1806 -0.2971
    1TCq1    C214074   4.416   0.535   8.184 -0.0521 -0.3789  0.0052
    1TCq1    C314075   4.395   0.497   8.056  0.6139 -0.4127  0.3004
    1TCq1    C414076   4.267   0.470   8.022 -0.5149 -0.0583  0.5408
    1TCq1    C514077   4.165   0.445   8.108 -0.4479 -0.6576 -0.7633
    1TCq1    C614078   4.190   0.481   8.234  0.7426  0.1949 -0.5272
    1TCq1    C714079   4.311   0.525   8.276 -0.2094 -0.4827 -0.2905
    1TCq1    C814080   4.085   0.486   8.336 -0.5576  0.5772  0.1434
    1TCq1    O414081   4.117   0.500   8.451 -0.1346 -0.8048  0.9080
    1TCq1    C914082   4.253   0.417   7.892  0.1820  0.0296  0.2839
    1TCq1    O514083   4.142   0.412   7.848 -0.2505  0.1536 -0.1263
    1TCq1    O614084   4.350   0.418   7.809  0.3351 -0.0428  1.0840
    1TCq1    H114085   4.563   0.664   8.068 -1.7299 -0.5921  0.5749
    1TCq1    H214086   4.476   0.507   7.985 -0.8457  1.8088 -1.0393
    1TCq1    H314087   4.072   0.395   8.084 -2.5631  3.5907 -1.4365
    1TCq1    H414088   4.333   0.546   8.380  0.8550 -1.0715 -0.3969
    2MPD1     C14089   3.601   0.556   8.491 -0.0911 -0.3284  0.0210
    2MPD1    C114090   3.603   0.519   8.356 -0.2674  0.7316  0.1614
    2MPD1    C214091   3.721   0.497   8.292 -0.3827  0.7363 -0.0528
    2MPD1    C314092   3.840   0.500   8.362  0.5219  0.9642  0.2975
    2MPD1    C414093   3.840   0.529   8.501  0.1381  1.2224  0.5500
    2MPD1    C514094   3.720   0.566   8.556 -0.0948 -0.0769  0.3496
    2MPD1     H14095   3.728   0.480   8.186  1.4617 -1.1737  0.3716
    2MPD1    H114096   3.930   0.531   8.560 -0.1255 -2.1550  1.0544
    2MPD1    H214097   3.517   0.593   8.548 -0.7054 -0.9673 -0.4600
    2MPD1    H314098   3.720   0.597   8.660  2.2210  0.1880  0.2879
    2MPD1     N14099   3.959   0.488   8.282 -0.0074  0.2573 -0.5665
    2MPD1    H514100   3.945   0.488   8.182 -2.1349 -1.0306 -0.2690
    2MPD1    N114101   3.487   0.544   8.286 -0.4143  0.3199  0.4311
    2MPD1    H614102   3.413   0.539   8.356 -1.1720 -2.5571 -0.5540
    2MPD1    H714103   3.464   0.474   8.216 -1.8064  0.9763  0.2431
    1MPD1     C14104   0.399   0.913  12.245  0.5535  0.2630 -0.1866
    1MPD1    C114105   0.522   0.893  12.185 -0.5708  0.2033 -0.4645
    1MPD1    C214106   0.555   0.987  12.089  0.0392  0.0853 -0.3945
    1MPD1    C314107   0.485   1.106  12.065 -0.3669 -1.2262 -0.3013
    1MPD1    C414108   0.385   1.133  12.154 -0.2972 -0.7886 -0.0850
    1MPD1    C514109   0.343   1.035  12.236  0.4312  0.6392 -0.5845
    1MPD1     H14110   0.640   0.956  12.030 -3.0734 -1.4154 -4.0422
    1MPD1    H114111   0.321   1.219  12.139  0.8664  0.2821  1.1440
    1MPD1    H214112   0.352   0.839  12.308 -0.9537  1.8082  0.4909
    1MPD1    H314113   0.251   1.059  12.288  0.9433  1.5939 -0.1180
    1MPD1     N14114   0.538   1.204  11.981  0.3893  0.7104 -0.6835
    1MPD1    H514115   0.614   1.168  11.925 -0.3517 -0.2242 -1.0804
    1MPD1    N114116   0.578   0.767  12.185  0.0280 -0.3471  0.4112
    1MPD1    H614117   0.675   0.769  12.154  0.3962  0.9677  1.6768
    1MPD1    H714118   0.566   0.720  12.274  1.3013  1.0340  1.3149
    2MPD1     C14119   4.518   1.500  11.355 -0.4848  0.1417 -0.1482
    2MPD1    C114120   4.456   1.498  11.234 -0.7287 -0.0032 -0.0548
    2MPD1    C214121   4.519   1.435  11.130 -0.1890 -0.6912  0.3353
    2MPD1    C314122   4.624   1.356  11.156  1.3017 -0.1264  0.2657
    2MPD1    C414123   4.676   1.349  11.282 -0.2539 -0.7729  0.5129
    2MPD1    C514124   4.628   1.424  11.385 -0.5463  0.0819  0.4551
    2MPD1     H14125   4.472   1.454  11.035  0.8676 -0.8934 -0.2244
    2MPD1    H114126   0.042   1.280  11.293  1.5146  1.6381  2.1693
    2MPD1    H214127   4.480   1.563  11.434  0.6678  0.4615  0.1451
    2MPD1    H314128   4.661   1.427  11.488 -0.3768 -0.0661  0.4043
    2MPD1     N14129   4.689   1.284  11.054  0.7397 -0.1393  0.1173
    2MPD1    H514130   0.056   1.238  11.087 -1.1641 -2.6141  1.4369
    2MPD1    N114131   4.343   1.578  11.206  0.2076  0.4095 -0.3948
    2MPD1    H614132   4.282   1.539  11.135  0.4902  2.0505 -1.5545
    2MPD1    H714133   4.285   1.588  11.288  0.0488  2.4609 -0.7460
    3MPD1     C14134   0.143   0.853  10.066  0.5580  0.1480 -0.0611
    3MPD1    C114135   0.215   0.968  10.087 -0.4416  0.2021 -0.2783
    3MPD1    C214136   0.223   1.024  10.218  0.3542  0.1334  0.2867
    3MPD1    C314137   0.146   0.961  10.315  0.1537  0.4074  0.7044
    3MPD1    C414138   0.087   0.833  10.302  0.0513  0.1276 -1.0378
    3MPD1    C514139   0.090   0.783  10.172  0.4346 -0.1337 -0.0790
    3MPD1     H14140   0.287   1.109  10.242  2.6246 -1.8602  1.2099
    3MPD1    H114141   0.026   0.784  10.376  1.2311  0.0716 -0.1020
    3MPD1    H214142   0.121   0.806   9.971 -0.2828 -2.6458  1.5065
    3MPD1    H314143   0.031   0.693  10.157 -0.5033  0.5387 -0.4213
    3MPD1     N14144   0.146   1.025  10.437 -0.2133 -0.1257 -0.0428
    3MPD1    H514145   0.189   1.115  10.456 -2.3844  0.9097 -0.0253
    3MPD1    N114146   0.300   1.012   9.987  0.1699  0.0753 -0.0862
    3MPD1    H614147   0.267   0.991   9.893  1.4336  1.0221 -0.7310
    3MPD1    H714148   0.337   1.106  10.003  1.8117 -0.6026  0.0858
    4MPD2     C14149   0.432   1.566  11.287  0.3976 -0.7014 -0.2229
    4MPD2    C114150   0.541   1.626  11.340 -0.6330 -0.0362 -0.2002
    4MPD2    C214151   0.636   1.670  11.253 -0.2094  0.6990 -0.3169
    4MPD2    C314152   0.632   1.649  11.115 -0.0150  0.3950 -0.1411
    4MPD2    C414153   0.527   1.573  11.065  0.4827 -0.3345 -0.2120
    4MPD2    C514154   0.429   1.533  11.152 -0.5390  0.0599  0.2837
    4MPD2     H14155   0.726   1.715  11.295  0.4846  0.4993 -1.6068
    4MPD2    H114156   0.527   1.539  10.962  1.3493  2.3103 -1.0885
    4MPD2    H214157   0.346   1.540  11.349 -0.6945  0.2224 -1.3504
    4MPD2    H314158   0.353   1.470  11.108 -0.3709  0.0288  0.0370
    4MPD2     N14159   0.729   1.686  11.028 -0.1524  0.2099  0.1985
    4MPD2    H514160   0.733   1.633  10.942  2.0960  0.4631  0.1258
    4MPD2    N114161   0.562   1.635  11.481  0.2268  0.6873 -0.2962
    4MPD2    H714162   0.646   1.684  11.508  0.6441 -0.2685  0.1673
    5TMC3    C114163   0.527   1.594  11.708 -0.6620 -0.3985  0.7429
    5TMC3    C214164   0.464   1.494  11.783 -0.1522  0.1548 -0.2143
    5TMC3    C314165   0.542   1.398  11.841 -0.4132  0.4996  0.3296
    5TMC3    C414166   0.669   1.598  11.706  0.2961 -0.6848  0.1577
    5TMC3    C514167   0.739   1.495  11.764 -0.0845  0.5703 -0.5205
    5TMC3    C614168   0.679   1.393  11.832 -0.7401  0.8970  0.1401
    5TMC3     C14169   0.470   1.592  11.577 -0.4941  0.9088  0.0319
    5TMC3     O14170   0.369   1.524  11.563  0.5247  0.1023 -0.8718
    5TMC3     H14171   0.355   1.498  11.789 -0.1041  1.0155  0.1835
    5TMC3    H114172   0.724   1.678  11.659 -0.2349 -1.3147 -1.5460
    5TMC3    H214173   0.745   1.328  11.889  0.1343  2.7492  1.2423
    5TMC3    C714174   0.859   1.463  11.686  0.1828 -0.0927  0.1445
    5TMC3    C814175   0.477   1.320  11.943  0.3594  0.1298 -0.6917
    5TMC3    O114176   0.939   1.555  11.661 -0.4875 -0.6901 -0.1033
    5TMC3    O214177   0.370   1.368  11.978 -0.2593  0.0453 -0.2041
    6TMC3    C114178   0.024   1.217  10.828  0.3692  0.9795  0.4108
    6TMC3    C214179   4.709   1.129  10.727 -0.2881 -0.7559 -0.2018
    6TMC3    C314180   0.088   1.057  10.661  0.5544 -0.0650 -0.1452
    6TMC3    C414181   0.146   1.246  10.857  0.2528  0.4230  1.0297
    6TMC3    C514182   0.241   1.176  10.789  0.1916  0.3905 -0.4179
    6TMC3    C614183   0.220   1.077  10.690  0.1469 -0.2911 -0.0320
    6TMC3     C14184   4.642   1.262  10.924 -0.7793  0.4207  0.2140
    6TMC3     O14185   4.539   1.297  10.872  0.3516  0.4359  0.2521
    6TMC3     H14186   4.605   1.112  10.699 -0.0350 -0.7316 -1.1467
    6TMC3    H114187   0.169   1.326  10.925 -0.9730 -0.1803  2.1595
    6TMC3    H214188   0.297   1.015  10.645 -0.1332 -0.6175 -0.0591
    6TMC3    C714189   0.379   1.204  10.816  0.4936  0.1806 -0.3629
    6TMC3    C814190   0.057   0.988  10.540 -0.2369 -0.1773 -0.6239
    6TMC3    O114191   0.414   1.323  10.837 -0.1969  0.4698 -0.0408
    6TMC3    O214192   4.672   0.915  10.541  0.6037  0.3170 -0.0584
    7MPD2     C14193   1.090   1.162  11.334  0.7878  0.5878  0.4220
    7MPD2    C114194   1.074   1.302  11.346  0.3291  0.5940  0.2361
    7MPD2    C214195   1.006   1.347  11.458  0.3765 -0.0687  0.1421
    7MPD2    C314196   0.956   1.265  11.556  0.0536 -0.1315 -0.0717
    7MPD2    C414197   0.966   1.130  11.548 -0.5185  0.6431 -0.1062
    7MPD2    C514198   1.044   1.080  11.438 -0.0690  0.0162  0.6922
    7MPD2     H14199   0.978   1.452  11.459 -1.3520 -0.5257 -0.6976
    7MPD2    H114200   0.935   1.063  11.627  0.5149  0.4291  0.1202
    7MPD2    H214201   1.133   1.106  11.252 -1.8844 -1.4099  0.3591
    7MPD2    H314202   1.054   0.972  11.432  0.5630  0.1027  0.1622
    7MPD2     N14203   0.874   1.324  11.660  0.1070  0.1337 -0.2224
    7MPD2    H514204   0.819   1.264  11.721  0.0170  0.1455 -0.2915
    7MPD2    N114205   1.096   1.389  11.243 -0.1130  0.5954  0.3796
    7MPD2    H714206   1.110   1.336  11.158 -0.6757 -0.3634  0.8899
    8TMC3    C114207   1.090   1.578  11.099 -0.6999  0.2748 -0.1474
    8TMC3    C214208   1.064   1.489  10.998 -0.7737  0.1694  0.7728
    8TMC3    C314209   0.992   1.526  10.894  0.4547 -0.7002  0.2575
    8TMC3    C414210   1.042   1.708  11.091  0.4333 -0.0515  0.2602
    8TMC3    C514211   0.956   1.730  10.993 -0.7948 -0.0941  0.9201
    8TMC3    C614212   0.940   1.646  10.889 -0.4742  0.1915 -0.1450
    8TMC3     C14213   1.092   1.527  11.240 -0.2307  0.3126 -0.6310
    8TMC3     O14214   1.111   1.609  11.327 -0.8561  0.4692  0.0421
    8TMC3     H14215   1.104   1.389  11.003 -2.1568 -0.4368 -0.5724
    8TMC3    H114216   1.043   1.770  11.180 -3.1679 -2.9395  2.3478
    8TMC3    H214217   0.875   1.673  10.807 -0.6922  1.4984  0.4500
    8TMC3    C714218   0.832   1.773  11.058 -0.0740  0.3342 -0.8555
    8TMC3    C814219   0.890   1.429  10.851  0.5561  0.0467  0.1329
    8TMC3    O114220   0.831   1.867  11.142 -0.3700  0.7507  0.2375
    8TMC3    O214221   0.784   1.477  10.806 -0.1082 -0.3234  1.0870
    9MPD2     C14222   0.874   1.064  10.868 -0.4944 -0.2965  0.2291
    9MPD2    C114223   0.816   1.192  10.867 -0.6367  0.0202  0.7965
    9MPD2    C214224   0.679   1.202  10.860  0.7883 -0.2020 -0.3866
    9MPD2    C314225   0.602   1.088  10.848  0.4903  0.2270 -0.6415
    9MPD2    C414226   0.666   0.966  10.839  0.2392  0.1010  0.0408
    9MPD2    C514227   0.804   0.951  10.848 -0.3850  0.5346  0.0780
    9MPD2     H14228   0.634   1.301  10.865  2.3743  0.6412 -2.5883
    9MPD2    H114229   0.599   0.885  10.815 -0.1228  0.5699 -0.5082
    9MPD2    H214230   0.983   1.060  10.863 -0.4650  0.5564  0.3038
    9MPD2    H314231   0.847   0.852  10.834 -1.2383  0.6685 -3.4383
    9MPD2     N14232   0.458   1.091  10.830  0.5313 -0.2505  0.4454
    9MPD2    H514233   0.408   1.002  10.826  1.3983 -0.8417  2.5131
    9MPD2    N114234   0.912   1.300  10.873 -0.3051 -0.2020 -0.2680
    9MPD2    H714235   1.009   1.274  10.884 -0.0342  0.6798 -0.5326
    1MPD1     C14236   4.198   4.673  16.283  0.1349  0.1384  0.7450
    1MPD1    C114237   4.291   0.064  16.284 -0.1421 -0.2757  0.5297
    1MPD1    C214238   4.331   0.117  16.164 -0.0779  0.2567 -0.0882
    1MPD1    C314239   4.275   0.066  16.043  0.0912 -0.2752  0.8090
    1MPD1    C414240   4.185   4.674  16.049 -0.2323 -0.2151  0.3492
    1MPD1    C514241   4.151   4.622  16.166 -0.3289 -0.0835  0.8313
    1MPD1     H14242   4.406   0.194  16.154 -1.7971  1.8308 -0.9003
    1MPD1    H114243   4.138   4.633  15.961  0.1188 -0.0766  0.0958
    1MPD1    H214244   4.173   4.629  16.379 -2.6943  2.2673  0.9757
    1MPD1    H314245   4.091   4.531  16.165 -1.2879  0.5149  3.9165
    1MPD1     N14246   4.324   0.109  15.916  0.5620  0.3822  0.1473
    1MPD1    H514247   4.285   0.057  15.838 -0.5661  0.8733  0.3913
    1MPD1    N114248   4.345   0.103  16.404 -0.1813  0.5372  0.4862
    1MPD1    H614249   4.277   0.099  16.480  0.2136 -2.3226  0.6788
    1MPD1    H714250   4.381   0.199  16.405 -1.2585  0.9441  0.7271
    2MPD1     C14251   0.469   0.475  15.336  0.0145  0.7950  0.5711
    2MPD1    C114252   0.414   0.358  15.292 -0.4208 -0.0593  0.0637
    2MPD1    C214253   0.287   0.316  15.342  0.1280 -0.3635  0.3613
    2MPD1    C314254   0.224   0.392  15.443 -0.2474 -0.5125 -0.2055
    2MPD1    C414255   0.302   0.484  15.512  1.0794  0.8178  0.1906
    2MPD1    C514256   0.421   0.521  15.457  0.4952 -0.3165 -0.3642
    2MPD1     H14257   0.241   0.226  15.302 -0.0651  0.2536 -0.8040
    2MPD1    H114258   0.270   0.540  15.599 -1.4284 -0.8227  0.3319
    2MPD1    H214259   0.570   0.506  15.311  0.5163  0.2641  1.9106
    2MPD1    H314260   0.469   0.599  15.515  2.5113 -0.5151 -1.7502
    2MPD1     N14261   0.094   0.348  15.482  0.3990 -0.1413 -0.0446
    2MPD1    H514262   0.047   0.271  15.436 -0.0947  0.1958 -0.1071
    2MPD1    N114263   0.467   0.273  15.194 -0.6779 -0.0251 -0.0298
    2MPD1    H614264   0.568   0.268  15.192 -0.7651 -1.3018 -1.4901
    2MPD1    H714265   0.419   0.185  15.178 -1.0949  0.1812  0.0711
    3TCq2    C114266   0.027   0.390  15.601 -0.4943  0.0821 -0.0449
    3TCq2    O214267   0.067   0.458  15.696  0.5417  0.3213 -0.2297
    3TCq2    C214268   4.616   0.321  15.605  0.0997 -0.1029 -0.1419
    3TCq2    C314269   4.553   0.253  15.505 -0.0827 -0.6258 -0.6066
    3TCq2    C414270   4.444   0.174  15.523  0.7430 -0.6516 -0.2020
    3TCq2    C514271   4.392   0.157  15.646  0.5010 -0.0170  0.2782
    3TCq2    C614272   4.449   0.227  15.751  0.5752  0.2140 -0.1640
    3TCq2    C714273   4.565   0.303  15.731  0.2602 -0.3947 -0.0661
    3TCq2    C814274   4.409   0.213  15.893  0.4530 -0.3413 -1.2182
    3TCq2    O414275   4.453   0.297  15.972  0.2785 -0.1948  0.1153
    3TCq2    C914276   4.388   0.092  15.419  0.4088 -0.3003  0.6491
    3TCq2    O514277   4.304   0.008  15.453 -0.2197 -0.2250 -0.3614
    3TCq2    O614278   4.435   0.111  15.305  0.3492  0.1075  0.4852
    3TCq2    H214279   4.588   0.271  15.404 -0.3013 -2.3826 -0.9880
    3TCq2    H314280   4.310   0.089  15.665 -0.5366  1.1059 -0.1435
    3TCq2    H414281   4.613   0.345  15.818  0.7571 -0.4131 -0.3354
    1TCq1    O114282   3.228   4.353  12.699 -0.4250  0.3753 -0.1780
    1TCq1    C114283   3.354   4.317  12.737 -0.6802 -0.3726  0.6657
    1TCq1    O214284   3.456   4.388  12.736 -0.0605  1.0035  0.0894
    1TCq1    C214285   3.333   4.219  12.845 -0.0314 -0.2145 -0.2095
    1TCq1    C314286   3.215   4.168  12.871  0.4902 -0.5112  0.4026
    1TCq1    C414287   3.202   4.032  12.911 -0.3541  0.3878 -0.2561
    1TCq1    C514288   3.318   3.958  12.919  0.4360 -0.4189 -0.2524
    1TCq1    C614289   3.436   4.022  12.911  0.2139  0.1836 -0.0618
    1TCq1    C714290   3.452   4.154  12.874 -0.6191  0.1139 -0.9817
    1TCq1    C814291   3.548   3.929  12.929  0.9242  0.1684 -0.2636
    1TCq1    O414292   3.524   3.810  12.923  0.2086 -0.2525 -0.2123
    1TCq1    C914293   3.076   3.971  12.931 -0.4413  0.3738 -0.4275
    1TCq1    O514294   3.056   3.891  13.025 -0.2487  0.5694 -0.1396
    1TCq1    O614295   2.991   4.008  12.847 -0.1081  0.6810 -0.1131
    1TCq1    H114296   3.160   4.283  12.698 -0.0419 -0.0007  1.0640
    1TCq1    H214297   3.124   4.225  12.863  0.3769 -0.7406  0.0733
    1TCq1    H314298   3.305   3.855  12.950 -0.8720 -0.7592 -1.9678
    1TCq1    H414299   3.550   4.187  12.842 -1.1050  2.5349  0.0238
    2MPD2     C14300   3.816   3.808  12.970  0.3515 -0.1588 -0.1225
    2MPD2    C114301   3.778   3.939  13.010 -0.3541 -0.0981  0.1466
    2MPD2    C214302   3.860   4.007  13.094 -0.1584  0.4718  0.6176
    2MPD2    C314303   3.981   3.957  13.135  0.4922 -0.5137 -0.2115
    2MPD2    C414304   4.024   3.831  13.091  0.4433 -0.4413 -0.2881
    2MPD2    C514305   3.938   3.760  13.009 -0.0972 -0.4940  0.3627
    2MPD2     H14306   3.825   4.100  13.137  0.8538  0.0804  2.3088
    2MPD2    H114307   4.112   3.776  13.123 -0.3554 -0.7561  1.3373
    2MPD2    H214308   3.759   3.756  12.894 -0.6027 -0.8797  1.0757
    2MPD2    H314309   3.972   3.664  12.973 -0.0200 -0.4561  0.3358
    2MPD2     N14310   4.047   4.020  13.242 -0.6164 -0.2232 -0.6541
    2MPD2    H514311   4.018   4.109  13.281  1.3098 -0.1338  0.5991
    2MPD2    N114312   3.656   3.999  12.965 -0.5740  0.2312  0.8320
    2MPD2    H714313   3.650   4.101  12.967  0.5835  0.3462 -0.7448
    3TCq1    O114314   4.448   4.135  13.784 -0.3823  0.1876 -0.8790
    3TCq1    C114315   4.446   4.144  13.654 -0.3555  0.0238 -0.2650
    3TCq1    O214316   4.538   4.131  13.577 -0.1876 -0.7528  0.2504
    3TCq1    C214317   4.311   4.126  13.607  0.3076 -0.0942  0.0726
    3TCq1    C314318   4.210   4.194  13.668  0.8068 -0.0800 -0.0462
    3TCq1    C414319   4.084   4.184  13.619 -0.2698  0.1115 -0.3341
    3TCq1    C514320   4.058   4.104  13.507  0.1011  0.2761 -0.6180
    3TCq1    C614321   4.170   4.048  13.440 -0.5608  0.3166  0.2588
    3TCq1    C714322   4.292   4.054  13.492  0.0361  0.2088 -0.0449
    3TCq1    C814323   4.152   3.965  13.318 -0.0358  0.5861  0.2477
    3TCq1    O414324   4.233   3.876  13.284 -0.1445 -0.0418 -0.5373
    3TCq1    C914325   3.975   4.257  13.679 -0.2075  0.0074 -0.0581
    3TCq1    O514326   3.999   4.332  13.777 -0.4337  0.4450 -0.4205
    3TCq1    O614327   3.859   4.244  13.640  0.1847 -0.1163 -0.1062
    3TCq1    H114328   4.362   4.119  13.830 -0.1669 -3.9123 -1.8770
    3TCq1    H214329   4.226   4.257  13.755  1.0691  1.6858 -1.3628
    3TCq1    H314330   3.958   4.105  13.465  0.6043 -3.6196 -1.8655
    3TCq1    H414331   4.378   4.005  13.448 -0.9126  1.0952 -2.9073
    1MPD2     C14332   3.146   0.142  14.409  0.0077 -0.0891  0.5245
    1MPD2    C114333   3.037   0.069  14.470  0.0257 -0.0777  0.0142
    1MPD2    C214334   3.066   0.013  14.593  0.5406  0.4877  0.7195
    1MPD2    C314335   3.190   0.023  14.657  0.8929  0.3792 -0.4354
    1MPD2    C414336   3.295   0.082  14.588 -0.1196  0.2189  0.8591
    1MPD2    C514337   3.271   0.136  14.460 -0.3045 -0.1473  0.8075
    1MPD2     H14338   2.984   4.688  14.649  0.6386  1.7155  1.7913
    1MPD2    H114339   3.399   0.080  14.620  0.5059 -2.4504 -1.3488
    1MPD2    H214340   3.126   0.189  14.313  0.6275 -1.0935 -0.0995
    1MPD2    H314341   3.352   0.171  14.396 -0.5411 -0.5106  0.3073
    1MPD2     N14342   3.203   4.673  14.782 -0.1049 -0.6310 -0.4144
    1MPD2    H514343   3.125   4.621  14.821 -0.7303  0.4272 -0.2829
    1MPD2    N114344   2.911   0.065  14.405  0.4450  0.1340 -0.2142
    1MPD2    H714345   2.897   0.115  14.318  0.6938  1.4351  0.4951
    2TMC3    C114346   2.686   4.707  14.361 -0.2035 -0.6200 -0.6881
    2TMC3    C214347   2.589   4.645  14.426 -0.1608 -0.1406 -0.4739
    2TMC3    C314348   2.528   4.537  14.365  0.1536 -0.2136  0.4113
    2TMC3    C414349   2.710   4.694  14.232 -0.2166 -0.8544  0.1398
    2TMC3    C514350   2.638   4.605  14.161  0.2691 -0.3465 -0.2014
    2TMC3    C614351   2.545   4.522  14.228 -0.0568 -0.0012 -0.5328
    2TMC3     C14352   2.798   4.715  14.452 -0.2285 -0.0990 -0.0921
    2TMC3     O14353   2.785   4.663  14.562 -0.0658  0.0412 -0.2751
    2TMC3     H14354   2.570   4.664  14.531  0.1656  0.7413 -0.5828
    2TMC3    H114355   2.781   0.041  14.182  1.4907 -1.7084  1.4554
    2TMC3    H214356   2.488   4.446  14.176 -0.7371  0.8572 -1.0391
    2TMC3    C714357   2.593   4.641  14.028 -0.4163 -0.5524 -0.2078
    2TMC3    C814358   2.523   4.415  14.449 -0.2336 -0.3872 -0.3833
    2TMC3    O114359   2.514   4.570  13.967 -0.6221  0.1631 -0.1455
    2TMC3    O214360   2.462   4.314  14.419 -0.8109 -0.0486  0.7038
    3TCq1    O114361   2.323   1.027  13.963  0.5011 -0.3140 -0.3087
    3TCq1    C114362   2.323   0.901  13.922 -0.4878  0.0366 -0.0871
    3TCq1    O214363   2.239   0.817  13.948  0.1374 -0.2163 -0.3380
    3TCq1    C214364   2.450   0.880  13.853 -0.3571 -0.4465  0.0356
    3TCq1    C314365   2.566   0.914  13.922 -0.4853  0.3935  0.5857
    3TCq1    C414366   2.680   0.839  13.882 -0.1076 -0.5992  0.5127
    3TCq1    C514367   2.672   0.732  13.799 -0.2924 -0.2644  0.6691
    3TCq1    C614368   2.553   0.691  13.749 -0.3752 -0.4277  0.6216
    3TCq1    C714369   2.451   0.778  13.765 -0.1552  0.8235  0.5998
    3TCq1    C814370   2.523   0.549  13.721  0.0429  0.0895  0.0804
    3TCq1    O414371   2.415   0.531  13.666  0.1301 -0.2301 -0.0710
    3TCq1    C914372   2.805   0.863  13.953 -0.2355  0.0905  0.5650
    3TCq1    O514373   2.814   0.964  14.024  0.3278 -0.6684  0.2034
    3TCq1    O614374   2.907   0.790  13.928 -0.0430 -0.2386  0.1758
    3TCq1    H114375   2.386   1.082  13.910  0.9489 -0.1274  0.4154
    3TCq1    H214376   2.572   0.974  14.012 -1.9568  1.3080  0.0735
    3TCq1    H314377   2.761   0.671  13.789 -0.8209 -0.5976 -1.9160
    3TCq1    H414378   2.351   0.750  13.735  0.5726 -0.1182 -0.9461
    4MPD2     C14379   2.549   0.257  13.650  0.4741  0.0064  0.1396
    4MPD2    C114380   2.610   0.323  13.763 -0.0219 -0.3043  0.2648
    4MPD2    C214381   2.633   0.254  13.875 -0.1134 -0.1002  0.8460
    4MPD2    C314382   2.603   0.120  13.886 -0.4305 -0.0119 -1.0392
    4MPD2    C414383   2.562   0.049  13.771  0.4936  0.3835  0.1330
    4MPD2    C514384   2.537   0.124  13.661  0.3344  0.3913  0.8262
    4MPD2     H14385   2.666   0.300  13.968  0.3117 -1.0146  1.1510
    4MPD2    H114386   2.531   4.663  13.768 -1.5257  1.0042 -0.6057
    4MPD2    H214387   2.503   0.297  13.560  2.5815 -1.1029 -1.4180
    4MPD2    H314388   2.499   0.059  13.582 -1.1089  2.9179 -0.5465
    4MPD2     N14389   2.623   0.056  14.008 -0.9538 -0.5110 -0.6511
    4MPD2    H514390   2.648   0.120  14.084  3.6902 -2.8604 -0.1636
    4MPD2    N114391   2.611   0.463  13.776  0.3371 -0.3040  0.4248
    4MPD2    H714392   2.676   0.503  13.843 -0.6820  1.3659  0.4245
    5TMC2    C114393   3.132   4.424  14.962  1.0132 -0.6910  0.3384
    5TMC2    C214394   3.216   4.326  14.927  0.4234  0.1490  0.0545
    5TMC2    C314395   3.343   4.357  14.905  0.0210 -0.1936  0.2066
    5TMC2    C414396   3.176   4.548  14.995 -0.7174 -0.4163 -0.2440
    5TMC2    C514397   3.301   4.578  14.966  0.8320  1.0520  0.2169
    5TMC2    C614398   3.394   4.478  14.939 -0.5273  0.7683 -1.0644
    5TMC2     C14399   3.002   4.427  14.899 -0.2418 -0.1214  0.4750
    5TMC2     O14400   2.977   4.542  14.869 -0.0617 -0.2644 -0.1442
    5TMC2     H14401   3.190   4.229  14.887  0.2118 -1.6619  4.6082
    5TMC2    H114402   3.107   4.625  15.028 -1.1173 -1.0901  0.4990
    5TMC2    H214403   3.495   4.513  14.919 -0.0643  1.4188  2.3435
    5TMC2    C714404   3.313   4.678  14.861 -0.3435  0.2602  0.8117
    5TMC2    C814405   3.439   4.248  14.922  0.5861 -0.3174 -0.8305
    5TMC2    O114406   3.420   0.020  14.853  0.0458 -0.6889 -0.2326
    5TMC2    O214407   3.558   4.257  14.960 -0.0606 -0.2295 -0.2094
    5TMC2    O514408   3.395   4.160  14.831  0.3133 -0.1791  0.0012
    5TMC2    H514409   3.305   4.178  14.795 -0.5474 -0.8772  1.7586
    6MPD2     C14410   2.608   4.207  14.649 -0.4041  0.2028 -0.3428
    6MPD2    C114411   2.667   4.331  14.627  0.7835  0.0168 -0.1640
    6MPD2    C214412   2.780   4.369  14.701  0.2630 -0.2617 -0.0671
    6MPD2    C314413   2.835   4.280  14.793 -0.3520  0.7429 -0.8153
    6MPD2    C414414   2.768   4.160  14.816  0.2564 -0.5378  0.0313
    6MPD2    C514415   2.654   4.127  14.746  0.5652 -0.0907  0.1011
    6MPD2     H14416   2.816   4.471  14.693 -2.0357  0.2823 -3.6120
    6MPD2    H114417   2.813   4.087  14.882  1.0735  0.8153  0.9804
    6MPD2    H214418   2.518   4.178  14.596 -1.5006  1.8861  0.5929
    6MPD2    H314419   2.617   4.026  14.760 -1.9031  0.8220  0.1893
    6MPD2     N14420   2.945   4.305  14.881 -0.1423 -0.1783  0.6916
    6MPD2    H514421   2.978   4.224  14.932  2.7408  0.8062  0.4254
    6MPD2    N114422   2.632   4.422  14.528  0.1574 -0.0717 -0.1767
    6MPD2    H714423   2.692   4.504  14.532 -0.1224  0.2336 -2.1989
  945NH3     N114424   0.696   3.021   9.184 -0.2730 -0.2146  0.0240
  945NH3     H214425   0.776   3.009   9.122  1.1864  1.0577  1.6651
  945NH3     H314426   0.655   2.928   9.190 -0.1119  0.0295  4.4425
  945NH3     H414427   0.634   3.076   9.125 -0.5478 -1.8316 -1.1950
  946SOD     NA14428   2.345   2.785  14.885  0.0828  0.3803 -0.0034
  947SOD     NA14429   3.045   0.913  14.058 -0.1291 -0.0029  0.0098
  948SOD     NA14430   0.382   1.656  14.504  0.8128 -0.3719 -0.1006
  949SOD     NA14431   2.577   3.243   9.996 -0.4264  0.5144 -0.1512
  950SOD     NA14432   1.793   3.052  17.056  0.2482  0.0747  0.2111
  951SOD     NA14433   2.906   3.188   9.993 -0.1179  0.0688 -0.3392
  952SOD     NA14434   3.488   3.212   3.000 -0.6118  0.3073 -0.0980
  953SOD     NA14435   4.376   3.420  10.257  0.1464  0.2456  0.3154
  954SOD     NA14436   3.389   3.660  13.015 -0.0898  0.0273 -0.2015
  955SOD     NA14437   4.182   4.492  14.176 -0.5610  0.3820  0.4972
  956SOD     NA14438   3.025   2.996   2.043 -0.0907 -0.2499  0.1233
  957SOD     NA14439   2.678   4.272   9.919  0.0672 -0.1142  0.6177
  958SOD     NA14440   1.381   0.085   8.734 -0.2130  0.0212  0.1304
  959SOD     NA14441   4.389   3.913  14.032 -0.0475  0.0317  0.1088
  960SOD     NA14442   0.232   2.696  12.487  0.1226  0.4470 -0.0332
  961SOD     NA14443   2.198   4.047   8.690 -0.2572 -0.1366 -0.9953
  962SOD     NA14444   0.117   3.615  17.403  0.2082 -0.1281  0.1383
  963SOD     NA14445   1.973   3.467   2.108 -0.1272 -0.3877  0.3781
  964SOD     NA14446   2.510   4.366  10.629 -0.0483 -0.0145 -0.0219
  965SOD     NA14447   1.866   2.868  11.588  0.0221  0.5427 -0.2969
  966SOD     NA14448   3.133   0.054  13.887  0.3338 -0.9122  0.4019
  967SOD     NA14449   1.171   3.317   8.061  0.3015  0.1535  0.0801
  968SOD     NA14450   0.960   4.113  16.449  0.2590 -0.2305 -0.4954
  969SOD     NA14451   4.241   0.146  11.418  0.2293 -0.1480 -0.1032
  970SOD     NA14452   1.339   3.307  10.963 -0.3382 -0.4128  0.0816
  971SOD     NA14453   0.001   0.707  14.198 -0.3175 -0.0068 -0.0501
  972SOD     NA14454   3.099   3.490   9.408  0.5962  0.3443  0.5371
  973SOD     NA14455   3.418   4.031   6.832  0.2262  0.4270  0.0263
  974SOD     NA14456   2.807   1.203  12.161  0.4239  0.0799  0.2588
  975SOD     NA14457   2.727   1.446   0.683  0.0615 -0.2930 -0.0599
  976SOD     NA14458   3.509   4.282  11.766  0.2870  0.5562 -0.3163
  977SOD     NA14459   3.887   0.749  10.729 -0.0898  0.2958 -0.4012
  978SOD     NA14460   4.401   0.871  16.364 -0.3515 -0.0150 -0.0838
  979SOD     NA14461   2.990   2.390  10.212  0.3064 -0.1720 -0.0770
  980SOD     NA14462   1.293   2.017  15.317  0.1376 -0.4592  0.2924
  981SOD     NA14463   3.807   1.391   9.622 -0.2533  0.2758 -0.3208
  982SOD     NA14464   2.473   3.972   8.562 -0.5830 -0.1651  0.1062
  983SOD     NA14465   2.582   0.264  14.711  0.2843 -0.6936  0.1028
  984SOD     NA14466   0.659   4.078  14.687  0.5051 -0.2930 -0.7457
  985SOD     NA14467   3.016   2.878  10.055  0.0842 -0.2036 -0.2630
  986SOD     NA14468   4.159   2.995   4.567 -0.0042 -0.1345  0.3626
  987SOD     NA14469   1.891   3.161  11.086  0.5043 -0.1780 -0.3479
  988SOD     NA14470   3.345   3.998  11.808  0.3235 -0.1527 -0.0374
  989SOD     NA14471   4.567   2.042   0.111  0.5449  0.3863  0.1096
  990SOD     NA14472   4.252   4.185   7.448 -0.6349  0.7226 -0.2510
  991SOD     NA14473   4.152   4.577  15.011  0.0934 -0.3775 -0.0198
  992SOD     NA14474   0.884   4.462  12.751 -0.0915 -0.0787 -0.0720
  993SOD     NA14475   1.750   3.229   1.621  0.0423  0.1990  0.0652
  994SOD     NA14476   4.221   4.335  11.389 -0.1543  0.0337 -0.6672
  995SOD     NA14477   1.312   0.404  14.330 -0.4165  0.1813  0.3500
  996SOD     NA14478   3.160   0.442   7.363 -0.1069  0.1307  0.0373
  997SOD     NA14479   1.162   2.596   0.593  0.3013 -0.3184 -0.1983
  998SOD     NA14480   2.613   1.485   9.081 -0.3685 -0.1053  0.2751
  999SOD     NA14481   4.614   2.980  17.269  0.2533 -0.0198  0.0609
 1000SOD     NA14482   4.224   0.952   1.557 -0.3518  0.2927  0.0497
 1001SOD     NA14483   3.091   3.488  12.932 -0.0881  0.1560 -0.2020
 1002SOD     NA14484   0.117   0.334  12.214  0.0557  0.3844  0.4482
 1003SOD     NA14485   3.353   3.686  11.197 -0.2052 -0.0987 -0.3340
 1004SOD     NA14486   2.850   3.858  12.943  0.4778  0.4134 -0.4392
 1005SOD     NA14487   0.118   2.304  13.977 -0.4508  0.0568 -0.5935
 1006SOD     NA14488   0.689   0.491   0.443 -0.1684  0.1512  0.6218
 1007SOD     NA14489   0.807   3.948   0.438  0.4935  0.5255  0.5376
 1008SOD     NA14490   1.807   1.479   2.561  0.5171  0.3063  0.0019
 1009SOD     NA14491   3.787   4.302  13.856  0.1581 -0.2575  0.2730
 1010SOD     NA14492   4.112   4.648  15.375  0.0069 -0.4703  0.1319
 1011SOD     NA14493   4.017   3.016   9.999  0.0897  0.3076 -0.1593
 1012SOL     OW14494   4.621   1.473   2.305 -0.2233 -0.6672  0.3262
 1012SOL    HW114495   4.596   1.383   2.284  1.2564 -0.5812 -1.7074
 1012SOL    HW214496   4.603   1.508   2.217  0.6467 -1.3112 -0.1020
 1013SOL     OW14497   0.863   0.773   9.928 -0.0230 -0.4433  0.3122
 1013SOL    HW114498   0.927   0.719   9.882  0.7318  0.4886  0.2858
 1013SOL    HW214499   0.843   0.724  10.008  2.6698  1.7278  2.3352
 1014SOL     OW14500   3.106   0.243  17.635 -0.4985 -0.0451  0.3282
 1014SOL    HW114501   3.069   0.198  17.558  1.6734 -0.0394 -0.7054
 1014SOL    HW214502   3.036   0.243   0.028  0.3024 -0.6905  1.1657
 1015SOL     OW14503   0.260   2.645   9.062  0.5736 -0.0422 -0.1734
 1015SOL    HW114504   0.249   2.550   9.054 -0.0935  0.1244 -1.2972
 1015SOL    HW214505   0.262   2.665   8.968  0.1221  0.7531 -0.0149
 1016SOL     OW14506   1.608   4.516   2.986 -0.2204 -0.3873  0.3977
 1016SOL    HW114507   1.697   4.549   2.982 -0.3461 -0.3912 -2.2353
 1016SOL    HW214508   1.591   4.503   2.893 -0.0574  0.2439  0.2808
 1017SOL     OW14509   4.661   3.168   5.570 -0.4413 -0.0815 -0.0476
 1017SOL    HW114510   0.009   3.222   5.526 -1.1566 -0.0036 -1.0136
 1017SOL    HW214511   4.669   3.205   5.658 -0.6290  0.9518 -0.4682
 1018SOL     OW14512   4.115   1.225   2.835  0.4564  0.4458 -0.2465
 1018SOL    HW114513   4.078   1.310   2.814  2.6652  1.2604 -0.9040
 1018SOL    HW214514   4.172   1.252   2.907  0.7842  1.7512 -1.0014
 1019SOL     OW14515   0.883   0.709  16.493 -0.3095  0.0564 -0.0957
 1019SOL    HW114516   0.920   0.663  16.418  0.2173  0.4674 -0.0817
 1019SOL    HW214517   0.950   0.776  16.500 -0.5180  0.2347  0.2208
 1020SOL     OW14518   4.258   4.306   2.134 -0.5869  0.1870 -0.3202
 1020SOL    HW114519   4.230   4.396   2.115 -0.1979  0.2140 -0.7624
 1020SOL    HW214520   4.213   4.240   2.082  1.0298 -2.2232  1.3464
 1021SOL     OW14521   4.166   1.157   1.443 -0.0825 -0.1921 -0.3573
 1021SOL    HW114522   4.197   1.243   1.471 -0.1196 -0.5438  0.7522
 1021SOL    HW214523   4.073   1.177   1.444 -0.6002 -2.5783 -0.3697
 1022SOL     OW14524   0.831   1.883  17.671  0.6579 -0.4312  0.3128
 1022SOL    HW114525   0.926   1.872  17.665  0.7695 -0.3357  1.8802
 1022SOL    HW214526   0.814   1.977   0.001 -0.1988 -0.6462  1.9868
 1023SOL     OW14527   2.458   2.231   7.249  0.3615  0.4822  0.0678
 1023SOL    HW114528   2.469   2.320   7.214  1.4968  0.3789  0.1772
 1023SOL    HW214529   2.371   2.255   7.281 -0.6532  0.0227 -2.3533
 1024SOL     OW14530   1.677   0.999   6.024 -0.1752 -0.5546 -0.1861
 1024SOL    HW114531   1.671   0.983   5.929  2.6318 -0.7628 -0.3173
 1024SOL    HW214532   1.772   0.994   6.034  0.1974  1.9266 -2.3300
 1025SOL     OW14533   2.160   1.007   4.603  0.0881 -0.4869 -0.4574
 1025SOL    HW114534   2.223   0.983   4.670 -0.1369  1.4831  0.4536
 1025SOL    HW214535   2.166   1.103   4.610  1.4058 -0.6476  0.4696
 1026SOL     OW14536   4.369   3.321   2.724 -0.2604 -0.4046  0.0941
 1026SOL    HW114537   4.314   3.328   2.646 -0.2371  0.2134  0.1313
 1026SOL    HW214538   4.455   3.354   2.698 -0.1147 -0.0663  1.0336
 1027SOL     OW14539   1.886   0.199   1.332  0.1280 -0.6550  0.1935
 1027SOL    HW114540   1.897   0.253   1.411  0.6197  1.2388 -1.1728
 1027SOL    HW214541   1.795   0.220   1.312  0.9983  0.6167 -2.3602
 1028SOL     OW14542   4.262   4.539   7.802  0.2833  0.1492  0.5098
 1028SOL    HW114543   4.322   4.604   7.838  1.7172 -0.2436 -1.1316
 1028SOL    HW214544   4.217   4.493   7.874 -1.3383  0.4827 -0.2959
 1029SOL     OW14545   2.443   0.732   6.294 -0.3125 -0.3181 -0.3988
 1029SOL    HW114546   2.365   0.754   6.344  0.8821 -0.4244  1.5005
 1029SOL    HW214547   2.495   0.696   6.365 -2.5006  0.3813  1.5494
 1030SOL     OW14548   3.815   1.437   8.016  0.0509  0.2625 -0.4466
 1030SOL    HW114549   3.731   1.409   8.051  0.7083  1.0662  1.7450
 1030SOL    HW214550   3.847   1.357   7.975 -0.6620  0.1824 -0.8364
 1031SOL     OW14551   0.607   2.820   1.727  0.1775  0.5123  0.1046
 1031SOL    HW114552   0.529   2.865   1.695 -0.6342 -1.4401 -0.6448
 1031SOL    HW214553   0.653   2.894   1.767  1.3511 -0.1505 -0.0140
 1032SOL     OW14554   4.660   4.524   8.707 -0.2866  0.0978  0.0301
 1032SOL    HW114555   4.600   4.470   8.654  0.9193 -0.0707 -1.1542
 1032SOL    HW214556   4.589   4.569   8.752 -0.5052 -0.7887  0.5798
 1033SOL     OW14557   1.632   4.019  14.657 -0.3486 -0.5341 -0.3352
 1033SOL    HW114558   1.586   3.969  14.589 -2.2611  1.3366 -0.4271
 1033SOL    HW214559   1.597   4.108  14.650  0.0207 -0.3597  0.0240
 1034SOL     OW14560   2.436   2.176   6.693  0.3657  0.3239 -0.0496
 1034SOL    HW114561   2.529   2.191   6.676  0.3262  0.7779  0.1334
 1034SOL    HW214562   2.424   2.210   6.782 -2.1761  2.7096 -1.2964
 1035SOL     OW14563   0.029   0.661   7.566 -0.7419  0.3025  0.0716
 1035SOL    HW114564   4.686   0.602   7.612  0.9514 -0.4870  1.2972
 1035SOL    HW214565   0.104   0.603   7.577  1.2620  2.4162 -2.6331
 1036SOL     OW14566   1.945   4.486   7.687 -0.6201  0.2066  0.0421
 1036SOL    HW114567   2.008   4.553   7.660 -0.9768  1.3416  2.0495
 1036SOL    HW214568   2.002   4.436   7.746 -0.0187 -1.3088 -1.8072
 1037SOL     OW14569   3.345   2.884  17.265  0.2703 -0.8906 -0.4801
 1037SOL    HW114570   3.300   2.967  17.246  2.4198  0.1077 -1.1438
 1037SOL    HW214571   3.419   2.922  17.313  0.5294 -1.6897 -0.2569
 1038SOL     OW14572   2.539   3.748   0.589  0.1050  0.1731  0.0090
 1038SOL    HW114573   2.497   3.734   0.505 -1.5292  0.6645  0.7419
 1038SOL    HW214574   2.468   3.779   0.645 -0.5793 -1.8098  0.2217
 1039SOL     OW14575   0.116   1.674  12.162  0.3068  0.1490 -0.0099
 1039SOL    HW114576   0.068   1.757  12.162 -2.2590 -1.3693  0.8943
 1039SOL    HW214577   0.161   1.684  12.077 -2.4308  1.3426 -1.3134
 1040SOL     OW14578   1.891   0.169   3.872 -0.3332 -0.3423  0.0971
 1040SOL    HW114579   1.823   0.110   3.838 -0.2489 -0.4197  0.0610
 1040SOL    HW214580   1.857   0.208   3.952  0.2247  0.0331  0.1533
 1041SOL     OW14581   4.506   2.128   5.935  0.2405 -0.4031 -0.3165
 1041SOL    HW114582   4.520   2.222   5.924  0.0247 -0.1029  2.0826
 1041SOL    HW214583   4.591   2.092   5.909  0.0970 -0.0886 -1.2160
 1042SOL     OW14584   3.199   0.335   0.333 -0.3164 -0.2740 -0.5614
 1042SOL    HW114585   3.161   0.251   0.307  0.4560 -0.8310  0.1151
 1042SOL    HW214586   3.136   0.394   0.293  0.0839 -1.4720 -2.9996
 1043SOL     OW14587   2.197   3.737   3.298 -0.6287  0.0490  0.4942
 1043SOL    HW114588   2.228   3.656   3.259 -1.8056  0.6854 -1.8022
 1043SOL    HW214589   2.265   3.799   3.271 -1.3117  0.7313  0.3242
 1044SOL     OW14590   2.173   1.021   5.658 -0.1239  0.4215 -0.3522
 1044SOL    HW114591   2.173   1.051   5.749  0.2152 -0.0967 -0.1766
 1044SOL    HW214592   2.238   1.082   5.625  0.6493 -0.3955 -0.3482
 1045SOL     OW14593   0.137   4.621  17.121  0.8547  0.1106  0.3300
 1045SOL    HW114594   0.075   4.692  17.105  1.6027  0.0747 -2.6719
 1045SOL    HW214595   0.089   4.564  17.062 -1.4648  0.7427  1.6261
 1046SOL     OW14596   2.842   0.410   3.035  0.4336 -0.0764  0.6589
 1046SOL    HW114597   2.873   0.321   3.016  0.3296 -0.6043  2.9260
 1046SOL    HW214598   2.756   0.392   3.072  0.1515  0.2070  0.1323
 1047SOL     OW14599   4.288   2.152   1.534  0.0113  0.4343  0.4712
 1047SOL    HW114600   4.212   2.106   1.569  1.2350 -1.0367  1.2053
 1047SOL    HW214601   4.309   2.196   1.616  2.1893 -0.0447  0.1950
 1048SOL     OW14602   2.947   4.122   5.210  0.0926 -0.3243  1.0883
 1048SOL    HW114603   2.996   4.060   5.263  0.8437 -0.5805  0.1001
 1048SOL    HW214604   2.873   4.121   5.270  0.2036 -0.1499  1.2308
 1049SOL     OW14605   2.610   1.818   6.533  0.1158 -0.1292  0.3147
 1049SOL    HW114606   2.635   1.819   6.625 -0.1064 -0.5176  0.3781
 1049SOL    HW214607   2.526   1.773   6.540  0.7648 -0.9805  2.4736
 1050SOL     OW14608   0.524   1.177  10.482 -0.2416  0.1807 -0.1766
 1050SOL    HW114609   0.570   1.257  10.508 -0.9089  0.1821  1.0364
 1050SOL    HW214610   0.435   1.212  10.476 -0.1113  0.3008 -1.3217
 1051SOL     OW14611   1.973   3.125  15.190  0.3418 -0.5238  0.0698
 1051SOL    HW114612   2.067   3.126  15.173  0.8873  0.0802  3.2415
 1051SOL    HW214613   1.942   3.185  15.122  2.0682  0.1228 -0.1525
 1052SOL     OW14614   2.372   4.368   7.939 -0.2153  0.3807 -0.2800
 1052SOL    HW114615   2.354   4.405   8.026 -1.0647 -0.7923  0.0433
 1052SOL    HW214616   2.460   4.404   7.929 -0.1967  1.1976  2.6388
 1053SOL     OW14617   3.065   3.165   0.628 -0.0579  0.4625 -0.0272
 1053SOL    HW114618   3.102   3.168   0.540  3.1109  0.6805  1.3181
 1053SOL    HW214619   3.052   3.258   0.646  1.5165  0.6303  0.1938
 1054SOL     OW14620   1.605   2.976   6.763  0.3027 -0.0119 -0.4990
 1054SOL    HW114621   1.595   3.042   6.831 -0.3403  0.8087 -1.4087
 1054SOL    HW214622   1.656   3.027   6.700  1.4924 -0.0517  0.4324
 1055SOL     OW14623   2.049   2.399   1.314  0.4458 -0.5086  0.3684
 1055SOL    HW114624   1.970   2.433   1.273  1.2765 -0.7513 -1.4396
 1055SOL    HW214625   2.011   2.342   1.380  0.0432  0.5589  1.0585
 1056SOL     OW14626   0.220   2.498   4.625 -0.3625  0.2375 -0.7664
 1056SOL    HW114627   0.240   2.439   4.552  0.0528 -2.3371  1.4401
 1056SOL    HW214628   0.143   2.452   4.658  0.7292 -1.1019 -0.0892
 1057SOL     OW14629   1.741   0.138  15.212  0.2507 -0.1727  0.2732
 1057SOL    HW114630   1.722   0.133  15.306  1.5750 -1.8397  0.4475
 1057SOL    HW214631   1.824   0.090  15.219 -0.3042 -0.9306  1.7616
 1058SOL     OW14632   4.034   0.435  13.263 -0.6904 -0.3140  0.4689
 1058SOL    HW114633   4.005   0.527  13.264  1.3526  0.3355  1.5503
 1058SOL    HW214634   4.002   0.415  13.176 -1.8297  1.1217  0.5657
 1059SOL     OW14635   1.449   2.938  15.233 -0.9702 -0.1599 -0.6952
 1059SOL    HW114636   1.365   2.918  15.275 -1.2911  2.0229 -0.3034
 1059SOL    HW214637   1.439   2.901  15.146 -1.5168  2.5693 -1.8009
 1060SOL     OW14638   2.138   3.147   8.012 -0.7966 -0.6265  0.2376
 1060SOL    HW114639   2.149   3.212   8.081  0.3201  0.3967 -0.9001
 1060SOL    HW214640   2.217   3.093   8.015 -1.0378 -0.9918  0.0865
 1061SOL     OW14641   2.331   0.838   1.447 -0.4059 -0.4271 -0.0878
 1061SOL    HW114642   2.389   0.781   1.497 -1.8129 -0.5739  1.3537
 1061SOL    HW214643   2.353   0.811   1.358  0.9436  2.5928 -0.6759
 1062SOL     OW14644   1.175   3.429   1.397  0.2486  0.0141  0.1426
 1062SOL    HW114645   1.128   3.363   1.448  0.5087  1.7960  2.7187
 1062SOL    HW214646   1.117   3.441   1.322  0.2982  2.2326  0.4596
 1063SOL     OW14647   1.363   1.834   2.819  0.7258 -0.0292  0.6002
 1063SOL    HW114648   1.391   1.800   2.905  3.1543  3.0742  1.0222
 1063SOL    HW214649   1.384   1.927   2.821 -2.6300  0.7835 -0.9542
 1064SOL     OW14650   2.866   1.070   9.390 -0.1791 -0.1086 -0.1727
 1064SOL    HW114651   2.776   1.094   9.411 -0.3596  0.0671 -1.1575
 1064SOL    HW214652   2.870   0.994   9.448  3.4916  1.2167  1.2960
 1065SOL     OW14653   2.895   2.253  15.697  0.3506 -1.0424 -0.3894
 1065SOL    HW114654   2.900   2.349  15.700 -0.0889 -1.0545  0.6528
 1065SOL    HW214655   2.911   2.234  15.789  0.8898  3.3744  0.4590
 1066SOL     OW14656   1.715   1.482   7.429  0.8813  0.2946  0.0656
 1066SOL    HW114657   1.627   1.472   7.392  1.2925 -0.5855 -0.6785
 1066SOL    HW214658   1.698   1.480   7.523  2.4762  1.5806  0.3818
 1067SOL     OW14659   1.857   1.002   4.589  0.4733 -0.1431  0.2003
 1067SOL    HW114660   1.878   1.046   4.671  0.5705 -2.1786  1.2735
 1067SOL    HW214661   1.935   0.952   4.565 -1.3531 -2.3529 -1.2337
 1068SOL     OW14662   3.118   1.516  16.608 -0.1814  0.3667 -0.0716
 1068SOL    HW114663   3.193   1.516  16.549 -0.2779 -0.6566 -0.2074
 1068SOL    HW214664   3.154   1.456  16.673 -0.5685  1.0967  0.8026
 1069SOL     OW14665   2.469   0.834   9.228 -0.1624  0.0253 -0.0124
 1069SOL    HW114666   2.442   0.782   9.304  0.7348  1.0258  1.0030
 1069SOL    HW214667   2.563   0.849   9.241  0.0787  0.0061 -1.7681
 1070SOL     OW14668   3.134   2.555   3.167  0.7221 -0.0868  0.4544
 1070SOL    HW114669   3.070   2.493   3.202 -1.9666  2.5237  0.1514
 1070SOL    HW214670   3.215   2.543   3.217  0.3844 -1.1402  0.7605
 1071SOL     OW14671   3.749   2.054   8.982  0.4795  0.3690 -0.2481
 1071SOL    HW114672   3.670   2.070   9.033 -0.7495 -0.8844 -1.7327
 1071SOL    HW214673   3.774   2.145   8.970  1.0434  0.3406  0.7268
 1072SOL     OW14674   2.361   3.314  16.644  0.3836 -0.2048 -0.1236
 1072SOL    HW114675   2.382   3.225  16.616  1.8684  0.5761 -1.4681
 1072SOL    HW214676   2.306   3.346  16.573  0.3300 -0.6310 -0.2780
 1073SOL     OW14677   2.161   0.699   2.019  0.2653 -0.1648  0.0786
 1073SOL    HW114678   2.108   0.754   2.077  0.4645 -0.3836  0.4656
 1073SOL    HW214679   2.164   0.762   1.947  0.3907 -0.2007  0.0524
 1074SOL     OW14680   4.174   2.120  15.332 -0.1964  0.1937  0.4670
 1074SOL    HW114681   4.079   2.114  15.326  0.1072 -1.1481 -3.1496
 1074SOL    HW214682   4.199   2.091  15.244  3.0355 -1.2664  1.8891
 1075SOL     OW14683   3.671   0.866   7.435 -0.8489  0.0367 -0.5206
 1075SOL    HW114684   3.595   0.879   7.379 -1.0692 -0.1142 -0.2516
 1075SOL    HW214685   3.717   0.813   7.370  3.0812 -1.2418  3.2380
 1076SOL     OW14686   4.290   3.670   0.566 -0.2344  0.4416 -0.3300
 1076SOL    HW114687   4.297   3.638   0.476  0.6343 -1.2455  0.3364
 1076SOL    HW214688   4.372   3.637   0.603 -0.2501  1.0100  0.2128
 1077SOL     OW14689   3.564   1.318   8.073  0.6184  0.1344  0.4461
 1077SOL    HW114690   3.590   1.234   8.109 -0.5668 -0.2137  0.4925
 1077SOL    HW214691   3.483   1.336   8.120 -0.0237 -2.8064  0.4692
 1078SOL     OW14692   0.756   0.432   3.200 -0.1387  0.2458  0.0833
 1078SOL    HW114693   0.837   0.420   3.249  1.5121 -0.2160 -2.7616
 1078SOL    HW214694   0.689   0.386   3.250 -0.4546  0.6471  0.0284
 1079SOL     OW14695   2.666   2.388  13.574  0.2957  0.1326  0.4537
 1079SOL    HW114696   2.672   2.464  13.633 -2.3662  1.6317 -1.2079
 1079SOL    HW214697   2.662   2.432  13.489  1.5692  1.9059  1.2954
 1080SOL     OW14698   1.230   3.156   5.825  0.4291  0.1171 -0.3336
 1080SOL    HW114699   1.174   3.119   5.893 -0.7376  1.1393 -0.7311
 1080SOL    HW214700   1.196   3.107   5.750  0.5362 -0.6129  0.0998
 1081SOL     OW14701   0.907   4.100   8.644  0.0330 -0.6584 -0.2840
 1081SOL    HW114702   0.923   4.096   8.550 -0.3176  0.9160 -0.4031
 1081SOL    HW214703   0.860   4.018   8.658  3.6404 -2.5555  0.8897
 1082SOL     OW14704   0.959   3.917  11.981  0.5119 -0.0450  0.2998
 1082SOL    HW114705   0.937   3.930  12.074 -0.6503 -0.2243  0.0565
 1082SOL    HW214706   0.947   4.005  11.945  2.0656  0.1208  0.2101
 1083SOL     OW14707   1.108   0.572   6.959  0.4811 -0.2487 -0.7162
 1083SOL    HW114708   1.158   0.634   6.907  0.3452  1.6856  1.4554
 1083SOL    HW214709   1.163   0.494   6.967  0.5819  0.3259  4.1938
 1084SOL     OW14710   3.406   2.550  16.205  0.1874  0.2569  0.1857
 1084SOL    HW114711   3.420   2.625  16.263 -0.0562 -0.9636  1.8323
 1084SOL    HW214712   3.317   2.566  16.173  0.8669  0.5909 -1.5239
 1085SOL     OW14713   2.474   4.047   9.088 -0.1037 -0.2416  0.0587
 1085SOL    HW114714   2.464   4.097   9.007  1.0186  0.8971  0.6319
 1085SOL    HW214715   2.384   4.041   9.119 -0.5134  3.7114 -0.3847
 1086SOL     OW14716   4.647   3.160   4.212 -0.0575  0.3655  0.1531
 1086SOL    HW114717   4.562   3.118   4.225 -1.4420  2.6651 -1.4982
 1086SOL    HW214718   4.623   3.233   4.155  0.6066 -0.8080 -1.6294
 1087SOL     OW14719   2.783   3.134   8.100 -0.2631  0.2408  0.3230
 1087SOL    HW114720   2.772   3.213   8.048 -2.0924  1.5131  2.6722
 1087SOL    HW214721   2.731   3.151   8.179 -1.9868 -0.7451 -0.5918
 1088SOL     OW14722   4.284   4.014  15.000 -0.4349  0.1733  0.2897
 1088SOL    HW114723   4.268   4.069  14.923 -1.2748  0.4395  0.6584
 1088SOL    HW214724   4.351   4.070  15.039  0.6998  1.0793 -2.9919
 1089SOL     OW14725   4.208   1.570  13.318  0.3820 -0.1345  0.0632
 1089SOL    HW114726   4.130   1.543  13.365 -1.1903 -1.1847 -3.1316
 1089SOL    HW214727   4.174   1.587  13.230  4.1060  1.1604 -1.1125
 1090SOL     OW14728   1.822   1.051   6.457  0.2426 -0.8686 -0.7406
 1090SOL    HW114729   1.779   1.129   6.420 -3.0046 -2.1862  0.3274
 1090SOL    HW214730   1.804   1.063   6.550  1.3142 -2.7962 -0.3073
 1091SOL     OW14731   4.051   4.542   1.913  0.2698 -0.7154 -0.0996
 1091SOL    HW114732   4.059   4.569   1.822 -0.7304  1.6782  0.5217
 1091SOL    HW214733   4.041   4.448   1.903  0.6827 -0.6309 -1.2384
 1092SOL     OW14734   2.298   2.858  15.104 -0.8923 -0.2381  0.7625
 1092SOL    HW114735   2.206   2.845  15.124 -0.9231 -3.2370 -1.5443
 1092SOL    HW214736   2.312   2.921  15.175  0.2151  0.6760 -0.2429
 1093SOL     OW14737   2.208   4.471   5.178 -0.0291  0.7819  0.2674
 1093SOL    HW114738   2.119   4.506   5.185 -0.2033  0.6243 -1.2155
 1093SOL    HW214739   2.235   4.516   5.098  0.0899 -0.1813 -0.2352
 1094SOL     OW14740   3.508   1.179   5.696 -0.4632  0.1558  0.0753
 1094SOL    HW114741   3.554   1.249   5.650 -2.2342  0.9846 -0.4596
 1094SOL    HW214742   3.446   1.149   5.628  0.4883 -1.4558 -0.0736
 1095SOL     OW14743   2.783   4.522   6.554 -0.7536 -0.3205 -0.0020
 1095SOL    HW114744   2.871   4.552   6.578 -0.3450  0.1641 -2.1044
 1095SOL    HW214745   2.776   4.574   6.474 -1.5726  1.3316  1.1234
 1096SOL     OW14746   0.680   2.743  17.386 -0.6160  0.5473  0.5469
 1096SOL    HW114747   0.753   2.782  17.339 -0.4053  1.1978  1.4066
 1096SOL    HW214748   0.724   2.692  17.454 -0.7270 -2.4374 -1.5832
 1097SOL     OW14749   2.493   4.144   2.021  0.2931 -0.6156  0.1647
 1097SOL    HW114750   2.405   4.107   2.015  0.0544 -0.1301  0.6210
 1097SOL    HW214751   2.505   4.153   2.116 -1.1416 -0.6763  0.3465
 1098SOL     OW14752   2.494   2.581   8.143 -0.4902  0.5862  0.5572
 1098SOL    HW114753   2.464   2.663   8.105  1.1118  0.7330 -0.4103
 1098SOL    HW214754   2.464   2.597   8.232 -1.4806  0.4142  0.2592
 1099SOL     OW14755   0.799   2.196   4.163  0.4166 -1.2067 -0.2982
 1099SOL    HW114756   0.777   2.287   4.142 -1.3700 -1.8175 -1.1010
 1099SOL    HW214757   0.790   2.151   4.079  0.5599  1.7864 -1.9003
 1100SOL     OW14758   2.451   1.268  14.359  0.4271 -0.2728 -0.1178
 1100SOL    HW114759   2.540   1.237  14.369  0.1861 -0.8969  0.0904
 1100SOL    HW214760   2.409   1.182  14.356 -0.5788  0.2079  0.2067
 1101SOL     OW14761   3.965   2.075   9.632  0.1041 -0.2975  0.3278
 1101SOL    HW114762   3.994   2.007   9.572 -0.7304  0.3183 -0.7839
 1101SOL    HW214763   3.873   2.088   9.608  0.4255 -0.5779 -1.0263
 1102SOL     OW14764   3.773   3.720  12.072 -0.2340  0.4203  0.2070
 1102SOL    HW114765   3.841   3.653  12.082  0.1971  0.7036 -0.8191
 1102SOL    HW214766   3.707   3.670  12.119  0.1947 -0.3130  0.0398
 1103SOL     OW14767   2.273   3.807   4.337 -0.1297 -0.4908 -0.5860
 1103SOL    HW114768   2.284   3.880   4.399 -1.3629 -1.9836  1.4117
 1103SOL    HW214769   2.274   3.851   4.252 -0.3191  1.5561  0.4581
 1104SOL     OW14770   2.382   2.283   3.459  0.4754 -0.1707  0.2346
 1104SOL    HW114771   2.349   2.249   3.542  1.6053 -1.5549  0.1129
 1104SOL    HW214772   2.304   2.306   3.409  0.2955 -1.0508  0.1140
 1105SOL     OW14773   3.021   0.874   9.103  0.1002  0.8426  0.2353
 1105SOL    HW114774   2.958   0.935   9.064 -0.7940  0.6934  1.4622
 1105SOL    HW214775   3.084   0.930   9.147  2.8294  0.0407 -2.6383
 1106SOL     OW14776   1.390   1.901   7.038 -0.0937 -0.0793 -0.0468
 1106SOL    HW114777   1.343   1.844   6.977  2.1586  1.9141 -3.6121
 1106SOL    HW214778   1.431   1.972   6.988  0.2338 -0.4191 -0.2554
 1107SOL     OW14779   2.799   3.554   7.151 -0.3656  0.2981  0.2253
 1107SOL    HW114780   2.882   3.516   7.122 -0.6337  0.1391 -0.3250
 1107SOL    HW214781   2.846   3.611   7.212 -0.3044  1.6087 -1.0416
 1108SOL     OW14782   4.341   0.746  11.939 -0.3053 -0.4260 -0.0330
 1108SOL    HW114783   4.337   0.757  11.844 -1.2401  1.3999  0.2242
 1108SOL    HW214784   4.397   0.822  11.956  2.0040 -2.4022  1.3593
 1109SOL     OW14785   2.571   0.740   1.665 -0.3101  0.0152 -0.4050
 1109SOL    HW114786   2.657   0.699   1.664 -0.4791 -0.3334 -0.6132
 1109SOL    HW214787   2.591   0.831   1.643 -0.2834  0.4101  1.3104
 1110SOL     OW14788   4.548   2.614  12.743  0.1322  0.6554 -0.5816
 1110SOL    HW114789   4.487   2.680  12.775  0.9770  0.5563  1.2221
 1110SOL    HW214790   4.506   2.531  12.767  1.6609  0.7305  2.2961
 1111SOL     OW14791   1.991   2.613  13.114  0.8168 -0.6942 -0.1705
 1111SOL    HW114792   1.953   2.676  13.053  0.3741 -0.3042  0.5071
 1111SOL    HW214793   1.967   2.531  13.070  0.1500  2.1308 -5.0300
 1112SOL     OW14794   0.549   2.665  13.058 -0.0356 -0.5884  0.1739
 1112SOL    HW114795   0.465   2.634  13.093 -0.0978 -1.4204 -0.7213
 1112SOL    HW214796   0.524   2.745  13.012  0.7812 -0.1481  0.5052
 1113SOL     OW14797   4.576   3.174  13.196 -0.3663 -0.2373 -0.2177
 1113SOL    HW114798   4.663   3.148  13.227 -0.3692  0.8175  0.7207
 1113SOL    HW214799   4.536   3.209  13.275 -1.6389 -1.8024 -0.1861
 1114SOL     OW14800   1.734   3.153   3.334  0.6258  0.4074  0.0179
 1114SOL    HW114801   1.641   3.175   3.329  0.3810 -0.5922  0.1803
 1114SOL    HW214802   1.767   3.197   3.256 -0.4238 -1.3471 -1.4122
 1115SOL     OW14803   2.144   0.328   4.333  0.2015 -0.4961  0.8402
 1115SOL    HW114804   2.182   0.386   4.267 -0.5759 -0.7932  0.1347
 1115SOL    HW214805   2.054   0.336   4.301  0.7279 -1.2667 -0.8658
 1116SOL     OW14806   1.206   2.279   6.424  0.1418  0.1233  0.1930
 1116SOL    HW114807   1.275   2.212   6.428  0.2949  0.3623  1.3978
 1116SOL    HW214808   1.254   2.338   6.366 -0.2704  0.6575  0.3954
 1117SOL     OW14809   2.493   0.514   4.276 -0.1706 -0.2671  0.4533
 1117SOL    HW114810   2.500   0.572   4.200 -1.5460  0.4139  0.8411
 1117SOL    HW214811   2.439   0.581   4.319 -1.9303 -1.0235 -0.5694
 1118SOL     OW14812   2.982   3.994   9.476 -0.0479 -0.7906 -0.2135
 1118SOL    HW114813   2.978   3.931   9.404 -2.1513 -0.3869 -0.4641
 1118SOL    HW214814   3.045   3.957   9.538 -1.1967 -1.5441  0.5036
 1119SOL     OW14815   1.818   4.658   6.845  0.0119  0.4884 -0.0317
 1119SOL    HW114816   1.836   4.565   6.859  1.6302  0.6166 -1.2747
 1119SOL    HW214817   1.725   4.651   6.865 -0.2935 -1.8390 -2.2541
 1120SOL     OW14818   0.210   1.277   2.603  0.0802 -0.0888 -0.1883
 1120SOL    HW114819   0.216   1.339   2.531 -0.3716  1.7281  1.3355
 1120SOL    HW214820   0.201   1.193   2.558  0.6445  0.6362 -1.6477
 1121SOL     OW14821   3.968   3.689   5.354  0.3550 -0.6316 -0.3233
 1121SOL    HW114822   4.019   3.608   5.350 -0.0198 -1.0226  2.9909
 1121SOL    HW214823   3.908   3.653   5.419  0.0632 -2.8254 -1.7783
 1122SOL     OW14824   3.341   1.941  11.089 -0.0720 -0.4717 -0.2137
 1122SOL    HW114825   3.328   1.980  11.176 -1.8817 -2.3682  0.3634
 1122SOL    HW214826   3.280   1.998  11.042  0.2578  0.7687  0.8498
 1123SOL     OW14827   1.046   0.609  16.926 -0.5404  0.2476 -0.2050
 1123SOL    HW114828   1.042   0.524  16.970  1.4264  1.6795  2.6696
 1123SOL    HW214829   1.133   0.592  16.888 -1.8567 -0.7097 -2.7705
 1124SOL     OW14830   3.850   2.275   8.145 -0.9843 -0.3720 -0.3212
 1124SOL    HW114831   3.766   2.255   8.103 -0.5380 -0.5091 -1.1471
 1124SOL    HW214832   3.905   2.270   8.067  0.6443  0.9873  0.7449
 1125SOL     OW14833   3.741   2.111  14.228 -0.3084  0.2081  0.0854
 1125SOL    HW114834   3.689   2.175  14.278  1.6503  0.3365  1.9627
 1125SOL    HW214835   3.673   2.054  14.192  0.8832 -1.9613  1.2792
 1126SOL     OW14836   0.455   0.777  15.862  0.2719 -0.7762  0.2128
 1126SOL    HW114837   0.484   0.810  15.777  0.9441 -0.7980  0.4363
 1126SOL    HW214838   0.481   0.843  15.927  1.0330 -1.6035  0.7400
 1127SOL     OW14839   1.256   0.739  14.097 -0.6218  0.7613 -0.0795
 1127SOL    HW114840   1.250   0.751  14.191  0.6673  0.7856 -0.0001
 1127SOL    HW214841   1.203   0.659  14.090 -1.3413  1.2371 -0.0398
 1128SOL     OW14842   3.198   3.563   1.995 -0.4940 -0.5874  0.5234
 1128SOL    HW114843   3.272   3.537   1.940  0.0063  1.0007  0.4204
 1128SOL    HW214844   3.237   3.544   2.080 -1.0019 -1.0289  0.6525
 1129SOL     OW14845   3.343   0.353   5.550  0.1050  0.3549  0.1663
 1129SOL    HW114846   3.371   0.402   5.472  2.3432  0.2301  0.8914
 1129SOL    HW214847   3.288   0.280   5.521  0.8037 -1.0894  2.5041
 1130SOL     OW14848   2.831   3.434   2.272  0.5262 -1.1255 -0.0181
 1130SOL    HW114849   2.863   3.446   2.183 -0.6871 -1.3352 -0.4909
 1130SOL    HW214850   2.752   3.487   2.266  1.0917  0.1641  3.6744
 1131SOL     OW14851   2.955   4.515   1.705  0.3180  0.3936 -0.6225
 1131SOL    HW114852   2.899   4.524   1.628  0.2462 -0.4829 -0.6737
 1131SOL    HW214853   2.907   4.572   1.764  0.6560 -1.8837  1.8496
 1132SOL     OW14854   2.630   1.403   0.305 -0.0126  0.3317  0.2871
 1132SOL    HW114855   2.650   1.324   0.254  0.4373 -0.1665  1.2283
 1132SOL    HW214856   2.563   1.444   0.251  1.4893  0.2700 -1.6177
 1133SOL     OW14857   4.229   3.905   2.599  0.3208 -0.6473 -0.4965
 1133SOL    HW114858   4.179   3.966   2.653 -0.8767 -0.0715 -2.2514
 1133SOL    HW214859   4.306   3.962   2.589  0.1298 -0.2144  0.5538
 1134SOL     OW14860   0.807   4.253   5.855 -0.1116  0.0971 -0.1762
 1134SOL    HW114861   0.778   4.342   5.876  1.2297 -0.1299  2.6685
 1134SOL    HW214862   0.895   4.255   5.816 -0.5976  3.6478 -1.0917
 1135SOL     OW14863   4.324   0.159  11.850  1.1173 -0.4754  0.1800
 1135SOL    HW114864   4.239   0.197  11.873  1.1107 -1.0996  1.2202
 1135SOL    HW214865   4.320   0.078  11.902 -2.4098  0.2240  1.0220
 1136SOL     OW14866   2.798   1.632  12.815  0.0569  0.3075 -0.9152
 1136SOL    HW114867   2.814   1.549  12.860  0.8823  1.1935  0.4080
 1136SOL    HW214868   2.882   1.658  12.779 -0.2435  3.1371  0.4571
 1137SOL     OW14869   4.338   4.291   8.618 -0.1587 -0.1052  0.2669
 1137SOL    HW114870   4.385   4.295   8.535 -0.0996  3.4397  0.4936
 1137SOL    HW214871   4.400   4.248   8.676  0.2867 -0.1377 -0.2342
 1138SOL     OW14872   2.914   0.866   0.438  0.3694 -0.4387 -0.0912
 1138SOL    HW114873   2.897   0.930   0.369  1.1618 -0.0480  0.0802
 1138SOL    HW214874   2.884   0.790   0.387 -0.3168 -0.9042  0.9933
 1139SOL     OW14875   0.465   1.330   7.277  0.9778 -0.1628  0.0054
 1139SOL    HW114876   0.522   1.407   7.273 -1.2990  1.5987  1.6351
 1139SOL    HW214877   0.520   1.270   7.327  0.2924 -3.1134 -2.7711
 1140SOL     OW14878   3.978   1.388  14.795  0.7205  0.5997 -0.0361
 1140SOL    HW114879   4.044   1.404  14.728 -0.8781 -0.0603 -1.7814
 1140SOL    HW214880   3.919   1.333  14.742  0.7252  1.2008 -0.6703
 1141SOL     OW14881   1.117   4.685   4.830 -0.0632 -0.0462  0.1434
 1141SOL    HW114882   1.085   4.646   4.911  1.3691 -3.2530 -0.8214
 1141SOL    HW214883   1.049   0.033   4.815 -1.9152 -1.5877  1.7968
 1142SOL     OW14884   1.768   2.883   9.089  0.0072 -0.3565  0.2859
 1142SOL    HW114885   1.820   2.837   9.156  1.4978  1.3171  0.2607
 1142SOL    HW214886   1.754   2.814   9.024 -0.1696 -0.1459  0.1015
 1143SOL     OW14887   1.033   0.401   6.488 -0.3670  0.2931  0.3019
 1143SOL    HW114888   1.044   0.336   6.557 -2.0298 -0.2531  0.0478
 1143SOL    HW214889   1.067   0.352   6.413 -2.2770  0.0019 -0.3575
 1144SOL     OW14890   1.347   1.929  17.627 -0.5816 -0.1600  1.0111
 1144SOL    HW114891   1.415   1.942   0.020 -1.1089  0.6693  1.3865
 1144SOL    HW214892   1.396   1.912  17.547  0.1731  2.1145  0.9936
 1145SOL     OW14893   0.034   1.530   6.623  0.0400  0.0802  0.6934
 1145SOL    HW114894   4.709   1.583   6.555  0.4510 -0.4827 -0.0024
 1145SOL    HW214895   0.055   1.454   6.568  0.6078 -0.5022  1.7184
 1146SOL     OW14896   2.208   2.098   0.404 -0.3201 -0.2175 -0.7249
 1146SOL    HW114897   2.239   2.008   0.410 -0.2304 -0.0992  0.6161
 1146SOL    HW214898   2.290   2.136   0.435 -0.1427 -1.1014 -0.1036
 1147SOL     OW14899   3.453   3.267   8.131 -0.3431  0.5924  0.1566
 1147SOL    HW114900   3.456   3.334   8.063 -0.1231 -1.4544 -1.8448
 1147SOL    HW214901   3.491   3.191   8.086  1.8189  0.9820  1.3376
 1148SOL     OW14902   3.437   0.061   6.624 -0.0262  0.4038 -0.4171
 1148SOL    HW114903   3.403   0.009   6.697 -3.2715  1.0826 -1.4431
 1148SOL    HW214904   3.501   0.123   6.658  1.0036 -1.1912  0.5224
 1149SOL     OW14905   0.942   1.875   6.509  0.2555  0.3635 -0.0554
 1149SOL    HW114906   0.932   1.783   6.487 -0.6411  0.1751  1.1056
 1149SOL    HW214907   1.022   1.889   6.459 -0.9367  1.6518 -1.6086
 1150SOL     OW14908   3.502   1.904   8.079  0.1710 -0.1997  0.0603
 1150SOL    HW114909   3.504   1.997   8.099  1.9149 -0.5126  1.3531
 1150SOL    HW214910   3.489   1.900   7.984 -3.2232  0.2666  0.4862
 1151SOL     OW14911   3.806   2.317   4.276 -0.2694  0.9337 -1.1279
 1151SOL    HW114912   3.893   2.351   4.259  0.1673  0.4734  0.1656
 1151SOL    HW214913   3.777   2.352   4.361 -1.5895 -1.4681 -0.5762
 1152SOL     OW14914   2.255   4.020  12.676  1.0804 -0.1020 -0.4623
 1152SOL    HW114915   2.253   4.060  12.589 -0.7887 -0.6472 -0.6829
 1152SOL    HW214916   2.166   3.983  12.678  1.2984 -0.6913 -1.6939
 1153SOL     OW14917   3.301   1.096   6.797 -0.0470  0.4578  0.3230
 1153SOL    HW114918   3.242   1.032   6.837 -0.2681  0.3865 -0.1057
 1153SOL    HW214919   3.290   1.169   6.857 -0.1575 -0.7603  1.7910
 1154SOL     OW14920   1.862   2.397  16.972 -0.0799 -0.6768 -0.3702
 1154SOL    HW114921   1.796   2.380  16.905  0.6822  2.6356 -1.9410
 1154SOL    HW214922   1.855   2.321  17.030 -1.6307  1.0850  1.7430
 1155SOL     OW14923   4.631   2.617   7.868 -0.0337  0.6435  0.2464
 1155SOL    HW114924   4.655   2.682   7.934  1.9714 -1.7002  1.7931
 1155SOL    HW214925   4.689   2.546   7.894 -1.8725 -0.8396  0.2160
 1156SOL     OW14926   2.365   3.674   7.464 -0.2610  0.3461 -0.5663
 1156SOL    HW114927   2.281   3.660   7.420  0.5016  1.2645 -2.3415
 1156SOL    HW214928   2.417   3.594   7.455 -2.1717 -0.6100 -3.0051
 1157SOL     OW14929   2.939   1.836   8.341  0.0088  0.3884 -0.8391
 1157SOL    HW114930   2.966   1.909   8.397 -2.8060  0.1151  0.8736
 1157SOL    HW214931   2.988   1.847   8.259 -1.3737  0.1005 -1.6951
 1158SOL     OW14932   1.868   0.245   8.641  0.2875  0.8130 -0.2418
 1158SOL    HW114933   1.903   0.333   8.630  3.5331 -0.5700 -1.1096
 1158SOL    HW214934   1.836   0.237   8.731 -0.0930  0.9926 -0.3642
 1159SOL     OW14935   2.025   1.836   8.309  0.8465  0.2726  0.7256
 1159SOL    HW114936   2.110   1.831   8.264  0.6861 -0.2182  0.4697
 1159SOL    HW214937   2.043   1.871   8.396 -0.8045  1.2633  0.6614
 1160SOL     OW14938   3.355   3.078  17.502 -0.2703  0.1024  0.0252
 1160SOL    HW114939   3.363   3.165  17.539 -1.5601  0.7917 -1.3061
 1160SOL    HW214940   3.267   3.089  17.465 -0.0142  0.1156 -0.5855
 1161SOL     OW14941   3.738   3.193   2.099 -0.5557 -0.5337  0.1907
 1161SOL    HW114942   3.814   3.135   2.112 -0.0500  0.2136  0.6001
 1161SOL    HW214943   3.676   3.128   2.068 -0.9594 -1.4749  2.9643
 1162SOL     OW14944   3.399   4.054   6.161 -0.0520  0.0982 -0.0170
 1162SOL    HW114945   3.422   4.009   6.243 -1.1492 -0.1367  0.1625
 1162SOL    HW214946   3.309   4.027   6.144  0.0924 -0.1315 -0.3984
 1163SOL     OW14947   2.528   2.500   0.883 -0.4139  0.0840  0.1181
 1163SOL    HW114948   2.583   2.426   0.858 -0.1983 -0.0333  0.9464
 1163SOL    HW214949   2.481   2.513   0.800 -1.8360 -2.0024  0.5899
 1164SOL     OW14950   4.471   1.906  11.956  0.5129  0.1382 -0.3819
 1164SOL    HW114951   4.438   1.989  11.921 -1.0166  0.0206  0.7735
 1164SOL    HW214952   4.397   1.846  11.956  0.1801  0.5595  0.3791
 1165SOL     OW14953   2.377   1.074   2.270  1.0714 -0.0246 -0.1051
 1165SOL    HW114954   2.406   0.998   2.219 -1.2565 -0.2335 -1.1117
 1165SOL    HW214955   2.314   1.031   2.327  1.8989  0.7042  1.3562
 1166SOL     OW14956   3.325   4.659   1.377 -0.0868  0.1040 -0.2826
 1166SOL    HW114957   3.289   0.011   1.322  1.1945  1.6960  0.8835
 1166SOL    HW214958   3.251   4.644   1.436  1.2377  0.2857  1.4120
 1167SOL     OW14959   4.041   0.997  11.332 -0.2586  0.6746 -0.1387
 1167SOL    HW114960   4.120   1.047  11.315  0.5148 -0.5885 -0.2342
 1167SOL    HW214961   4.014   0.959  11.248  0.5794  0.7354 -0.4348
 1168SOL     OW14962   1.065   2.021  15.232 -0.3159 -0.6121 -0.4862
 1168SOL    HW114963   0.983   1.981  15.204 -3.2599  3.8638  1.8464
 1168SOL    HW214964   1.045   2.112  15.210 -2.2271 -0.3758  2.2550
 1169SOL     OW14965   4.436   1.605  16.984 -0.1464  0.0551 -0.0915
 1169SOL    HW114966   4.499   1.604  17.056 -0.7190 -0.1981  0.4075
 1169SOL    HW214967   4.354   1.612  17.033 -1.0110 -1.5917 -1.3123
 1170SOL     OW14968   4.441   4.682   6.339 -0.1885  0.3560 -0.3377
 1170SOL    HW114969   4.353   4.674   6.304 -1.2654  1.4521  2.0829
 1170SOL    HW214970   4.465   0.052   6.309  0.6618  1.1958  2.6961
 1171SOL     OW14971   3.465   1.456   1.946  0.2139  0.2392 -0.3566
 1171SOL    HW114972   3.420   1.372   1.939 -2.4934  1.8303 -2.1901
 1171SOL    HW214973   3.541   1.432   1.998  0.6928  1.4767 -0.4695
 1172SOL     OW14974   0.713   1.425   7.154  0.3101  0.4244 -0.4777
 1172SOL    HW114975   0.724   1.330   7.149  1.7202  0.3664  3.1854
 1172SOL    HW214976   0.786   1.435   7.215 -1.7002  2.1813  1.6596
 1173SOL     OW14977   2.573   0.011   0.386 -0.0314 -0.0197  0.3962
 1173SOL    HW114978   2.523   4.672   0.444 -1.7793  0.8460 -0.2688
 1173SOL    HW214979   2.563   4.697   0.296 -1.3960 -1.3448  1.0152
 1174SOL     OW14980   2.821   4.689   5.604  0.2317  0.5654  0.1316
 1174SOL    HW114981   2.809   0.065   5.619 -0.9377  0.5229 -0.5329
 1174SOL    HW214982   2.772   4.664   5.682  0.5126  0.9505  0.4278
 1175SOL     OW14983   2.475   1.775   8.426 -0.1611 -0.6279  0.0708
 1175SOL    HW114984   2.523   1.693   8.432  1.5954  0.4786  1.3570
 1175SOL    HW214985   2.418   1.772   8.502 -1.1289 -2.4485 -0.7339
 1176SOL     OW14986   2.025   0.165  12.616  0.8153 -0.0546 -0.0731
 1176SOL    HW114987   2.066   0.222  12.551 -0.4826 -0.4877 -1.2845
 1176SOL    HW214988   1.934   0.167  12.584  0.3681 -0.8871  1.1474
 1177SOL     OW14989   1.259   2.944   0.816 -0.0818  0.0701  0.3527
 1177SOL    HW114990   1.216   3.026   0.842 -2.6024 -0.4012 -2.2392
 1177SOL    HW214991   1.272   2.913   0.906 -0.6890 -0.6172  0.2047
 1178SOL     OW14992   1.727   1.778   7.949  0.3847 -0.2877 -0.1111
 1178SOL    HW114993   1.798   1.839   7.933  1.7036 -1.9191 -0.5086
 1178SOL    HW214994   1.691   1.758   7.863  2.0235 -0.9604 -0.6319
 1179SOL     OW14995   1.345   1.322   2.907 -0.2346  0.0434  0.2049
 1179SOL    HW114996   1.300   1.394   2.863  0.5203  1.1114  1.1847
 1179SOL    HW214997   1.275   1.312   2.972  1.0230  0.0225  1.5537
 1180SOL     OW14998   3.792   4.104   6.095  0.5431  0.3055  0.6673
 1180SOL    HW114999   3.863   4.130   6.153 -0.3749 -0.7414  2.2862
 1180SOL    HW215000   3.756   4.186   6.063 -0.9114 -0.6083 -0.0649
 1181SOL     OW15001   0.214   4.228  14.627  0.1163 -0.1892 -0.8209
 1181SOL    HW115002   0.241   4.310  14.668  0.4018  1.8278 -5.0835
 1181SOL    HW215003   0.159   4.266  14.559 -1.7394 -2.0771 -0.4075
 1182SOL     OW15004   2.545   1.073   7.752  0.0810  0.0028 -0.4758
 1182SOL    HW115005   2.635   1.077   7.785  1.1229 -1.1840 -3.1351
 1182SOL    HW215006   2.518   0.982   7.765 -0.4409  0.0396 -1.3349
 1183SOL     OW15007   0.701   2.644   3.902  0.2332 -0.1807  0.0565
 1183SOL    HW115008   0.710   2.580   3.831 -2.5934 -2.0596  1.3689
 1183SOL    HW215009   0.786   2.625   3.943  1.8336  0.5849 -2.9056
 1184SOL     OW15010   4.154   4.537  11.270 -0.6685  0.6962  0.3441
 1184SOL    HW115011   4.095   4.542  11.195  2.0820  2.2932 -1.6985
 1184SOL    HW215012   4.114   4.598  11.332 -2.3201  0.7557 -0.7876
 1185SOL     OW15013   2.294   4.369   9.568  0.6312 -0.2457  0.5915
 1185SOL    HW115014   2.331   4.284   9.594  0.6189 -0.8174 -1.2866
 1185SOL    HW215015   2.241   4.386   9.646 -1.6032 -2.0917 -0.5244
 1186SOL     OW15016   2.477   3.561   4.262 -0.2662  0.0820 -0.1003
 1186SOL    HW115017   2.467   3.615   4.340 -0.4347 -1.3628  0.8805
 1186SOL    HW215018   2.567   3.531   4.273 -0.8463 -1.2429  0.9666
 1187SOL     OW15019   3.219   0.504   1.567 -0.1690 -0.0610  0.2308
 1187SOL    HW115020   3.177   0.493   1.653  0.6897 -1.2895  0.4925
 1187SOL    HW215021   3.155   0.568   1.536  0.4884  0.7802  0.5759
 1188SOL     OW15022   0.105   2.137   2.736 -0.2837 -0.0679 -0.5761
 1188SOL    HW115023   0.100   2.222   2.691  0.8910  0.8443  1.0574
 1188SOL    HW215024   0.164   2.096   2.673 -0.3238 -0.0627 -0.6175
 1189SOL     OW15025   1.233   1.160   2.594 -0.4946  0.0736  0.3162
 1189SOL    HW115026   1.184   1.223   2.646  0.1713 -0.0735  1.1321
 1189SOL    HW215027   1.231   1.082   2.650 -0.7181 -1.0978 -1.3488
 1190SOL     OW15028   2.892   1.110   9.828 -0.6692 -0.4517 -0.3889
 1190SOL    HW115029   2.874   1.019   9.851  1.5272 -1.3432 -2.1640
 1190SOL    HW215030   2.902   1.149   9.915  1.1306  1.8404 -1.6199
 1191SOL     OW15031   3.427   2.561   8.759 -1.4120  0.1112 -0.2206
 1191SOL    HW115032   3.464   2.623   8.822 -0.5743 -0.0733 -0.5395
 1191SOL    HW215033   3.333   2.573   8.774 -0.8134  3.5024  0.7160
 1192SOL     OW15034   2.409   1.261   7.154 -0.3795 -0.1993  0.3246
 1192SOL    HW115035   2.476   1.244   7.088 -0.4399  1.7673 -0.2415
 1192SOL    HW215036   2.382   1.351   7.136  1.6379 -0.0101 -1.6707
 1193SOL     OW15037   2.182   3.398   8.180  0.4891  0.6712 -0.0161
 1193SOL    HW115038   2.259   3.455   8.179 -0.6635  2.2621  2.5343
 1193SOL    HW215039   2.182   3.360   8.268  0.3448  1.1669  0.1969
 1194SOL     OW15040   1.820   2.078   0.393 -0.7544  0.2314  0.1557
 1194SOL    HW115041   1.830   2.002   0.335  0.1222  0.8282 -0.4846
 1194SOL    HW215042   1.907   2.115   0.382 -0.4246 -0.6304 -0.1875
 1195SOL     OW15043   2.441   2.492   7.206 -0.0987 -0.2377 -0.4960
 1195SOL    HW115044   2.486   2.576   7.191  2.5804 -1.4907  0.5420
 1195SOL    HW215045   2.360   2.516   7.252  0.2570  0.0138 -0.0056
 1196SOL     OW15046   3.996   1.128  15.021 -0.4689  0.4839  0.6114
 1196SOL    HW115047   4.042   1.175  14.952 -0.9150 -0.9818 -0.6662
 1196SOL    HW215048   4.057   1.141  15.094  0.9960  0.8755 -0.6771
 1197SOL     OW15049   4.275   2.542   6.710  0.8915 -0.1745 -0.3959
 1197SOL    HW115050   4.198   2.492   6.736 -0.5207  2.2587  0.0371
 1197SOL    HW215051   4.303   2.472   6.651  0.5965 -0.7343  0.1336
 1198SOL     OW15052   1.820   0.316   4.915  0.1188 -0.4164 -0.3584
 1198SOL    HW115053   1.825   0.221   4.927 -2.8476 -0.6771 -1.3340
 1198SOL    HW215054   1.727   0.324   4.937  0.5451  0.1200  1.2517
 1199SOL     OW15055   2.471   1.762   2.634  0.2874  0.4705 -0.5371
 1199SOL    HW115056   2.514   1.786   2.716 -0.1836  0.5741 -0.3182
 1199SOL    HW215057   2.541   1.793   2.577  0.0950 -0.7099 -1.4007
 1200SOL     OW15058   2.051   0.015   4.958 -0.4234 -0.1100  0.3376
 1200SOL    HW115059   2.056   0.110   4.974  2.5181 -0.0813 -0.6560
 1200SOL    HW215060   2.145   4.712   4.960  0.0759  2.0025 -1.0224
 1201SOL     OW15061   4.424   4.170   5.645  0.2321  0.0879  0.1332
 1201SOL    HW115062   4.453   4.102   5.706  1.3792 -0.6670 -1.2540
 1201SOL    HW215063   4.331   4.148   5.651  0.2220  0.0249 -0.3125
 1202SOL     OW15064   2.212   2.490   2.821  0.3081 -0.0517 -0.5205
 1202SOL    HW115065   2.236   2.553   2.753  2.8568  1.4956  1.8164
 1202SOL    HW215066   2.127   2.458   2.789 -0.6609 -0.5690  2.5684
 1203SOL     OW15067   1.876   2.167   7.722 -0.0875 -0.4262  0.2831
 1203SOL    HW115068   1.802   2.209   7.767  0.3098 -0.7663  1.2613
 1203SOL    HW215069   1.842   2.078   7.728 -0.2428 -0.3345  0.7856
 1204SOL     OW15070   0.094   0.735   8.510  0.0105  0.1920 -0.2232
 1204SOL    HW115071   0.124   0.686   8.433 -2.9865 -2.2874  0.1913
 1204SOL    HW215072   0.139   0.686   8.579  1.5020  1.3637 -0.3729
 1205SOL     OW15073   3.955   4.441  10.913 -0.2176 -0.3135  0.2147
 1205SOL    HW115074   3.992   4.504  10.852 -1.5086  1.1424  0.9430
 1205SOL    HW215075   3.966   4.496  10.991  0.0235  0.5416 -0.4275
 1206SOL     OW15076   4.519   3.053   2.729  0.0365 -0.5788  0.1314
 1206SOL    HW115077   4.447   2.992   2.747  0.5044 -0.8922  0.9456
 1206SOL    HW215078   4.504   3.127   2.788 -0.7427  1.1090 -2.1667
 1207SOL     OW15079   2.643   1.606   2.193 -0.0636 -0.1024 -0.4198
 1207SOL    HW115080   2.562   1.588   2.145 -2.0287 -0.3789  2.9741
 1207SOL    HW215081   2.608   1.676   2.250 -0.0114  1.6059 -2.4963
 1208SOL     OW15082   2.761   3.030  11.391 -0.1950 -0.0142  0.3085
 1208SOL    HW115083   2.790   3.055  11.479 -0.1930 -0.5592  0.4612
 1208SOL    HW215084   2.793   3.095  11.329  0.3395 -1.7872 -1.2465
 1209SOL     OW15085   2.230   2.660   1.259  0.3600  0.4617 -0.6457
 1209SOL    HW115086   2.166   2.589   1.249 -0.1356  1.0218 -1.4667
 1209SOL    HW215087   2.310   2.616   1.286 -0.0533  0.3881  0.4701
 1210SOL     OW15088   1.924   1.157   9.649  0.0301 -0.5792  0.0429
 1210SOL    HW115089   1.832   1.129   9.648  0.1836 -1.0623 -0.3973
 1210SOL    HW215090   1.918   1.253   9.648 -0.2918 -0.6298 -1.6886
 1211SOL     OW15091   1.529   1.298   3.674 -0.2093 -0.1877  0.4170
 1211SOL    HW115092   1.573   1.309   3.758  0.5834 -0.5241  0.0526
 1211SOL    HW215093   1.574   1.219   3.644 -0.3676 -0.1300  0.0255
 1212SOL     OW15094   0.653   2.350   8.066  0.1239 -0.1581 -0.0744
 1212SOL    HW115095   0.628   2.441   8.078  1.8398 -0.0058  2.3205
 1212SOL    HW215096   0.637   2.324   8.157  0.2256 -0.9572 -0.2816
 1213SOL     OW15097   1.892   1.691   9.214  0.8071 -0.3869 -0.2199
 1213SOL    HW115098   1.828   1.707   9.283  1.8060  0.5059  0.5001
 1213SOL    HW215099   1.834   1.654   9.148  2.3911 -0.2719 -1.6943
 1214SOL     OW15100   2.878   0.512  16.770  0.4059  0.2211  0.0453
 1214SOL    HW115101   2.953   0.461  16.741 -0.0046 -0.4697  0.1996
 1214SOL    HW215102   2.851   0.444  16.833  1.1048  0.2289  0.3506
 1215SOL     OW15103   4.552   1.720  10.630 -0.3641  0.0249 -0.0941
 1215SOL    HW115104   4.535   1.810  10.604 -1.7226  0.1851  1.3166
 1215SOL    HW215105   4.597   1.733  10.714  3.8554 -1.6024 -2.1558
 1216SOL     OW15106   4.398   2.753   6.868 -0.3850 -0.2181 -0.6511
 1216SOL    HW115107   4.370   2.678   6.815  3.4971 -1.5862 -0.7829
 1216SOL    HW215108   4.320   2.806   6.852 -1.7751 -2.5730 -1.8310
 1217SOL     OW15109   0.720   3.780   9.346  0.4852  0.2203 -0.5797
 1217SOL    HW115110   0.776   3.846   9.306  0.8092 -0.4266 -1.1825
 1217SOL    HW215111   0.630   3.803   9.324 -0.2819 -0.2631  2.0207
 1218SOL     OW15112   0.552   0.988   7.172 -0.1769  0.3158 -0.3252
 1218SOL    HW115113   0.469   0.989   7.221  0.6406  1.1649  1.0305
 1218SOL    HW215114   0.528   0.921   7.108  0.6875  0.3098 -0.6341
 1219SOL     OW15115   2.970   3.141  16.401 -0.1746 -0.1743  0.4319
 1219SOL    HW115116   2.971   3.236  16.392 -1.5305 -0.0387  1.7394
 1219SOL    HW215117   2.879   3.118  16.423 -0.4000 -0.1958 -0.5358
 1220SOL     OW15118   3.876   4.602   3.493  0.8328  0.0368  0.3078
 1220SOL    HW115119   3.951   4.638   3.446  1.5514 -2.6536 -0.6516
 1220SOL    HW215120   3.800   4.649   3.458  1.8695  2.5212  1.4826
 1221SOL     OW15121   3.490   2.057   6.358 -0.0084 -0.8799 -0.5054
 1221SOL    HW115122   3.446   2.042   6.275  0.0832 -1.0732 -0.5179
 1221SOL    HW215123   3.568   2.103   6.326 -1.0839  2.5760  1.8087
 1222SOL     OW15124   2.877   1.325  12.459  0.4405  0.1728 -0.1441
 1222SOL    HW115125   2.800   1.315  12.514  1.0263  0.9296  0.8182
 1222SOL    HW215126   2.890   1.419  12.454  1.1837  0.1432  1.1083
 1223SOL     OW15127   1.895   3.765   6.734  0.3049  0.3180  0.0503
 1223SOL    HW115128   1.827   3.757   6.667  2.1510 -0.7596 -1.6734
 1223SOL    HW215129   1.863   3.838   6.788 -1.2333 -0.3357  0.0099
 1224SOL     OW15130   0.907   3.385   8.161 -0.1786 -0.2025 -0.3056
 1224SOL    HW115131   0.888   3.433   8.242 -0.9879  2.2163 -1.9455
 1224SOL    HW215132   0.934   3.299   8.193 -1.8964 -0.0321  1.5938
 1225SOL     OW15133   4.525   3.772   2.783 -0.2220 -0.5773 -0.0443
 1225SOL    HW115134   4.545   3.679   2.779 -0.7512 -0.6281 -1.4896
 1225SOL    HW215135   4.432   3.780   2.764 -0.0434 -1.4326 -1.2532
 1226SOL     OW15136   1.994   2.402   4.693 -0.4054 -0.3531 -0.0660
 1226SOL    HW115137   1.986   2.324   4.639 -0.3318  0.2866 -1.0080
 1226SOL    HW215138   1.903   2.431   4.692 -0.8729 -1.8536 -0.8519
 1227SOL     OW15139   2.652   4.507   4.629 -0.0922 -0.6633 -0.0470
 1227SOL    HW115140   2.584   4.491   4.564  1.0541 -0.7301 -1.2462
 1227SOL    HW215141   2.726   4.456   4.594  0.0897  0.6630 -1.5890
 1228SOL     OW15142   0.291   4.074   3.558 -0.4552 -0.3578  0.4551
 1228SOL    HW115143   0.272   4.133   3.631 -0.4847 -1.4164  1.3053
 1228SOL    HW215144   0.229   4.004   3.578 -1.7977  0.6520 -0.1545
 1229SOL     OW15145   3.114   4.340   5.981 -0.0018 -0.3512 -0.1111
 1229SOL    HW115146   3.052   4.412   5.973  2.1924  1.5924  0.6797
 1229SOL    HW215147   3.177   4.374   6.044 -0.0823  0.3950 -0.4369
 1230SOL     OW15148   3.248   3.115  17.185 -1.0011 -0.5935 -0.8956
 1230SOL    HW115149   3.208   3.132  17.270  2.9910  0.7293  0.7529
 1230SOL    HW215150   3.185   3.164  17.133 -2.8262 -0.5991  1.3017
 1231SOL     OW15151   1.521   1.837   9.124  0.6929  0.1499  0.0875
 1231SOL    HW115152   1.570   1.792   9.055 -0.5399 -0.2941 -0.4971
 1231SOL    HW215153   1.571   1.919   9.126  0.0027  0.5515  0.6114
 1232SOL     OW15154   1.140   2.260   7.502 -0.6662 -0.7642 -0.1905
 1232SOL    HW115155   1.099   2.337   7.542  1.1008  0.1522 -0.1451
 1232SOL    HW215156   1.159   2.219   7.586  0.7071  0.0097 -0.1262
 1233SOL     OW15157   1.359   2.642   0.715 -0.6966  0.1944 -0.2515
 1233SOL    HW115158   1.393   2.697   0.785 -0.3251 -0.5682  0.1673
 1233SOL    HW215159   1.429   2.653   0.651 -0.4474  0.1530  0.0168
 1234SOL     OW15160   1.387   3.727   5.968  0.1500  0.2570 -0.1501
 1234SOL    HW115161   1.344   3.776   6.038  0.4156 -1.1139  0.9693
 1234SOL    HW215162   1.439   3.668   6.023  1.4257  0.9215 -0.6508
 1235SOL     OW15163   3.091   3.864   2.265 -0.3388  0.4980  0.3617
 1235SOL    HW115164   3.177   3.824   2.275 -1.1436 -1.2550  0.2178
 1235SOL    HW215165   3.062   3.840   2.177 -3.0023 -0.4726  1.5185
 1236SOL     OW15166   1.089   2.397   1.611 -0.2667  0.3442  0.2039
 1236SOL    HW115167   1.033   2.415   1.687 -1.0625  0.0824 -0.3238
 1236SOL    HW215168   1.171   2.407   1.660 -1.0366 -2.0366  2.0015
 1237SOL     OW15169   3.855   3.525  11.726 -0.7165  0.2291 -0.3252
 1237SOL    HW115170   3.928   3.569  11.770 -1.9883  0.2854  1.7166
 1237SOL    HW215171   3.793   3.598  11.723 -1.0776 -0.0651 -0.0497
 1238SOL     OW15172   1.992   0.560  12.433  0.2213  0.0748  0.0897
 1238SOL    HW115173   2.057   0.630  12.427 -0.3301  0.4756 -1.1201
 1238SOL    HW215174   2.048   0.483  12.445 -0.6616 -0.3568  1.5105
 1239SOL     OW15175   0.965   1.221   6.913  0.3420  0.5407  0.2320
 1239SOL    HW115176   0.990   1.135   6.880  0.8355  0.4796  0.7682
 1239SOL    HW215177   1.042   1.231   6.969 -0.3154  0.8538  1.0713
 1240SOL     OW15178   2.572   2.222  16.471  0.2171  0.1973 -0.0097
 1240SOL    HW115179   2.598   2.236  16.563  2.4100  0.8251 -0.7372
 1240SOL    HW215180   2.627   2.295  16.444  1.4759 -1.1610 -1.1062
 1241SOL     OW15181   4.578   0.015  17.083 -0.1614 -0.2464  0.1115
 1241SOL    HW115182   4.491   0.037  17.116 -0.4760 -2.5476  0.8668
 1241SOL    HW215183   4.608   0.087  17.029 -0.8522 -1.3209 -1.7047
 1242SOL     OW15184   1.825   0.697   5.323  0.6856 -0.4637  0.4162
 1242SOL    HW115185   1.921   0.690   5.323  0.7144 -0.1358 -0.4743
 1242SOL    HW215186   1.808   0.785   5.287  0.0193 -0.6385  0.3041
 1243SOL     OW15187   3.655   4.487  10.198  0.2521 -0.1972  0.0528
 1243SOL    HW115188   3.734   4.435  10.184 -0.7022 -2.0196  1.3921
 1243SOL    HW215189   3.696   4.571  10.219  1.1933 -0.8227  0.7543
 1244SOL     OW15190   1.268   3.320   2.727 -0.0518 -0.2597  0.1909
 1244SOL    HW115191   1.310   3.256   2.670 -0.2159  0.3455 -0.6140
 1244SOL    HW215192   1.177   3.318   2.697 -0.7234  0.7230  2.1336
 1245SOL     OW15193   3.680   0.039  14.879  0.0419  0.3668 -0.2577
 1245SOL    HW115194   3.697   0.003  14.792 -0.4795  2.3297 -1.1775
 1245SOL    HW215195   3.585   0.032  14.881  0.1750 -1.4431 -0.5135
 1246SOL     OW15196   4.601   3.727   5.437  0.0770 -0.0376  0.0535
 1246SOL    HW115197   4.560   3.733   5.523  2.2192 -1.4445  1.1704
 1246SOL    HW215198   4.693   3.740   5.460 -0.4699  0.6093  1.9129
 1247SOL     OW15199   0.564   2.449   6.795  0.8476  0.4344 -0.4467
 1247SOL    HW115200   0.654   2.473   6.814  0.7905 -1.2120  1.8608
 1247SOL    HW215201   0.549   2.412   6.882  1.8745 -0.6731 -0.7394
 1248SOL     OW15202   0.493   3.506   4.639  0.6413 -0.0943  0.3910
 1248SOL    HW115203   0.447   3.546   4.712  0.1232 -0.3230  0.1920
 1248SOL    HW215204   0.493   3.577   4.575  0.6363  0.5947  1.1532
 1249SOL     OW15205   0.691   3.464   7.182  0.3054  0.3334 -0.0331
 1249SOL    HW115206   0.684   3.369   7.171 -1.4904  0.5019 -0.3139
 1249SOL    HW215207   0.774   3.490   7.143  0.5572  1.5242  1.2997
 1250SOL     OW15208   0.058   1.451   7.383  0.0161  0.3004 -0.1487
 1250SOL    HW115209   0.068   1.367   7.339 -2.0796 -0.2292  0.3672
 1250SOL    HW215210   4.709   1.489   7.326 -0.9422 -0.3967  0.4986
 1251SOL     OW15211   2.469   2.613   1.860 -0.4687  0.6399  0.3359
 1251SOL    HW115212   2.501   2.703   1.861  0.0387  0.4590  0.5534
 1251SOL    HW215213   2.516   2.575   1.787  1.8072  4.5650 -0.1950
 1252SOL     OW15214   0.700   0.907   8.649  0.0100  0.2522 -0.5549
 1252SOL    HW115215   0.678   0.918   8.557  0.1185 -0.1591 -0.6278
 1252SOL    HW215216   0.680   0.814   8.658 -0.9528  0.3007 -2.2619
 1253SOL     OW15217   0.824   4.522   6.080  0.2142  0.0605 -0.4147
 1253SOL    HW115218   0.873   4.603   6.068  0.8202 -0.1699  0.5832
 1253SOL    HW215219   0.781   4.540   6.163  2.1817 -0.0644  0.6125
 1254SOL     OW15220   3.522   1.240   3.779 -0.2944 -0.7448 -0.4705
 1254SOL    HW115221   3.507   1.275   3.691 -1.4098  2.8664  1.1293
 1254SOL    HW215222   3.468   1.161   3.772 -0.4444 -0.6390 -0.5307
 1255SOL     OW15223   0.757   3.281   4.232 -0.0106  0.3012  0.8290
 1255SOL    HW115224   0.786   3.217   4.297  1.3895 -0.9485 -1.0282
 1255SOL    HW215225   0.797   3.226   4.165  2.0155  2.9909 -0.1473
 1256SOL     OW15226   1.912   1.886   4.835 -0.0906 -0.2272 -0.1319
 1256SOL    HW115227   1.928   1.964   4.782  0.5377 -1.1045 -1.2282
 1256SOL    HW215228   1.892   1.930   4.918 -1.4344 -1.4334  0.1783
 1257SOL     OW15229   0.944   1.040   2.789  0.0641  0.5789 -0.2655
 1257SOL    HW115230   0.981   1.128   2.780 -2.8766  1.7628 -0.8893
 1257SOL    HW215231   1.024   0.988   2.787 -1.4834 -1.7888  0.0552
 1258SOL     OW15232   3.231   1.262   6.986  0.3408 -0.4236 -0.2067
 1258SOL    HW115233   3.224   1.357   6.996 -0.5657 -0.5632  0.4031
 1258SOL    HW215234   3.308   1.256   7.042  0.5130  0.9212 -0.2866
 1259SOL     OW15235   3.694   3.443  11.965 -0.6161  0.2933  0.2274
 1259SOL    HW115236   3.661   3.358  11.994 -1.0947  1.0899  1.9984
 1259SOL    HW215237   3.789   3.434  11.976 -0.9081  0.9656  3.2555
 1260SOL     OW15238   2.233   2.646  12.676  0.5718 -0.3241 -0.3674
 1260SOL    HW115239   2.214   2.587  12.749  2.5613  0.1402  0.5353
 1260SOL    HW215240   2.263   2.594  12.602 -0.7677 -0.7086 -0.6290
 1261SOL     OW15241   0.102   4.154  17.606 -0.2834  0.3627 -0.3832
 1261SOL    HW115242   0.129   4.231  17.555  0.8170 -0.3090 -0.8162
 1261SOL    HW215243   0.009   4.177  17.612  0.0326  0.8026  3.1180
 1262SOL     OW15244   1.338   3.488   2.005  0.4706  0.1142  0.0087
 1262SOL    HW115245   1.350   3.393   2.002  0.6281  0.2110 -2.8851
 1262SOL    HW215246   1.243   3.498   2.008  0.5339  0.6122  0.3211
 1263SOL     OW15247   2.569   1.082  12.456  0.0496  0.0013 -0.0017
 1263SOL    HW115248   2.489   1.061  12.504  1.3611 -2.0905  1.2478
 1263SOL    HW215249   2.570   1.177  12.474 -1.0648  0.5700 -2.9187
 1264SOL     OW15250   2.697   4.270   6.456 -0.0979 -0.4948 -0.1642
 1264SOL    HW115251   2.692   4.231   6.544  0.5808  3.5180  1.6316
 1264SOL    HW215252   2.731   4.358   6.473 -0.6813  0.4137 -3.6994
 1265SOL     OW15253   1.442   2.244   7.088  0.2458  0.4107 -0.2313
 1265SOL    HW115254   1.505   2.179   7.118  2.8165  2.9251 -0.2113
 1265SOL    HW215255   1.389   2.240   7.168 -0.0846  4.8669 -0.2282
 1266SOL     OW15256   0.517   3.257   8.600  1.3430  0.4066 -0.2182
 1266SOL    HW115257   0.571   3.219   8.670  0.8621 -0.7060 -0.4492
 1266SOL    HW215258   0.524   3.350   8.621 -2.0900  0.4338  0.8942
 1267SOL     OW15259   3.011   4.629   4.568 -0.1377  0.5719 -0.6837
 1267SOL    HW115260   2.919   4.644   4.545 -1.2125 -2.8003  1.4688
 1267SOL    HW215261   3.015   4.683   4.646  1.6619 -1.2473  0.4836
 1268SOL     OW15262   3.409   2.918  13.188  0.3533 -0.1700 -0.1668
 1268SOL    HW115263   3.389   2.954  13.102  0.0227 -1.6019 -0.6833
 1268SOL    HW215264   3.432   2.829  13.164  2.0000  0.5088 -1.1196
 1269SOL     OW15265   1.271   0.984   6.131  0.6754  0.5354 -0.8430
 1269SOL    HW115266   1.278   1.068   6.086 -0.0582  0.2936 -1.4118
 1269SOL    HW215267   1.303   0.924   6.064  0.2066  1.1187 -1.5892
 1270SOL     OW15268   4.085   0.157  17.330 -0.0385 -0.1454  0.7168
 1270SOL    HW115269   4.174   0.191  17.324 -0.7715  1.6028 -0.2286
 1270SOL    HW215270   4.097   0.065  17.352 -2.5466 -0.6604 -0.0513
 1271SOL     OW15271   2.476   2.564   4.417  0.3080 -0.3444  0.1798
 1271SOL    HW115272   2.535   2.570   4.492  0.5387  0.3017 -0.0469
 1271SOL    HW215273   2.416   2.638   4.429  1.4534  0.6801 -0.3519
 1272SOL     OW15274   4.615   2.410  14.041 -0.3734  0.4011  0.1297
 1272SOL    HW115275   4.623   2.488  14.095 -1.3587  0.8166 -0.3352
 1272SOL    HW215276   4.531   2.419  13.997 -0.8080 -0.8782  0.7084
 1273SOL     OW15277   4.444   2.025   4.241  0.2305  0.0453 -0.0144
 1273SOL    HW115278   4.488   2.072   4.312  0.7225 -0.7240  0.1833
 1273SOL    HW215279   4.402   1.955   4.291  1.6881 -1.0649 -0.3735
 1274SOL     OW15280   1.491   3.585   1.813  0.3621  0.6225 -0.1445
 1274SOL    HW115281   1.461   3.545   1.895  2.8864 -0.6465  0.1799
 1274SOL    HW215282   1.419   3.577   1.751  1.4704 -0.6924 -1.2564
 1275SOL     OW15283   0.677   2.799   7.174  0.7663  0.3776 -0.4662
 1275SOL    HW115284   0.595   2.765   7.208  0.1848 -1.0115 -3.2316
 1275SOL    HW215285   0.648   2.856   7.103 -0.9708 -0.4926 -0.4366
 1276SOL     OW15286   4.372   0.917  13.553  0.2029  0.7811 -0.5019
 1276SOL    HW115287   4.363   0.960  13.638  1.8311 -1.1305  0.6415
 1276SOL    HW215288   4.454   0.951  13.517 -0.9036  0.8768 -2.9012
 1277SOL     OW15289   3.511   2.005  10.868 -0.1577 -0.0426 -0.1166
 1277SOL    HW115290   3.467   1.984  10.951 -1.2161  0.5075 -0.5399
 1277SOL    HW215291   3.443   2.060  10.829 -0.1330  0.5507  0.6645
 1278SOL     OW15292   3.505   3.075  17.056 -0.3767 -0.7674  0.7788
 1278SOL    HW115293   3.560   3.096  17.132 -1.1161 -0.4743  1.2324
 1278SOL    HW215294   3.418   3.092  17.090  0.6098  1.1841  2.3110
 1279SOL     OW15295   0.860   4.410   4.320  0.0047  0.8132 -0.8737
 1279SOL    HW115296   0.840   4.437   4.230  1.0630  0.2064 -1.2822
 1279SOL    HW215297   0.937   4.355   4.308  0.9249  1.8417  0.2798
 1280SOL     OW15298   0.668   4.318  14.640 -0.3493  0.4296 -0.2888
 1280SOL    HW115299   0.696   4.261  14.568  1.0076  0.2614  0.3841
 1280SOL    HW215300   0.737   4.383  14.625 -0.7705  0.8117 -0.6183
 1281SOL     OW15301   0.275   3.441  17.270 -0.7860  0.0848  0.0134
 1281SOL    HW115302   0.284   3.347  17.281 -3.9233 -0.1593  0.7083
 1281SOL    HW215303   0.241   3.442  17.181 -0.7707 -1.2265 -0.0096
 1282SOL     OW15304   4.632   4.516   0.667 -0.0190 -0.5335 -0.4771
 1282SOL    HW115305   4.702   4.572   0.632  0.7505 -0.1338  1.7129
 1282SOL    HW215306   4.673   4.434   0.692  2.0295  0.2102 -1.4181
 1283SOL     OW15307   1.256   3.413   7.871 -0.1825  0.1589  0.7113
 1283SOL    HW115308   1.310   3.491   7.885 -0.1263 -0.0630  1.7613
 1283SOL    HW215309   1.302   3.379   7.794  0.5439  1.5990  0.5006
 1284SOL     OW15310   4.330   3.599   7.898  0.5612  0.1264  0.2707
 1284SOL    HW115311   4.240   3.625   7.879  0.6900  0.1714 -0.3008
 1284SOL    HW215312   4.316   3.505   7.901  0.9839  0.2040  3.9723
 1285SOL     OW15313   1.699   1.258   8.099  0.2482 -0.0003  0.2266
 1285SOL    HW115314   1.755   1.245   8.176  0.3330  0.7873  0.3005
 1285SOL    HW215315   1.705   1.354   8.092 -1.5645  0.1560  0.8506
 1286SOL     OW15316   2.719   0.496   2.792  0.2499  0.6051  0.0812
 1286SOL    HW115317   2.743   0.588   2.797  0.2843  0.6222 -0.4137
 1286SOL    HW215318   2.763   0.464   2.870 -1.4191 -0.1765  0.7031
 1287SOL     OW15319   3.899   0.897   5.293  0.5485 -0.0393 -0.0010
 1287SOL    HW115320   3.840   0.951   5.346 -0.3700 -0.7705 -0.2856
 1287SOL    HW215321   3.892   0.939   5.207 -0.1020  0.2314  0.1858
 1288SOL     OW15322   4.582   3.599  13.171  0.2892  0.2076  0.5952
 1288SOL    HW115323   4.673   3.572  13.163 -0.0388  0.2465 -3.3152
 1288SOL    HW215324   4.594   3.649  13.252  0.6428 -0.7875  1.1584
 1289SOL     OW15325   0.323   1.577   6.385  0.0668  0.5736 -0.0256
 1289SOL    HW115326   0.276   1.661   6.388 -2.3868 -0.7962 -0.2837
 1289SOL    HW215327   0.295   1.536   6.303 -1.2873  0.8919  0.2906
 1290SOL     OW15328   0.122   0.414   7.002  0.1484 -0.1899 -0.1700
 1290SOL    HW115329   0.175   0.334   7.000  0.2579 -0.1063 -0.7833
 1290SOL    HW215330   0.179   0.475   7.049  3.2661 -0.5722 -3.3911
 1291SOL     OW15331   2.502   1.414   0.558  0.4274  0.1644  0.4079
 1291SOL    HW115332   2.478   1.321   0.548  0.9327 -0.0021  0.7341
 1291SOL    HW215333   2.559   1.420   0.481  1.6582  0.4799  1.3524
 1292SOL     OW15334   4.515   4.604   5.467  0.2626 -0.3812 -0.3688
 1292SOL    HW115335   4.450   4.671   5.447  0.2067 -0.0964  0.8136
 1292SOL    HW215336   4.477   4.527   5.423 -0.2775 -0.0475 -0.4850
 1293SOL     OW15337   1.024   4.317  16.525 -0.6209 -0.0421 -0.0827
 1293SOL    HW115338   1.011   4.361  16.609 -1.9836 -2.0407  0.7590
 1293SOL    HW215339   0.995   4.388  16.467  1.5933  0.9762  0.0493
 1294SOL     OW15340   0.999   2.920   1.948 -0.1155  0.2789 -0.2732
 1294SOL    HW115341   1.075   2.974   1.931  0.6706 -0.3121  1.4659
 1294SOL    HW215342   1.025   2.861   2.019 -0.7270 -1.3228 -1.3612
 1295SOL     OW15343   2.549   2.835  14.559  0.1323 -0.3093 -0.2210
 1295SOL    HW115344   2.460   2.808  14.584  0.4000 -2.9214 -2.0813
 1295SOL    HW215345   2.602   2.783  14.619 -0.1843  1.2843  1.4628
 1296SOL     OW15346   1.385   4.642   3.074  0.4794 -0.0713 -0.0247
 1296SOL    HW115347   1.463   4.594   3.047 -0.5707 -0.4446 -2.3404
 1296SOL    HW215348   1.322   4.589   3.025 -0.2949 -0.1529  1.0617
 1297SOL     OW15349   2.184   3.016   4.874  0.0432 -0.5122  0.2948
 1297SOL    HW115350   2.215   3.035   4.962  0.0292  0.3658  0.1124
 1297SOL    HW215351   2.246   2.950   4.841  2.1646 -0.6474  4.4815
 1298SOL     OW15352   4.628   4.107   9.739  0.2431 -0.2893  0.7121
 1298SOL    HW115353   4.685   4.031   9.730  0.3756 -0.0628 -0.4213
 1298SOL    HW215354   4.689   4.173   9.772  0.2371  0.5679 -0.9696
 1299SOL     OW15355   1.061   2.702   5.813  0.0336 -0.1824  0.3028
 1299SOL    HW115356   1.099   2.781   5.776 -0.5487 -0.2430 -0.4125
 1299SOL    HW215357   1.104   2.635   5.760  0.1428 -1.4004  1.9324
 1300SOL     OW15358   3.231   2.851  15.393 -0.0085  0.1062 -0.0084
 1300SOL    HW115359   3.319   2.866  15.429 -0.0221  1.1048 -0.3977
 1300SOL    HW215360   3.229   2.917  15.325  4.9041  1.5832  1.2435
 1301SOL     OW15361   3.312   2.094   4.170  0.4974  0.7380 -0.5331
 1301SOL    HW115362   3.360   2.017   4.141 -1.0381 -0.7799  0.9994
 1301SOL    HW215363   3.259   2.055   4.239  1.5395 -1.2330 -0.8514
 1302SOL     OW15364   3.875   0.065  16.734 -0.4425 -0.0031  0.3722
 1302SOL    HW115365   3.941   0.128  16.762  0.9247 -0.6892 -1.2767
 1302SOL    HW215366   3.799   0.075  16.791 -0.0322  1.8665  0.5719
 1303SOL     OW15367   0.633   3.953   8.275  0.1865  0.8218  0.1212
 1303SOL    HW115368   0.588   4.028   8.236 -0.7757 -0.0003 -0.3451
 1303SOL    HW215369   0.565   3.885   8.273  1.7271 -0.6611 -1.9555
 1304SOL     OW15370   3.811   3.037   3.499 -0.2902  0.4513 -0.3242
 1304SOL    HW115371   3.798   3.089   3.578  4.7762 -0.4253  1.1168
 1304SOL    HW215372   3.883   2.980   3.527  0.6198  2.4196  1.3190
 1305SOL     OW15373   0.723   3.543  12.703  0.2746 -0.4450 -0.1467
 1305SOL    HW115374   0.817   3.545  12.721  0.5491 -0.8676 -1.5312
 1305SOL    HW215375   0.719   3.487  12.625 -1.8079  0.2003 -0.5243
 1306SOL     OW15376   4.223   3.464   7.476 -0.1712  0.2215 -0.5158
 1306SOL    HW115377   4.171   3.540   7.450 -1.1366 -0.2698 -0.0416
 1306SOL    HW215378   4.293   3.512   7.518  1.0419 -1.5756 -0.4766
 1307SOL     OW15379   0.153   3.053   8.932  0.2580 -0.4966 -0.2858
 1307SOL    HW115380   0.178   2.977   8.879 -1.4485  0.2831 -2.2457
 1307SOL    HW215381   0.138   3.007   9.015  0.9392 -1.0622 -0.4743
 1308SOL     OW15382   0.444   4.032  14.655 -0.3977  0.6488 -0.5219
 1308SOL    HW115383   0.356   4.066  14.641  0.8300  3.0410 -2.4865
 1308SOL    HW215384   0.422   3.939  14.664  0.9748  0.1714 -2.0377
 1309SOL     OW15385   3.828   0.302   3.678  0.0028  0.6137 -0.0673
 1309SOL    HW115386   3.773   0.304   3.599 -3.0774 -0.2250  2.0472
 1309SOL    HW215387   3.807   0.214   3.708  1.5106 -0.3704 -1.9113
 1310SOL     OW15388   4.529   4.108  11.116 -0.1312  0.2020  0.4932
 1310SOL    HW115389   4.441   4.109  11.078  0.4115 -0.5593 -0.7825
 1310SOL    HW215390   4.543   4.200  11.137 -1.2608 -0.0133  2.1972
 1311SOL     OW15391   2.369   4.622   4.994 -0.2647 -0.2677 -0.0064
 1311SOL    HW115392   2.379   4.710   4.958  0.0847 -0.7239 -1.0188
 1311SOL    HW215393   2.460   4.593   5.002  0.2911  1.3348 -0.4610
 1312SOL     OW15394   1.750   3.256  12.397 -0.4029 -0.0199 -0.0878
 1312SOL    HW115395   1.735   3.210  12.480  1.0630  0.8941  0.6729
 1312SOL    HW215396   1.661   3.275  12.366 -0.6121  1.6174  1.4848
 1313SOL     OW15397   0.692   3.324   2.475 -0.4519 -0.3805 -0.2257
 1313SOL    HW115398   0.721   3.235   2.454  0.3486 -0.9346  3.2494
 1313SOL    HW215399   0.756   3.374   2.423  0.2646 -0.9710  0.0749
 1314SOL     OW15400   0.516   0.877   3.439 -0.0681 -0.5997 -0.0411
 1314SOL    HW115401   0.521   0.936   3.515 -0.4784  1.2010 -1.4137
 1314SOL    HW215402   0.422   0.858   3.435 -0.0923 -0.7172  1.0316
 1315SOL     OW15403   2.214   4.219  14.405 -0.0933  0.2196 -0.4634
 1315SOL    HW115404   2.299   4.260  14.419  0.3093 -1.1353  1.0442
 1315SOL    HW215405   2.196   4.200  14.497 -1.6720  1.3898 -0.5458
 1316SOL     OW15406   4.694   1.058   2.935  0.1283 -0.2501 -0.0305
 1316SOL    HW115407   4.690   1.087   2.844  1.9351  1.7483  0.5192
 1316SOL    HW215408   4.685   1.145   2.974  3.8340 -0.4826  1.3030
 1317SOL     OW15409   1.075   0.513   6.111  0.2995 -0.1561  0.3442
 1317SOL    HW115410   1.165   0.536   6.086  0.0257 -0.0330 -0.5592
 1317SOL    HW215411   1.013   0.563   6.057 -1.4220 -2.6543  0.0116
 1318SOL     OW15412   1.864   4.072   5.020 -0.5959  0.0738  0.1451
 1318SOL    HW115413   1.944   4.034   5.056 -1.2856 -1.5378 -0.0339
 1318SOL    HW215414   1.790   4.027   5.061 -0.6214 -0.3765 -0.3994
 1319SOL     OW15415   1.088   0.132   5.494 -0.0285  0.2918  0.2116
 1319SOL    HW115416   1.103   0.157   5.403  1.6859  1.9809  0.9696
 1319SOL    HW215417   1.011   0.182   5.521 -0.2237 -0.3260  0.8160
 1320SOL     OW15418   2.396   4.420   8.530  0.0539 -0.1631  0.3397
 1320SOL    HW115419   2.428   4.487   8.469 -0.4760  1.3046  1.6640
 1320SOL    HW215420   2.444   4.427   8.613 -0.6448  1.4523  0.6173
 1321SOL     OW15421   4.062   3.276  15.286  0.4633 -0.5124 -0.2881
 1321SOL    HW115422   4.130   3.232  15.336 -1.2903 -1.8737  0.9123
 1321SOL    HW215423   3.990   3.228  15.327 -1.0887  0.8972 -1.3628
 1322SOL     OW15424   1.541   4.345   7.868 -0.4130  0.3481  0.0139
 1322SOL    HW115425   1.608   4.379   7.928  1.6241  1.6324 -2.9832
 1322SOL    HW215426   1.484   4.317   7.940 -0.3577  0.2602  0.0235
 1323SOL     OW15427   0.682   2.270   5.634  0.5576 -0.1518  0.5403
 1323SOL    HW115428   0.680   2.230   5.546 -2.3163  1.1812  0.0226
 1323SOL    HW215429   0.614   2.335   5.619 -0.6728 -1.6824 -0.5068
 1324SOL     OW15430   2.612   3.682   1.598  0.4447 -0.5121 -0.5108
 1324SOL    HW115431   2.534   3.716   1.642 -0.1044 -1.3832 -0.7935
 1324SOL    HW215432   2.678   3.694   1.666  0.0567 -0.1207 -0.2097
 1325SOL     OW15433   1.638   1.472   2.403 -0.2104  0.3790  0.0713
 1325SOL    HW115434   1.599   1.512   2.325 -0.1233 -0.7031 -0.5281
 1325SOL    HW215435   1.556   1.447   2.445 -0.6646  3.9086  1.2796
 1326SOL     OW15436   1.299   1.827   8.490 -0.4371 -0.4998  0.4085
 1326SOL    HW115437   1.316   1.776   8.570 -0.1652  1.2339  1.4562
 1326SOL    HW215438   1.294   1.751   8.432  1.4396 -0.2385 -0.1057
 1327SOL     OW15439   1.749   1.961   2.532 -0.4019 -0.1389 -0.3453
 1327SOL    HW115440   1.761   1.912   2.614 -0.3161 -1.6635 -1.2715
 1327SOL    HW215441   1.663   1.924   2.512 -0.8383 -0.6004  2.3567
 1328SOL     OW15442   3.684   3.400   0.734 -0.2961 -0.2669 -0.1859
 1328SOL    HW115443   3.703   3.327   0.792  1.2809 -0.7666 -1.3370
 1328SOL    HW215444   3.705   3.473   0.792 -0.6956  0.1555 -0.5741
 1329SOL     OW15445   0.256   2.980   2.134 -0.5080  0.3035 -0.6322
 1329SOL    HW115446   0.324   3.046   2.146 -0.0983 -0.2783  0.2730
 1329SOL    HW215447   0.250   2.970   2.039 -1.7069  0.3089 -0.5638
 1330SOL     OW15448   0.300   2.628   8.211  0.2977  0.3648 -0.0142
 1330SOL    HW115449   0.312   2.612   8.117 -0.2572  1.7320 -0.3247
 1330SOL    HW215450   0.318   2.721   8.224  0.6929  0.8998 -4.1646
 1331SOL     OW15451   1.496   1.637  12.722  0.3860  0.0607 -0.1064
 1331SOL    HW115452   1.548   1.709  12.685  1.1567 -0.6393 -0.4047
 1331SOL    HW215453   1.447   1.605  12.647  1.0836 -1.2107 -0.0163
 1332SOL     OW15454   2.810   0.752   2.830 -0.3921 -0.0096 -0.0121
 1332SOL    HW115455   2.763   0.765   2.912 -1.7361 -0.8923 -0.6372
 1332SOL    HW215456   2.757   0.813   2.778  0.9336 -1.6070 -3.2804
 1333SOL     OW15457   3.471   0.079  11.526  0.3960 -0.7521 -0.1464
 1333SOL    HW115458   3.405   0.009  11.524 -0.5717  0.1670 -0.3190
 1333SOL    HW215459   3.544   0.019  11.507 -0.9781 -2.4324 -0.1897
 1334SOL     OW15460   4.486   1.045   7.807 -0.0095  0.6037 -0.3773
 1334SOL    HW115461   4.515   1.111   7.744 -1.0957 -0.7869 -2.3284
 1334SOL    HW215462   4.428   1.001   7.745  0.5036 -0.9969  0.2687
 1335SOL     OW15463   0.103   3.709   1.903  0.1681  0.5757 -0.2831
 1335SOL    HW115464   0.109   3.697   1.809 -0.1902  0.0801 -0.2418
 1335SOL    HW215465   0.072   3.620   1.920  1.1094  0.4018  0.5933
 1336SOL     OW15466   1.525   3.982   4.612 -0.4557  0.7364  0.1650
 1336SOL    HW115467   1.559   4.040   4.544  2.0791  1.1001  1.7561
 1336SOL    HW215468   1.455   3.937   4.565  0.5264  0.0360 -0.6253
 1337SOL     OW15469   4.679   0.179   6.839  0.1298 -0.4157 -0.1991
 1337SOL    HW115470   4.609   0.117   6.860 -0.4091  0.5095  0.7680
 1337SOL    HW215471   4.691   0.169   6.744 -0.7928  1.8962 -0.5726
 1338SOL     OW15472   0.986   3.744   7.857  0.0902 -0.1049  0.0914
 1338SOL    HW115473   0.974   3.753   7.762 -2.0807  3.5351  0.7285
 1338SOL    HW215474   0.928   3.672   7.879  1.4374 -0.7337  1.5674
 1339SOL     OW15475   2.486   1.061   5.214 -0.1630  0.1534  0.2197
 1339SOL    HW115476   2.474   0.971   5.181 -0.3304 -0.2112  1.2808
 1339SOL    HW215477   2.569   1.048   5.259 -1.1836 -0.1453  2.0056
 1340SOL     OW15478   1.501   1.417   9.636 -0.0969 -0.0594  0.0691
 1340SOL    HW115479   1.425   1.370   9.670  0.8079 -2.3352 -1.0491
 1340SOL    HW215480   1.489   1.509   9.660 -1.3487 -0.3068  0.3891
 1341SOL     OW15481   2.470   1.649   5.397 -0.7108 -0.1212  0.3957
 1341SOL    HW115482   2.376   1.659   5.410 -0.3501  2.6083  0.8878
 1341SOL    HW215483   2.509   1.702   5.466 -0.6845 -1.4176  1.3886
 1342SOL     OW15484   0.940   1.826   1.456 -0.2073 -0.4094  0.5297
 1342SOL    HW115485   1.030   1.820   1.425 -1.2015  1.2457 -2.6334
 1342SOL    HW215486   0.907   1.743   1.422  2.4959 -0.8073 -1.0684
 1343SOL     OW15487   3.070   0.087   5.086  0.7713 -0.2615 -0.1717
 1343SOL    HW115488   3.133   0.120   5.022  1.4674  0.1481  0.7178
 1343SOL    HW215489   3.060   4.711   5.071  0.9985 -0.0259 -1.7927
 1344SOL     OW15490   3.137   1.520   3.180 -0.2656 -0.6046 -0.3169
 1344SOL    HW115491   3.200   1.471   3.127  0.2549 -0.7658  0.4494
 1344SOL    HW215492   3.051   1.483   3.161 -1.1389  2.2758 -1.8522
 1345SOL     OW15493   3.074   3.171   6.459 -0.2202  0.5692 -1.0847
 1345SOL    HW115494   3.021   3.235   6.410  1.6215  2.7799 -0.1934
 1345SOL    HW215495   3.155   3.185   6.409  1.0997  0.4013  1.0353
 1346SOL     OW15496   2.015   2.007   3.162  0.4312 -0.0930  0.2926
 1346SOL    HW115497   1.963   2.053   3.097 -0.2879  0.4633  1.2585
 1346SOL    HW215498   2.106   2.034   3.152  0.3849 -0.3970 -0.8847
 1347SOL     OW15499   3.824   2.958   1.846 -0.4040 -0.3564  0.1709
 1347SOL    HW115500   3.868   2.939   1.929 -0.0644  1.7221  0.4609
 1347SOL    HW215501   3.746   2.904   1.858 -1.5782  1.3755  0.3843
 1348SOL     OW15502   1.101   2.502   2.297 -0.4956 -0.3310 -0.5830
 1348SOL    HW115503   1.130   2.439   2.363  1.0836 -0.2851 -1.2364
 1348SOL    HW215504   1.085   2.439   2.228 -1.2497 -3.3393  2.3585
 1349SOL     OW15505   3.408   4.266   3.855 -0.3354 -0.1789 -0.0476
 1349SOL    HW115506   3.353   4.344   3.858 -1.1394 -0.8241  2.0017
 1349SOL    HW215507   3.492   4.293   3.818 -0.0672 -2.9010 -1.4893
 1350SOL     OW15508   2.216   1.759   3.046 -0.4245 -0.1007  0.1576
 1350SOL    HW115509   2.200   1.768   3.140 -3.2437  2.0261 -0.5328
 1350SOL    HW215510   2.291   1.812   3.021 -0.6135 -0.9363 -2.1709
 1351SOL     OW15511   2.754   1.729   1.356 -0.4440 -0.1594  0.4384
 1351SOL    HW115512   2.720   1.676   1.284 -0.2119 -0.1677  0.3323
 1351SOL    HW215513   2.711   1.683   1.428 -0.5461 -1.8130 -0.6721
 1352SOL     OW15514   0.214   0.128  10.726  0.4724  0.4146 -0.2082
 1352SOL    HW115515   0.163   0.051  10.752  0.2071  0.3065 -1.0375
 1352SOL    HW215516   0.276   0.134  10.799  1.4795 -1.4612 -0.8923
 1353SOL     OW15517   4.279   2.972   5.607  0.6263  0.3341 -0.2493
 1353SOL    HW115518   4.304   3.050   5.656 -1.4283  1.4104 -0.8962
 1353SOL    HW215519   4.212   3.017   5.555 -2.0338 -2.0903  1.0824
 1354SOL     OW15520   2.111   2.555   4.450  0.1721  0.4873  0.0238
 1354SOL    HW115521   2.080   2.495   4.518 -1.6772  0.3467 -0.9446
 1354SOL    HW215522   2.151   2.501   4.381  1.6522 -1.5957  2.5213
 1355SOL     OW15523   1.400   0.189  16.390  0.2902 -0.1811 -0.5738
 1355SOL    HW115524   1.461   0.259  16.366 -1.5270  1.1339 -1.4456
 1355SOL    HW215525   1.333   0.220  16.329  0.6778  2.1073  0.1332
 1356SOL     OW15526   2.870   2.939   9.431 -0.3376 -0.5290 -0.2224
 1356SOL    HW115527   2.813   2.873   9.470 -0.9819  1.0238  1.4556
 1356SOL    HW215528   2.888   2.902   9.345 -0.9975 -2.1549  0.3341
 1357SOL     OW15529   3.251   1.824   5.426  0.1493 -0.1545 -0.4675
 1357SOL    HW115530   3.237   1.784   5.512 -1.7368  1.1195 -0.1904
 1357SOL    HW215531   3.232   1.752   5.365 -0.1678 -0.9906  0.6250
 1358SOL     OW15532   3.984   0.136   0.056  0.2157 -0.0324  0.0715
 1358SOL    HW115533   3.932   0.133  17.649 -0.0342  1.0130  0.1872
 1358SOL    HW215534   4.066   0.091   0.037  1.2304  2.6979 -2.1162
 1359SOL     OW15535   3.892   2.375   9.594 -0.7048  0.1376 -0.5564
 1359SOL    HW115536   3.933   2.290   9.611 -2.5192 -0.3927  1.0789
 1359SOL    HW215537   3.803   2.363   9.625 -1.0553  0.0975 -1.5839
 1360SOL     OW15538   0.542   1.425   4.858  0.1001 -0.2044  0.5558
 1360SOL    HW115539   0.614   1.475   4.896  2.3101 -2.2697 -0.9122
 1360SOL    HW215540   0.469   1.486   4.872  0.5373  0.2252  0.9381
 1361SOL     OW15541   0.871   2.052   2.156  0.2583  0.4016 -0.1641
 1361SOL    HW115542   0.800   1.995   2.128  0.7988 -0.4641  0.2328
 1361SOL    HW215543   0.921   1.980   2.195  1.9504  1.2289 -0.8096
 1362SOL     OW15544   1.735   2.884   3.457 -0.1794  0.0579  0.0224
 1362SOL    HW115545   1.723   2.970   3.416  0.0891  0.5026  0.8893
 1362SOL    HW215546   1.819   2.859   3.419 -0.5224  0.4283 -0.9790
 1363SOL     OW15547   4.062   2.959   7.327 -0.5659 -0.3326 -0.1083
 1363SOL    HW115548   4.122   2.986   7.258  1.9819 -0.5540  2.0111
 1363SOL    HW215549   4.055   3.046   7.366 -0.1352 -0.3112 -0.0785
 1364SOL     OW15550   1.785   3.017   2.636 -0.2820 -0.2175  0.5568
 1364SOL    HW115551   1.760   3.060   2.718 -0.4378  0.6120  0.0744
 1364SOL    HW215552   1.880   3.021   2.646 -0.4685  1.2989  1.7089
 1365SOL     OW15553   0.066   1.362   9.145  0.1925  0.5764 -0.1151
 1365SOL    HW115554   0.061   1.392   9.236 -2.2480 -0.6697  0.1757
 1365SOL    HW215555   0.154   1.330   9.130 -0.2781 -0.4481 -0.7081
 1366SOL     OW15556   1.462   3.020  12.486 -0.3299  0.0317 -0.2217
 1366SOL    HW115557   1.512   3.029  12.405 -0.7593 -0.9477 -0.5891
 1366SOL    HW215558   1.464   2.925  12.484  0.9188  0.0437  0.5581
 1367SOL     OW15559   3.031   3.448  10.081  0.0566 -0.0931  0.4454
 1367SOL    HW115560   3.027   3.412   9.993 -2.3820 -0.3611  0.6653
 1367SOL    HW215561   2.956   3.403  10.121 -0.2248 -0.7807 -0.8661
 1368SOL     OW15562   2.764   3.567   8.739 -0.0187  0.1867 -0.2086
 1368SOL    HW115563   2.782   3.522   8.657 -2.4204 -1.9085  0.4214
 1368SOL    HW215564   2.715   3.493   8.775  0.0273 -0.2036 -0.9421
 1369SOL     OW15565   2.068   2.889   7.134 -0.3358 -0.3871 -0.0048
 1369SOL    HW115566   2.092   2.934   7.052 -0.4158 -0.7772 -0.2408
 1369SOL    HW215567   2.089   2.800   7.105 -0.4773 -0.1837 -0.7491
 1370SOL     OW15568   3.781   2.300   3.907 -0.4171  0.2630 -0.4515
 1370SOL    HW115569   3.856   2.326   3.960 -0.3570  1.2712 -1.0342
 1370SOL    HW215570   3.815   2.235   3.845  1.5320  0.5616  0.3184
 1371SOL     OW15571   1.033   0.601   7.350 -0.1359  0.3957  0.2267
 1371SOL    HW115572   1.023   0.690   7.384 -0.0247  1.1205 -1.6429
 1371SOL    HW215573   0.943   0.578   7.330  0.6416 -1.9808 -0.4761
 1372SOL     OW15574   3.588   4.461   2.366 -0.2956  0.3568  0.1775
 1372SOL    HW115575   3.577   4.470   2.271 -2.2111 -1.1518  0.2716
 1372SOL    HW215576   3.569   4.368   2.373 -2.2437  0.7592  0.2935
 1373SOL     OW15577   2.546   0.182   4.111  0.0705 -0.5539 -0.1982
 1373SOL    HW115578   2.551   0.251   4.178 -0.7952  0.5693 -1.2978
 1373SOL    HW215579   2.471   0.129   4.137 -0.0371  0.3419  1.3202
 1374SOL     OW15580   2.949   1.607   7.263 -0.4960  0.4164 -0.1404
 1374SOL    HW115581   2.920   1.697   7.280 -0.5513 -0.0942  2.4806
 1374SOL    HW215582   2.896   1.563   7.329  1.2670  0.0945  1.0568
 1375SOL     OW15583   2.345   0.744   7.537 -0.1219 -0.5242 -0.0956
 1375SOL    HW115584   2.343   0.765   7.630  0.4698  0.3080 -0.2782
 1375SOL    HW215585   2.360   0.828   7.495 -1.1078 -1.6232 -2.6445
 1376SOL     OW15586   0.208   2.458  14.130 -0.2845 -0.0394  0.5267
 1376SOL    HW115587   0.204   2.512  14.209  2.7719 -0.1174  0.7356
 1376SOL    HW215588   0.245   2.521  14.068  1.4969 -0.9893  0.6248
 1377SOL     OW15589   3.189   2.587  10.822  0.0207 -0.1931  0.1497
 1377SOL    HW115590   3.175   2.540  10.740 -1.7970 -0.4172  0.5892
 1377SOL    HW215591   3.099   2.607  10.848 -0.0979 -0.9591  0.3116
 1378SOL     OW15592   1.534   4.565   6.660  0.1745  0.0174  0.2399
 1378SOL    HW115593   1.565   4.608   6.741 -2.3695  2.2135  0.0448
 1378SOL    HW215594   1.610   4.561   6.602  1.9980 -1.0511  2.6987
 1379SOL     OW15595   2.137   3.799   4.789  0.4087  0.5988 -0.0499
 1379SOL    HW115596   2.137   3.879   4.738  1.6692  0.4476 -0.2944
 1379SOL    HW215597   2.057   3.800   4.843  0.1820  1.0192 -0.4012
 1380SOL     OW15598   2.856   0.625  16.363  0.1754  0.1682 -0.4444
 1380SOL    HW115599   2.842   0.594  16.274 -2.1118 -0.4239  0.1129
 1380SOL    HW215600   2.952   0.626  16.365  0.1904 -2.7201  0.8355
 1381SOL     OW15601   1.287   3.214   1.602  0.1537  0.0490 -1.1777
 1381SOL    HW115602   1.253   3.135   1.643  0.2066  0.7076  0.1317
 1381SOL    HW215603   1.207   3.259   1.578 -0.8685 -0.6485  0.9548
 1382SOL     OW15604   1.655   3.592   5.770 -0.0595 -0.0893  0.1800
 1382SOL    HW115605   1.615   3.665   5.818 -0.7445  0.3240 -1.0154
 1382SOL    HW215606   1.597   3.580   5.696 -0.0147  1.9846 -0.1877
 1383SOL     OW15607   1.930   2.506   7.640  0.2684  0.0717  0.0621
 1383SOL    HW115608   1.897   2.483   7.554 -0.6809  0.6052  0.2798
 1383SOL    HW215609   1.873   2.450   7.694 -0.1205  0.1573 -0.2591
 1384SOL     OW15610   2.930   2.004   3.770  0.2539 -0.2669 -0.1632
 1384SOL    HW115611   2.844   1.966   3.784 -0.4327  1.7424  1.0437
 1384SOL    HW215612   2.979   1.924   3.750 -0.7582 -1.3028  1.6060
 1385SOL     OW15613   4.667   2.126   6.221  0.5564  0.5733 -0.6160
 1385SOL    HW115614   0.030   2.075   6.213  0.4092  0.3843 -0.9055
 1385SOL    HW215615   4.694   2.182   6.148 -0.2269  3.3071  1.1896
 1386SOL     OW15616   1.695   3.800   1.523 -0.6793  0.5642 -0.5413
 1386SOL    HW115617   1.675   3.784   1.615  0.4677 -2.4400 -0.8331
 1386SOL    HW215618   1.637   3.872   1.498  1.6384  2.9478  0.9224
 1387SOL     OW15619   1.418   3.995  10.577  0.4003 -0.2203 -0.6895
 1387SOL    HW115620   1.489   4.053  10.603 -0.1405  0.0588  0.1631
 1387SOL    HW215621   1.428   3.927  10.643  0.0713  0.9701  0.5759
 1388SOL     OW15622   1.398   2.897   8.659 -0.8240  0.5040  0.5031
 1388SOL    HW115623   1.471   2.859   8.610 -1.0614  0.6442  0.0448
 1388SOL    HW215624   1.377   2.825   8.719 -0.0871 -1.2505 -1.3356
 1389SOL     OW15625   0.644   3.215   8.370  0.1924  0.2944  0.0706
 1389SOL    HW115626   0.689   3.280   8.425  3.0465 -1.5699 -0.0599
 1389SOL    HW215627   0.569   3.192   8.425 -1.2424  3.1740 -0.6376
 1390SOL     OW15628   2.621   2.331   0.262  0.6334  0.0438 -0.1738
 1390SOL    HW115629   2.593   2.418   0.289  0.1755 -0.1044 -0.1546
 1390SOL    HW215630   2.543   2.283   0.291  0.6783  0.6329  0.9127
 1391SOL     OW15631   3.344   1.174   7.855  0.0315 -0.2548 -0.4365
 1391SOL    HW115632   3.315   1.197   7.766  1.5758  0.8964 -0.6492
 1391SOL    HW215633   3.260   1.186   7.899  0.2750 -0.9605  0.2217
 1392SOL     OW15634   0.888   3.815   4.133 -0.1263 -0.0508 -0.2800
 1392SOL    HW115635   0.860   3.803   4.043 -1.4392 -1.2868  0.2770
 1392SOL    HW215636   0.844   3.744   4.181  0.8672  0.5711  1.5673
 1393SOL     OW15637   3.718   0.971   1.472  0.4124 -0.1411 -0.1436
 1393SOL    HW115638   3.668   0.957   1.552  0.1917 -0.4795 -0.3387
 1393SOL    HW215639   3.672   0.916   1.408  1.4838 -3.0429  1.5497
 1394SOL     OW15640   4.524   4.592   9.068 -0.1448  0.1925 -0.0613
 1394SOL    HW115641   4.523   4.589   8.973  0.9986  1.2735 -0.1132
 1394SOL    HW215642   4.520   4.498   9.090 -1.4372  0.4425  0.7370
 1395SOL     OW15643   0.335   0.826   4.490 -0.1853  0.8972  0.7504
 1395SOL    HW115644   0.378   0.858   4.569  0.5819  0.0216  0.6983
 1395SOL    HW215645   0.358   0.899   4.432 -0.9318  1.4872  1.2107
 1396SOL     OW15646   2.118   1.308   8.160  0.1186  0.5145  0.5783
 1396SOL    HW115647   2.211   1.318   8.176  0.7650 -1.3726 -2.0440
 1396SOL    HW215648   2.086   1.398   8.154  0.5169  0.6675  0.8217
 1397SOL     OW15649   1.326   3.841   5.702  0.0696 -0.4104  0.4153
 1397SOL    HW115650   1.398   3.904   5.695 -0.5288  0.2958  0.5940
 1397SOL    HW215651   1.324   3.840   5.798 -1.8372  1.4705  0.4009
 1398SOL     OW15652   1.730   3.415   6.622  0.3809 -0.4636 -0.4971
 1398SOL    HW115653   1.703   3.505   6.608  1.1454  0.0009  1.0550
 1398SOL    HW215654   1.821   3.413   6.594  0.1046  0.0092 -1.4303
 1399SOL     OW15655   3.631   4.123  13.788 -0.1634 -0.8774  0.8009
 1399SOL    HW115656   3.578   4.043  13.782 -2.2670  0.5604  0.0130
 1399SOL    HW215657   3.652   4.145  13.697  0.2735 -4.4765  0.0357
 1400SOL     OW15658   0.953   0.913   3.249  0.3690 -0.6310 -0.0017
 1400SOL    HW115659   0.992   0.937   3.333  0.1366 -1.7574  0.4274
 1400SOL    HW215660   0.875   0.969   3.249 -1.2535 -2.9332 -1.4571
 1401SOL     OW15661   2.007   2.593  10.711 -0.4676 -0.4340  0.0651
 1401SOL    HW115662   2.098   2.575  10.688 -0.8288 -2.1255 -0.0354
 1401SOL    HW215663   1.969   2.603  10.624  1.2096 -0.7072 -0.7116
 1402SOL     OW15664   4.358   4.322  16.522 -0.1281  0.0808  0.3453
 1402SOL    HW115665   4.327   4.239  16.559  0.9556 -1.7608 -2.9420
 1402SOL    HW215666   4.342   4.305  16.430 -0.1033 -0.0044  0.3570
 1403SOL     OW15667   0.029   4.164   8.354  0.2771 -0.8388  0.2676
 1403SOL    HW115668   0.093   4.130   8.416  0.6958  0.6517  0.6505
 1403SOL    HW215669   0.076   4.146   8.273 -1.6885  0.8492 -1.2647
 1404SOL     OW15670   2.752   3.030  14.753 -0.4711  0.4366 -0.1744
 1404SOL    HW115671   2.828   3.073  14.794 -0.2517  2.5751 -2.8553
 1404SOL    HW215672   2.676   3.070  14.794  0.2724  1.7022 -0.0121
 1405SOL     OW15673   3.511   0.024   2.075  0.0009  0.4201  0.3454
 1405SOL    HW115674   3.571   0.003   2.003  0.4113 -0.0207  0.8129
 1405SOL    HW215675   3.544   4.688   2.147  1.3086 -1.9884 -2.0489
 1406SOL     OW15676   1.240   1.521   0.963 -0.3793  0.2242  0.2808
 1406SOL    HW115677   1.222   1.530   1.056  0.5607 -1.8777  0.6747
 1406SOL    HW215678   1.280   1.605   0.941 -2.3032  1.6843  2.3739
 1407SOL     OW15679   4.672   3.381  16.236 -0.0900 -0.2065 -0.3772
 1407SOL    HW115680   4.586   3.346  16.257  0.5310 -0.4161  1.8450
 1407SOL    HW215681   4.665   3.382  16.141  1.9034  1.3508 -0.5190
 1408SOL     OW15682   3.309   3.065   7.736  0.1617  0.1101 -0.3553
 1408SOL    HW115683   3.313   3.146   7.786 -1.4923  1.6504 -2.7630
 1408SOL    HW215684   3.403   3.045   7.743  0.2182  1.3367  2.2221
 1409SOL     OW15685   0.833   3.992   6.266 -0.0396  0.7116 -0.1163
 1409SOL    HW115686   0.768   4.060   6.286  0.4152  0.3084  2.6660
 1409SOL    HW215687   0.818   3.990   6.172 -0.7456 -1.8716  0.0769
 1410SOL     OW15688   4.694   2.242   7.400  0.1211  0.3828 -0.0747
 1410SOL    HW115689   0.033   2.251   7.323 -1.3612  0.2292 -1.1801
 1410SOL    HW215690   0.035   2.273   7.469  0.7511 -0.2931 -0.3046
 1411SOL     OW15691   0.886   3.598   3.429 -0.1653 -0.2613  0.7818
 1411SOL    HW115692   0.979   3.575   3.430 -0.2389 -0.6183 -0.9638
 1411SOL    HW215693   0.872   3.666   3.495 -1.7691  1.3594 -1.2405
 1412SOL     OW15694   0.064   1.577  15.958 -0.9703 -0.1312 -0.6242
 1412SOL    HW115695   0.129   1.592  16.027 -0.0782 -0.1919 -1.4524
 1412SOL    HW215696   0.053   1.657  15.907  1.1136  0.4082 -0.2092
 1413SOL     OW15697   4.415   0.040   7.920 -0.7003 -0.7747  0.1609
 1413SOL    HW115698   4.386   0.080   8.002  1.3145 -1.0533  1.0095
 1413SOL    HW215699   4.439   0.110   7.859  0.1651 -0.4157  0.8986
 1414SOL     OW15700   1.505   3.983  14.400 -0.2230  0.1574 -0.3315
 1414SOL    HW115701   1.537   4.071  14.380  2.6655 -0.5542  1.0757
 1414SOL    HW215702   1.587   3.933  14.395 -1.6691 -2.2504  0.1662
 1415SOL     OW15703   0.253   2.412   2.790 -0.1510  1.3381 -0.2850
 1415SOL    HW115704   0.344   2.383   2.803  0.1666  2.1248 -0.7543
 1415SOL    HW215705   0.249   2.388   2.697  0.5045 -0.9980  0.2824
 1416SOL     OW15706   1.519   2.649  11.918  0.0744  0.4086 -0.2775
 1416SOL    HW115707   1.560   2.643  12.004 -1.2816 -1.2874  0.2453
 1416SOL    HW215708   1.438   2.600  11.935  2.8806 -2.8641  3.4706
 1417SOL     OW15709   0.198   1.396   4.405 -0.2920 -0.1198  0.2207
 1417SOL    HW115710   0.267   1.374   4.467  1.8682  0.7905 -1.8493
 1417SOL    HW215711   0.202   1.491   4.407 -2.4595 -0.0087 -0.1453
 1418SOL     OW15712   0.805   0.230   7.664  0.0424  0.0633 -0.6511
 1418SOL    HW115713   0.894   0.195   7.665 -0.4188 -1.0599  0.4981
 1418SOL    HW215714   0.812   0.302   7.728 -0.1565 -0.8898  0.4465
 1419SOL     OW15715   2.677   3.883  14.967 -0.5087  0.1069  0.1412
 1419SOL    HW115716   2.672   3.808  15.026 -1.7813  1.2435  1.4588
 1419SOL    HW215717   2.709   3.854  14.882 -2.4115  0.4782 -0.6965
 1420SOL     OW15718   2.912   0.840   8.380 -0.0310 -0.1716  0.2191
 1420SOL    HW115719   2.951   0.818   8.464 -0.5933 -1.3917  0.1640
 1420SOL    HW215720   2.956   0.921   8.353  0.4118 -0.7022 -0.6661
 1421SOL     OW15721   2.802   2.355   8.882  0.1611  0.3488  0.0459
 1421SOL    HW115722   2.865   2.380   8.951  0.2849 -0.8095  0.3542
 1421SOL    HW215723   2.858   2.356   8.805  1.5369 -0.5642  1.0202
 1422SOL     OW15724   0.854   2.181  16.155  0.5779  0.2283 -0.0784
 1422SOL    HW115725   0.908   2.153  16.080 -2.0403  1.0248 -2.2807
 1422SOL    HW215726   0.910   2.245  16.198 -0.5757  0.8983  0.4015
 1423SOL     OW15727   2.871   1.494   2.526  0.8540  0.3444 -0.1094
 1423SOL    HW115728   2.851   1.494   2.619 -0.7960 -0.9754 -0.4674
 1423SOL    HW215729   2.917   1.577   2.512 -0.3365  1.0328  0.0809
 1424SOL     OW15730   3.030   1.099   8.354  0.1809  0.6819  0.3332
 1424SOL    HW115731   3.051   1.170   8.414  0.3257  1.2882 -0.4344
 1424SOL    HW215732   3.115   1.064   8.328 -0.3212 -0.6619  0.4868
 1425SOL     OW15733   3.017   1.095  14.192 -0.3983 -0.1142  0.2437
 1425SOL    HW115734   3.031   1.147  14.271 -1.3606  0.0160  0.3290
 1425SOL    HW215735   2.951   1.144  14.141  0.3429  2.0750  1.3636
 1426SOL     OW15736   1.178   1.729  10.045  0.1521 -0.1038 -0.2432
 1426SOL    HW115737   1.272   1.740  10.039  0.0901 -0.7338 -2.1864
 1426SOL    HW215738   1.182   1.650  10.099 -1.5825 -0.2388 -0.2873
 1427SOL     OW15739   4.266   2.162   7.026 -0.0227  0.0913  0.2013
 1427SOL    HW115740   4.360   2.150   7.010 -0.2399 -1.2526 -0.0953
 1427SOL    HW215741   4.217   2.132   6.950  0.3647  1.2322 -0.5045
 1428SOL     OW15742   0.335   2.929  11.598  0.1487  0.0523  0.3176
 1428SOL    HW115743   0.241   2.940  11.585  0.1822 -1.4396 -1.2835
 1428SOL    HW215744   0.347   3.020  11.622  1.0368  0.0397 -0.1003
 1429SOL     OW15745   2.582   1.058  16.158  0.6334 -0.1120 -0.2834
 1429SOL    HW115746   2.622   1.144  16.146 -0.1506  0.6053  2.2656
 1429SOL    HW215747   2.614   1.015  16.078 -1.0700  0.3325 -1.2154
 1430SOL     OW15748   4.438   0.880   0.801 -0.1065 -0.2337 -0.1038
 1430SOL    HW115749   4.352   0.882   0.760  0.3110  0.3777 -0.9374
 1430SOL    HW215750   4.487   0.828   0.738  0.4897  0.0901  0.0997
 1431SOL     OW15751   3.862   1.642  12.154 -0.2934 -0.4085  0.1951
 1431SOL    HW115752   3.847   1.718  12.210 -0.4788  0.9322 -1.6593
 1431SOL    HW215753   3.958   1.637  12.151 -0.2545 -0.9367  2.1563
 1432SOL     OW15754   0.350   0.969   7.347 -0.7926 -0.3604  0.5336
 1432SOL    HW115755   0.267   1.017   7.347 -0.9545 -0.6364  1.3293
 1432SOL    HW215756   0.386   0.985   7.434  0.1696 -0.3894  0.1328
 1433SOL     OW15757   1.411   0.297  11.787 -0.2822  0.3949  0.0744
 1433SOL    HW115758   1.405   0.378  11.839 -0.0484 -0.3373  1.2487
 1433SOL    HW215759   1.430   0.336  11.702 -0.8152 -2.6199 -1.3885
 1434SOL     OW15760   0.200   3.916   4.460  0.3934  0.4418 -0.6768
 1434SOL    HW115761   0.263   3.894   4.391 -0.6715  0.4858 -1.6576
 1434SOL    HW215762   0.115   3.915   4.415  0.0140  0.4124  0.0542
 1435SOL     OW15763   2.107   0.514   6.701  0.0416  0.3893  0.2413
 1435SOL    HW115764   2.027   0.536   6.748 -1.7983 -3.1171 -1.2165
 1435SOL    HW215765   2.168   0.587   6.712  1.6484 -1.0303  0.8143
 1436SOL     OW15766   3.932   0.454   2.944  0.0339  0.1081  0.5260
 1436SOL    HW115767   3.959   0.363   2.930  0.5652  0.6103 -1.7291
 1436SOL    HW215768   3.999   0.499   2.893 -0.5982  0.5873  0.1135
 1437SOL     OW15769   2.653   1.608   1.842 -0.0749  0.4226 -0.2222
 1437SOL    HW115770   2.582   1.601   1.906 -0.3229  2.2403 -0.3010
 1437SOL    HW215771   2.722   1.665   1.874  0.9232 -1.8366  1.6848
 1438SOL     OW15772   1.431   0.515   5.821 -0.1670  0.1083 -0.9911
 1438SOL    HW115773   1.517   0.473   5.822 -0.2077 -0.0215 -2.2957
 1438SOL    HW215774   1.422   0.538   5.728 -0.9152 -0.9094 -1.1686
 1439SOL     OW15775   3.201   0.402   3.014 -0.0898 -0.3458 -0.0338
 1439SOL    HW115776   3.184   0.372   2.924 -2.1980 -0.0570  0.2558
 1439SOL    HW215777   3.247   0.329   3.056  0.8919  0.9467  1.0957
 1440SOL     OW15778   3.225   0.409   0.842  0.1436  0.0106 -0.6715
 1440SOL    HW115779   3.137   0.389   0.875  0.2151 -0.9077 -1.0626
 1440SOL    HW215780   3.226   0.410   0.747  1.4831  0.2726 -0.6562
 1441SOL     OW15781   0.662   1.944   9.542  0.2886 -0.0157 -0.6381
 1441SOL    HW115782   0.654   1.852   9.515 -0.7230 -0.0963 -0.0582
 1441SOL    HW215783   0.717   1.929   9.619  3.6379 -0.7971 -3.1517
 1442SOL     OW15784   1.668   0.972   0.640  0.2722  0.0038  0.3454
 1442SOL    HW115785   1.614   0.904   0.600  0.5545  0.5887 -1.0226
 1442SOL    HW215786   1.740   0.919   0.675  0.2931  1.2325  2.1699
 1443SOL     OW15787   1.939   2.876  12.945 -0.0829  0.4486 -0.1487
 1443SOL    HW115788   1.945   2.940  13.015  1.4273  1.7923 -1.5143
 1443SOL    HW215789   1.980   2.913  12.867 -1.1224  1.1051 -0.3787
 1444SOL     OW15790   1.962   1.315   2.503 -1.1767 -0.1553 -0.2088
 1444SOL    HW115791   2.044   1.328   2.549  0.3555 -0.7613 -2.7475
 1444SOL    HW215792   1.994   1.288   2.417  1.4268  2.1313  0.0613
 1445SOL     OW15793   0.533   1.966   0.495  0.5043  0.4270  0.0456
 1445SOL    HW115794   0.587   2.009   0.561 -0.9114  0.5143  1.1577
 1445SOL    HW215795   0.585   1.964   0.415 -0.8886 -2.1125 -0.7986
 1446SOL     OW15796   2.110   0.685   5.793  0.1293  0.6043 -0.8056
 1446SOL    HW115797   2.053   0.700   5.868  2.1425 -0.1549  0.8774
 1446SOL    HW215798   2.191   0.713   5.835 -0.6425 -0.1368  1.1535
 1447SOL     OW15799   3.056   2.153   5.455 -0.5439  0.5794  0.6912
 1447SOL    HW115800   3.032   2.085   5.393 -1.0380  0.0269  1.4915
 1447SOL    HW215801   3.040   2.110   5.539  0.6055 -0.3400  0.4378
 1448SOL     OW15802   4.409   3.609  16.666 -0.2077 -0.5404  0.0428
 1448SOL    HW115803   4.411   3.685  16.607  0.5522 -0.3366  0.3216
 1448SOL    HW215804   4.319   3.617  16.696 -0.3286 -1.1641 -0.1486
 1449SOL     OW15805   2.757   0.553   0.063 -0.3410 -0.1597 -0.1580
 1449SOL    HW115806   2.684   0.521   0.010 -1.1870 -1.4913  1.7935
 1449SOL    HW215807   2.823   0.579  17.672  0.2248 -0.2825  0.3721
 1450SOL     OW15808   4.093   3.908  10.921  0.1105 -0.2781  0.9525
 1450SOL    HW115809   4.053   3.994  10.931  1.1198  0.2296  0.5288
 1450SOL    HW215810   4.075   3.883  10.831 -2.0009 -1.1428  1.6119
 1451SOL     OW15811   3.001   4.075  13.532  0.2745  0.0918  0.2232
 1451SOL    HW115812   3.001   4.035  13.445  1.6340  0.7277 -0.0599
 1451SOL    HW215813   2.907   4.094  13.540  0.1930  0.6568 -2.0720
 1452SOL     OW15814   3.509   0.812   8.334 -0.9271  0.1116  0.1432
 1452SOL    HW115815   3.523   0.718   8.323  0.8150  0.5604 -1.5369
 1452SOL    HW215816   3.580   0.826   8.396 -2.6874  2.1529  1.7095
 1453SOL     OW15817   3.602   4.470  13.631 -0.7953 -0.5120 -0.2694
 1453SOL    HW115818   3.508   4.462  13.643 -0.9156 -0.1641 -0.9678
 1453SOL    HW215819   3.611   4.565  13.645  1.3353 -1.0742  2.1962
 1454SOL     OW15820   1.432   1.102   4.907  0.2352  0.0093 -0.1714
 1454SOL    HW115821   1.339   1.117   4.895  0.3803  0.3866 -0.8153
 1454SOL    HW215822   1.429   1.041   4.981 -0.4360  2.1885  1.6092
 1455SOL     OW15823   2.305   2.197  11.512  0.7533 -0.2560  0.1495
 1455SOL    HW115824   2.227   2.164  11.466  1.0307 -0.0094 -0.5085
 1455SOL    HW215825   2.301   2.140  11.589 -3.8233  0.6319  0.5735
 1456SOL     OW15826   1.627   4.346   3.463 -0.0508  1.0657 -0.0738
 1456SOL    HW115827   1.718   4.377   3.460  1.0754 -2.3781 -1.0665
 1456SOL    HW215828   1.623   4.252   3.451 -0.6339  0.8905  1.4849
 1457SOL     OW15829   0.931   3.251   6.921 -0.2350 -0.0979  0.7692
 1457SOL    HW115830   0.890   3.299   6.849 -0.0786 -0.7140  0.2711
 1457SOL    HW215831   0.893   3.164   6.908 -0.2562 -0.4448  3.0348
 1458SOL     OW15832   0.554   4.188   1.662 -0.3998  0.7747  0.1391
 1458SOL    HW115833   0.551   4.187   1.566  0.6568  0.7813  0.1052
 1458SOL    HW215834   0.642   4.169   1.694 -0.3944  1.4683  0.5483
 1459SOL     OW15835   4.347   2.233   6.633  0.5775  0.2083 -0.1577
 1459SOL    HW115836   4.278   2.174   6.663  0.3753  0.0398 -0.9481
 1459SOL    HW215837   4.295   2.288   6.574  0.4892  0.2261 -0.0650
 1460SOL     OW15838   1.774   2.169   2.717 -0.2175  0.4265 -0.0762
 1460SOL    HW115839   1.771   2.109   2.642 -3.0823  0.0304  0.3809
 1460SOL    HW215840   1.681   2.189   2.720 -0.8060 -1.9574 -2.4989
 1461SOL     OW15841   1.537   3.234   5.655  0.5267  0.4509 -0.2484
 1461SOL    HW115842   1.513   3.259   5.744  2.4799  0.6794  0.2191
 1461SOL    HW215843   1.453   3.221   5.611  0.6410 -0.8524 -0.1017
 1462SOL     OW15844   3.890   0.438   1.284  0.0518  0.4265  0.0863
 1462SOL    HW115845   3.872   0.365   1.225 -0.5211  0.8225 -0.2329
 1462SOL    HW215846   3.952   0.397   1.344  0.2770  1.5434  0.6265
 1463SOL     OW15847   0.901   4.532   4.078 -0.0172  0.1571  0.0762
 1463SOL    HW115848   0.942   4.539   3.991 -1.1778 -1.4888 -0.6049
 1463SOL    HW215849   0.937   4.609   4.121 -0.1230  2.4904 -3.9808
 1464SOL     OW15850   0.127   3.606   9.021  0.0280 -0.4294 -0.4833
 1464SOL    HW115851   0.037   3.623   9.047  0.4417  1.7073 -0.3915
 1464SOL    HW215852   0.136   3.511   9.014  1.3181 -0.3673  0.1944
 1465SOL     OW15853   1.856   0.195   7.493  0.0930 -0.3622  0.2349
 1465SOL    HW115854   1.794   0.163   7.428  0.6989  1.9464 -1.4843
 1465SOL    HW215855   1.813   0.272   7.529 -0.0820 -1.0131  1.4361
 1466SOL     OW15856   3.350   0.037   5.391 -0.7479 -0.0658  0.0815
 1466SOL    HW115857   3.413   0.012   5.323 -0.2234  1.6439 -0.0690
 1466SOL    HW215858   3.305   0.108   5.345 -1.9676 -1.0644 -0.2703
 1467SOL     OW15859   3.761   1.092   5.427 -0.5795  0.5908  0.1553
 1467SOL    HW115860   3.669   1.115   5.421 -0.7101 -0.0113 -0.1421
 1467SOL    HW215861   3.817   1.168   5.408 -1.9425  1.4574 -0.3440
 1468SOL     OW15862   2.424   4.111   1.369  0.2828 -0.1687  0.5736
 1468SOL    HW115863   2.347   4.098   1.425 -0.8909 -2.5593 -1.5508
 1468SOL    HW215864   2.466   4.025   1.374  1.3325  0.2835 -0.4738
 1469SOL     OW15865   3.931   1.022   4.889 -0.0090 -0.0963 -0.1106
 1469SOL    HW115866   3.982   1.092   4.929 -1.3327  0.9039 -0.1607
 1469SOL    HW215867   3.948   0.947   4.947 -0.6627  0.1675  0.4285
 1470SOL     OW15868   3.444   2.050  13.784  0.0413  0.2487 -0.3547
 1470SOL    HW115869   3.396   1.972  13.813  0.0284  0.2687 -0.3225
 1470SOL    HW215870   3.370   2.099  13.747  1.0573  0.6435 -1.8572
 1471SOL     OW15871   4.220   3.939   2.240  0.1807  1.0603  0.0156
 1471SOL    HW115872   4.236   3.846   2.221 -2.1795  0.6790 -0.1104
 1471SOL    HW215873   4.151   3.956   2.176 -0.6210 -0.9666  0.3244
 1472SOL     OW15874   2.768   4.164   9.744 -0.1123 -0.4090  0.1163
 1472SOL    HW115875   2.714   4.199   9.673  0.4508  0.4737  0.1268
 1472SOL    HW215876   2.858   4.180   9.717 -0.4099  1.6099  0.3214
 1473SOL     OW15877   2.210   1.493   5.228  0.4612 -0.2673 -1.0453
 1473SOL    HW115878   2.226   1.462   5.317 -0.2709  2.1343 -0.0997
 1473SOL    HW215879   2.133   1.442   5.204  1.2836 -2.3105  0.6302
 1474SOL     OW15880   4.514   2.155   1.005  0.3737 -0.4753  0.1243
 1474SOL    HW115881   4.474   2.221   1.061 -0.3186 -1.1856  0.4678
 1474SOL    HW215882   4.538   2.097   1.078  0.7215  0.1352  0.4959
 1475SOL     OW15883   3.677   3.430   7.775  0.0907 -0.3105 -0.1417
 1475SOL    HW115884   3.734   3.357   7.799  0.3433 -0.9202 -2.6396
 1475SOL    HW215885   3.662   3.420   7.681 -1.7438  0.5847  0.0603
 1476SOL     OW15886   1.193   2.707   9.473  0.1675 -0.0498 -0.1670
 1476SOL    HW115887   1.162   2.622   9.503  0.9426 -0.3469 -0.2062
 1476SOL    HW215888   1.287   2.699   9.488  0.4764 -0.0656 -2.0481
 1477SOL     OW15889   1.641   4.141   0.754 -0.2618 -0.0944  0.4366
 1477SOL    HW115890   1.615   4.223   0.797  2.1260 -0.3447  2.3457
 1477SOL    HW215891   1.561   4.092   0.773  0.7005 -2.3294 -1.3069
 1478SOL     OW15892   0.460   1.722   6.777 -0.1520 -0.0479 -0.7430
 1478SOL    HW115893   0.516   1.666   6.830  0.6090  1.8049  0.4359
 1478SOL    HW215894   0.375   1.680   6.790 -1.2413  1.4508 -2.9367
 1479SOL     OW15895   0.716   3.287   4.956 -0.1787 -0.3231 -0.0134
 1479SOL    HW115896   0.664   3.211   4.983 -0.1056 -0.3846 -0.0462
 1479SOL    HW215897   0.669   3.298   4.873  0.9143 -0.2293 -0.6280
 1480SOL     OW15898   1.436   3.679   4.178  0.0804 -0.1192 -0.5392
 1480SOL    HW115899   1.487   3.603   4.205  0.8437  0.9191  0.9180
 1480SOL    HW215900   1.500   3.705   4.112  1.3370  1.6756  1.4037
 1481SOL     OW15901   3.014   0.982   2.569  0.5457  0.0025  0.0769
 1481SOL    HW115902   3.033   1.060   2.517 -1.5382  0.2264 -0.3625
 1481SOL    HW215903   2.989   1.029   2.649  0.0388 -0.7112  0.3440
 1482SOL     OW15904   3.849   3.403  11.159  0.1301 -0.4981  0.1011
 1482SOL    HW115905   3.798   3.325  11.179 -0.7486 -0.6026 -2.4641
 1482SOL    HW215906   3.838   3.445  11.244 -0.3232  1.0203 -0.6977
 1483SOL     OW15907   3.247   0.852   2.592  0.2285  0.4159  0.0945
 1483SOL    HW115908   3.167   0.902   2.576  1.3446  1.0709 -3.5522
 1483SOL    HW215909   3.223   0.823   2.680  0.0223  0.3016  0.0005
 1484SOL     OW15910   4.410   0.712   4.032  0.4636  0.5409 -0.0180
 1484SOL    HW115911   4.419   0.805   4.011  0.6311  0.4306 -0.4340
 1484SOL    HW215912   4.327   0.716   4.079  0.6930 -0.9516  0.4965
 1485SOL     OW15913   4.418   1.489  10.647 -0.1468 -0.2431 -0.8860
 1485SOL    HW115914   4.463   1.572  10.630  1.6186 -1.3365 -1.5212
 1485SOL    HW215915   4.488   1.444  10.693 -0.8558 -1.9181 -1.4261
 1486SOL     OW15916   0.853   4.528   3.325 -0.4271 -0.4894 -0.2414
 1486SOL    HW115917   0.805   4.596   3.277 -1.9228 -2.3596 -1.3730
 1486SOL    HW215918   0.877   4.463   3.259  0.5046  0.6260 -1.0211
 1487SOL     OW15919   0.778   3.774   1.508 -0.1246  0.3746 -0.4492
 1487SOL    HW115920   0.804   3.721   1.433  1.1227  1.9018 -1.0991
 1487SOL    HW215921   0.682   3.770   1.515 -0.1130  0.8616 -0.0084
 1488SOL     OW15922   0.461   3.151   2.196 -0.3609 -0.1808  0.1320
 1488SOL    HW115923   0.437   3.196   2.276 -1.6261 -0.2655 -0.2068
 1488SOL    HW215924   0.541   3.104   2.220 -0.8355 -0.9062  0.2620
 1489SOL     OW15925   2.390   3.789   5.589 -0.3551 -0.2524  0.6467
 1489SOL    HW115926   2.338   3.709   5.590  1.4732 -1.4583 -0.8283
 1489SOL    HW215927   2.373   3.831   5.673  0.6985 -0.8684  1.1608
 1490SOL     OW15928   0.965   0.393  17.193 -0.4906  0.0849  0.2326
 1490SOL    HW115929   0.919   0.321  17.238 -0.2078  0.2674  0.8134
 1490SOL    HW215930   0.934   0.376  17.104  0.2881 -1.4273  0.2468
 1491SOL     OW15931   1.521   1.119   2.818 -0.3330  0.5180  0.7946
 1491SOL    HW115932   1.451   1.176   2.850 -1.1212 -1.6728  2.9718
 1491SOL    HW215933   1.591   1.137   2.881 -0.2484 -0.8719  1.0882
 1492SOL     OW15934   2.436   4.150   6.461  0.1404 -0.0474  0.3754
 1492SOL    HW115935   2.368   4.183   6.402 -1.2875 -2.6708  0.5488
 1492SOL    HW215936   2.518   4.184   6.426  0.6088 -0.8385  0.7111
 1493SOL     OW15937   1.370   0.031   5.859  0.2361  0.4754 -0.6527
 1493SOL    HW115938   1.450   0.082   5.850 -1.6644  3.1631 -1.9241
 1493SOL    HW215939   1.326   0.075   5.932 -1.4337  0.7939 -1.8486
 1494SOL     OW15940   2.769   1.320   3.848 -0.2492  0.2568 -0.3409
 1494SOL    HW115941   2.795   1.386   3.783 -1.1232  1.4414  0.4964
 1494SOL    HW215942   2.801   1.354   3.932 -1.5458  1.9233 -0.5165
 1495SOL     OW15943   1.469   0.345   1.489 -0.2832 -0.3033 -0.0993
 1495SOL    HW115944   1.463   0.342   1.394 -0.5869  0.3395 -0.1020
 1495SOL    HW215945   1.393   0.291   1.510  1.1614 -1.3987  2.2452
 1496SOL     OW15946   0.437   2.479   6.388  0.4236  0.1646 -0.1091
 1496SOL    HW115947   0.369   2.412   6.378 -0.6697  1.4299 -1.1931
 1496SOL    HW215948   0.423   2.501   6.481 -2.0355  0.5563 -0.5611
 1497SOL     OW15949   4.687   2.876   5.645  0.1601 -0.1139  0.4879
 1497SOL    HW115950   4.698   2.967   5.617  0.3411 -0.3437 -0.2018
 1497SOL    HW215951   4.704   2.837   5.559 -1.6309 -0.3582  0.2518
 1498SOL     OW15952   4.495   2.807   5.841  0.1852  0.3498 -0.1503
 1498SOL    HW115953   4.465   2.722   5.806  2.2880  0.2319 -1.6649
 1498SOL    HW215954   4.572   2.823   5.787  0.4542  2.1235  0.7551
 1499SOL     OW15955   1.685   3.727   4.469 -0.0985 -0.5939  0.4514
 1499SOL    HW115956   1.691   3.790   4.397  2.5868 -0.2644  0.9591
 1499SOL    HW215957   1.595   3.694   4.461 -0.2006  0.6968 -3.4470
 1500SOL     OW15958   3.606   4.514   6.650 -0.7624  0.3954  0.7210
 1500SOL    HW115959   3.662   4.531   6.726 -0.8656 -0.0680  0.9019
 1500SOL    HW215960   3.642   4.584   6.596  0.5977 -0.4173  0.5697
 1501SOL     OW15961   0.134   0.680   4.236 -0.2275  0.0617 -0.6291
 1501SOL    HW115962   0.221   0.720   4.225  0.2710 -0.2253  2.2348
 1501SOL    HW215963   0.087   0.714   4.160 -0.5796  0.6433 -0.1384
 1502SOL     OW15964   1.277   3.132   9.325 -0.5521  0.2201  0.6617
 1502SOL    HW115965   1.282   3.076   9.403 -5.2180  1.7345  2.0470
 1502SOL    HW215966   1.369   3.131   9.298 -0.4407 -2.2922  1.1140
 1503SOL     OW15967   2.326   1.430   9.985  0.2337 -0.6463  0.7668
 1503SOL    HW115968   2.401   1.478  10.018 -1.1650  0.1202  2.7792
 1503SOL    HW215969   2.366   1.353   9.945 -2.2604 -2.0049  0.8693
 1504SOL     OW15970   1.919   2.165   3.373  0.4328 -0.3687  0.0789
 1504SOL    HW115971   1.916   2.113   3.292 -0.1297 -1.4497  0.7901
 1504SOL    HW215972   1.934   2.251   3.333 -2.9658 -0.8651 -2.3538
 1505SOL     OW15973   1.762   4.678   6.158  0.1405 -0.3029 -0.1272
 1505SOL    HW115974   1.798   4.703   6.072 -0.9751  0.1889 -0.4525
 1505SOL    HW215975   1.840   4.681   6.213  0.3950 -2.4806 -0.3779
 1506SOL     OW15976   2.622   2.692   1.030 -0.1037  0.0788  0.2657
 1506SOL    HW115977   2.698   2.713   0.975 -0.4719  1.2359  0.1802
 1506SOL    HW215978   2.581   2.628   0.973  2.7011  0.3105 -2.0426
 1507SOL     OW15979   0.366   0.041   4.000 -0.0593  0.0370  0.0171
 1507SOL    HW115980   0.324   4.674   4.014 -0.9169  0.0938 -2.2771
 1507SOL    HW215981   0.355   0.045   3.905 -0.4315 -1.2718  0.0006
 1508SOL     OW15982   1.393   1.901   3.439  0.4276 -0.6654 -0.0405
 1508SOL    HW115983   1.392   1.991   3.473 -0.8423 -0.4268 -0.7266
 1508SOL    HW215984   1.364   1.851   3.516  2.0829 -3.7865 -1.4558
 1509SOL     OW15985   0.671   0.923  15.129 -0.1479  0.0072 -0.6197
 1509SOL    HW115986   0.622   0.846  15.101  0.0842  0.0052 -1.0142
 1509SOL    HW215987   0.620   0.932  15.210  0.0991 -0.9542 -0.3491
 1510SOL     OW15988   0.700   3.646   8.656 -0.0373  0.5151 -0.0304
 1510SOL    HW115989   0.789   3.624   8.628  0.4668  0.1681  1.8007
 1510SOL    HW215990   0.700   3.730   8.703  0.6596  0.1294  0.6625
 1511SOL     OW15991   3.369   3.680  17.520 -0.0589 -0.1904 -0.4152
 1511SOL    HW115992   3.363   3.700  17.613 -1.0964  1.7311 -0.8941
 1511SOL    HW215993   3.456   3.641  17.512  1.0212  2.0417  0.4693
 1512SOL     OW15994   0.850   1.154   9.393 -0.1513 -0.5727 -0.3837
 1512SOL    HW115995   0.881   1.242   9.371  0.5603 -0.1770  2.1832
 1512SOL    HW215996   0.816   1.130   9.307 -1.0191 -0.2504 -0.1312
 1513SOL     OW15997   0.213   0.062  15.672 -0.1636  0.6077  0.3361
 1513SOL    HW115998   0.171   0.031  15.752 -0.8228 -1.3974 -0.7597
 1513SOL    HW215999   0.146   0.033  15.609  1.9682  1.6925 -2.4588
 1514SOL     OW16000   4.665   0.006  15.321  0.4394  0.4707 -0.2280
 1514SOL    HW116001   4.678   4.692  15.231 -0.7205  0.3701 -0.3503
 1514SOL    HW216002   4.579   0.047  15.315  0.6203  1.6468  5.4063
 1515SOL     OW16003   4.200   3.541  12.967 -0.1971 -0.0883  0.5033
 1515SOL    HW116004   4.251   3.617  12.996  1.0927 -1.4858  1.9173
 1515SOL    HW216005   4.255   3.472  13.003 -0.7141 -1.0542 -0.5441
 1516SOL     OW16006   3.897   4.510   0.049  0.6916 -0.2472  0.4031
 1516SOL    HW116007   3.844   4.573   0.097 -0.3515 -2.0437  1.5662
 1516SOL    HW216008   3.830   4.489  17.658  0.6094  0.0797  0.3810
 1517SOL     OW16009   0.869   4.476   3.628 -0.1677 -0.4203 -0.1929
 1517SOL    HW116010   0.891   4.496   3.537  0.2689 -0.7402 -0.1587
 1517SOL    HW216011   0.780   4.447   3.607 -0.8957  0.0592  2.2686
 1518SOL     OW16012   3.220   3.620   4.443 -0.8026 -0.1011  0.4538
 1518SOL    HW116013   3.131   3.639   4.412 -0.7485 -0.4528  0.0729
 1518SOL    HW216014   3.198   3.560   4.514 -0.9887  0.3114  0.7413
 1519SOL     OW16015   0.634   1.242   1.987 -0.1988 -0.3876 -0.2950
 1519SOL    HW116016   0.653   1.165   2.040 -0.9844 -1.0191 -0.9534
 1519SOL    HW216017   0.586   1.301   2.046  0.0948  0.9693 -1.4074
 1520SOL     OW16018   0.385   4.003  11.547  0.1114 -0.1937  0.2254
 1520SOL    HW116019   0.407   3.919  11.589 -1.5541 -0.0026  1.4902
 1520SOL    HW216020   0.421   3.980  11.462  0.2656  1.6651 -0.1911
 1521SOL     OW16021   0.240   2.341   6.872  0.1456 -0.5655 -0.1801
 1521SOL    HW116022   0.214   2.259   6.916  0.3916 -0.1827  0.6909
 1521SOL    HW216023   0.331   2.335   6.902  0.5478 -0.0969 -1.3434
 1522SOL     OW16024   3.038   1.988   5.133  0.3199  0.2920  0.0956
 1522SOL    HW116025   3.132   1.991   5.113  0.2421 -1.5060 -0.5049
 1522SOL    HW216026   3.029   1.893   5.135  0.4714  0.2904  0.7718
 1523SOL     OW16027   3.264   0.797   0.068  0.3207  0.6223  0.2281
 1523SOL    HW116028   3.284   0.760  17.656 -0.1025 -1.7158  1.1459
 1523SOL    HW216029   3.310   0.732   0.121  0.8655  0.6638 -0.1978
 1524SOL     OW16030   1.716   3.162   3.874 -0.3939 -0.1897 -0.6752
 1524SOL    HW116031   1.778   3.127   3.938  0.6769  1.3693 -0.8608
 1524SOL    HW216032   1.633   3.127   3.906 -0.1555  1.0873  1.3189
 1525SOL     OW16033   4.540   1.779  11.189  0.0996 -0.1401  0.0204
 1525SOL    HW116034   4.485   1.701  11.200 -0.4780  0.4892  1.5734
 1525SOL    HW216035   4.515   1.843  11.255  0.7474 -1.2986  1.4123
 1526SOL     OW16036   0.084   2.415   1.459  0.0009  0.0461  0.2932
 1526SOL    HW116037   0.063   2.378   1.545  0.3348 -0.5005  0.1372
 1526SOL    HW216038   0.117   2.336   1.417 -0.3524  0.0569 -0.0061
 1527SOL     OW16039   1.680   1.500   5.508  0.5182  0.2336 -0.3103
 1527SOL    HW116040   1.687   1.563   5.436 -1.9748  2.6369  1.5215
 1527SOL    HW216041   1.720   1.423   5.468  1.6854  0.4665  0.4080
 1528SOL     OW16042   4.297   3.504   2.963  0.3232  0.5470 -0.4962
 1528SOL    HW116043   4.232   3.437   2.983  0.8323  0.4752  0.9286
 1528SOL    HW216044   4.288   3.519   2.869  1.3029  1.7767 -0.4023
 1529SOL     OW16045   2.532   2.587   9.321  0.0903 -0.0799  0.1606
 1529SOL    HW116046   2.439   2.603   9.336 -0.0871 -0.9308 -0.0571
 1529SOL    HW216047   2.557   2.667   9.274  0.0338 -1.7451 -2.6266
 1530SOL     OW16048   3.169   4.646   7.328  0.5558 -0.0255  0.4817
 1530SOL    HW116049   3.208   4.602   7.253  1.1088  1.9269 -0.3773
 1530SOL    HW216050   3.076   4.652   7.307  0.5963 -0.1860  0.2632
 1531SOL     OW16051   2.362   1.229  16.545  0.5454  0.3073 -0.4683
 1531SOL    HW116052   2.451   1.223  16.510  0.3764  0.5825 -0.9431
 1531SOL    HW216053   2.384   1.270  16.629 -0.3095 -0.4907  0.1409
 1532SOL     OW16054   1.980   1.356   8.535  0.0348  0.7429  0.1346
 1532SOL    HW116055   1.977   1.403   8.618  1.1617 -0.1384  0.6613
 1532SOL    HW216056   1.982   1.430   8.474 -1.3844 -0.5884 -1.5650
 1533SOL     OW16057   1.044   2.261  15.663  0.1792  0.4225  0.2498
 1533SOL    HW116058   0.988   2.271  15.586  1.0535  0.2289 -0.4162
 1533SOL    HW216059   1.094   2.340  15.643 -3.0361  2.0238 -1.5039
 1534SOL     OW16060   3.963   3.465  12.105  0.1891  0.0977  0.3062
 1534SOL    HW116061   3.936   3.456  12.197  0.7016  1.4244  0.5914
 1534SOL    HW216062   4.042   3.412  12.103 -0.5636 -1.0709  2.0344
 1535SOL     OW16063   4.090   0.715   9.968 -0.3045 -0.3221 -0.1436
 1535SOL    HW116064   3.999   0.704   9.943 -0.2306  0.7406 -0.8774
 1535SOL    HW216065   4.094   0.697  10.062  2.5245 -0.1692 -0.2190
 1536SOL     OW16066   1.750   4.133   2.899  0.3252  0.6095 -0.2333
 1536SOL    HW116067   1.809   4.173   2.834  1.5429  1.3459  1.3080
 1536SOL    HW216068   1.676   4.128   2.840  0.1979  2.2812 -0.2112
 1537SOL     OW16069   3.877   3.035  12.580  0.1857 -0.2978 -0.1828
 1537SOL    HW116070   3.834   3.092  12.517 -0.7273 -0.5082  0.2513
 1537SOL    HW216071   3.966   3.046  12.545  1.4403 -0.3913  3.0296
 1538SOL     OW16072   1.119   4.355   7.952 -0.4957  0.4120 -0.1135
 1538SOL    HW116073   1.091   4.299   8.025 -0.2919  0.2237 -0.1798
 1538SOL    HW216074   1.130   4.288   7.885  0.1929  0.8267 -0.4111
 1539SOL     OW16075   3.386   2.995   3.942 -0.5206  0.3898 -0.6526
 1539SOL    HW116076   3.427   2.994   3.855  0.4839 -0.7439 -0.1744
 1539SOL    HW216077   3.295   3.006   3.914 -0.1131 -1.1398 -2.6313
 1540SOL     OW16078   3.761   3.890   7.763 -0.4798  0.0649 -0.1656
 1540SOL    HW116079   3.725   3.940   7.836  1.4115 -0.9066  1.4148
 1540SOL    HW216080   3.851   3.915   7.782  0.0802 -0.3280 -2.2789
 1541SOL     OW16081   4.269   4.213   4.338  0.5540 -0.4333  0.0983
 1541SOL    HW116082   4.208   4.282   4.366 -1.2501 -2.0672  0.1635
 1541SOL    HW216083   4.298   4.189   4.426  1.8420 -1.8508 -0.7089
 1542SOL     OW16084   1.266   1.683   3.581  0.6270  0.3474  0.2762
 1542SOL    HW116085   1.186   1.648   3.542 -0.2302 -0.3238  2.6836
 1542SOL    HW216086   1.311   1.600   3.596  0.1659  0.1480  0.5575
 1543SOL     OW16087   2.660   3.548   4.682 -0.4012 -0.0805  0.1204
 1543SOL    HW116088   2.695   3.549   4.770  1.4319  1.5838 -0.6375
 1543SOL    HW216089   2.730   3.500   4.638 -0.7141  0.0029 -0.4691
 1544SOL     OW16090   3.241   4.073   7.864  0.0688 -0.1742 -0.0080
 1544SOL    HW116091   3.284   4.154   7.891 -0.6203  0.2815 -0.2710
 1544SOL    HW216092   3.159   4.112   7.834 -0.0503 -1.3144 -1.1660
 1545SOL     OW16093   1.237   0.618   0.414  0.6301  0.0516 -0.4112
 1545SOL    HW116094   1.300   0.685   0.440  1.8899 -1.5965  0.8308
 1545SOL    HW216095   1.288   0.563   0.354  1.1595 -1.5447  1.5155
 1546SOL     OW16096   2.571   2.902   8.763 -0.2238 -0.3165  0.3198
 1546SOL    HW116097   2.567   2.959   8.841 -2.8956 -0.0961  0.0258
 1546SOL    HW216098   2.503   2.837   8.780 -0.4501  0.0449  0.8052
 1547SOL     OW16099   2.448   3.716   3.667  0.3207  0.3098  0.5605
 1547SOL    HW116100   2.482   3.724   3.577 -0.8541  2.0867  0.2690
 1547SOL    HW216101   2.355   3.701   3.647  0.4870  1.3068 -0.9889
 1548SOL     OW16102   0.647   3.228   9.373  0.3752  0.3471  0.5762
 1548SOL    HW116103   0.671   3.155   9.316 -2.6754 -0.4462  0.3384
 1548SOL    HW216104   0.670   3.185   9.456  1.3531  0.6610  0.4645
 1549SOL     OW16105   1.113   3.283  14.625 -0.2129  0.3857  0.0941
 1549SOL    HW116106   1.191   3.313  14.579 -0.5727 -0.2481 -0.9316
 1549SOL    HW216107   1.077   3.366  14.655 -1.0001  0.4277 -0.9458
 1550SOL     OW16108   0.496   3.847   4.692  0.0629  0.0507 -0.0614
 1550SOL    HW116109   0.433   3.903   4.737 -0.8396 -1.6483  0.8205
 1550SOL    HW216110   0.555   3.826   4.765 -0.2618  1.0302  0.4876
 1551SOL     OW16111   1.624   1.049   3.552  0.6890 -0.4591 -0.3739
 1551SOL    HW116112   1.590   1.001   3.628 -0.7722 -0.4853 -1.0534
 1551SOL    HW216113   1.555   1.023   3.491  0.1844 -0.5995  0.2604
 1552SOL     OW16114   1.777   3.744   2.426 -0.2604  0.1842 -0.1093
 1552SOL    HW116115   1.769   3.653   2.454  2.7383  0.8610  2.9494
 1552SOL    HW216116   1.708   3.777   2.483 -0.9077  1.4589 -1.6283
 1553SOL     OW16117   1.260   0.224  16.155  0.7552 -0.4593  0.1271
 1553SOL    HW116118   1.208   0.147  16.134  0.9734 -0.6268  0.2011
 1553SOL    HW216119   1.183   0.270  16.187  1.0823 -0.2037  0.5444
 1554SOL     OW16120   2.591   4.168   2.631  0.5406  0.1476  0.7244
 1554SOL    HW116121   2.614   4.192   2.720  3.4136  2.2920 -0.5691
 1554SOL    HW216122   2.611   4.252   2.589 -0.6089 -0.2020 -0.5097
 1555SOL     OW16123   0.392   2.302   3.494 -0.5872  0.0773  0.2086
 1555SOL    HW116124   0.357   2.361   3.561 -0.5866  1.6048 -1.1371
 1555SOL    HW216125   0.478   2.337   3.470 -0.3603  0.2085  1.2322
 1556SOL     OW16126   2.153   1.818   9.238  0.1501 -0.2295 -0.3503
 1556SOL    HW116127   2.171   1.781   9.324  1.9492  2.6673  0.4983
 1556SOL    HW216128   2.057   1.814   9.240  0.0356  1.0392 -2.6208
 1557SOL     OW16129   3.710   3.556   0.336 -0.5446  0.1933  1.0659
 1557SOL    HW116130   3.749   3.578   0.252 -4.1946  2.8400  0.0760
 1557SOL    HW216131   3.661   3.475   0.323  1.2968 -0.4596 -1.7202
 1558SOL     OW16132   4.081   2.945   3.714  0.1961 -0.5394 -0.0401
 1558SOL    HW116133   4.158   2.902   3.679  1.3526  1.6478 -0.2176
 1558SOL    HW216134   4.018   2.873   3.722 -1.1286  0.5183 -0.8150
 1559SOL     OW16135   1.852   0.861   7.104 -0.0000  0.1007  0.2009
 1559SOL    HW116136   1.942   0.828   7.101 -0.1360 -0.2369 -0.2541
 1559SOL    HW216137   1.829   0.836   7.193 -2.8834 -0.7712 -0.8065
 1560SOL     OW16138   3.279   2.725   6.670 -0.1730 -0.1695  0.0979
 1560SOL    HW116139   3.215   2.727   6.598  0.3612 -0.4706 -0.3836
 1560SOL    HW216140   3.247   2.803   6.715  3.0240  1.0362  0.3026
 1561SOL     OW16141   3.450   3.632   3.211  0.0202  0.6126  0.5215
 1561SOL    HW116142   3.375   3.646   3.153 -0.4825  5.8575  2.4638
 1561SOL    HW216143   3.491   3.717   3.226 -1.1198  1.5497 -1.5670
 1562SOL     OW16144   4.053   0.347   3.407  0.0948  0.7542  0.3412
 1562SOL    HW116145   4.129   0.373   3.460 -0.0592 -0.7541  1.3154
 1562SOL    HW216146   3.991   0.402   3.454 -1.0298 -1.0069  0.8827
 1563SOL     OW16147   1.110   3.993   3.595  0.4278  0.0680 -0.1659
 1563SOL    HW116148   1.105   4.023   3.504  0.3500  0.3793 -0.0580
 1563SOL    HW216149   1.067   4.065   3.641 -2.4326 -1.1136 -0.9689
 1564SOL     OW16150   0.123   1.197   4.199 -0.0253 -0.0745 -0.2183
 1564SOL    HW116151   0.199   1.222   4.251  0.3714 -0.1321 -0.7727
 1564SOL    HW216152   0.051   1.234   4.250 -0.7283 -1.6142 -0.1093
 1565SOL     OW16153   0.432   1.877   5.736 -0.4020  0.8336 -0.4818
 1565SOL    HW116154   0.389   1.864   5.651  1.6513 -1.5368 -1.1509
 1565SOL    HW216155   0.381   1.952   5.766 -1.0806  0.0133  0.4134
 1566SOL     OW16156   0.154   0.673   7.907  0.2061 -0.0137  0.1307
 1566SOL    HW116157   0.243   0.705   7.894 -0.3689  0.2876 -3.0301
 1566SOL    HW216158   0.109   0.744   7.862 -1.2365 -1.7473 -1.2066
 1567SOL     OW16159   3.298   0.638   6.229 -0.3206 -0.5239 -0.1158
 1567SOL    HW116160   3.238   0.641   6.303 -0.6991  2.9430 -0.5930
 1567SOL    HW216161   3.329   0.727   6.213 -0.2684 -0.4449  0.4227
 1568SOL     OW16162   3.561   4.056   7.507  0.2825  0.1581 -0.5147
 1568SOL    HW116163   3.554   4.110   7.586  1.0354 -1.1973  0.5019
 1568SOL    HW216164   3.504   3.986   7.538 -1.2984 -0.0570 -4.0015
 1569SOL     OW16165   3.824   1.460  13.662  0.3298 -0.2331  0.1625
 1569SOL    HW116166   3.735   1.477  13.694  0.0594  0.8473 -1.1540
 1569SOL    HW216167   3.879   1.518  13.714 -0.1129 -1.8957  2.4933
 1570SOL     OW16168   1.529   4.711   2.787 -0.3538  0.1639  0.0745
 1570SOL    HW116169   1.465   4.684   2.720  0.3313 -0.8191 -0.1930
 1570SOL    HW216170   1.600   4.648   2.775 -0.8465 -0.3683 -0.0526
 1571SOL     OW16171   2.830   3.802   3.255  0.3610  0.3286  0.2386
 1571SOL    HW116172   2.900   3.865   3.237  0.9457 -0.4839 -0.3730
 1571SOL    HW216173   2.864   3.788   3.343  1.7014  0.2277 -0.2926
 1572SOL     OW16174   1.193   2.243  17.445  0.2414  0.8511  0.5493
 1572SOL    HW116175   1.157   2.256  17.533 -0.4570  1.9244  0.1056
 1572SOL    HW216176   1.125   2.188  17.405  1.0359 -0.5961  1.1966
 1573SOL     OW16177   2.068   0.779   4.956  0.1508 -0.1979 -0.4829
 1573SOL    HW116178   1.993   0.732   4.920 -0.7735  2.2034 -1.7039
 1573SOL    HW216179   2.140   0.727   4.922  1.9054  0.5125  2.1012
 1574SOL     OW16180   3.533   1.314   5.959 -0.2429  0.0154 -0.0030
 1574SOL    HW116181   3.613   1.263   5.974  0.7129  1.2979 -0.6553
 1574SOL    HW216182   3.499   1.287   5.873  0.0808 -0.2854 -0.0367
 1575SOL     OW16183   3.516   2.777  12.851 -0.7474 -0.2676 -0.4633
 1575SOL    HW116184   3.497   2.714  12.920 -0.2743  0.1125  0.0203
 1575SOL    HW216185   3.465   2.851  12.885  0.4402  1.4421 -2.3828
 1576SOL     OW16186   3.045   1.781   1.219 -0.0468  0.1915  0.1055
 1576SOL    HW116187   3.017   1.692   1.195 -1.3087  0.2544  1.3280
 1576SOL    HW216188   3.140   1.776   1.215  0.0144  0.0989  1.7903
 1577SOL     OW16189   3.531   1.062   2.162  0.2692 -0.1707 -0.1167
 1577SOL    HW116190   3.579   0.997   2.112 -1.3174 -1.3376 -0.1113
 1577SOL    HW216191   3.603   1.095   2.216 -0.4533  1.1701  0.0450
 1578SOL     OW16192   0.949   0.589   6.703 -0.3623 -0.1443 -0.0075
 1578SOL    HW116193   0.922   0.527   6.771 -2.2692  0.0221 -0.6003
 1578SOL    HW216194   0.987   0.536   6.633  0.6578  1.2056 -0.4790
 1579SOL     OW16195   4.260   1.774   3.047 -0.1826 -0.3292  0.0760
 1579SOL    HW116196   4.224   1.765   3.135 -0.6856 -3.7139 -0.4532
 1579SOL    HW216197   4.333   1.712   3.041 -0.7093 -0.8527 -1.0867
 1580SOL     OW16198   0.015   3.561   1.226 -0.4545  0.3744 -0.4285
 1580SOL    HW116199   4.673   3.606   1.286 -1.5153  2.2388 -2.8977
 1580SOL    HW216200   0.008   3.473   1.263  0.4284  0.8397  0.8658
 1581SOL     OW16201   0.348   2.743   1.383  0.6614  0.6803 -0.1443
 1581SOL    HW116202   0.368   2.669   1.325  1.4817  0.7940 -0.0058
 1581SOL    HW216203   0.428   2.796   1.379 -0.1371  2.0792  2.3904
 1582SOL     OW16204   2.260   3.919   5.087  0.0537 -0.3474 -0.2488
 1582SOL    HW116205   2.193   3.857   5.059  1.2936 -3.1871  3.0508
 1582SOL    HW216206   2.201   3.992   5.103  1.0327  0.5617 -0.7386
 1583SOL     OW16207   1.464   1.219  12.378  0.4771 -0.0598  0.1094
 1583SOL    HW116208   1.518   1.196  12.303 -0.0570 -1.3939  0.1466
 1583SOL    HW216209   1.475   1.137  12.426 -0.8248 -0.6899 -0.6707
 1584SOL     OW16210   2.067   1.750  14.676  0.7089  0.6097 -0.8347
 1584SOL    HW116211   2.017   1.668  14.677  1.5605  0.1292  1.2987
 1584SOL    HW216212   2.137   1.726  14.616  0.5649 -0.9108 -0.3823
 1585SOL     OW16213   3.955   1.488   2.883  0.0477 -0.0298 -0.1294
 1585SOL    HW116214   3.925   1.463   2.970  2.2259 -0.4672  0.5031
 1585SOL    HW216215   3.960   1.582   2.898 -0.9234 -0.0155  0.1219
 1586SOL     OW16216   2.712   1.851   3.804 -0.4166  0.2186 -0.5796
 1586SOL    HW116217   2.633   1.858   3.857  0.6839  1.5946  0.8752
 1586SOL    HW216218   2.674   1.795   3.736  1.9492 -1.7467 -0.3074
 1587SOL     OW16219   1.977   0.553   3.847  0.2572  0.5768 -0.6559
 1587SOL    HW116220   1.973   0.588   3.936  0.2751  0.0344 -0.4364
 1587SOL    HW216221   1.890   0.568   3.811 -0.5809  2.9620  2.3987
 1588SOL     OW16222   1.437   0.478  12.022 -0.1957  0.7077 -0.5017
 1588SOL    HW116223   1.487   0.454  12.100  1.0115  2.5594 -0.7091
 1588SOL    HW216224   1.498   0.537  11.976  0.1642  2.1345  1.8095
 1589SOL     OW16225   0.997   0.419   4.222 -0.5407 -0.0486 -0.3448
 1589SOL    HW116226   0.925   0.460   4.270  2.5000  1.7530  2.6626
 1589SOL    HW216227   1.014   0.332   4.258 -1.1036 -0.0010  0.0423
 1590SOL     OW16228   2.838   2.710  10.444 -0.1763  0.4723  0.0233
 1590SOL    HW116229   2.847   2.647  10.515 -0.9116 -1.2758 -1.4111
 1590SOL    HW216230   2.753   2.680  10.411 -0.2826  1.1833 -0.3695
 1591SOL     OW16231   3.428   1.413   0.625 -0.4113  0.7826  0.1974
 1591SOL    HW116232   3.504   1.360   0.649 -1.3313 -1.4000 -1.7845
 1591SOL    HW216233   3.457   1.489   0.675 -1.6913  0.5994  1.2391
 1592SOL     OW16234   1.478   0.318   7.589  0.1243 -0.2072  0.0186
 1592SOL    HW116235   1.384   0.304   7.597  0.2131 -0.0201  1.3161
 1592SOL    HW216236   1.479   0.354   7.500 -0.9949 -2.3583 -0.8536
 1593SOL     OW16237   2.049   4.328  15.591 -0.0505 -0.3018  0.6659
 1593SOL    HW116238   1.960   4.349  15.619 -0.7383  0.5120 -2.1041
 1593SOL    HW216239   2.093   4.411  15.611  0.4002  0.1083 -1.9536
 1594SOL     OW16240   4.003   3.348  16.295  0.8316 -0.0670 -0.8585
 1594SOL    HW116241   4.044   3.323  16.378 -0.5932  0.0113 -0.1207
 1594SOL    HW216242   3.932   3.397  16.336  0.9670 -0.4126 -0.2073
 1595SOL     OW16243   3.197   3.100   9.679  0.2117  0.1436  0.2052
 1595SOL    HW116244   3.172   3.028   9.621  1.4345 -0.4296  0.4008
 1595SOL    HW216245   3.242   3.043   9.741 -0.2044 -0.6505 -0.2243
 1596SOL     OW16246   4.335   2.186  14.509 -0.1584 -0.7208  0.1555
 1596SOL    HW116247   4.343   2.153  14.419  0.3477 -1.3505  0.4328
 1596SOL    HW216248   4.419   2.231  14.512  0.1038 -1.1670 -0.5590
 1597SOL     OW16249   0.384   3.803   6.880  0.0977  0.1421 -0.2253
 1597SOL    HW116250   0.337   3.728   6.915  0.0160  0.3523  0.1229
 1597SOL    HW216251   0.392   3.861   6.956  0.9749 -0.1872 -0.0779
 1598SOL     OW16252   0.163   0.146   4.390  0.3318 -0.1047 -0.0038
 1598SOL    HW116253   0.120   0.086   4.329  0.9063 -0.8959  0.3639
 1598SOL    HW216254   0.094   0.209   4.413 -0.0975  0.1029 -1.8990
 1599SOL     OW16255   0.529   0.735  15.023  0.2304 -0.2757 -0.6331
 1599SOL    HW116256   0.552   0.642  15.023  0.7939 -0.1338  0.0086
 1599SOL    HW216257   0.566   0.764  14.939  3.3652 -0.0927  0.8362
 1600SOL     OW16258   0.356   4.708  15.401 -0.4076  0.2459  0.1741
 1600SOL    HW116259   0.360   4.714  15.496  4.0279 -0.3100  0.0366
 1600SOL    HW216260   0.437   0.037  15.381 -0.2346  0.3945  1.2355
 1601SOL     OW16261   3.486   3.626  14.933 -0.7357 -0.4025  0.2347
 1601SOL    HW116262   3.459   3.544  14.891 -0.6023  0.4021 -1.4469
 1601SOL    HW216263   3.574   3.597  14.957 -0.1273 -0.0303 -1.5089
 1602SOL     OW16264   4.221   4.681   2.081 -0.1762 -0.2689  0.4316
 1602SOL    HW116265   4.166   4.622   2.031  2.7960 -2.4574 -0.2102
 1602SOL    HW216266   4.235   4.626   2.158 -0.3217  2.1644  2.2319
 1603SOL     OW16267   2.691   2.030   0.903 -0.3253  0.1816  0.2413
 1603SOL    HW116268   2.754   2.023   0.975 -0.7288  1.1178  0.6839
 1603SOL    HW216269   2.729   1.978   0.831  0.1956  1.0531 -0.1084
 1604SOL     OW16270   1.634   2.081   6.006 -0.7592  0.0861  0.6598
 1604SOL    HW116271   1.590   2.003   5.973 -0.3740 -0.1839  0.7801
 1604SOL    HW216272   1.600   2.097   6.094 -0.0857  0.6664  0.8125
 1605SOL     OW16273   0.664   1.217   7.423  0.3168  0.4682 -0.3062
 1605SOL    HW116274   0.753   1.212   7.387  0.8030 -2.0849  1.2664
 1605SOL    HW216275   0.690   1.194   7.512 -1.8849  0.1136  0.2315
 1606SOL     OW16276   2.986   4.092  17.418  0.2456  0.1706  0.1263
 1606SOL    HW116277   2.992   4.137  17.334 -0.9397  1.1490  0.5618
 1606SOL    HW216278   2.947   4.159  17.474  0.0411  0.8183 -0.7881
 1607SOL     OW16279   1.023   1.563   9.106 -1.4362 -0.5486  0.0379
 1607SOL    HW116280   1.076   1.608   9.172 -1.5199  0.2617 -0.4392
 1607SOL    HW216281   0.952   1.625   9.091 -0.7465  1.2933  4.5573
 1608SOL     OW16282   2.104   4.605   6.270 -0.1143 -0.4281  0.4829
 1608SOL    HW116283   2.131   4.689   6.307  0.1921 -1.0425  1.6536
 1608SOL    HW216284   2.132   4.610   6.179 -2.8244 -1.4434 -0.4183
 1609SOL     OW16285   0.487   1.524   3.495 -0.2393 -0.1126  0.1001
 1609SOL    HW116286   0.470   1.537   3.588 -0.6769 -1.4502  0.2082
 1609SOL    HW216287   0.421   1.582   3.456 -0.2421  0.0633  0.3677
 1610SOL     OW16288   2.242   1.862  15.115  0.2534  0.1263 -0.4250
 1610SOL    HW116289   2.332   1.890  15.099  0.7484  0.5725  3.1978
 1610SOL    HW216290   2.243   1.867  15.211  0.2219  1.1098 -0.4781
 1611SOL     OW16291   0.289   2.019   8.531  0.6945  0.0341 -0.3920
 1611SOL    HW116292   0.341   2.096   8.552  0.3107  0.6626 -1.7178
 1611SOL    HW216293   0.215   2.054   8.481  0.9558  1.1226 -0.0083
 1612SOL     OW16294   0.232   3.101   6.470  0.5210  0.7314  0.0432
 1612SOL    HW116295   0.280   3.093   6.388  1.1858  0.1448  0.4956
 1612SOL    HW216296   0.245   3.017   6.513  0.6233  0.7490  0.0455
 1613SOL     OW16297   2.836   3.365   9.122 -0.0357  0.2881 -0.3259
 1613SOL    HW116298   2.801   3.454   9.121 -0.3773  0.1466 -1.5258
 1613SOL    HW216299   2.773   3.313   9.072 -0.6903 -0.2236  1.0247
 1614SOL     OW16300   4.474   2.180  11.081  0.1951  0.4220  0.4259
 1614SOL    HW116301   4.442   2.240  11.014 -1.8428 -0.2920  0.7651
 1614SOL    HW216302   4.397   2.139  11.120  0.6512 -0.3687  0.4868
 1615SOL     OW16303   3.248   0.746  17.451  0.2816  0.8666  0.4870
 1615SOL    HW116304   3.203   0.682  17.395  1.1535  0.5691  0.1327
 1615SOL    HW216305   3.200   0.826  17.429  2.9767  2.3951  0.2410
 1616SOL     OW16306   2.805   4.341   4.475 -0.4883  0.3825  0.0659
 1616SOL    HW116307   2.894   4.324   4.444  0.0695  1.7967  0.9155
 1616SOL    HW216308   2.752   4.362   4.398 -1.2240 -1.7830 -0.0091
 1617SOL     OW16309   3.390   4.200   5.105  0.1674 -0.5978  0.5411
 1617SOL    HW116310   3.310   4.185   5.053  0.3475 -0.5619  0.2538
 1617SOL    HW216311   3.348   4.210   5.190  0.5176  0.3226  0.6047
 1618SOL     OW16312   0.827   0.035   8.541 -0.0163 -0.1299 -0.3989
 1618SOL    HW116313   0.898   4.714   8.591 -0.4820 -0.6833 -0.1709
 1618SOL    HW216314   0.860   0.033   8.452 -1.4247  1.6460 -0.9660
 1619SOL     OW16315   1.682   0.286  10.934  0.1297 -0.4431  0.2872
 1619SOL    HW116316   1.674   0.217  10.999  1.9613 -1.7346 -0.8512
 1619SOL    HW216317   1.773   0.273  10.905  0.4872  1.1474  0.6982
 1620SOL     OW16318   1.768   3.896  11.430  0.7244 -1.0523 -0.0051
 1620SOL    HW116319   1.815   3.979  11.424 -0.1384 -0.6641 -1.2847
 1620SOL    HW216320   1.684   3.914  11.390  0.1793 -3.5487  0.0299
 1621SOL     OW16321   1.310   1.416   3.584 -0.6707 -0.1555 -0.4893
 1621SOL    HW116322   1.391   1.372   3.610  0.3223  2.2278  0.4962
 1621SOL    HW216323   1.282   1.368   3.506  0.3983 -0.2473 -0.8105
 1622SOL     OW16324   1.005   4.337   6.488  0.1324  0.1660  0.4510
 1622SOL    HW116325   0.978   4.356   6.398 -1.7270 -0.2238  0.9283
 1622SOL    HW216326   1.098   4.321   6.470  0.0045 -1.1024  0.9083
 1623SOL     OW16327   1.574   3.015  16.670  0.6083 -0.3046  0.0709
 1623SOL    HW116328   1.612   3.007  16.582  1.0745  1.4120  0.1075
 1623SOL    HW216329   1.486   3.034  16.638  0.8625 -0.0900 -0.5219
 1624SOL     OW16330   0.782   3.845   0.050 -0.1737  0.4038  0.8813
 1624SOL    HW116331   0.849   3.841   0.118  0.5935 -1.0810  0.0639
 1624SOL    HW216332   0.798   3.759   0.009  0.5395  0.6161  0.7179
 1625SOL     OW16333   1.111   3.990   4.744  0.0662  0.3025 -0.1093
 1625SOL    HW116334   1.158   4.033   4.673 -2.3829  0.3290 -1.7180
 1625SOL    HW216335   1.023   3.976   4.709 -0.5854  1.4991  1.0231
 1626SOL     OW16336   1.261   0.329  16.845  0.1929  1.3892  0.0056
 1626SOL    HW116337   1.268   0.424  16.847 -0.5473  1.4214  0.9336
 1626SOL    HW216338   1.351   0.306  16.821 -0.0639  0.3460  0.0031
 1627SOL     OW16339   0.978   1.897   6.759  0.0425 -0.2202 -0.4556
 1627SOL    HW116340   0.980   1.904   6.664 -0.7856  0.8234 -0.3995
 1627SOL    HW216341   1.015   1.983   6.781  1.4580 -1.2000  1.0262
 1628SOL     OW16342   1.986   4.485   4.516 -0.2692  0.1979  0.0948
 1628SOL    HW116343   1.985   4.461   4.609 -0.5180 -2.6141 -0.6521
 1628SOL    HW216344   1.923   4.428   4.473 -1.9457  1.7198  0.5374
 1629SOL     OW16345   0.828   3.369  12.491 -0.0085 -0.3008 -0.0019
 1629SOL    HW116346   0.793   3.282  12.470  1.0640 -0.9834  1.0145
 1629SOL    HW216347   0.910   3.340  12.531 -0.1146  2.4618  2.2253
 1630SOL     OW16348   0.869   2.500   4.180 -0.2063  0.1245 -0.3317
 1630SOL    HW116349   0.926   2.422   4.182 -0.8753 -0.4536 -3.8030
 1630SOL    HW216350   0.898   2.554   4.107 -1.8693  0.2214 -0.9298
 1631SOL     OW16351   2.343   1.158  16.234 -0.0859  0.1822  0.0874
 1631SOL    HW116352   2.283   1.102  16.185  1.5991 -0.1569 -1.5907
 1631SOL    HW216353   2.423   1.106  16.223 -1.0866 -1.7464  2.0666
 1632SOL     OW16354   3.116   0.399  16.640 -0.4320  0.4386  0.5723
 1632SOL    HW116355   3.190   0.370  16.587 -0.8903  2.3218 -1.1110
 1632SOL    HW216356   3.052   0.342  16.597 -1.9127  1.2495  1.6778
 1633SOL     OW16357   3.463   0.265   1.319 -0.5632  0.5217  0.0239
 1633SOL    HW116358   3.442   0.286   1.228  2.2927 -0.9750 -0.9858
 1633SOL    HW216359   3.434   0.174   1.326  0.2082  0.3093  0.5126
 1634SOL     OW16360   0.622   3.695  16.209 -0.3000 -0.0531 -0.1119
 1634SOL    HW116361   0.643   3.660  16.295 -0.9872 -1.6658 -0.5858
 1634SOL    HW216362   0.596   3.611  16.170  0.8458 -0.1602 -0.6702
 1635SOL     OW16363   3.765   4.213   9.714 -0.0240 -0.1944  0.2259
 1635SOL    HW116364   3.675   4.201   9.746 -0.9967  0.0014 -2.3671
 1635SOL    HW216365   3.773   4.309   9.711  1.2849 -0.2829  1.0903
 1636SOL     OW16366   1.301   1.515  17.504 -0.0139 -0.4643  0.3923
 1636SOL    HW116367   1.237   1.559  17.447 -1.2747 -2.4989  0.2287
 1636SOL    HW216368   1.383   1.552  17.471 -1.5874  0.4176 -2.5547
 1637SOL     OW16369   0.034   3.238   6.955  0.3929 -0.2191  0.3978
 1637SOL    HW116370   4.681   3.299   6.976  0.0716 -0.1474 -0.8835
 1637SOL    HW216371   0.001   3.190   6.879  1.5601 -1.1864  0.4916
 1638SOL     OW16372   3.222   0.042   8.539  0.1238  0.0200  0.5620
 1638SOL    HW116373   3.269   0.124   8.530 -0.2660  0.0271 -1.2770
 1638SOL    HW216374   3.233   4.713   8.456 -0.0659  0.5669  0.2322
 1639SOL     OW16375   1.237   4.526   7.522 -0.0236 -0.0764 -0.8859
 1639SOL    HW116376   1.282   4.604   7.554 -0.5883  0.2847 -0.9688
 1639SOL    HW216377   1.306   4.463   7.546 -0.4070 -0.0718  0.2197
 1640SOL     OW16378   3.394   1.592   7.935  0.1016 -0.2598  0.3119
 1640SOL    HW116379   3.486   1.577   7.917  0.2772  0.1828  0.8392
 1640SOL    HW216380   3.350   1.560   7.857 -0.6083  1.4269  0.0186
 1641SOL     OW16381   3.184   2.863   2.130  0.2466 -0.2728 -0.9628
 1641SOL    HW116382   3.265   2.816   2.111 -0.1266 -0.7795 -1.3095
 1641SOL    HW216383   3.142   2.816   2.202 -0.2605 -0.1359 -1.1719
 1642SOL     OW16384   2.133   0.147   7.369 -0.2123  0.3038 -0.4545
 1642SOL    HW116385   2.052   0.141   7.420  0.6912 -0.5919  0.8737
 1642SOL    HW216386   2.094   0.130   7.283  0.3812 -0.6889 -0.5273
 1643SOL     OW16387   1.660   2.941   6.071 -0.5080 -0.2723 -0.1485
 1643SOL    HW116388   1.676   2.981   6.157 -0.8480 -0.6436  0.0881
 1643SOL    HW216389   1.742   2.970   6.031  0.4798  1.3338  3.0249
 1644SOL     OW16390   2.738   3.602   2.824 -0.2389 -0.0482  0.4441
 1644SOL    HW116391   2.668   3.588   2.887 -0.8219 -1.2018 -0.4705
 1644SOL    HW216392   2.814   3.615   2.882 -0.5433  1.4471  0.5127
 1645SOL     OW16393   0.917   1.738  11.482 -0.0847  0.1432  0.2293
 1645SOL    HW116394   0.974   1.699  11.416  3.1719  2.7454  1.4539
 1645SOL    HW216395   0.933   1.678  11.555 -0.2751  2.2954  2.0399
 1646SOL     OW16396   3.690   4.423  10.984  0.1755  0.6440  0.4750
 1646SOL    HW116397   3.775   4.461  10.965 -0.4172  0.4541 -2.5523
 1646SOL    HW216398   3.685   4.406  11.078 -0.7452 -3.7073 -0.3341
 1647SOL     OW16399   3.115   3.947   3.302  0.0384  0.3681 -0.3976
 1647SOL    HW116400   3.177   3.964   3.232 -0.7463 -1.3576 -1.5042
 1647SOL    HW216401   3.134   3.853   3.306 -1.5177  0.0686 -0.0086
 1648SOL     OW16402   1.459   4.145   4.144 -0.0522 -0.0656  0.3982
 1648SOL    HW116403   1.523   4.214   4.128  0.7550 -0.8653  0.1401
 1648SOL    HW216404   1.450   4.109   4.056 -1.7730  0.0743  0.5197
 1649SOL     OW16405   4.371   2.134   7.817 -0.4229 -0.1348  0.1977
 1649SOL    HW116406   4.457   2.175   7.829  0.8509 -2.2237 -1.6847
 1649SOL    HW216407   4.314   2.210   7.809  0.3870  0.5689  0.9701
 1650SOL     OW16408   1.547   3.391   8.344  0.2274 -0.1142 -0.1120
 1650SOL    HW116409   1.480   3.350   8.399 -0.9519  1.5482 -0.3089
 1650SOL    HW216410   1.602   3.315   8.325 -0.4163 -0.4382 -0.6800
 1651SOL     OW16411   0.663   2.971   3.755  0.7525 -0.2271 -0.7286
 1651SOL    HW116412   0.678   2.884   3.718 -1.9392 -0.7389 -0.5894
 1651SOL    HW216413   0.666   2.958   3.850  0.3741  1.7216 -0.4544
 1652SOL     OW16414   2.192   0.951   4.327  0.1973  0.5644 -0.0920
 1652SOL    HW116415   2.152   0.997   4.253 -1.7088 -0.0896  0.5502
 1652SOL    HW216416   2.148   0.995   4.399  3.6707 -0.1151  2.4381
 1653SOL     OW16417   4.480   3.987   5.913  0.2840 -0.1585  0.0895
 1653SOL    HW116418   4.429   3.914   5.948  0.6258  0.2581  1.4532
 1653SOL    HW216419   4.564   3.970   5.956 -0.5210 -0.2337  1.6245
 1654SOL     OW16420   4.087   3.228  10.031 -0.8019 -0.3925 -0.1590
 1654SOL    HW116421   4.052   3.313  10.007 -0.1644 -0.8171 -2.5331
 1654SOL    HW216422   4.178   3.256  10.030  0.1668 -3.5199 -1.3582
 1655SOL     OW16423   3.683   4.016  16.981  0.7963  0.1988 -0.3966
 1655SOL    HW116424   3.588   4.003  16.973  0.5457  2.0387 -0.5274
 1655SOL    HW216425   3.692   4.018  17.076  1.9283 -0.7716 -0.4940
 1656SOL     OW16426   2.131   1.135   8.791  0.6911 -0.5255 -0.0418
 1656SOL    HW116427   2.062   1.199   8.774  0.5202 -1.1210 -1.5285
 1656SOL    HW216428   2.115   1.120   8.884  1.5614  0.6904  0.3053
 1657SOL     OW16429   0.793   0.481   2.344  0.2257  0.0526 -0.2315
 1657SOL    HW116430   0.788   0.491   2.248 -1.8898  0.8233 -0.0573
 1657SOL    HW216431   0.817   0.572   2.362 -0.0790  0.4454 -1.7764
 1658SOL     OW16432   2.576   3.212   5.810 -0.1344  0.4309 -0.1195
 1658SOL    HW116433   2.563   3.250   5.723  1.5451  1.3507  0.0178
 1658SOL    HW216434   2.565   3.119   5.791  0.4303  0.4736 -0.6765
 1659SOL     OW16435   0.453   3.408   6.412  0.1025 -0.1493 -0.0453
 1659SOL    HW116436   0.531   3.360   6.436 -2.3787 -3.8210  0.6584
 1659SOL    HW216437   0.445   3.389   6.319 -0.9604 -1.3464  0.2883
 1660SOL     OW16438   0.457   0.099   0.901  0.0702  0.2608  0.5065
 1660SOL    HW116439   0.487   0.046   0.975 -0.1470 -0.9695 -0.2958
 1660SOL    HW216440   0.407   0.172   0.938 -0.0307 -0.5938  2.0790
 1661SOL     OW16441   2.490   2.460  16.274 -0.0786 -0.6662  0.1771
 1661SOL    HW116442   2.570   2.475  16.324  1.1023 -0.7068 -1.7027
 1661SOL    HW216443   2.523   2.389  16.219  0.2934 -1.3762  1.3118
 1662SOL     OW16444   0.089   3.875  17.500 -0.0369  0.4514 -0.0389
 1662SOL    HW116445   0.106   3.967  17.521 -1.2596  0.6779 -0.0207
 1662SOL    HW216446   4.711   3.880  17.506 -0.0039 -0.2405  1.2101
 1663SOL     OW16447   4.632   0.781   0.622  0.4539 -0.1275  0.4335
 1663SOL    HW116448   4.583   0.765   0.541  3.6156 -3.4385 -0.8319
 1663SOL    HW216449   4.648   0.876   0.616  2.3919 -0.6069 -2.2578
 1664SOL     OW16450   4.384   3.112  11.455  0.4793 -0.0459  0.2748
 1664SOL    HW116451   4.327   3.134  11.381 -1.2926  1.5625  2.0967
 1664SOL    HW216452   4.468   3.138  11.416 -1.0293  2.1210 -1.5489
 1665SOL     OW16453   3.767   0.090   0.490  0.2491 -0.4131  0.2913
 1665SOL    HW116454   3.715   0.169   0.508  1.8139  0.9600 -1.1495
 1665SOL    HW216455   3.846   0.101   0.544 -0.5642  0.7378  1.2439
 1666SOL     OW16456   0.921   0.155   4.789  0.1296  0.2230  0.1106
 1666SOL    HW116457   0.953   0.184   4.704 -0.0675 -1.4983 -0.5488
 1666SOL    HW216458   0.830   0.181   4.776  0.3617 -0.0889 -2.1981
 1667SOL     OW16459   2.851   4.194   2.947 -0.1363 -0.1254  0.0295
 1667SOL    HW116460   2.902   4.229   2.875 -0.3487 -0.3566 -0.2349
 1667SOL    HW216461   2.914   4.203   3.019  0.6110 -1.9881 -0.3905
 1668SOL     OW16462   2.803   2.861  17.212 -0.3590  0.0889 -0.1604
 1668SOL    HW116463   2.829   2.825  17.128 -2.4875  0.1236 -0.8481
 1668SOL    HW216464   2.863   2.810  17.267 -0.6627 -1.2310 -1.0461
 1669SOL     OW16465   3.018   1.764   3.202  0.0577 -0.2078 -0.0110
 1669SOL    HW116466   3.051   1.677   3.222 -1.2243 -0.4029  1.2601
 1669SOL    HW216467   3.096   1.817   3.217  0.5272 -1.5132  2.0448
 1670SOL     OW16468   1.466   2.960  13.328  0.2632  0.5086  0.2045
 1670SOL    HW116469   1.470   3.048  13.366  0.8407 -0.4982  2.5094
 1670SOL    HW216470   1.414   2.923  13.399 -0.8027 -0.5146 -1.1085
 1671SOL     OW16471   0.340   0.070   3.090  0.3991  0.2833 -0.0033
 1671SOL    HW116472   0.311   0.105   3.006  2.9687 -0.9324 -1.4062
 1671SOL    HW216473   0.429   0.042   3.065  0.0739 -1.6581  1.0185
 1672SOL     OW16474   0.523   0.579  16.588 -0.0347  0.1532  0.1271
 1672SOL    HW116475   0.473   0.581  16.670 -5.4361 -2.9607 -3.0926
 1672SOL    HW216476   0.467   0.531  16.527 -0.2225 -2.1312  2.0578
 1673SOL     OW16477   3.885   4.146   8.054  0.3776 -0.3518 -0.0568
 1673SOL    HW116478   3.978   4.129   8.072  0.4820  0.1385 -0.1449
 1673SOL    HW216479   3.854   4.156   8.144  1.6541 -0.1440  0.3667
 1674SOL     OW16480   0.374   4.268   0.177  0.1858 -0.7265  0.6444
 1674SOL    HW116481   0.374   4.180   0.140 -1.7142 -0.1491 -0.7410
 1674SOL    HW216482   0.292   4.282   0.224  1.8500  0.8743  3.0678
 1675SOL     OW16483   4.117   0.853   7.229 -0.3580  0.2620 -0.0580
 1675SOL    HW116484   4.113   0.807   7.312  1.7644  3.2354  1.6776
 1675SOL    HW216485   4.186   0.809   7.179 -0.6037  0.1974 -0.3417
 1676SOL     OW16486   1.172   4.690   1.981  0.0493 -0.8164 -0.0344
 1676SOL    HW116487   1.116   4.666   2.055 -0.2743 -1.4224 -0.4745
 1676SOL    HW216488   1.115   4.648   1.915  2.4368 -3.5268 -0.3868
 1677SOL     OW16489   0.908   2.303   5.193 -0.3101  0.0683  0.5189
 1677SOL    HW116490   0.886   2.215   5.224  2.7978 -0.9785 -0.2227
 1677SOL    HW216491   0.821   2.326   5.159  0.4715  1.7644 -0.3577
 1678SOL     OW16492   1.072   4.582   6.684 -0.0379  0.3669  0.4351
 1678SOL    HW116493   0.986   4.547   6.659 -1.3084  3.2246  0.7671
 1678SOL    HW216494   1.113   4.540   6.609  1.2522  3.2372 -0.4773
 1679SOL     OW16495   1.239   3.878   3.318  0.0049 -0.7650 -0.2024
 1679SOL    HW116496   1.146   3.881   3.297 -0.0337 -0.1318  0.0749
 1679SOL    HW216497   1.274   3.906   3.233 -1.7890  1.6874 -0.1217
 1680SOL     OW16498   2.552   3.095   4.598 -0.3629  0.0036  0.0845
 1680SOL    HW116499   2.535   3.173   4.546 -1.3817  1.2850  2.3551
 1680SOL    HW216500   2.598   3.139   4.670 -2.0134  0.2499  0.9892
 1681SOL     OW16501   1.116   0.035   8.227 -0.3199  0.5498  0.3118
 1681SOL    HW116502   1.122   4.693   8.302  0.8077 -0.1914 -0.3670
 1681SOL    HW216503   1.190   0.014   8.170  0.1178 -1.7540  1.7226
 1682SOL     OW16504   2.361   2.479  15.727 -0.0322  0.0951  0.3711
 1682SOL    HW116505   2.401   2.519  15.650 -0.2738  0.8446  0.6339
 1682SOL    HW216506   2.428   2.497  15.792  0.4559 -1.4778  0.2865
 1683SOL     OW16507   1.043   1.504   5.292 -0.0096 -0.4891 -0.2041
 1683SOL    HW116508   1.002   1.426   5.330  0.4346 -1.0117 -0.8056
 1683SOL    HW216509   1.137   1.497   5.307 -0.1305  2.3976  1.8338
 1684SOL     OW16510   2.724   3.788   4.278 -0.3969  0.0535  0.2082
 1684SOL    HW116511   2.689   3.877   4.275 -0.7753 -0.0005  3.5180
 1684SOL    HW216512   2.679   3.746   4.351  0.3473 -3.0121 -1.0735
 1685SOL     OW16513   1.636   4.480   2.710  0.3903  0.1188  0.4904
 1685SOL    HW116514   1.631   4.462   2.616 -1.5735 -2.6487  1.1134
 1685SOL    HW216515   1.719   4.432   2.717  0.3096 -0.0908  0.0394
 1686SOL     OW16516   3.081   3.242   4.202 -0.0665  0.0925  0.3340
 1686SOL    HW116517   2.991   3.273   4.191 -0.7996 -1.8360  0.9901
 1686SOL    HW216518   3.078   3.152   4.170  3.7624 -0.0571  0.4214
 1687SOL     OW16519   4.254   0.127   7.558 -0.0901 -0.4386  0.4469
 1687SOL    HW116520   4.251   0.137   7.463  0.1225  0.0945  0.4940
 1687SOL    HW216521   4.174   0.077   7.573 -1.5675  1.7914  0.1231
 1688SOL     OW16522   2.851   1.045   8.949  0.0667 -0.7580 -0.2796
 1688SOL    HW116523   2.838   0.976   8.884  2.4061 -1.5438  0.0778
 1688SOL    HW216524   2.761   1.058   8.978 -0.7309 -1.2574 -2.5406
 1689SOL     OW16525   4.179   4.612   3.502  0.7318 -0.3808 -0.3299
 1689SOL    HW116526   4.254   4.671   3.494  0.1608  0.4358  0.3397
 1689SOL    HW216527   4.130   4.680   3.548  0.1505 -1.0074 -0.0297
 1690SOL     OW16528   0.771   1.116   3.316  0.4549  0.3574  0.7101
 1690SOL    HW116529   0.795   1.163   3.396  1.2446 -2.4472  2.1411
 1690SOL    HW216530   0.813   1.173   3.253 -0.3612 -0.0926 -0.2509
 1691SOL     OW16531   3.909   2.982  10.226  0.0919 -0.4450  0.2899
 1691SOL    HW116532   3.845   2.984  10.296  0.5470  3.7058  0.5429
 1691SOL    HW216533   3.986   3.026  10.264 -0.6958  1.0878  0.0876
 1692SOL     OW16534   2.504   3.487   2.506 -0.7225  0.6210  0.4453
 1692SOL    HW116535   2.554   3.560   2.543 -0.4500  0.5411  0.2330
 1692SOL    HW216536   2.557   3.414   2.538  0.2273  0.1195 -2.2605
 1693SOL     OW16537   3.720   2.232   5.182 -0.3225  0.3447 -0.1693
 1693SOL    HW116538   3.652   2.295   5.157 -1.9731 -0.9069  1.1018
 1693SOL    HW216539   3.795   2.274   5.140 -0.4255 -0.8934 -1.5656
 1694SOL     OW16540   2.275   1.948   5.150 -0.1910 -0.3279 -0.2135
 1694SOL    HW116541   2.245   2.003   5.223  0.4606 -2.4322  1.6529
 1694SOL    HW216542   2.222   1.872   5.174 -3.6199  1.6398 -1.3959
 1695SOL     OW16543   3.919   1.287   5.358  0.2333  0.3855 -0.2794
 1695SOL    HW116544   3.896   1.380   5.366 -0.9224  0.1665 -1.0712
 1695SOL    HW216545   4.011   1.293   5.331  0.5926 -0.2184  0.8047
 1696SOL     OW16546   2.037   4.488   2.956  0.0003  0.3051  0.5380
 1696SOL    HW116547   2.051   4.404   2.912 -1.6506  1.2754 -1.8227
 1696SOL    HW216548   2.095   4.544   2.904  1.0830 -0.3265  1.0431
 1697SOL     OW16549   2.652   3.432   6.397 -0.2285  0.9104  0.7072
 1697SOL    HW116550   2.631   3.339   6.394  1.1932  0.7513 -3.5335
 1697SOL    HW216551   2.583   3.469   6.453 -2.3022  0.2478 -1.4230
 1698SOL     OW16552   4.074   2.865   8.695  0.0123  0.3408  0.0569
 1698SOL    HW116553   3.978   2.870   8.699 -0.0097  1.1524 -1.2503
 1698SOL    HW216554   4.089   2.956   8.669  1.5439 -0.8866 -3.3789
 1699SOL     OW16555   0.319   3.311   2.784  0.1821  0.1638  0.0660
 1699SOL    HW116556   0.341   3.221   2.808  0.1373  0.6613  2.0396
 1699SOL    HW216557   0.256   3.279   2.720  0.9832 -1.3346  0.0106
 1700SOL     OW16558   1.473   3.511   5.592 -0.0714 -0.1248  0.4954
 1700SOL    HW116559   1.495   3.418   5.589  2.1934  0.3943  0.3991
 1700SOL    HW216560   1.391   3.510   5.642 -0.2303  0.3548  0.2423
 1701SOL     OW16561   3.445   0.869   7.295 -0.1463 -0.4853 -0.2737
 1701SOL    HW116562   3.452   0.829   7.208  3.0030  1.7995 -1.0704
 1701SOL    HW216563   3.377   0.935   7.283 -0.3431 -0.4868  0.8229
 1702SOL     OW16564   1.613   1.441  16.657  0.1825  0.4631 -0.5495
 1702SOL    HW116565   1.683   1.493  16.618 -0.7208  2.0197 -0.0878
 1702SOL    HW216566   1.581   1.493  16.731 -3.9862 -0.2015 -1.8836
 1703SOL     OW16567   3.063   3.901  11.461  0.3104  0.5698 -0.1525
 1703SOL    HW116568   3.091   3.951  11.385 -0.3923 -1.2533 -1.6215
 1703SOL    HW216569   2.983   3.857  11.430  0.6906 -0.5586  0.4520
 1704SOL     OW16570   1.055   3.555   5.005  0.1722  0.1174  0.4438
 1704SOL    HW116571   1.085   3.643   4.983  0.8749 -0.2302  0.0226
 1704SOL    HW216572   0.965   3.551   4.973  0.5794  0.2404 -0.7054
 1705SOL     OW16573   3.757   3.698   3.435 -0.2473 -0.5916  0.6134
 1705SOL    HW116574   3.700   3.763   3.395  3.2130  1.7014 -0.6104
 1705SOL    HW216575   3.705   3.618   3.432 -1.1888 -0.0262  1.5294
 1706SOL     OW16576   2.866   1.326  15.598 -0.3064  0.1867  0.2471
 1706SOL    HW116577   2.896   1.259  15.536  0.1435  1.1367 -0.5594
 1706SOL    HW216578   2.914   1.405  15.577 -0.6656  0.3611  0.0748
 1707SOL     OW16579   3.369   0.886   7.873 -0.2887 -0.2718  0.6263
 1707SOL    HW116580   3.336   0.972   7.846 -0.5599 -0.8487 -0.8583
 1707SOL    HW216581   3.434   0.905   7.940  1.5212  0.1858 -1.2432
 1708SOL     OW16582   4.515   3.182   1.630  0.2067  0.0585 -0.2888
 1708SOL    HW116583   4.594   3.232   1.648  0.5964 -0.0836 -1.6138
 1708SOL    HW216584   4.536   3.093   1.659  2.7384  0.3267 -1.2596
 1709SOL     OW16585   1.039   0.599   9.836 -0.6280 -0.0568 -0.0517
 1709SOL    HW116586   1.026   0.510   9.868  2.8660 -1.9399 -3.8831
 1709SOL    HW216587   1.108   0.585   9.770 -1.6471 -0.5272 -1.0291
 1710SOL     OW16588   2.682   2.439   6.964 -0.1392  0.2876 -0.4441
 1710SOL    HW116589   2.611   2.377   6.978  0.2665 -0.4139 -1.4969
 1710SOL    HW216590   2.646   2.511   6.912  0.7710  0.3234 -1.0214
 1711SOL     OW16591   2.584   4.196  10.792 -0.0111  0.1988 -0.4978
 1711SOL    HW116592   2.663   4.144  10.779 -0.3036 -0.8782  1.9256
 1711SOL    HW216593   2.560   4.179  10.883 -0.5421  1.0525 -0.4803
 1712SOL     OW16594   4.614   0.076  13.201 -0.0787 -0.0490 -0.2092
 1712SOL    HW116595   4.642   4.715  13.153 -2.7077 -0.7478 -0.6010
 1712SOL    HW216596   4.585   0.129  13.127  0.9640  0.6511 -0.1104
 1713SOL     OW16597   1.346   0.885   9.985  0.3433  0.1570  0.2632
 1713SOL    HW116598   1.280   0.827  10.024  0.5852 -1.5234 -1.8078
 1713SOL    HW216599   1.331   0.965  10.034 -0.8221 -1.1165  1.9804
 1714SOL     OW16600   2.015   3.273  12.463  0.2126 -0.0590  0.4136
 1714SOL    HW116601   1.976   3.228  12.538 -0.4282 -3.5458 -2.0276
 1714SOL    HW216602   1.938   3.298  12.412  0.7446 -0.0906 -0.4039
 1715SOL     OW16603   1.254   4.537   2.666  0.1445  0.3666  0.2588
 1715SOL    HW116604   1.298   4.502   2.588  2.0072  1.1991  0.9266
 1715SOL    HW216605   1.176   4.571   2.622  1.6980  1.3476 -1.7227
 1716SOL     OW16606   1.441   4.128   3.249  0.8390 -0.0194  0.3881
 1716SOL    HW116607   1.522   4.161   3.212  0.6307  0.4543  0.3409
 1716SOL    HW216608   1.433   4.038   3.219 -0.0360 -0.5880  2.3101
 1717SOL     OW16609   4.158   3.336   0.679  0.3673 -0.2637 -0.1265
 1717SOL    HW116610   4.110   3.354   0.760 -0.0972 -3.2409  0.2663
 1717SOL    HW216611   4.137   3.244   0.666  0.2992 -0.4880  1.5324
 1718SOL     OW16612   0.837   0.278   3.606 -0.4646 -0.1102 -0.7017
 1718SOL    HW116613   0.772   0.348   3.607  0.2285  0.5246 -0.6108
 1718SOL    HW216614   0.903   0.307   3.669 -0.6235  0.4916 -0.8144
 1719SOL     OW16615   4.478   1.681   4.453 -0.1090  0.3862 -0.5058
 1719SOL    HW116616   4.549   1.623   4.483  0.2224  0.0810 -1.8421
 1719SOL    HW216617   4.521   1.763   4.478  2.1168 -0.0680 -2.7768
 1720SOL     OW16618   2.872   0.598  11.029 -0.0491 -0.6657  0.2432
 1720SOL    HW116619   2.885   0.558  10.943 -0.6270 -1.0656  0.3333
 1720SOL    HW216620   2.786   0.640  11.019  0.8489  0.9870 -0.4405
 1721SOL     OW16621   1.369   1.519   0.351  0.4818  0.0283 -0.0306
 1721SOL    HW116622   1.375   1.474   0.435 -0.3257  1.1997  0.6575
 1721SOL    HW216623   1.393   1.449   0.291 -2.0417 -0.8637  0.0050
 1722SOL     OW16624   4.186   4.169   8.117 -0.0670 -0.0491 -0.3770
 1722SOL    HW116625   4.273   4.130   8.126  0.2448 -0.0013 -3.1411
 1722SOL    HW216626   4.157   4.184   8.207  0.9270  0.3803 -0.1357
 1723SOL     OW16627   3.962   4.436   6.796 -0.1428 -0.0708 -0.1388
 1723SOL    HW116628   4.055   4.434   6.775 -0.2027  0.5710 -0.4674
 1723SOL    HW216629   3.941   4.529   6.792 -1.1102 -0.3356 -1.4018
 1724SOL     OW16630   3.702   2.001   1.304 -0.0905  0.6846 -0.5214
 1724SOL    HW116631   3.623   2.032   1.348  0.2872  0.5906  0.2233
 1724SOL    HW216632   3.689   1.907   1.290  0.6371  0.3697  0.8996
 1725SOL     OW16633   1.434   2.456   8.462  0.0348  0.1083 -0.1800
 1725SOL    HW116634   1.518   2.412   8.478 -0.0747  0.2228  0.6765
 1725SOL    HW216635   1.399   2.393   8.400 -1.2431 -0.4030  1.0682
 1726SOL     OW16636   1.288   1.214  16.000  0.6757 -0.5096  0.7410
 1726SOL    HW116637   1.348   1.275  16.043 -0.2822 -0.0301  1.3996
 1726SOL    HW216638   1.298   1.134  16.051  2.5063 -0.2792  0.7544
 1727SOL     OW16639   3.862   0.709   1.334  0.4163  0.1681  0.1683
 1727SOL    HW116640   3.939   0.758   1.304  0.8211 -0.6159 -0.0803
 1727SOL    HW216641   3.885   0.621   1.303  0.5445  0.3744 -0.3241
 1728SOL     OW16642   1.591   3.499   3.234  0.6231  0.4372  0.1717
 1728SOL    HW116643   1.584   3.542   3.320 -2.2473 -0.7081  0.5079
 1728SOL    HW216644   1.649   3.559   3.187  0.9424  1.3547  1.7362
 1729SOL     OW16645   3.743   0.651  10.361  0.0699 -0.0686  0.1268
 1729SOL    HW116646   3.695   0.669  10.442 -1.5218 -1.6104 -0.4603
 1729SOL    HW216647   3.765   0.558  10.363 -0.1651 -0.0808  1.6953
 1730SOL     OW16648   1.904   4.376   5.470 -0.5279 -0.1012  0.5345
 1730SOL    HW116649   1.868   4.336   5.549  0.5885 -1.0889  0.5424
 1730SOL    HW216650   1.831   4.409   5.419  0.3313  1.7544  0.5044
 1731SOL     OW16651   2.773   1.554  15.254 -0.0627 -0.2251  0.3955
 1731SOL    HW116652   2.805   1.470  15.220 -0.5062 -0.0346 -0.4937
 1731SOL    HW216653   2.839   1.562  15.323 -0.0066 -1.8987  0.5420
 1732SOL     OW16654   3.009   3.695   8.759  0.6267  0.8088 -0.4133
 1732SOL    HW116655   2.917   3.676   8.775  0.8705  0.0555  0.0796
 1732SOL    HW216656   3.052   3.643   8.827  1.3297 -1.3961 -2.5528
 1733SOL     OW16657   2.358   3.979   2.856 -0.3877  0.3352 -0.1499
 1733SOL    HW116658   2.429   4.020   2.906  0.1643 -1.5131  0.6052
 1733SOL    HW216659   2.359   4.031   2.775 -2.3940 -0.6867 -0.8210
 1734SOL     OW16660   2.776   2.798  11.650  0.0379 -0.2238  0.5137
 1734SOL    HW116661   2.778   2.876  11.704 -0.0739  0.3705 -0.3347
 1734SOL    HW216662   2.859   2.803  11.603 -0.1780  1.5321  0.3278
 1735SOL     OW16663   2.380   0.458   7.012 -0.0242  0.5680 -0.0894
 1735SOL    HW116664   2.397   0.543   7.054 -0.5844  0.8931 -0.5260
 1735SOL    HW216665   2.331   0.417   7.083 -3.5261  0.8495 -2.3662
 1736SOL     OW16666   3.905   4.707   6.784 -0.1196 -0.0693 -0.2170
 1736SOL    HW116667   3.946   0.044   6.852 -2.6323 -0.8352  1.8910
 1736SOL    HW216668   3.900   0.047   6.708 -0.6326 -1.4764 -1.2536
 1737SOL     OW16669   2.544   4.104   8.786  0.2478  0.2165  0.8666
 1737SOL    HW116670   2.477   4.037   8.778  0.3836  0.2106 -0.2211
 1737SOL    HW216671   2.488   4.177   8.812 -2.3294 -1.7176  0.7342
 1738SOL     OW16672   4.289   2.512   1.496 -0.6168 -0.5017  0.3372
 1738SOL    HW116673   4.336   2.438   1.456  0.2754 -1.6761  3.5373
 1738SOL    HW216674   4.274   2.565   1.418  0.0680  2.2985  2.1034
 1739SOL     OW16675   2.459   0.528  14.470 -0.1447  0.3066  0.3962
 1739SOL    HW116676   2.512   0.449  14.469  0.8436  0.9957 -0.8645
 1739SOL    HW216677   2.530   0.592  14.472 -0.9580  1.1758  2.5103
 1740SOL     OW16678   1.863   2.145  17.512  0.0189 -0.1878 -0.3840
 1740SOL    HW116679   1.923   2.124  17.584  0.9488  1.7348 -0.5992
 1740SOL    HW216680   1.921   2.132  17.437 -0.4649 -0.6997 -0.6712
 1741SOL     OW16681   3.483   0.340   6.964  0.4571 -0.4854  0.6581
 1741SOL    HW116682   3.511   0.430   6.981  0.3416 -0.5011  0.9239
 1741SOL    HW216683   3.435   0.355   6.883  0.5194  2.1097  1.0989
 1742SOL     OW16684   2.033   4.226   6.877  0.0429 -0.5785  0.0190
 1742SOL    HW116685   2.122   4.235   6.843 -0.3369  2.2020 -0.2356
 1742SOL    HW216686   2.028   4.134   6.900 -1.5294 -0.6122 -0.4846
 1743SOL     OW16687   0.404   3.136   8.175  0.0665 -0.5573 -1.3547
 1743SOL    HW116688   0.312   3.152   8.153 -0.4080 -1.2583  0.1276
 1743SOL    HW216689   0.427   3.228   8.186 -0.6790 -0.6623  0.9789
 1744SOL     OW16690   2.439   1.003   5.895  0.5776  0.2525  0.1523
 1744SOL    HW116691   2.358   1.054   5.891  0.9707  1.0069  2.0775
 1744SOL    HW216692   2.496   1.079   5.902  0.1408  0.4116  1.9870
 1745SOL     OW16693   2.944   3.010   4.117 -0.2511  0.2128  0.3585
 1745SOL    HW116694   2.937   2.946   4.046  1.7009  0.7893 -0.3374
 1745SOL    HW216695   2.895   3.083   4.078  2.4749  1.1834 -1.2656
 1746SOL     OW16696   1.451   0.018   8.007 -0.3173  0.7281 -0.7084
 1746SOL    HW116697   1.490   4.674   8.069  0.6260 -0.5021 -2.5282
 1746SOL    HW216698   1.363   4.699   8.009  0.2626 -0.5319  1.2212
 1747SOL     OW16699   2.521   1.155  11.249 -0.1103 -0.1788  0.0888
 1747SOL    HW116700   2.523   1.244  11.216  2.2238 -1.5264 -3.3810
 1747SOL    HW216701   2.546   1.107  11.170 -0.4412 -1.2505  0.6357
 1748SOL     OW16702   0.384   2.508  14.635  0.2195 -0.7573  0.2479
 1748SOL    HW116703   0.367   2.526  14.727 -1.8120 -1.7180  0.0720
 1748SOL    HW216704   0.445   2.579  14.616 -3.2558  2.1250 -0.0838
 1749SOL     OW16705   1.836   1.026   8.544  0.7570  0.3912  0.2768
 1749SOL    HW116706   1.880   1.013   8.628 -0.5618 -0.0702  0.8876
 1749SOL    HW216707   1.750   0.993   8.569  1.2856 -0.3102  1.1442
 1750SOL     OW16708   1.669   3.465   2.436  0.7935  0.3163 -0.0268
 1750SOL    HW116709   1.579   3.485   2.408  0.6591 -0.6968 -0.3111
 1750SOL    HW216710   1.659   3.462   2.532  0.3619 -0.7740 -0.1060
 1751SOL     OW16711   4.297   4.106   6.057  0.0046 -0.6924  0.0427
 1751SOL    HW116712   4.374   4.084   6.004  1.1505 -0.2465  1.5473
 1751SOL    HW216713   4.235   4.041   6.024 -1.0432  0.3402 -0.0264
 1752SOL     OW16714   1.289   1.819   9.704 -0.0074 -0.0577 -0.2825
 1752SOL    HW116715   1.372   1.783   9.734 -0.8317 -0.9212  0.9598
 1752SOL    HW216716   1.287   1.794   9.612  0.5693  2.3668 -0.9264
 1753SOL     OW16717   4.374   0.627   4.521 -0.1755  0.7417 -0.3971
 1753SOL    HW116718   4.350   0.535   4.520  2.5600  0.0144  1.2982
 1753SOL    HW216719   4.339   0.642   4.609 -1.6183 -1.0976 -0.6774
 1754SOL     OW16720   2.494   1.954   8.998  0.0895  0.5976 -0.6010
 1754SOL    HW116721   2.563   1.998   8.947  0.9752 -1.4299 -1.1774
 1754SOL    HW216722   2.478   2.019   9.066 -2.5756  0.9374 -1.5616
 1755SOL     OW16723   3.884   1.557   5.382 -0.2785  0.0794 -0.2026
 1755SOL    HW116724   3.834   1.612   5.321 -0.9185 -1.1486 -0.8001
 1755SOL    HW216725   3.911   1.629   5.438 -0.2363 -1.0514  1.2436
 1756SOL     OW16726   2.366   3.939  12.304 -1.0631 -0.3182  0.4883
 1756SOL    HW116727   2.378   3.962  12.211  1.4888  1.0409  1.1569
 1756SOL    HW216728   2.377   3.844  12.300  0.5245 -0.1777  1.1978
 1757SOL     OW16729   3.535   3.559  11.756  0.2024 -0.0508  0.4527
 1757SOL    HW116730   3.573   3.499  11.820  1.1243  1.1409  1.0249
 1757SOL    HW216731   3.506   3.486  11.701 -0.1562  1.1569 -0.9673
 1758SOL     OW16732   4.473   1.013   5.295  0.0851  0.4720 -0.1508
 1758SOL    HW116733   4.543   0.948   5.299 -0.0149  0.3831  0.2018
 1758SOL    HW216734   4.405   0.966   5.344  0.4569  2.3292  2.1215
 1759SOL     OW16735   2.943   2.494   3.716  0.4121 -0.0637 -0.0937
 1759SOL    HW116736   2.959   2.400   3.719  2.1561  0.2817  1.6927
 1759SOL    HW216737   2.862   2.506   3.765 -0.5520  1.1303 -1.9675
 1760SOL     OW16738   3.091   1.784  16.652  0.0544  0.1480  0.5462
 1760SOL    HW116739   3.118   1.695  16.627 -0.1932  0.3419 -0.4197
 1760SOL    HW216740   3.080   1.831  16.569 -1.0919  0.4770  0.8830
 1761SOL     OW16741   2.319   2.367   5.462 -0.2056  0.0016 -0.6690
 1761SOL    HW116742   2.299   2.278   5.436  0.6026 -0.2680 -0.3649
 1761SOL    HW216743   2.231   2.402   5.471 -0.0869  0.5802 -1.6776
 1762SOL     OW16744   2.749   2.888  14.183 -0.0520  0.6276 -0.4774
 1762SOL    HW116745   2.680   2.882  14.250  1.1167  3.2947  0.9525
 1762SOL    HW216746   2.789   2.805  14.210 -1.2786 -0.3447 -1.6718
 1763SOL     OW16747   3.841   0.537   3.399 -0.4815 -0.1817  0.5931
 1763SOL    HW116748   3.858   0.613   3.455 -0.1096  0.3047 -0.1871
 1763SOL    HW216749   3.887   0.549   3.316  1.0215 -0.7227  1.3502
 1764SOL     OW16750   3.962   4.357   6.379 -0.2541 -0.1877 -0.4107
 1764SOL    HW116751   4.026   4.377   6.311  0.9421  0.2926  0.8644
 1764SOL    HW216752   3.974   4.439   6.428 -0.9330 -0.6104  0.4697
 1765SOL     OW16753   3.406   3.412   5.440 -0.4128  0.2627 -0.6864
 1765SOL    HW116754   3.341   3.477   5.463 -1.6454 -0.2091 -2.8374
 1765SOL    HW216755   3.407   3.427   5.346  0.3152  1.3994 -0.5003
 1766SOL     OW16756   3.823   2.581   1.826  0.6070 -0.3974 -0.3995
 1766SOL    HW116757   3.749   2.573   1.887  1.6976  0.8108  1.0741
 1766SOL    HW216758   3.807   2.497   1.781  1.0314 -0.6310 -0.1132
 1767SOL     OW16759   3.617   4.062   3.655  0.3475 -0.3228  0.2901
 1767SOL    HW116760   3.561   4.074   3.578 -0.3838  0.4804  0.9475
 1767SOL    HW216761   3.684   4.126   3.633  0.1371 -0.4194 -0.6323
 1768SOL     OW16762   0.147   4.613   3.214  0.5507 -0.3733  0.9045
 1768SOL    HW116763   0.198   4.679   3.166 -2.3471 -0.3609 -2.1831
 1768SOL    HW216764   0.214   4.569   3.266  0.4956 -0.5629  0.8181
 1769SOL     OW16765   1.153   1.162  11.019 -0.2023 -0.2219 -0.2903
 1769SOL    HW116766   1.215   1.197  10.956  0.3809 -2.0577 -0.7187
 1769SOL    HW216767   1.185   1.074  11.036 -1.3497 -0.5850  0.0218
 1770SOL     OW16768   0.986   3.537   2.611  0.2201 -0.2309 -0.5003
 1770SOL    HW116769   0.900   3.578   2.602  0.1802 -0.0616  0.6557
 1770SOL    HW216770   0.980   3.490   2.694 -2.7841  0.4932 -0.3072
 1771SOL     OW16771   0.173   3.795   5.509  0.5308  0.0385 -0.1935
 1771SOL    HW116772   0.202   3.885   5.525  0.2649  0.1009 -0.0728
 1771SOL    HW216773   0.253   3.747   5.531 -0.5640 -0.9412  1.5897
 1772SOL     OW16774   3.704   1.647   7.811  0.1227  0.1294  0.4290
 1772SOL    HW116775   3.766   1.597   7.758 -0.7419  1.2693 -1.6278
 1772SOL    HW216776   3.728   1.612   7.897  1.8585  2.8626  1.0604
 1773SOL     OW16777   0.919   2.893  14.057 -0.6800 -0.2332 -0.4341
 1773SOL    HW116778   0.901   2.799  14.058  1.5356 -0.6478 -2.0513
 1773SOL    HW216779   0.940   2.899  13.964 -3.1497 -1.6234 -1.1070
 1774SOL     OW16780   0.311   4.338   7.745  0.2796  0.3316  0.0114
 1774SOL    HW116781   0.341   4.342   7.654  0.9541  0.1458  0.2246
 1774SOL    HW216782   0.385   4.373   7.795 -1.5471  2.2499  1.3537
 1775SOL     OW16783   3.439   2.926   8.175  0.0511 -0.1432 -0.1986
 1775SOL    HW116784   3.353   2.964   8.156  1.0734  1.9641 -0.5469
 1775SOL    HW216785   3.492   2.978   8.116 -0.2612  1.1662  0.6906
 1776SOL     OW16786   4.693   0.542   3.699  0.3506  0.2610 -0.0279
 1776SOL    HW116787   0.043   0.531   3.767 -0.5016  3.1814  1.2998
 1776SOL    HW216788   4.702   0.459   3.652  0.0423 -0.8974  1.9312
 1777SOL     OW16789   1.130   0.916   6.352 -0.0977  0.1108  0.1823
 1777SOL    HW116790   1.117   0.821   6.348  0.6493 -0.0456  1.3400
 1777SOL    HW216791   1.158   0.934   6.263  0.4167 -2.4355 -0.1732
 1778SOL     OW16792   3.153   3.431  10.345  0.0504  0.0321 -0.2384
 1778SOL    HW116793   3.119   3.492  10.410  0.2439  0.2348 -0.3284
 1778SOL    HW216794   3.082   3.419  10.281  0.7283 -2.1997 -0.5965
 1779SOL     OW16795   2.583   2.392   6.065 -0.3238  0.1050 -0.3845
 1779SOL    HW116796   2.654   2.408   6.127 -1.0815  1.5012  0.1178
 1779SOL    HW216797   2.522   2.463   6.082 -2.0804 -1.0646 -1.8133
 1780SOL     OW16798   2.415   0.761  14.209 -0.2146  0.5453 -0.1635
 1780SOL    HW116799   2.385   0.672  14.192  0.3838  0.2685  0.2448
 1780SOL    HW216800   2.506   0.741  14.231 -0.5243 -0.6246  0.0177
 1781SOL     OW16801   1.515   1.753  12.359 -0.3793  0.1230  0.1039
 1781SOL    HW116802   1.429   1.762  12.399  0.5339 -2.7650  2.6931
 1781SOL    HW216803   1.539   1.845  12.370 -0.5923  0.1054  0.7455
 1782SOL     OW16804   2.272   2.483   8.805  0.3137  0.3331  0.0122
 1782SOL    HW116805   2.303   2.463   8.893 -1.6657 -1.7915  0.2326
 1782SOL    HW216806   2.278   2.579   8.803  1.4009  0.2741  0.8440
 1783SOL     OW16807   1.776   1.052  11.265 -0.2739  0.0024 -0.3854
 1783SOL    HW116808   1.853   1.108  11.251  0.0956 -0.5210 -0.4363
 1783SOL    HW216809   1.812   0.965  11.280 -1.1805 -0.3376 -0.1887
 1784SOL     OW16810   0.731   1.593   0.041  0.1861  0.2830 -0.3927
 1784SOL    HW116811   0.658   1.567  17.658 -0.2621 -1.1716  0.8713
 1784SOL    HW216812   0.769   1.666  17.665 -1.5315  0.1787 -1.8904
 1785SOL     OW16813   3.206   3.603  15.745  0.1685  0.5100  0.3723
 1785SOL    HW116814   3.160   3.535  15.697  2.2572  0.0307 -0.9676
 1785SOL    HW216815   3.226   3.554  15.824  1.5671  0.6672  0.1131
 1786SOL     OW16816   1.298   3.508   3.868  0.6443 -0.2779  0.3063
 1786SOL    HW116817   1.302   3.536   3.777 -2.3591 -0.1183  0.2491
 1786SOL    HW216818   1.391   3.523   3.885  0.2786  0.8952  1.2950
 1787SOL     OW16819   3.734   2.904   1.531 -0.5018 -0.5319 -0.5334
 1787SOL    HW116820   3.735   2.933   1.623 -0.4320  0.2104 -0.7664
 1787SOL    HW216821   3.806   2.960   1.502  0.0536 -1.8587 -1.6533
 1788SOL     OW16822   3.339   2.044   7.043  0.0589 -0.5586 -0.2514
 1788SOL    HW116823   3.425   2.033   7.083  0.4688  3.7160  0.0439
 1788SOL    HW216824   3.345   1.987   6.966 -1.3348 -0.6528 -0.2855
 1789SOL     OW16825   4.186   3.852   8.239 -0.1671  0.0263 -0.2946
 1789SOL    HW116826   4.236   3.772   8.226 -0.6408 -0.0559 -1.7091
 1789SOL    HW216827   4.222   3.892   8.159 -1.5474 -2.0023 -1.9468
 1790SOL     OW16828   4.599   1.930   4.489 -0.1419  0.2588  0.0276
 1790SOL    HW116829   4.621   1.954   4.579  0.7361  2.0126 -0.6573
 1790SOL    HW216830   4.623   2.005   4.434  0.6444 -0.1612 -0.2006
 1791SOL     OW16831   4.109   2.058   6.831 -0.1175  0.4537  0.0383
 1791SOL    HW116832   4.147   1.988   6.778 -1.4779 -1.8166  2.0785
 1791SOL    HW216833   4.043   2.015   6.884  0.3077 -1.1576 -0.7458
 1792SOL     OW16834   1.293   1.154   0.563  0.5503 -0.5320 -0.3402
 1792SOL    HW116835   1.346   1.215   0.512  1.3269 -0.3231  0.7170
 1792SOL    HW216836   1.218   1.145   0.503 -0.0955 -0.9585  0.5276
 1793SOL     OW16837   0.233   1.019   0.194 -0.1882  0.2287  0.0936
 1793SOL    HW116838   0.307   0.966   0.226 -0.4877  0.4130  1.0802
 1793SOL    HW216839   0.186   0.984   0.118  1.3840 -0.3553 -0.6164
 1794SOL     OW16840   1.714   4.593   4.051 -0.3032  0.1859  0.1038
 1794SOL    HW116841   1.778   4.656   4.083 -0.6707  0.6387 -0.0552
 1794SOL    HW216842   1.655   4.648   4.000  0.2190 -0.1155 -0.8311
 1795SOL     OW16843   2.910   2.195  15.413 -0.2876  0.1830 -0.1999
 1795SOL    HW116844   2.998   2.171  15.385  0.4583  1.8809  0.6815
 1795SOL    HW216845   2.918   2.219  15.505 -0.6508  0.4221 -0.2339
 1796SOL     OW16846   2.911   0.399   2.533 -0.2103  0.1649 -0.1730
 1796SOL    HW116847   2.887   0.429   2.621 -1.8849  0.4519 -0.7091
 1796SOL    HW216848   2.892   0.472   2.473  0.2407  0.4975  0.0935
 1797SOL     OW16849   0.435   2.778   9.246  0.3107 -0.3983 -0.9326
 1797SOL    HW116850   0.511   2.721   9.234 -0.1468 -1.0734 -0.5996
 1797SOL    HW216851   0.370   2.744   9.184  0.1672 -1.2004 -0.3482
 1798SOL     OW16852   0.036   4.406   7.518 -0.0354 -0.1813  0.1880
 1798SOL    HW116853   4.697   4.345   7.565  1.9542 -0.9524  1.6020
 1798SOL    HW216854   0.109   4.347   7.499  1.2215  1.9679 -1.6973
 1799SOL     OW16855   2.238   0.354   9.879  0.3048  0.3915  0.3905
 1799SOL    HW116856   2.160   0.406   9.895 -1.0550 -2.1417  1.9873
 1799SOL    HW216857   2.255   0.322   9.968 -1.3938 -0.8215  0.2712
 1800SOL     OW16858   2.022   3.078  13.203  0.0217  0.3504 -0.5495
 1800SOL    HW116859   2.114   3.065  13.224 -0.5750 -1.8654  0.7345
 1800SOL    HW216860   1.976   3.086  13.286  3.1261  1.8953  0.9982
 1801SOL     OW16861   2.538   2.897   7.788  1.0077 -0.4755  0.1217
 1801SOL    HW116862   2.572   2.921   7.702  0.3865 -0.2651 -0.0613
 1801SOL    HW216863   2.509   2.979   7.829 -0.2889 -1.8647  2.0007
 1802SOL     OW16864   0.108   3.889   3.612  0.2280  0.6741  0.4809
 1802SOL    HW116865   0.168   3.838   3.666  2.1348  1.1468 -1.2099
 1802SOL    HW216866   0.035   3.828   3.599  1.0041 -0.0074 -0.7020
 1803SOL     OW16867   2.640   1.576  12.443 -0.3043 -0.4492  0.5253
 1803SOL    HW116868   2.701   1.649  12.444  2.0466 -2.3725 -0.3514
 1803SOL    HW216869   2.558   1.611  12.477  0.9360  2.0525  0.9006
 1804SOL     OW16870   4.422   0.236   2.452 -0.0581 -0.3773 -0.5460
 1804SOL    HW116871   4.484   0.295   2.409  1.0302 -0.4298  0.9541
 1804SOL    HW216872   4.432   0.155   2.401 -0.1765 -0.6055 -0.2127
 1805SOL     OW16873   3.795   4.232  17.408 -0.0244  0.4405  0.3754
 1805SOL    HW116874   3.879   4.226  17.453 -0.0501 -2.2707  0.1106
 1805SOL    HW216875   3.773   4.320  17.435  0.2149  0.1545  1.4886
 1806SOL     OW16876   3.859   0.210  17.159 -0.0726  0.7149  0.3477
 1806SOL    HW116877   3.801   0.135  17.175  0.8910  0.8913  4.6597
 1806SOL    HW216878   3.943   0.183  17.197 -0.7638  2.2913  2.9554
 1807SOL     OW16879   1.766   2.804  10.561 -0.1493  0.0372 -0.4305
 1807SOL    HW116880   1.800   2.817  10.473 -0.5749 -0.5016 -0.6729
 1807SOL    HW216881   1.674   2.789  10.539  0.2707 -2.6704 -0.2365
 1808SOL     OW16882   1.047   0.063  16.082  0.3467 -0.1087  0.2880
 1808SOL    HW116883   0.974   0.092  16.026  1.7703 -0.4125 -1.7323
 1808SOL    HW216884   1.085   4.701  16.044 -0.8945 -0.7749  0.4325
 1809SOL     OW16885   1.879   3.272   2.482 -0.0263  0.7305 -0.6698
 1809SOL    HW116886   1.960   3.320   2.462  1.2264 -2.4472 -3.1234
 1809SOL    HW216887   1.812   3.339   2.468 -1.6793 -1.6340 -3.9458
 1810SOL     OW16888   2.479   4.661   5.485  0.8594  0.1189  0.3569
 1810SOL    HW116889   2.433   0.011   5.436 -1.3124 -0.9661  0.9022
 1810SOL    HW216890   2.568   4.685   5.462  0.4765  0.8460 -0.3239
 1811SOL     OW16891   2.480   2.576  14.256 -0.4074 -0.1805  0.4078
 1811SOL    HW116892   2.455   2.572  14.348 -1.2747  2.6462  0.2917
 1811SOL    HW216893   2.467   2.671  14.258  1.7233  0.0960  1.1933
 1812SOL     OW16894   3.590   0.710   2.812 -0.4627  0.2284  0.5185
 1812SOL    HW116895   3.599   0.625   2.768 -0.1001  0.0663  0.9048
 1812SOL    HW216896   3.504   0.701   2.854 -0.1557  1.2896  1.3782
 1813SOL     OW16897   3.922   2.695   2.776  0.1375 -0.4569 -0.7629
 1813SOL    HW116898   3.986   2.712   2.845 -2.0152  0.8062  0.8970
 1813SOL    HW216899   3.974   2.635   2.722 -0.2078 -0.8881 -0.6151
 1814SOL     OW16900   0.432   4.534   4.606  0.1037 -0.5102 -0.1246
 1814SOL    HW116901   0.466   4.477   4.537 -0.4633 -1.8717  0.7005
 1814SOL    HW216902   0.406   4.464   4.667 -2.2744  1.2954  0.9406
 1815SOL     OW16903   3.283   3.698   3.007 -0.1170  0.0819  0.2882
 1815SOL    HW116904   3.189   3.692   2.993 -0.2307  2.5374  0.1300
 1815SOL    HW216905   3.312   3.735   2.923 -0.3955  0.1598  0.2286
 1816SOL     OW16906   1.379   2.692  16.644  0.2855 -0.1120 -0.2492
 1816SOL    HW116907   1.304   2.640  16.672  0.1130 -0.2191 -0.9025
 1816SOL    HW216908   1.368   2.779  16.682 -0.3808 -0.2859 -0.0509
 1817SOL     OW16909   0.765   1.529  12.636  0.4073  0.0477 -0.4651
 1817SOL    HW116910   0.785   1.584  12.712 -2.7758 -0.2360  0.5559
 1817SOL    HW216911   0.811   1.583  12.571 -0.0147  0.8986 -0.0620
 1818SOL     OW16912   0.736   4.699   5.392 -0.0515  0.0258  0.5436
 1818SOL    HW116913   0.672   0.052   5.409 -0.1315  0.3060 -0.8872
 1818SOL    HW216914   0.682   4.632   5.434  1.1939  0.0556  2.1754
 1819SOL     OW16915   0.061   0.365  10.667 -0.2038 -0.3910 -0.3702
 1819SOL    HW116916   0.083   0.273  10.684  0.6285 -0.7248 -3.2234
 1819SOL    HW216917   0.082   0.376  10.575  0.3020 -2.1751 -0.4741
 1820SOL     OW16918   0.009   3.393   3.477  0.1693 -0.3443  0.2670
 1820SOL    HW116919   0.060   3.380   3.557  1.4339  0.7873 -0.3482
 1820SOL    HW216920   0.010   3.302   3.447  1.9510 -0.1359 -0.2921
 1821SOL     OW16921   3.920   3.723   3.217  0.3596  0.4623 -0.6046
 1821SOL    HW116922   4.009   3.717   3.251 -0.9674 -1.0996  2.6277
 1821SOL    HW216923   3.876   3.720   3.303 -2.2575  0.5877 -1.9231
 1822SOL     OW16924   1.602   3.475   4.246  0.4217  0.2875 -0.2303
 1822SOL    HW116925   1.679   3.434   4.286  0.5946  2.0717  1.2436
 1822SOL    HW216926   1.532   3.442   4.301  0.5361  0.5572  0.0734
 1823SOL     OW16927   3.221   3.111   8.183  0.2995 -0.1394  0.0158
 1823SOL    HW116928   3.150   3.168   8.153 -0.8836 -0.9192  1.3581
 1823SOL    HW216929   3.294   3.169   8.162  0.2835 -0.0202  0.2963
 1824SOL     OW16930   3.239   2.631   2.659  0.1148 -0.2905 -0.6024
 1824SOL    HW116931   3.311   2.626   2.721  0.2303  1.3226 -0.6174
 1824SOL    HW216932   3.161   2.635   2.714  0.9333 -0.8537  0.5773
 1825SOL     OW16933   4.392   1.337   4.471  0.7373 -0.1424 -0.6881
 1825SOL    HW116934   4.484   1.338   4.444  0.3209  0.5280 -2.0720
 1825SOL    HW216935   4.387   1.384   4.554  0.5368  1.6089 -1.7002
 1826SOL     OW16936   0.981   4.205   3.736 -0.4799 -0.5483 -0.2958
 1826SOL    HW116937   0.939   4.208   3.822 -0.5540 -1.1250 -0.3105
 1826SOL    HW216938   0.999   4.298   3.724 -2.6911  0.4139  4.1023
 1827SOL     OW16939   3.328   1.981  12.591  0.5101 -0.9216  0.3428
 1827SOL    HW116940   3.357   1.894  12.619  0.1903 -1.9024 -2.3366
 1827SOL    HW216941   3.404   1.994  12.534 -0.5771 -0.5971 -1.0351
 1828SOL     OW16942   3.871   1.753  13.110  0.2080 -0.0591 -0.1449
 1828SOL    HW116943   3.815   1.691  13.156 -2.5900  1.7955 -1.0490
 1828SOL    HW216944   3.960   1.717  13.115  0.3108  0.0279 -1.1869
 1829SOL     OW16945   2.390   1.547   3.156  0.2118 -0.2805  0.0922
 1829SOL    HW116946   2.409   1.473   3.099  1.1544 -0.0786  0.1482
 1829SOL    HW216947   2.296   1.532   3.169 -0.0449  1.4837  0.2916
 1830SOL     OW16948   0.702   3.952   2.277 -0.0446  0.1764  0.5988
 1830SOL    HW116949   0.656   4.034   2.293  3.0927  1.9806  0.1585
 1830SOL    HW216950   0.636   3.884   2.261 -0.0760 -0.5741  3.8036
 1831SOL     OW16951   3.664   3.018   7.128 -0.1209 -0.7305  0.5490
 1831SOL    HW116952   3.681   3.048   7.039 -1.2794 -1.4370  0.0860
 1831SOL    HW216953   3.741   2.963   7.137  1.8667  1.4554 -3.3783
 1832SOL     OW16954   0.238   2.056  14.630 -0.2803  0.0242  0.2509
 1832SOL    HW116955   0.260   2.057  14.537 -1.4663 -0.0692 -0.0347
 1832SOL    HW216956   0.268   2.142  14.659 -0.3551  0.0828  0.1546
 1833SOL     OW16957   0.617   0.223   7.309  0.1509 -0.0959  0.6900
 1833SOL    HW116958   0.699   0.205   7.262  0.2286  0.9341  0.4314
 1833SOL    HW216959   0.583   0.134   7.320  0.7694 -0.5949 -1.3982
 1834SOL     OW16960   3.290   0.737  13.722  0.4696  0.8911  0.1046
 1834SOL    HW116961   3.352   0.809  13.715  1.8373 -0.0590  2.4865
 1834SOL    HW216962   3.209   0.779  13.750  0.3687 -0.7738  2.3013
 1835SOL     OW16963   1.923   3.686  12.377  0.2961 -0.0085 -0.1392
 1835SOL    HW116964   1.954   3.596  12.375 -1.8692 -0.7562  0.0135
 1835SOL    HW216965   2.003   3.738  12.366 -0.5002  1.4161  0.7952
 1836SOL     OW16966   1.300   0.846   6.553 -0.1231  0.0499 -0.3784
 1836SOL    HW116967   1.311   0.763   6.506 -0.2787 -0.2568  0.1284
 1836SOL    HW216968   1.226   0.883   6.505  0.3218 -1.3334 -2.1352
 1837SOL     OW16969   2.796   0.740   6.930 -0.7625 -0.0946 -0.0141
 1837SOL    HW116970   2.815   0.824   6.972  0.3043  0.6702 -2.0502
 1837SOL    HW216971   2.708   0.743   6.893 -1.4236  2.8494  1.8267
 1838SOL     OW16972   1.159   3.757  16.302  0.0893 -0.7503  0.2109
 1838SOL    HW116973   1.188   3.673  16.337  0.7397 -0.3628  0.6119
 1838SOL    HW216974   1.233   3.782  16.247 -0.0302  0.4971  0.6131
 1839SOL     OW16975   3.357   3.417   3.382 -0.1643 -0.6919 -0.1036
 1839SOL    HW116976   3.276   3.463   3.401 -1.3044 -2.1755 -1.3867
 1839SOL    HW216977   3.403   3.479   3.325 -1.8838  2.1448  1.6053
 1840SOL     OW16978   2.710   1.588   7.449  0.1396 -0.1214 -0.3572
 1840SOL    HW116979   2.671   1.632   7.374 -1.8527 -0.8393  0.2392
 1840SOL    HW216980   2.644   1.523   7.472 -1.8208  1.9230 -0.1775
 1841SOL     OW16981   1.980   2.852   8.270 -0.0527 -0.2060 -0.2313
 1841SOL    HW116982   1.911   2.803   8.226  0.0636  0.3068 -0.9786
 1841SOL    HW216983   1.973   2.809   8.355  0.0444  0.4159  0.0905
 1842SOL     OW16984   3.475   1.184  16.664  0.0099  0.5856  0.7435
 1842SOL    HW116985   3.438   1.096  16.656  0.9508  0.0717  2.0797
 1842SOL    HW216986   3.550   1.178  16.605  0.6197 -0.7993  1.6766
 1843SOL     OW16987   0.467   0.589   5.426  0.8128  0.3126  0.5701
 1843SOL    HW116988   0.470   0.563   5.334 -0.6224 -2.5683  1.3384
 1843SOL    HW216989   0.432   0.513   5.472  0.8213  0.4086  0.7340
 1844SOL     OW16990   0.473   0.703   6.042 -0.1306 -0.4422  0.2830
 1844SOL    HW116991   0.428   0.783   6.071  1.2896  0.0328  1.1821
 1844SOL    HW216992   0.483   0.710   5.947 -1.1840  1.1632  0.2828
 1845SOL     OW16993   3.406   4.579   9.906 -0.5586  0.7574  0.4335
 1845SOL    HW116994   3.420   4.671   9.884 -4.1114  0.9271 -1.3185
 1845SOL    HW216995   3.423   4.579  10.000  1.4571  0.2712  0.0630
 1846SOL     OW16996   4.133   2.943  17.102 -0.6837  0.1053 -0.1355
 1846SOL    HW116997   4.192   2.931  17.176 -0.3254 -0.4525 -0.5130
 1846SOL    HW216998   4.199   2.940  17.033  0.1047 -1.3048  0.6995
 1847SOL     OW16999   1.101   0.885   0.235 -0.4235  0.3865 -0.0942
 1847SOL    HW117000   1.009   0.859   0.240 -0.3219 -0.1289 -0.8768
 1847SOL    HW217001   1.107   0.966   0.285 -3.7904  1.5745 -1.6231
 1848SOL     OW17002   0.502   2.352  13.867 -0.4363 -0.3482 -0.2726
 1848SOL    HW117003   0.470   2.439  13.893 -1.5243 -0.7904 -0.1641
 1848SOL    HW217004   0.424   2.298  13.880 -0.6101  0.1240  0.6545
 1849SOL     OW17005   2.777   0.814   2.501 -0.3705  0.6943  0.2954
 1849SOL    HW117006   2.861   0.860   2.495 -0.4716  0.6042 -1.9532
 1849SOL    HW217007   2.745   0.872   2.570  1.8869 -1.8280  3.4431
 1850SOL     OW17008   4.477   3.270   7.774  0.1060  0.0423 -0.2430
 1850SOL    HW117009   4.418   3.195   7.762  0.3203 -0.0568 -0.6748
 1850SOL    HW217010   4.501   3.272   7.866 -2.7438 -0.4589  0.5145
 1851SOL     OW17011   1.785   0.863   2.120  0.6899 -0.4406 -0.2989
 1851SOL    HW117012   1.778   0.773   2.086  2.3832 -1.1107  1.1250
 1851SOL    HW217013   1.873   0.861   2.158  1.3468 -0.9883 -1.8052
 1852SOL     OW17014   0.115   0.283   0.906 -0.0186  0.3265 -0.0428
 1852SOL    HW117015   0.202   0.319   0.888  0.0048  0.0403 -0.5001
 1852SOL    HW217016   0.054   0.314   0.839  0.9750  2.3324 -0.0035
 1853SOL     OW17017   2.283   2.765   4.143  0.5407  0.2029 -0.1394
 1853SOL    HW117018   2.250   2.704   4.078  4.5710 -1.8146 -0.2881
 1853SOL    HW217019   2.208   2.825   4.141 -0.3870 -0.9969 -1.5959
 1854SOL     OW17020   4.421   0.337   6.032  0.2049 -0.4178  0.6264
 1854SOL    HW117021   4.436   0.243   6.039 -0.5250 -0.4861  1.2066
 1854SOL    HW217022   4.344   0.344   5.975  0.6635 -0.3581  0.0057
 1855SOL     OW17023   3.505   2.196   9.115 -0.1260  0.3285  0.4011
 1855SOL    HW117024   3.496   2.223   9.206 -2.6014 -1.7182  0.7560
 1855SOL    HW217025   3.428   2.142   9.100 -0.6184  1.1607 -0.0777
 1856SOL     OW17026   3.799   4.003   8.710  0.1843  0.7165  0.1085
 1856SOL    HW117027   3.740   3.928   8.699  1.6377 -0.8294  2.7282
 1856SOL    HW217028   3.875   3.946   8.722  0.2615  0.6232 -0.8305
 1857SOL     OW17029   3.345   1.282   1.071 -0.4895  0.1930  0.7220
 1857SOL    HW117030   3.439   1.287   1.053 -0.6385  1.4076  0.2461
 1857SOL    HW217031   3.320   1.221   1.001 -1.8950 -0.1954  1.5760
 1858SOL     OW17032   4.170   1.805   3.665  0.3756  0.4809 -0.5785
 1858SOL    HW117033   4.135   1.728   3.620  0.0558  0.5764 -0.4922
 1858SOL    HW217034   4.194   1.772   3.752 -0.1952 -0.2474 -0.6961
 1859SOL     OW17035   4.539   0.361   1.254  0.1910  0.1024 -0.5775
 1859SOL    HW117036   4.449   0.364   1.224  0.3043  0.4171 -0.8772
 1859SOL    HW217037   4.585   0.410   1.186  0.4821 -0.6476 -0.9245
 1860SOL     OW17038   3.032   4.196   7.728 -0.0990  0.1691  0.5201
 1860SOL    HW117039   2.961   4.243   7.684 -0.1704 -1.1173 -0.7443
 1860SOL    HW217040   3.051   4.125   7.667 -1.2018 -0.0035  0.3611
 1861SOL     OW17041   0.129   1.834   6.947  0.0917 -0.3752 -0.2989
 1861SOL    HW117042   0.175   1.799   6.870 -1.7975 -1.2075 -1.0476
 1861SOL    HW217043   0.043   1.795   6.934 -0.0584 -0.2828  0.4109
 1862SOL     OW17044   1.235   4.505   4.332  0.3720  0.3678 -0.3393
 1862SOL    HW117045   1.252   4.565   4.405  1.8277 -0.1309 -0.2580
 1862SOL    HW217046   1.141   4.495   4.347  0.3972 -0.6963 -0.9169
 1863SOL     OW17047   2.190   2.275   8.662 -0.0767  0.2133  0.2320
 1863SOL    HW117048   2.265   2.215   8.665 -1.1916 -1.1806  0.0027
 1863SOL    HW217049   2.218   2.348   8.718  1.6734 -0.5568  0.3710
 1864SOL     OW17050   3.649   0.984  12.511 -0.5831 -0.0972 -0.3346
 1864SOL    HW117051   3.731   0.961  12.467 -1.0328  2.9474 -2.7629
 1864SOL    HW217052   3.586   0.949  12.447 -2.3737  2.8107 -0.1313
 1865SOL     OW17053   0.941   2.175   3.790  0.0499  0.1846  0.0046
 1865SOL    HW117054   0.924   2.089   3.829  0.7240 -0.6421 -1.5382
 1865SOL    HW217055   0.865   2.175   3.732 -0.7648 -1.0187  1.0660
 1866SOL     OW17056   4.609   3.692   4.745 -0.5838 -0.4140 -0.3342
 1866SOL    HW117057   4.633   3.651   4.829 -0.6053 -1.6628 -0.9435
 1866SOL    HW217058   4.681   3.754   4.732 -1.2558 -0.1061 -2.4640
 1867SOL     OW17059   2.020   1.511   8.778  0.7519 -0.3630 -0.3071
 1867SOL    HW117060   1.972   1.589   8.805  0.8218 -0.2102 -0.6185
 1867SOL    HW217061   1.970   1.441   8.820  1.4586 -1.3392 -1.0899
 1868SOL     OW17062   3.265   4.717   0.080 -0.5821 -0.0424 -0.0317
 1868SOL    HW117063   3.262   0.029   0.171 -1.2909 -0.2152 -0.0011
 1868SOL    HW217064   3.216   0.071   0.041 -0.2709 -0.6127 -1.4682
 1869SOL     OW17065   4.016   3.113   8.483  0.7080 -0.0962 -0.0210
 1869SOL    HW117066   4.038   3.124   8.390 -2.5176  1.4531 -0.5859
 1869SOL    HW217067   3.952   3.045   8.464  0.2693 -0.1524  1.6448
 1870SOL     OW17068   0.641   0.186   4.796  0.3630  0.3726  0.3170
 1870SOL    HW117069   0.644   0.119   4.728  0.8676 -1.5191  2.1763
 1870SOL    HW217070   0.566   0.238   4.770 -0.7348 -0.6162  1.4961
 1871SOL     OW17071   2.014   2.875   7.434 -0.6536 -0.0460 -0.2960
 1871SOL    HW117072   2.046   2.866   7.344 -0.2297 -0.1043 -0.1360
 1871SOL    HW217073   2.100   2.873   7.475 -0.3272 -1.4209 -1.0582
 1872SOL     OW17074   4.496   4.314   8.420  0.0285 -0.3348 -0.0957
 1872SOL    HW117075   4.460   4.357   8.343 -0.7662  2.4533  1.8332
 1872SOL    HW217076   4.579   4.281   8.387 -0.8869 -1.9920 -0.7849
 1873SOL     OW17077   3.941   1.921   4.362 -0.5129 -0.3954  0.7139
 1873SOL    HW117078   3.934   1.831   4.331  0.7263 -0.0934 -0.4423
 1873SOL    HW217079   4.029   1.934   4.397 -0.5740  0.0817  0.6938
 1874SOL     OW17080   3.554   2.556   1.967  0.1392 -0.3466 -0.0994
 1874SOL    HW117081   3.462   2.531   1.974  0.2713  0.0422  2.8900
 1874SOL    HW217082   3.603   2.475   1.979  2.1019  0.7644 -0.7062
 1875SOL     OW17083   0.291   0.494   7.723 -0.2308  0.1204 -0.3921
 1875SOL    HW117084   0.196   0.490   7.734 -0.1312 -0.6004  0.2601
 1875SOL    HW217085   0.310   0.411   7.767 -1.2219  0.9142  1.5359
 1876SOL     OW17086   2.235   0.970  11.594  0.2934  0.4192  0.7203
 1876SOL    HW117087   2.279   1.019  11.524  1.8074 -1.9335  0.0609
 1876SOL    HW217088   2.172   1.031  11.633 -0.5414 -1.3736  2.1506
 1877SOL     OW17089   1.572   0.499   6.538  0.7047 -0.8201  0.0491
 1877SOL    HW117090   1.540   0.556   6.468 -0.0541 -0.8652  0.3600
 1877SOL    HW217091   1.620   0.561   6.592 -1.3358 -0.2827  1.2256
 1878SOL     OW17092   1.323   1.832   5.630  0.5606 -0.2383 -0.4742
 1878SOL    HW117093   1.400   1.815   5.575 -0.0206 -1.3293 -0.9423
 1878SOL    HW217094   1.269   1.882   5.570 -0.3084 -0.3708  0.2065
 1879SOL     OW17095   2.262   1.073   1.623 -0.2236 -0.2069  0.7395
 1879SOL    HW117096   2.330   1.131   1.588 -0.1573  0.1218  1.4189
 1879SOL    HW217097   2.280   0.991   1.576  0.0888  0.3662 -0.1396
 1880SOL     OW17098   1.921   2.603   2.629  0.0019 -0.1034  0.0392
 1880SOL    HW117099   1.842   2.584   2.679 -0.0509  0.8709  0.3243
 1880SOL    HW217100   1.923   2.537   2.560  2.4088  0.6148 -0.5890
 1881SOL     OW17101   2.448   4.077   4.464 -0.4190  1.3822  0.0228
 1881SOL    HW117102   2.474   4.068   4.373  0.1704 -0.3953  0.3581
 1881SOL    HW217103   2.354   4.097   4.460 -1.2483 -2.2220  1.7223
 1882SOL     OW17104   2.564   4.106  15.103  0.0540  0.0550  0.1080
 1882SOL    HW117105   2.641   4.139  15.150  0.7054  0.6827 -1.3912
 1882SOL    HW217106   2.598   4.065  15.023  0.6016  0.1721  0.2794
 1883SOL     OW17107   0.951   2.804   7.278 -0.1558  0.3594 -0.5235
 1883SOL    HW117108   0.952   2.719   7.233 -1.3758  0.1631 -0.1575
 1883SOL    HW217109   0.863   2.822   7.246 -0.9027 -3.3079 -0.5036
 1884SOL     OW17110   0.902   1.585   7.862 -0.0819 -0.3151  0.3213
 1884SOL    HW117111   0.812   1.570   7.890  0.0823  1.0281  1.5917
 1884SOL    HW217112   0.904   1.615   7.772  1.2644 -0.6207  0.2401
 1885SOL     OW17113   2.500   1.874   6.178  0.0413 -0.1736  0.6021
 1885SOL    HW117114   2.540   1.954   6.143  0.9130 -0.3752  1.1336
 1885SOL    HW217115   2.568   1.832   6.230 -0.0517  1.7444  2.2657
 1886SOL     OW17116   2.793   1.519   9.216  0.1100 -0.3662 -0.3380
 1886SOL    HW117117   2.869   1.562   9.177  0.9349 -1.1212  0.4047
 1886SOL    HW217118   2.814   1.518   9.310 -0.1025 -1.0274 -0.2972
 1887SOL     OW17119   4.509   0.498  11.908 -0.3510 -0.2480  0.4919
 1887SOL    HW117120   4.521   0.538  11.822 -0.9708 -0.9040  0.0883
 1887SOL    HW217121   4.456   0.565  11.951 -0.0653  0.0210  0.4200
 1888SOL     OW17122   1.668   2.464   3.042 -0.3431 -0.3868 -0.0181
 1888SOL    HW117123   1.619   2.492   3.119 -0.7460 -1.2000  0.0322
 1888SOL    HW217124   1.736   2.406   3.076  0.2179  0.4371  0.2489
 1889SOL     OW17125   2.532   4.150   9.334 -0.0484  0.0091 -0.3563
 1889SOL    HW117126   2.536   4.094   9.256 -2.3585  1.6195 -1.6413
 1889SOL    HW217127   2.579   4.220   9.290 -0.1126  0.0170 -0.4130
 1890SOL     OW17128   4.239   2.944   6.619  0.5926  0.6034  0.5966
 1890SOL    HW117129   4.161   2.964   6.567 -0.0935 -2.1718  0.5182
 1890SOL    HW217130   4.296   3.010   6.581  0.4063  0.3481 -0.1343
 1891SOL     OW17131   1.557   4.303   6.300  0.3124  0.4055  0.6023
 1891SOL    HW117132   1.558   4.391   6.264 -0.0806  0.7693  1.5031
 1891SOL    HW217133   1.642   4.302   6.345 -0.1549  1.3166  1.5021
 1892SOL     OW17134   2.322   3.522   1.510 -0.4197  0.0262 -0.2909
 1892SOL    HW117135   2.326   3.595   1.573 -1.3662  1.7246 -2.1977
 1892SOL    HW217136   2.250   3.470   1.547  0.0365 -0.9904 -0.8503
 1893SOL     OW17137   1.583   0.548   5.395  0.2463  0.2599  0.2166
 1893SOL    HW117138   1.581   0.461   5.354 -0.8524  1.4895 -2.3253
 1893SOL    HW217139   1.663   0.589   5.364  0.4800 -0.0849  0.3608
 1894SOL     OW17140   3.988   2.073   6.526  0.0274  1.2405 -0.0893
 1894SOL    HW117141   3.966   2.139   6.591  0.6885  1.0046  0.3821
 1894SOL    HW217142   4.008   2.123   6.447 -0.4136  0.9038 -0.4125
 1895SOL     OW17143   1.009   3.283   1.536  0.0916  0.1708 -0.6132
 1895SOL    HW117144   0.962   3.332   1.604  0.2590 -0.8041  0.1972
 1895SOL    HW217145   0.973   3.196   1.551 -0.3165  0.3410 -0.6041
 1896SOL     OW17146   3.363   4.650   4.072 -0.2163 -0.2422 -0.0357
 1896SOL    HW117147   3.437   4.591   4.070 -0.5602 -0.8076  3.3018
 1896SOL    HW217148   3.301   4.610   4.010 -0.3273 -3.1969  2.0325
 1897SOL     OW17149   0.986   1.608   8.127 -0.1975 -0.0840 -0.0448
 1897SOL    HW117150   1.001   1.616   8.033  0.0408 -0.2471 -0.0203
 1897SOL    HW217151   0.910   1.551   8.122  1.4490 -2.1491 -1.5703
 1898SOL     OW17152   3.242   2.494   9.314  0.1301 -0.3450 -0.0529
 1898SOL    HW117153   3.162   2.546   9.303 -0.5369 -1.4885 -0.5545
 1898SOL    HW217154   3.299   2.534   9.248 -0.2405  1.3687  0.6584
 1899SOL     OW17155   3.118   0.195   2.151 -0.4174  0.0032  0.1220
 1899SOL    HW117156   3.069   0.148   2.218  0.2650  0.7807  1.1535
 1899SOL    HW217157   3.046   0.222   2.095 -0.1723  2.6444  1.1009
 1900SOL     OW17158   0.614   1.951   1.521  0.0631 -0.0602  0.1435
 1900SOL    HW117159   0.607   1.897   1.600  1.4822 -1.7415 -0.8572
 1900SOL    HW217160   0.679   2.019   1.540 -0.8040  1.0418 -0.8062
 1901SOL     OW17161   3.082   2.958  12.139 -0.1090  0.3562 -0.4275
 1901SOL    HW117162   3.175   2.972  12.121 -0.0851  0.1736 -0.4423
 1901SOL    HW217163   3.068   2.869  12.108  0.4962  1.0872 -2.7701
 1902SOL     OW17164   1.501   3.014   9.242  0.2931  0.2898  0.2930
 1902SOL    HW117165   1.481   2.921   9.235 -2.9552  0.9069  1.7167
 1902SOL    HW217166   1.590   3.014   9.205 -0.2185 -2.5043 -0.9800
 1903SOL     OW17167   4.404   0.220  17.569 -0.0417  0.1266  0.0000
 1903SOL    HW117168   4.339   0.287  17.546 -1.5664 -0.5558  2.2292
 1903SOL    HW217169   4.468   0.269  17.620 -2.3525  1.4987  1.5803
 1904SOL     OW17170   2.307   4.670   8.730 -0.6118 -0.1501  0.7981
 1904SOL    HW117171   2.329   4.654   8.822  1.1232 -0.0456  0.4106
 1904SOL    HW217172   2.247   0.026   8.739  0.1352  0.9082 -2.7564
 1905SOL     OW17173   2.338   2.267   0.040 -0.3098  0.5064 -0.1508
 1905SOL    HW117174   2.299   2.309   0.117 -1.2081 -0.6828  0.0562
 1905SOL    HW217175   2.370   2.187   0.080 -0.4296  1.4841  1.9062
 1906SOL     OW17176   1.151   2.257   8.466  0.5028 -0.2155  0.6217
 1906SOL    HW117177   1.240   2.226   8.453  0.1825 -0.6392 -0.5864
 1906SOL    HW217178   1.089   2.197   8.424  0.0575  0.4408  0.3411
 1907SOL     OW17179   1.559   3.730   4.751  0.0027  0.1227 -0.0416
 1907SOL    HW117180   1.473   3.690   4.740  0.5612 -1.8648  2.7483
 1907SOL    HW217181   1.571   3.790   4.678 -0.8043 -2.4161 -2.2736
 1908SOL     OW17182   3.845   2.108   3.299  0.5018  0.3191  0.1096
 1908SOL    HW117183   3.922   2.152   3.264  0.8191 -2.8726 -3.1832
 1908SOL    HW217184   3.773   2.172   3.295  0.6551  0.4802 -0.0676
 1909SOL     OW17185   0.569   0.424   7.989  0.4150  0.4338 -0.1234
 1909SOL    HW117186   0.523   0.504   8.016  1.7268  1.5077 -1.0492
 1909SOL    HW217187   0.491   0.370   7.980  1.1247 -0.4114 -1.2774
 1910SOL     OW17188   0.959   2.874   7.569 -0.8738 -0.7963  0.3286
 1910SOL    HW117189   1.003   2.867   7.484  0.8370 -0.8203  1.2103
 1910SOL    HW217190   0.882   2.926   7.548  1.1122  0.9927 -2.6058
 1911SOL     OW17191   0.790   0.517   0.660  0.0006 -0.0860  0.2105
 1911SOL    HW117192   0.737   0.542   0.736 -0.8665  1.6454 -0.9549
 1911SOL    HW217193   0.868   0.485   0.706 -0.8216 -0.6772  1.2025
 1912SOL     OW17194   4.238   2.355  15.467 -0.1454  0.3037 -0.0946
 1912SOL    HW117195   4.228   2.280  15.407  1.3738  0.3302 -0.3679
 1912SOL    HW217196   4.270   2.307  15.543  1.1851  2.4444  0.6795
 1913SOL     OW17197   2.738   0.224   8.926  0.9210  0.0161 -0.0424
 1913SOL    HW117198   2.802   0.253   8.991  0.0440  0.1125  0.7737
 1913SOL    HW217199   2.670   0.291   8.923  1.2605  0.2799 -2.2990
 1914SOL     OW17200   3.454   4.067   2.504  0.4116  0.5250 -0.1059
 1914SOL    HW117201   3.486   4.132   2.442  0.3895  0.7174  0.0817
 1914SOL    HW217202   3.520   3.999   2.494 -1.9897 -1.5379 -1.8539
 1915SOL     OW17203   0.694   0.719  13.357  0.2271  0.1000  0.1337
 1915SOL    HW117204   0.790   0.719  13.363  0.2487  0.9632 -0.2898
 1915SOL    HW217205   0.687   0.736  13.263 -1.4390 -0.0347  0.2298
 1916SOL     OW17206   4.191   2.689   7.096  0.4261 -0.2542  0.0200
 1916SOL    HW117207   4.217   2.780   7.112 -1.1620  0.4545 -1.4149
 1916SOL    HW217208   4.186   2.698   7.001 -1.3075 -0.0364  0.1340
 1917SOL     OW17209   1.080   3.758   6.587 -0.0453 -0.5328 -0.2000
 1917SOL    HW117210   1.064   3.669   6.557 -2.3972  0.3922 -1.6918
 1917SOL    HW217211   0.990   3.790   6.590  0.5958  1.3174 -0.7175
 1918SOL     OW17212   2.828   4.387   7.286  0.4770 -0.1058 -0.2676
 1918SOL    HW117213   2.878   4.329   7.229  0.0570  2.2718 -3.0766
 1918SOL    HW217214   2.790   4.440   7.216  0.2265 -0.9922 -0.7924
 1919SOL     OW17215   2.125   0.718   4.520 -0.0756  0.1794  0.4346
 1919SOL    HW117216   2.038   0.680   4.515  0.6295 -1.7560  2.8442
 1919SOL    HW217217   2.109   0.796   4.466 -0.9492 -0.5393 -0.3380
 1920SOL     OW17218   0.413   1.860   7.114 -0.3200 -1.2739  0.2609
 1920SOL    HW117219   0.458   1.819   7.040 -1.9519 -0.3767 -1.2337
 1920SOL    HW217220   0.323   1.850   7.083  0.1618  1.2677 -1.9988
 1921SOL     OW17221   2.090   4.713   6.960  0.2132 -0.0378  0.4894
 1921SOL    HW117222   1.998   4.691   6.943  0.9251 -2.0979 -0.7744
 1921SOL    HW217223   2.076   0.064   7.025 -0.9777  0.0024  0.1862
 1922SOL     OW17224   0.793   4.186   3.532 -0.3854 -0.7422  0.2242
 1922SOL    HW117225   0.850   4.150   3.464 -0.8995 -0.7365 -0.2038
 1922SOL    HW217226   0.850   4.182   3.609 -0.4427 -0.8536  0.2608
 1923SOL     OW17227   1.766   2.707   4.956  0.1864 -0.0053  0.0412
 1923SOL    HW117228   1.778   2.738   4.866  0.1601  0.3834  0.1699
 1923SOL    HW217229   1.852   2.720   4.996  1.0375 -0.4634 -1.6320
 1924SOL     OW17230   4.563   1.600   5.457  0.1893  0.1868  0.0143
 1924SOL    HW117231   4.656   1.593   5.440  0.1603  1.0119 -0.4849
 1924SOL    HW217232   4.552   1.539   5.530  1.3548  0.4967  0.4404
 1925SOL     OW17233   0.046   0.142   5.774 -0.7851  0.2854 -0.4207
 1925SOL    HW117234   0.057   0.060   5.727  0.4233  0.2765 -0.1203
 1925SOL    HW217235   4.676   0.166   5.744 -1.2509 -1.2085 -0.2302
 1926SOL     OW17236   1.542   4.384   0.555 -0.1373  0.1603  0.2150
 1926SOL    HW117237   1.525   4.291   0.543  1.8229 -0.1413 -0.2735
 1926SOL    HW217238   1.608   4.384   0.624  0.3358  0.0333 -0.2310
 1927SOL     OW17239   3.230   4.228   1.706  0.5240 -0.4992 -0.2521
 1927SOL    HW117240   3.172   4.186   1.642  0.3903  0.4253 -0.7412
 1927SOL    HW217241   3.303   4.168   1.719  1.8340  0.9877 -0.7729
 1928SOL     OW17242   2.112   1.325   2.266 -0.5009 -0.0009 -0.3815
 1928SOL    HW117243   2.092   1.268   2.191  0.2914 -1.1404  0.2788
 1928SOL    HW217244   2.203   1.303   2.283 -1.0240 -1.2499  0.8026
 1929SOL     OW17245   3.356   2.116   8.500  0.8093 -0.4590 -0.0633
 1929SOL    HW117246   3.277   2.169   8.515  0.9146 -1.5016  4.1305
 1929SOL    HW217247   3.340   2.066   8.420  0.0539  2.7171 -1.9139
 1930SOL     OW17248   4.396   0.931   5.817 -1.4116 -0.0667 -0.7395
 1930SOL    HW117249   4.468   0.894   5.868 -0.2359  0.2614 -2.1479
 1930SOL    HW217250   4.347   0.850   5.805  1.8827 -2.4359  1.7415
 1931SOL     OW17251   4.386   4.409  14.122 -0.1108  0.6129  0.1024
 1931SOL    HW117252   4.461   4.361  14.089  0.5965  1.9140 -0.1971
 1931SOL    HW217253   4.322   4.389  14.054 -1.7539 -1.8718  2.3941
 1932SOL     OW17254   0.544   0.688   2.434  0.0921  0.4006 -0.1061
 1932SOL    HW117255   0.627   0.649   2.460 -0.4938 -1.1749 -0.5838
 1932SOL    HW217256   0.509   0.723   2.516 -1.0256  0.2629 -0.5211
 1933SOL     OW17257   1.537   0.637   9.990 -0.1929 -0.2148  0.1431
 1933SOL    HW117258   1.472   0.691  10.034  0.5242 -0.8248  1.9211
 1933SOL    HW217259   1.495   0.642   9.904 -0.0265  1.5070  0.1516
 1934SOL     OW17260   1.671   3.214  12.919 -0.1422  0.1818  0.1617
 1934SOL    HW117261   1.662   3.177  13.007 -0.6309 -1.0966 -0.4267
 1934SOL    HW217262   1.583   3.250  12.914 -0.8606 -1.1400  2.9252
 1935SOL     OW17263   0.361   4.440   8.023 -0.2342 -0.8487  0.0403
 1935SOL    HW117264   0.442   4.448   7.973  1.2574 -0.8702  2.4492
 1935SOL    HW217265   0.383   4.504   8.091 -1.0616 -0.5276  0.0115
 1936SOL     OW17266   3.678   2.350   1.704 -0.0922 -0.0514 -0.2463
 1936SOL    HW117267   3.614   2.404   1.657 -0.5990  0.4720  1.0655
 1936SOL    HW217268   3.636   2.281   1.755  1.2918 -0.6350  0.0984
 1937SOL     OW17269   3.710   1.294   3.315  0.3796 -0.0033 -0.0768
 1937SOL    HW117270   3.758   1.369   3.281  1.1200  1.3559  4.0423
 1937SOL    HW217271   3.672   1.255   3.236 -0.4377  0.9874 -0.1564
 1938SOL     OW17272   2.047   1.114   4.173 -0.2189  0.0888 -0.3853
 1938SOL    HW117273   2.051   1.207   4.195  1.0796 -0.1058  0.2066
 1938SOL    HW217274   1.973   1.124   4.113  0.5674  2.0242 -1.0485
 1939SOL     OW17275   0.294   3.024   3.838  0.5804  0.0329 -0.2225
 1939SOL    HW117276   0.313   2.943   3.885  2.1468  1.2670  1.2769
 1939SOL    HW217277   0.213   3.047   3.883  0.4402 -0.2970 -0.3027
 1940SOL     OW17278   2.018   2.064  17.282  0.3434  0.3230  0.1594
 1940SOL    HW117279   2.028   2.099  17.194  0.0919  1.6245  0.6473
 1940SOL    HW217280   1.952   1.995  17.272 -0.6141  1.7205 -3.0141
 1941SOL     OW17281   3.326   1.197   4.081 -0.5593 -0.6605 -0.4036
 1941SOL    HW117282   3.332   1.169   4.173 -0.8528  0.8051  0.0739
 1941SOL    HW217283   3.420   1.202   4.066 -0.5387 -0.4719 -0.2177
 1942SOL     OW17284   1.973   3.430   6.502 -0.0322 -0.3582 -0.1139
 1942SOL    HW117285   1.995   3.478   6.421 -0.7202  0.7714  0.3692
 1942SOL    HW217286   2.013   3.490   6.565  0.8177  0.6267 -1.5562
 1943SOL     OW17287   0.247   4.111   6.942  0.1156 -0.1008 -0.1414
 1943SOL    HW117288   0.169   4.056   6.944  0.1210 -0.1447 -1.9065
 1943SOL    HW217289   0.282   4.085   6.857 -1.0635 -2.2476  0.0416
 1944SOL     OW17290   3.331   0.972   4.336  0.7715  0.3109  0.1467
 1944SOL    HW117291   3.307   0.892   4.288 -2.0690  1.2518  0.0335
 1944SOL    HW217292   3.385   0.940   4.409 -2.1740 -0.3883  2.0019
 1945SOL     OW17293   2.242   2.897   3.379  0.0935 -0.1761  0.2687
 1945SOL    HW117294   2.274   2.976   3.422 -1.5690  0.4480  0.3501
 1945SOL    HW217295   2.288   2.896   3.296  1.3314 -1.8214  0.9847
 1946SOL     OW17296   3.615   3.326   4.868 -0.0204 -0.4420  0.1089
 1946SOL    HW117297   3.626   3.419   4.886 -0.0693 -0.6227  1.0638
 1946SOL    HW217298   3.558   3.305   4.941  0.3273  0.3939  0.6144
 1947SOL     OW17299   2.323   2.197   7.819 -0.5266 -0.1598  0.5356
 1947SOL    HW117300   2.291   2.255   7.750  0.1852 -0.3531  0.0554
 1947SOL    HW217301   2.414   2.191   7.793  0.0390  0.2545  2.4042
 1948SOL     OW17302   1.376   2.186   6.765  0.0255  0.4589 -0.4080
 1948SOL    HW117303   1.443   2.153   6.705 -1.1224 -1.5050 -0.6231
 1948SOL    HW217304   1.414   2.169   6.851  1.3059  1.2161 -0.8141
 1949SOL     OW17305   1.388   3.970   5.235 -0.1720 -0.0244 -0.0540
 1949SOL    HW117306   1.423   3.908   5.299  1.7777  1.3858  0.2614
 1949SOL    HW217307   1.299   3.938   5.223 -0.2872  0.1814  0.2579
 1950SOL     OW17308   2.415   1.300   8.281  0.4274  0.1830  0.1245
 1950SOL    HW117309   2.377   1.381   8.314 -1.6048 -0.3234 -0.9727
 1950SOL    HW217310   2.467   1.264   8.353 -1.9991  0.1274  1.8889
 1951SOL     OW17311   3.737   3.538   4.245 -0.1032  0.7885  0.3098
 1951SOL    HW117312   3.826   3.573   4.240  0.0857  0.6341  2.7224
 1951SOL    HW217313   3.680   3.615   4.246 -0.7767  0.2858  1.9223
 1952SOL     OW17314   1.406   2.033   0.967 -0.2430 -0.2061 -0.0974
 1952SOL    HW117315   1.328   2.083   0.945 -0.1021  0.4838  0.9773
 1952SOL    HW217316   1.474   2.082   0.920 -1.2207  0.0079 -1.2985
 1953SOL     OW17317   1.505   1.427   7.285  0.1473  0.4331  0.1742
 1953SOL    HW117318   1.454   1.364   7.337 -1.0979  1.4219  0.1320
 1953SOL    HW217319   1.463   1.433   7.199 -3.9764 -2.6567  1.9335
 1954SOL     OW17320   1.334   4.162   0.758 -0.1319  0.4693  0.0296
 1954SOL    HW117321   1.281   4.236   0.729 -0.2880  0.4394  0.2393
 1954SOL    HW217322   1.386   4.156   0.678  0.6784 -3.2730  0.8294
 1955SOL     OW17323   2.946   2.000   1.037  0.2722  0.2410  0.5846
 1955SOL    HW117324   2.990   1.927   1.080  0.0402 -1.4944 -2.1819
 1955SOL    HW217325   3.017   2.062   1.023 -0.7478  2.1204  3.4634
 1956SOL     OW17326   1.997   3.230   6.164  0.9180 -0.2201  0.1432
 1956SOL    HW117327   1.913   3.275   6.177  0.6985 -1.2139  2.0739
 1956SOL    HW217328   2.047   3.287   6.105 -0.1394  1.1542  0.5762
 1957SOL     OW17329   0.228   3.104   7.779 -0.0361  0.4123  0.8492
 1957SOL    HW117330   0.311   3.057   7.775  0.3179  1.0366  0.8204
 1957SOL    HW217331   0.226   3.139   7.690  0.9599 -3.0216 -0.5124
 1958SOL     OW17332   4.590   1.225   7.644  0.0886  0.5637 -0.0588
 1958SOL    HW117333   4.672   1.180   7.622  0.0504  0.4839 -0.0372
 1958SOL    HW217334   4.625   1.313   7.661  0.5550  0.2032  0.8883
 1959SOL     OW17335   3.477   1.378   1.314 -0.4305 -0.1949 -0.2489
 1959SOL    HW117336   3.417   1.319   1.268 -1.8537 -0.4741  1.9702
 1959SOL    HW217337   3.417   1.435   1.362  2.4315  3.7283 -1.3650
 1960SOL     OW17338   3.952   1.095   0.099  0.3980 -0.2691  0.0569
 1960SOL    HW117339   3.874   1.072   0.049  0.6039  1.9161 -1.2436
 1960SOL    HW217340   3.938   1.189   0.113  2.6415  0.0251  0.3376
 1961SOL     OW17341   1.791   0.721  15.851  0.9894 -0.0793  0.8812
 1961SOL    HW117342   1.750   0.634  15.852  0.5795  0.1090  0.6746
 1961SOL    HW217343   1.765   0.759  15.936 -1.1824  0.7484 -0.1410
 1962SOL     OW17344   1.098   4.143   8.109  0.1038  0.1956 -0.2254
 1962SOL    HW117345   1.096   4.068   8.170 -0.4703 -1.6178 -2.4846
 1962SOL    HW217346   1.032   4.103   8.053  0.4291  0.7643 -1.0075
 1963SOL     OW17347   4.689   3.978  11.329  0.5516  0.3997 -0.2955
 1963SOL    HW117348   4.641   4.016  11.256 -0.8613 -0.6056  0.1101
 1963SOL    HW217349   4.659   3.889  11.311  2.1783 -0.7957  2.8336
 1964SOL     OW17350   0.329   3.277   9.329 -0.7545  0.4432 -0.0499
 1964SOL    HW117351   0.369   3.194   9.303  1.1725  0.8938  1.4975
 1964SOL    HW217352   0.407   3.328   9.351  0.3627 -1.1292 -0.3731
 1965SOL     OW17353   3.632   4.356  11.537  0.3154 -0.5432  0.2518
 1965SOL    HW117354   3.620   4.450  11.523  1.7546 -0.2813  0.7883
 1965SOL    HW217355   3.564   4.319  11.481  1.3082 -1.8095 -0.1216
 1966SOL     OW17356   0.155   4.032   8.153  0.0639 -0.2499 -0.1015
 1966SOL    HW117357   0.106   3.954   8.129  0.5894 -0.6324  0.0706
 1966SOL    HW217358   0.237   4.009   8.109 -0.0694 -1.4240  0.2848
 1967SOL     OW17359   4.648   2.040   2.463  0.0623 -0.1509 -0.0310
 1967SOL    HW117360   4.597   1.960   2.476 -1.3945  0.5714 -1.4266
 1967SOL    HW217361   4.674   2.054   2.554  0.7917 -0.0981 -0.2477
 1968SOL     OW17362   3.240   4.229   0.635  0.2607 -0.0023 -0.4531
 1968SOL    HW117363   3.296   4.301   0.665 -1.3993  1.0635  0.0813
 1968SOL    HW217364   3.255   4.164   0.704  2.2062  0.8169 -0.0944
 1969SOL     OW17365   3.761   1.466   2.589 -0.2957  0.0069  0.3419
 1969SOL    HW117366   3.846   1.507   2.603 -0.7347  0.4623  1.7036
 1969SOL    HW217367   3.780   1.372   2.583 -0.3483  0.1608 -2.3039
 1970SOL     OW17368   4.610   4.575   3.900  0.0654  0.7121  0.4662
 1970SOL    HW117369   4.648   4.509   3.958 -1.1075 -0.6562 -0.3224
 1970SOL    HW217370   4.540   4.610   3.955 -1.0279  0.4914 -0.7857
 1971SOL     OW17371   0.044   3.516  11.501 -0.4759 -0.2740  0.5474
 1971SOL    HW117372   4.675   3.517  11.462  0.2171  2.3096 -0.9155
 1971SOL    HW217373   0.060   3.422  11.513  0.0607 -0.1548  0.8063
 1972SOL     OW17374   2.498   2.866  14.306 -0.3631 -0.4723 -0.5735
 1972SOL    HW117375   2.434   2.924  14.265  0.1631  1.5453  1.4785
 1972SOL    HW217376   2.512   2.891  14.397  0.7061  0.1165 -0.8961
 1973SOL     OW17377   3.113   4.425   2.554  0.3535  0.1144  0.5359
 1973SOL    HW117378   3.127   4.455   2.464 -1.4426 -1.7948 -0.4084
 1973SOL    HW217379   3.201   4.414   2.588  0.6323 -0.0382 -0.2199
 1974SOL     OW17380   1.150   0.449   7.570  0.2665 -0.0471 -0.4570
 1974SOL    HW117381   1.117   0.474   7.484  0.2191 -2.2761 -1.0670
 1974SOL    HW217382   1.148   0.541   7.598  1.3485  0.1656 -1.0694
 1975SOL     OW17383   4.294   1.539   0.576 -0.2407  0.0650 -0.1130
 1975SOL    HW117384   4.271   1.603   0.643 -0.5000 -1.1873  0.9994
 1975SOL    HW217385   4.375   1.508   0.617 -0.1191  2.0230  1.0961
 1976SOL     OW17386   1.632   2.474   0.773  0.1124 -0.4224  0.0201
 1976SOL    HW117387   1.589   2.541   0.825 -0.9413 -0.2548 -1.0638
 1976SOL    HW217388   1.722   2.504   0.763 -0.4308  0.7374 -1.3344
 1977SOL     OW17389   4.040   4.424  17.013 -0.2547  0.3106 -0.1077
 1977SOL    HW117390   3.999   4.344  17.045 -0.8756  0.3247 -0.8702
 1977SOL    HW217391   4.126   4.427  17.056 -0.5544  0.3040  0.4878
 1978SOL     OW17392   0.363   1.335   5.427  0.5569  0.6383 -0.2942
 1978SOL    HW117393   0.312   1.338   5.346 -0.8169  1.3325  0.6016
 1978SOL    HW217394   0.344   1.247   5.458  0.5453 -0.1501 -2.5496
 1979SOL     OW17395   4.150   0.936  17.301  0.4251  0.5815  0.0259
 1979SOL    HW117396   4.142   0.978  17.387  0.6575  0.5524  0.0613
 1979SOL    HW217397   4.154   0.846  17.334  0.6926  0.3291 -0.7022
 1980SOL     OW17398   2.986   1.704   4.863  0.1040 -0.1478  0.0506
 1980SOL    HW117399   2.909   1.669   4.816  0.1212  1.3891 -1.1160
 1980SOL    HW217400   2.987   1.640   4.934  0.8204  0.4132  0.5432
 1981SOL     OW17401   0.346   1.356   6.583 -0.0698  0.0004  0.4747
 1981SOL    HW117402   0.340   1.303   6.504  1.2209 -1.6164  1.4788
 1981SOL    HW217403   0.323   1.439   6.541 -1.4379  0.3951  1.9580
 1982SOL     OW17404   0.907   1.028   0.541 -0.6620 -0.1544 -0.6527
 1982SOL    HW117405   0.936   0.948   0.585 -1.5013 -0.3906 -0.5290
 1982SOL    HW217406   0.856   1.066   0.613  0.1392 -1.2854  0.5032
 1983SOL     OW17407   4.557   0.700   2.067 -0.2219  0.3932 -0.0875
 1983SOL    HW117408   4.649   0.678   2.079 -0.7693 -1.7149  0.1163
 1983SOL    HW217409   4.571   0.711   1.973 -0.9587  4.1851  0.2364
 1984SOL     OW17410   2.418   4.461   1.599 -0.4475  1.0041  0.4897
 1984SOL    HW117411   2.467   4.401   1.543 -1.2266 -1.7175  2.6875
 1984SOL    HW217412   2.449   4.437   1.686 -3.0322  1.1309  1.4723
 1985SOL     OW17413   1.023   1.979   9.524  0.3555  0.3421  0.1602
 1985SOL    HW117414   1.090   1.965   9.591 -0.8007  1.6498  1.5683
 1985SOL    HW217415   0.941   1.949   9.562  0.1380 -0.3023 -0.8056
 1986SOL     OW17416   4.664   2.499   3.624  0.5177 -0.0479 -0.3029
 1986SOL    HW117417   4.660   2.515   3.529 -3.2583 -1.0634 -0.3238
 1986SOL    HW217418   4.626   2.411   3.630  1.2001 -0.3382 -0.2292
 1987SOL     OW17419   3.448   1.038   0.691  0.3935  0.3109  0.0987
 1987SOL    HW117420   3.515   1.103   0.713 -0.3341  0.5970  1.4939
 1987SOL    HW217421   3.470   1.044   0.598  0.6552  1.9628  0.2654
 1988SOL     OW17422   1.302   4.683  16.943  0.2261 -0.0015 -0.1096
 1988SOL    HW117423   1.265   0.030  17.004  1.1262  1.1703 -0.7808
 1988SOL    HW217424   1.229   4.623  16.931  0.5670 -0.5227  0.4167
 1989SOL     OW17425   2.461   2.455   5.682 -0.2586 -0.6825  0.2351
 1989SOL    HW117426   2.494   2.383   5.735  1.7371  0.8063  1.0386
 1989SOL    HW217427   2.404   2.419   5.614  1.4654  1.8827 -2.5839
 1990SOL     OW17428   4.481   2.894   3.103 -0.1470 -0.4027  0.6667
 1990SOL    HW117429   4.576   2.901   3.111 -0.3055 -0.0427  2.3904
 1990SOL    HW217430   4.459   2.973   3.054  1.1251  0.3744  1.3279
 1991SOL     OW17431   4.273   3.280   3.187  0.3673  0.0307  0.0471
 1991SOL    HW117432   4.258   3.373   3.202  1.6017  0.1834  0.2591
 1991SOL    HW217433   4.333   3.258   3.258  0.3498 -2.3536 -0.6687
 1992SOL     OW17434   1.519   1.883   4.531  0.5524 -0.2805 -0.6420
 1992SOL    HW117435   1.529   1.958   4.589  1.1989  0.1078 -1.2506
 1992SOL    HW217436   1.539   1.928   4.449  0.8879  1.1214  0.2241
 1993SOL     OW17437   2.975   3.557   5.976  0.3015  0.2855  0.7044
 1993SOL    HW117438   3.025   3.485   6.012 -1.0079  0.5406  3.0325
 1993SOL    HW217439   3.035   3.632   5.978  0.2078  0.3862 -0.0125
 1994SOL     OW17440   4.464   4.427  16.098  0.5060 -0.1608  0.0740
 1994SOL    HW117441   4.394   4.411  16.161 -0.1736  0.0064 -0.6304
 1994SOL    HW217442   4.441   4.378  16.020  1.8733 -0.0056 -0.4296
 1995SOL     OW17443   4.578   1.509   0.628  0.0051  0.7673 -0.0058
 1995SOL    HW117444   4.599   1.518   0.535  1.7363  0.0766  0.3085
 1995SOL    HW217445   4.666   1.526   0.662 -0.9853 -2.1712  3.9738
 1996SOL     OW17446   0.767   3.491   5.736  0.0424  0.3901  0.3465
 1996SOL    HW117447   0.780   3.569   5.682  0.2860  0.6552  0.7887
 1996SOL    HW217448   0.843   3.434   5.727 -1.3793 -1.9562  3.4485
 1997SOL     OW17449   1.082   3.329   7.551  0.3916 -0.0566 -0.3660
 1997SOL    HW117450   1.163   3.354   7.596 -0.1641  1.4960 -0.2454
 1997SOL    HW217451   1.015   3.323   7.618  0.0153  1.3381 -0.6185
 1998SOL     OW17452   2.279   4.360   4.807  0.2488 -0.1968 -0.4563
 1998SOL    HW117453   2.329   4.368   4.726 -0.4373 -2.3085 -1.0769
 1998SOL    HW217454   2.302   4.440   4.855  2.4812 -0.7978 -0.5346
 1999SOL     OW17455   0.747   3.433  17.343  0.2441  0.5644 -0.4003
 1999SOL    HW117456   0.729   3.420  17.250 -0.9014 -0.6211 -0.0155
 1999SOL    HW217457   0.662   3.452  17.383  0.8853  1.8740  0.3652
 2000SOL     OW17458   4.240   2.735   7.957 -0.2940  0.4963 -0.7531
 2000SOL    HW117459   4.284   2.685   7.888 -1.1509 -0.1049 -0.8660
 2000SOL    HW217460   4.229   2.663   8.019  0.3184  0.0695 -1.1459
 2001SOL     OW17461   3.707   1.029   1.000  0.2959  0.5693 -0.0555
 2001SOL    HW117462   3.800   1.025   0.978  0.7616 -1.0335  2.2023
 2001SOL    HW217463   3.673   0.944   0.970  1.9907  0.5188 -1.8888
 2002SOL     OW17464   1.553   4.516   1.596  0.0192  0.2507  0.1553
 2002SOL    HW117465   1.585   4.426   1.596 -1.4000 -0.2622  3.1047
 2002SOL    HW217466   1.619   4.559   1.650 -0.2529  2.0194 -0.8929
 2003SOL     OW17467   3.413   4.417   2.575 -0.4944  0.5583 -0.3478
 2003SOL    HW117468   3.402   4.512   2.583 -1.6755  0.2753  1.3033
 2003SOL    HW217469   3.478   4.419   2.505 -0.5912 -0.0627 -0.4548
 2004SOL     OW17470   3.284   1.734   3.361  0.0985 -0.5329 -0.1456
 2004SOL    HW117471   3.368   1.777   3.347  0.6052 -0.8883  1.8675
 2004SOL    HW217472   3.254   1.772   3.443  0.6017 -0.3028 -0.0694
 2005SOL     OW17473   3.770   2.066   4.508 -0.0727  0.4654 -0.4268
 2005SOL    HW117474   3.828   2.016   4.451  2.1977  1.1492  1.2154
 2005SOL    HW217475   3.806   2.152   4.487 -0.0509  0.5993  0.1394
 2006SOL     OW17476   4.290   3.422  17.412 -0.4385  0.1013  0.4127
 2006SOL    HW117477   4.272   3.358  17.343  0.0656  0.9279 -0.4767
 2006SOL    HW217478   4.383   3.405  17.422 -0.6265 -1.2192 -0.0814
 2007SOL     OW17479   4.429   4.633   8.812 -0.3763 -0.8582  0.0567
 2007SOL    HW117480   4.411   0.008   8.828  3.6950 -0.1053  0.2132
 2007SOL    HW217481   4.346   4.599   8.844  0.0827  0.3612  2.5188
 2008SOL     OW17482   1.590   2.101   4.788 -0.0719 -0.3755 -0.0541
 2008SOL    HW117483   1.553   2.044   4.855 -3.2560  0.4812 -1.0688
 2008SOL    HW217484   1.667   2.133   4.834  0.1500 -0.3162 -0.4628
 2009SOL     OW17485   3.122   2.394   5.377  0.2434 -0.9737 -0.2500
 2009SOL    HW117486   3.199   2.365   5.328 -0.1215 -0.6043 -1.0406
 2009SOL    HW217487   3.097   2.313   5.422 -0.9362  0.8158  2.3402
 2010SOL     OW17488   0.273   3.825   4.998  0.1156  0.2698 -0.4339
 2010SOL    HW117489   0.188   3.839   5.040  1.4936 -0.4079  2.6182
 2010SOL    HW217490   0.340   3.818   5.067  0.3126 -0.3724 -0.6871
 2011SOL     OW17491   4.705   1.897  12.108 -0.1073 -0.4749  0.3222
 2011SOL    HW117492   4.623   1.905  12.060  0.1982  0.1821 -0.0982
 2011SOL    HW217493   0.022   1.976  12.065 -1.1178 -1.5449 -2.4272
 2012SOL     OW17494   0.393   3.756  11.654  0.0746  0.0816  0.5170
 2012SOL    HW117495   0.436   3.677  11.688 -0.7731  0.5172  2.6098
 2012SOL    HW217496   0.309   3.725  11.687 -0.5102  0.3884 -0.6785
 2013SOL     OW17497   1.309   0.023  17.297 -0.0093 -1.0379  0.1103
 2013SOL    HW117498   1.283   0.072  17.219  1.1837  1.0858  1.0464
 2013SOL    HW217499   1.227   0.008  17.344 -0.1528 -0.0533  0.1715
 2014SOL     OW17500   4.300   1.623   5.475 -0.3191  0.1330 -0.4044
 2014SOL    HW117501   4.269   1.695   5.530  0.0236  0.7011 -0.9656
 2014SOL    HW217502   4.390   1.646   5.456  0.3100 -0.7550  1.4538
 2015SOL     OW17503   0.055   3.577   3.843 -0.5049  0.1305 -0.1106
 2015SOL    HW117504   4.680   3.553   3.837 -0.5573  0.5982 -1.1727
 2015SOL    HW217505   0.084   3.535   3.924 -1.1265  1.6286  0.8877
 2016SOL     OW17506   0.144   1.256   6.747  0.5088 -0.3676  0.3938
 2016SOL    HW117507   0.079   1.224   6.684  0.9459 -0.2403 -0.1185
 2016SOL    HW217508   0.204   1.295   6.684  0.9976  0.2719  1.2678
 2017SOL     OW17509   0.552   2.464   2.504 -0.2976  0.1210 -0.1949
 2017SOL    HW117510   0.639   2.488   2.473  0.4912 -2.0240  0.3768
 2017SOL    HW217511   0.486   2.498   2.443 -0.4965  1.5320  0.8154
 2018SOL     OW17512   4.160   2.187  10.199  0.6070  0.3288 -0.3730
 2018SOL    HW117513   4.208   2.270  10.201  0.1507  0.5650  0.5439
 2018SOL    HW217514   4.205   2.128  10.258 -1.0800 -2.7397 -2.1691
 2019SOL     OW17515   0.675   3.396  14.736  0.1870  0.1509 -0.3889
 2019SOL    HW117516   0.706   3.484  14.711 -1.8550  0.7604 -0.7357
 2019SOL    HW217517   0.729   3.343  14.676  0.2856  2.2895 -2.2046
 2020SOL     OW17518   2.699   2.100   6.930  0.3147 -0.3307 -0.3984
 2020SOL    HW117519   2.705   2.053   7.013 -3.8266  0.0208  0.0871
 2020SOL    HW217520   2.789   2.087   6.900  1.2126  1.1131  1.6974
 2021SOL     OW17521   2.609   2.281   2.891  0.0078  0.3382 -0.4085
 2021SOL    HW117522   2.579   2.323   2.810  0.8184 -0.2935 -1.0304
 2021SOL    HW217523   2.529   2.235   2.918  0.7341  0.1818  1.4930
 2022SOL     OW17524   3.149   4.209  12.110 -0.2914 -0.1677  0.6106
 2022SOL    HW117525   3.088   4.243  12.045  0.1989  0.4975  0.4999
 2022SOL    HW217526   3.235   4.211  12.066 -0.6121  2.0490  0.0999
 2023SOL     OW17527   3.781   2.603  13.356  0.6005 -0.1818  0.1931
 2023SOL    HW117528   3.840   2.528  13.347  1.5853  0.9278 -2.5637
 2023SOL    HW217529   3.709   2.559  13.400 -0.5790  2.8290  1.2909
 2024SOL     OW17530   1.003   4.286   8.430 -0.1325  0.3540 -0.2210
 2024SOL    HW117531   0.993   4.239   8.347 -0.5914  0.3665 -0.1747
 2024SOL    HW217532   0.930   4.347   8.420 -1.2719 -0.4740  3.3763
 2025SOL     OW17533   0.176   2.819   8.397  0.2931 -0.1642  0.7100
 2025SOL    HW117534   0.192   2.729   8.426 -0.6901 -0.3276  0.7533
 2025SOL    HW217535   0.082   2.823   8.379  0.1284 -0.9066  1.4259
 2026SOL     OW17536   4.046   0.594  11.542  0.1238  0.3627 -0.1688
 2026SOL    HW117537   4.107   0.571  11.472 -0.1615  0.2393 -0.3778
 2026SOL    HW217538   3.975   0.625  11.485  0.8317  0.9911 -0.7114
 2027SOL     OW17539   2.315   0.307   1.996  0.3794 -0.2254 -0.5180
 2027SOL    HW117540   2.303   0.386   1.943  1.0177  0.9616  1.1130
 2027SOL    HW217541   2.273   0.331   2.078 -1.6335 -1.8617 -1.0751
 2028SOL     OW17542   3.914   1.947   7.272  0.2327 -0.2722 -0.0104
 2028SOL    HW117543   3.882   1.982   7.355 -1.7601  1.7309 -1.6402
 2028SOL    HW217544   3.963   1.871   7.305 -0.5567 -1.3897 -1.4255
 2029SOL     OW17545   4.473   4.689   6.852  0.3528 -0.1109 -0.2112
 2029SOL    HW117546   4.413   4.662   6.782 -0.7256  0.2046  0.5991
 2029SOL    HW217547   4.413   0.005   6.919  1.2721  0.8656  0.1215
 2030SOL     OW17548   1.956   1.227  14.624  0.2925  0.1765 -0.6500
 2030SOL    HW117549   2.027   1.249  14.563  0.3767 -0.5290 -0.7964
 2030SOL    HW217550   1.891   1.179  14.573  1.4403 -1.4173 -0.6018
 2031SOL     OW17551   1.338   1.739   9.448  0.4610  0.6800 -0.1452
 2031SOL    HW117552   1.343   1.649   9.415 -1.4334  0.8081 -0.7420
 2031SOL    HW217553   1.431   1.750   9.470  0.4826 -0.9772  0.6018
 2032SOL     OW17554   0.129   1.582   1.243 -0.0910  0.3811  0.5797
 2032SOL    HW117555   0.067   1.523   1.201  2.6761  0.3463 -3.4108
 2032SOL    HW217556   0.186   1.521   1.290  0.1125 -1.2386 -1.7996
 2033SOL     OW17557   1.161   0.978   0.722 -0.1973  0.9121  0.6022
 2033SOL    HW117558   1.237   0.992   0.665  0.0689 -0.0792  0.6972
 2033SOL    HW217559   1.141   0.888   0.694  1.0307  1.1151 -0.9668
 2034SOL     OW17560   1.808   4.666   8.344  0.6957 -0.4027 -0.4853
 2034SOL    HW117561   1.868   4.611   8.294  0.9842 -2.2685  1.8937
 2034SOL    HW217562   1.745   4.595   8.357 -1.6106  1.5326 -1.0414
 2035SOL     OW17563   1.675   3.070  13.136 -0.4130 -0.1440  0.1712
 2035SOL    HW117564   1.700   2.977  13.141 -2.3300 -0.6107  1.0831
 2035SOL    HW217565   1.617   3.076  13.212 -1.2481 -0.7282 -0.4181
 2036SOL     OW17566   3.489   3.212   5.572 -0.1076  0.0358 -0.1978
 2036SOL    HW117567   3.482   3.138   5.512  2.5372  1.7206 -2.5832
 2036SOL    HW217568   3.452   3.284   5.520  0.8009 -1.4745 -2.9605
 2037SOL     OW17569   1.910   0.514   5.642 -0.2812 -0.0518 -0.2656
 2037SOL    HW117570   1.986   0.538   5.695 -1.0947 -0.4141  1.0747
 2037SOL    HW217571   1.957   0.497   5.561  0.9118 -0.9744  0.6320
 2038SOL     OW17572   1.087   1.950   5.459 -0.1616 -0.5385 -0.1036
 2038SOL    HW117573   1.036   1.869   5.459  0.6850 -1.0810 -4.3766
 2038SOL    HW217574   1.025   2.014   5.495  0.2801 -0.8233  1.1595
 2039SOL     OW17575   4.685   4.691   1.091 -0.1750  0.1311 -0.3815
 2039SOL    HW117576   4.664   4.713   1.000 -0.5735 -2.3370 -0.8891
 2039SOL    HW217577   0.002   4.602   1.080 -0.0905  0.0602  0.4808
 2040SOL     OW17578   3.753   1.936   3.669 -0.0292 -0.3251 -0.0218
 2040SOL    HW117579   3.785   1.867   3.727  0.3561 -0.4252 -0.3512
 2040SOL    HW217580   3.690   1.963   3.736  0.6129  2.1815 -0.4409
 2041SOL     OW17581   4.548   3.434  11.364  0.7091 -0.1947  0.1805
 2041SOL    HW117582   4.503   3.490  11.300  1.1789  0.4390  0.4043
 2041SOL    HW217583   4.538   3.349  11.323 -2.2153  1.1642 -2.0030
 2042SOL     OW17584   3.466   4.395   0.749  0.4221  0.0280  0.5162
 2042SOL    HW117585   3.517   4.458   0.698  2.4105  0.4246  2.9844
 2042SOL    HW217586   3.528   4.330   0.781  0.8965  0.5258  0.6179
 2043SOL     OW17587   4.525   1.304  12.012  0.1934 -0.3079 -0.7658
 2043SOL    HW117588   4.509   1.325  12.104 -1.3447 -0.7469 -0.9290
 2043SOL    HW217589   4.621   1.308  12.008  0.3295 -2.3570  0.2816
 2044SOL     OW17590   3.067   1.018  11.639 -0.4448  0.5954 -0.1146
 2044SOL    HW117591   3.073   1.113  11.650  1.2119  0.3278  1.4430
 2044SOL    HW217592   2.987   1.001  11.689  0.3467  0.9443  1.2941
 2045SOL     OW17593   4.252   0.603   1.034 -0.0817 -0.3109  0.2426
 2045SOL    HW117594   4.334   0.577   0.992  1.2066  1.3424  1.7401
 2045SOL    HW217595   4.243   0.521   1.084  1.8375 -0.7053 -0.0503
 2046SOL     OW17596   3.485   3.166   5.997  0.3880  0.4647  0.1717
 2046SOL    HW117597   3.430   3.097   6.034  1.6286  0.6775  2.4197
 2046SOL    HW217598   3.558   3.150   6.057  1.1982  1.6805 -0.4838
 2047SOL     OW17599   4.601   2.301   2.294  0.5747  0.4645 -0.3487
 2047SOL    HW117600   4.654   2.379   2.309 -0.8194  1.1423  1.1434
 2047SOL    HW217601   4.668   2.234   2.279 -0.4609 -0.8371  0.7779
 2048SOL     OW17602   0.997   3.038   2.986 -0.4577 -0.2291 -0.1620
 2048SOL    HW117603   0.927   2.978   3.010 -2.0379  1.3511 -0.8557
 2048SOL    HW217604   1.059   2.967   2.970  0.8560  1.1304 -1.0994
 2049SOL     OW17605   3.400   0.110   6.055 -0.2155  0.1713 -0.2426
 2049SOL    HW117606   3.362   0.030   6.091 -0.5002 -0.1274 -1.2098
 2049SOL    HW217607   3.357   0.177   6.107  0.2816  1.1207 -1.0542
 2050SOL     OW17608   1.825   0.220   5.896  0.3208 -0.1544  0.7606
 2050SOL    HW117609   1.866   0.240   5.980 -1.1265 -1.3738  1.7651
 2050SOL    HW217610   1.839   0.125   5.887 -1.1315 -0.3135  0.1786
 2051SOL     OW17611   0.067   0.003   4.121 -0.7038  0.0721  0.0939
 2051SOL    HW117612   0.096   4.630   4.108 -0.2156  0.2664 -0.1750
 2051SOL    HW217613   4.713   4.710   4.184  0.7620  1.2922  1.9597
 2052SOL     OW17614   3.630   3.561   4.599 -0.6078 -0.0070  0.3039
 2052SOL    HW117615   3.724   3.551   4.611 -0.2150  2.7151 -0.4986
 2052SOL    HW217616   3.629   3.591   4.508  0.6818  1.3782  0.7486
 2053SOL     OW17617   1.628   4.115   7.463  0.2858 -0.2480  0.1288
 2053SOL    HW117618   1.672   4.031   7.454  0.4952 -0.1784  0.4694
 2053SOL    HW217619   1.617   4.148   7.374 -1.5407 -3.4765 -0.8153
 2054SOL     OW17620   2.313   2.519   5.061  0.2239  0.2764 -0.9187
 2054SOL    HW117621   2.264   2.459   5.004  0.4704  0.7430 -1.6239
 2054SOL    HW217622   2.402   2.487   5.047  0.3527 -0.5880  1.8073
 2055SOL     OW17623   3.261   3.385   3.658 -0.2143 -0.0231 -0.4979
 2055SOL    HW117624   3.263   3.478   3.634 -2.2481  0.1210 -0.1124
 2055SOL    HW217625   3.346   3.376   3.699 -0.7879  0.7352  0.8768
 2056SOL     OW17626   4.310   4.618   8.510 -0.0069 -0.7380 -0.3184
 2056SOL    HW117627   4.256   4.674   8.565 -1.7430 -3.1547  0.4011
 2056SOL    HW217628   4.291   4.529   8.537 -1.7152 -0.3383 -0.2284
 2057SOL     OW17629   4.406   2.213   3.420  0.8397  0.0012 -0.2806
 2057SOL    HW117630   4.366   2.291   3.380  0.6508  0.5886  1.0686
 2057SOL    HW217631   4.442   2.171   3.342 -0.6824  1.2133 -1.6584
 2058SOL     OW17632   2.275   2.488  11.148  0.6270 -0.4151 -0.1047
 2058SOL    HW117633   2.262   2.394  11.140  0.6216 -0.2642 -1.9518
 2058SOL    HW217634   2.268   2.502  11.242  0.2189  0.6091 -0.2844
 2059SOL     OW17635   3.039   3.199  17.015  0.4863 -0.1954  0.0801
 2059SOL    HW117636   3.005   3.187  16.926  2.1246  0.2805 -0.6145
 2059SOL    HW217637   3.010   3.289  17.023 -0.7994 -0.7627  1.7080
 2060SOL     OW17638   1.691   0.491   2.483  0.2863  0.2782  0.4921
 2060SOL    HW117639   1.758   0.424   2.465  0.1509  0.6991 -1.5394
 2060SOL    HW217640   1.737   0.574   2.471 -1.4788  0.8837 -2.1302
 2061SOL     OW17641   4.633   1.858  14.636 -0.3381 -0.4930  0.2388
 2061SOL    HW117642   4.547   1.818  14.629 -0.3800  0.0546 -2.3868
 2061SOL    HW217643   4.667   1.868  14.547  1.5805 -0.1253  1.0191
 2062SOL     OW17644   0.867   2.028   3.144  0.1657 -0.1495 -0.1333
 2062SOL    HW117645   0.961   2.040   3.136 -0.0652  1.7356 -0.1305
 2062SOL    HW217646   0.842   2.033   3.052  1.9698  0.4583 -0.5822
 2063SOL     OW17647   0.273   0.503   6.179 -0.4164  0.0810 -0.6301
 2063SOL    HW117648   0.337   0.574   6.174 -0.0094 -0.3015 -0.8170
 2063SOL    HW217649   0.309   0.443   6.113 -0.1561  0.3746 -0.7584
 2064SOL     OW17650   1.520   1.273  10.249 -0.1514  0.4307 -0.0496
 2064SOL    HW117651   1.538   1.222  10.328  1.7356  0.4532 -0.4701
 2064SOL    HW217652   1.482   1.352  10.288  0.5605  0.5769  0.3480
 2065SOL     OW17653   2.152   3.148   8.707  0.1753 -0.2067  0.8747
 2065SOL    HW117654   2.183   3.059   8.693  1.4877  0.2593  0.7818
 2065SOL    HW217655   2.233   3.193   8.733  0.2991 -0.6065  1.1742
 2066SOL     OW17656   1.814   0.979   9.182  0.6856 -0.4191  0.5852
 2066SOL    HW117657   1.729   0.949   9.215  1.8019 -4.4135 -0.1219
 2066SOL    HW217658   1.836   1.052   9.240  0.1682 -0.6334  1.0445
 2067SOL     OW17659   0.038   1.900  14.411 -0.2687 -0.1444 -0.6785
 2067SOL    HW117660   0.104   1.843  14.371  0.7319  0.5587 -0.0226
 2067SOL    HW217661   0.089   1.978  14.434  0.1891 -0.1019 -1.8145
 2068SOL     OW17662   2.634   2.379   7.988 -0.2197  0.0919  0.4834
 2068SOL    HW117663   2.597   2.450   8.041 -1.6665 -1.1970  1.2136
 2068SOL    HW217664   2.616   2.304   8.045 -2.0613  0.1739  0.0082
 2069SOL     OW17665   3.518   0.588   3.869  0.3412 -0.2391 -0.1171
 2069SOL    HW117666   3.539   0.593   3.776  0.1650 -1.4215 -0.2213
 2069SOL    HW217667   3.442   0.529   3.876 -1.1572  1.8046  0.8460
 2070SOL     OW17668   2.034   2.845   5.796  0.1644 -0.2213  0.0063
 2070SOL    HW117669   2.064   2.854   5.705 -0.6460 -1.0107 -0.3410
 2070SOL    HW217670   2.110   2.869   5.849 -0.6768 -1.4460  1.7558
 2071SOL     OW17671   1.024   0.298   8.304  0.3252 -0.5034 -0.0558
 2071SOL    HW117672   1.008   0.355   8.229  0.9178  1.6302  1.4101
 2071SOL    HW217673   1.050   0.216   8.261 -1.0413 -1.4600  0.9720
 2072SOL     OW17674   0.444   0.421   3.060  0.0787  0.6179 -0.8209
 2072SOL    HW117675   0.379   0.481   3.097  0.5251  0.3250  0.4368
 2072SOL    HW217676   0.482   0.374   3.134  1.1701  1.1482 -1.0409
 2073SOL     OW17677   4.575   3.944   2.059  0.4841  0.5538 -0.3668
 2073SOL    HW117678   4.562   3.851   2.038  2.3251  0.1097  0.3876
 2073SOL    HW217679   4.507   3.950   2.125 -1.3523  0.3245 -2.2241
 2074SOL     OW17680   1.234   2.596   7.421 -0.0323 -0.3550  0.2881
 2074SOL    HW117681   1.286   2.670   7.391 -0.6799 -0.3099 -0.7272
 2074SOL    HW217682   1.239   2.597   7.517 -2.0264 -0.5633  0.3908
 2075SOL     OW17683   0.641   1.870  17.465  0.3991 -0.4479 -0.0161
 2075SOL    HW117684   0.712   1.863  17.528  0.8922 -0.3844 -0.5622
 2075SOL    HW217685   0.581   1.923  17.517  1.5681  0.5458  0.2947
 2076SOL     OW17686   1.439   1.455   5.618 -0.4774 -0.8635  0.0201
 2076SOL    HW117687   1.510   1.449   5.555  0.1388 -0.4697  0.6696
 2076SOL    HW217688   1.442   1.370   5.662  2.4302 -1.0347 -0.4921
 2077SOL     OW17689   3.268   1.122   0.868  0.0939 -0.2769 -0.0475
 2077SOL    HW117690   3.196   1.164   0.821 -1.6383  0.0283  2.8410
 2077SOL    HW217691   3.327   1.094   0.798  1.6034 -1.2261  1.6031
 2078SOL     OW17692   3.717   0.844   2.090 -0.9227 -0.3164 -0.0456
 2078SOL    HW117693   3.810   0.833   2.072 -0.8140  0.8665 -0.1754
 2078SOL    HW217694   3.721   0.798   2.174  0.3417 -0.8868 -0.4222
 2079SOL     OW17695   2.570   1.370   2.438  0.0298  0.1662 -0.4879
 2079SOL    HW117696   2.534   1.368   2.349 -1.3660 -0.5297  0.0967
 2079SOL    HW217697   2.627   1.447   2.433 -0.1039  0.4856  2.6392
 2080SOL     OW17698   2.350   1.038   6.538  0.3366 -0.5811 -0.6847
 2080SOL    HW117699   2.256   1.018   6.535 -0.0265  1.2540 -1.3386
 2080SOL    HW217700   2.367   1.054   6.446  3.7668 -0.1627  0.0263
 2081SOL     OW17701   1.608   3.188   6.517  0.5811  0.5492  0.2049
 2081SOL    HW117702   1.656   3.193   6.434 -1.1283  2.0076 -0.6858
 2081SOL    HW217703   1.631   3.274   6.553 -1.3764  0.8088  0.8206
 2082SOL     OW17704   2.604   4.654  11.958  0.1195 -0.3960  0.7030
 2082SOL    HW117705   2.695   4.632  11.939 -0.2997 -2.1852  0.7849
 2082SOL    HW217706   2.564   4.569  11.939 -0.3609  0.2066 -1.0023
 2083SOL     OW17707   0.541   3.948   9.589  0.2884 -0.1451 -0.2021
 2083SOL    HW117708   0.573   4.020   9.534  1.3434 -0.0145  0.5773
 2083SOL    HW217709   0.474   3.907   9.534 -0.5438  0.7655  0.1490
 2084SOL     OW17710   2.539   0.815   5.127 -0.3440  0.1508 -0.1049
 2084SOL    HW117711   2.629   0.786   5.108 -0.4859 -0.1306 -0.3562
 2084SOL    HW217712   2.499   0.771   5.052  0.5931 -0.2672 -0.3684
 2085SOL     OW17713   3.729   4.525   7.511  0.4639 -0.2211 -0.3377
 2085SOL    HW117714   3.689   4.546   7.595  1.5074  2.0914 -0.3965
 2085SOL    HW217715   3.665   4.532   7.441 -0.7413  2.6600  1.0387
 2086SOL     OW17716   3.837   2.349   0.556  0.3013 -0.4326 -0.0217
 2086SOL    HW117717   3.889   2.300   0.620  2.0523  1.2886 -0.1609
 2086SOL    HW217718   3.788   2.404   0.618 -2.0559 -0.0605 -2.1904
 2087SOL     OW17719   2.448   0.128  14.853 -0.2862 -0.2487  0.1328
 2087SOL    HW117720   2.429   0.189  14.925  1.3518  0.3154  0.0868
 2087SOL    HW217721   2.490   0.058  14.902 -1.7260 -1.0698  0.1851
 2088SOL     OW17722   1.246   3.878   2.673 -0.2211  0.5168 -0.1911
 2088SOL    HW117723   1.271   3.792   2.707 -0.8544  0.3391 -0.1814
 2088SOL    HW217724   1.171   3.896   2.730  0.5112 -3.0823  1.9024
 2089SOL     OW17725   3.860   4.285   5.720 -0.3737  0.1054  0.3226
 2089SOL    HW117726   3.887   4.193   5.713 -2.6733 -0.4187 -1.8830
 2089SOL    HW217727   3.842   4.305   5.628  0.3557  0.3627  0.2334
 2090SOL     OW17728   4.006   2.932  17.519 -0.0170 -0.2994 -0.1421
 2090SOL    HW117729   4.059   2.882  17.580  0.3677 -0.3164 -0.4884
 2090SOL    HW217730   3.998   2.884  17.436  1.2348  0.8051 -0.9029
 2091SOL     OW17731   0.700   1.440   7.625  0.9621 -0.1236 -0.2781
 2091SOL    HW117732   0.609   1.465   7.611  1.5018  1.2801 -1.1861
 2091SOL    HW217733   0.746   1.521   7.605  0.6529  0.1012 -0.0643
 2092SOL     OW17734   0.449   0.210  11.437  0.3326 -0.2087 -0.2928
 2092SOL    HW117735   0.432   0.237  11.528 -0.9050  0.1952 -0.6481
 2092SOL    HW217736   0.544   0.197  11.438  0.1791 -1.5403 -2.2533
 2093SOL     OW17737   3.864   0.781   2.795  0.6711 -0.3898 -0.5818
 2093SOL    HW117738   3.886   0.688   2.796  0.3055 -0.4833 -1.0918
 2093SOL    HW217739   3.769   0.778   2.788  0.6194 -2.5975  1.4247
 2094SOL     OW17740   2.792   0.872   9.894 -0.0223 -0.2841  0.3584
 2094SOL    HW117741   2.790   0.835   9.983  0.1730 -0.0287  0.4690
 2094SOL    HW217742   2.811   0.799   9.834 -0.3731 -0.3959  0.3843
 2095SOL     OW17743   2.769   4.021   1.504 -0.4821  0.2620 -0.2059
 2095SOL    HW117744   2.808   4.030   1.417 -0.2424  0.1091 -0.1141
 2095SOL    HW217745   2.698   3.963   1.479  0.0704 -0.2638 -0.5367
 2096SOL     OW17746   2.749   3.953   2.540  0.1174 -0.6224  0.6593
 2096SOL    HW117747   2.739   3.952   2.445 -0.1012  1.2720  0.6552
 2096SOL    HW217748   2.700   4.035   2.549 -0.6387 -1.0455  0.4006
 2097SOL     OW17749   3.065   3.738   6.375 -0.0093 -0.2485  0.2098
 2097SOL    HW117750   2.982   3.692   6.362 -0.2311  0.3929 -0.6515
 2097SOL    HW217751   3.127   3.665   6.373  0.8139  0.4990 -1.5899
 2098SOL     OW17752   2.444   1.597   2.015  0.7077  0.8506 -0.5991
 2098SOL    HW117753   2.389   1.675   2.014  4.3751  3.4674  1.4805
 2098SOL    HW217754   2.388   1.519   2.011 -0.4587  1.6794 -0.6083
 2099SOL     OW17755   2.460   0.783   6.602  0.3593 -0.3254 -0.0263
 2099SOL    HW117756   2.472   0.876   6.619 -1.3106 -0.0468 -0.3835
 2099SOL    HW217757   2.367   0.774   6.581 -0.0199  1.3712  0.9364
 2100SOL     OW17758   2.749   1.065   0.913 -0.2364  0.3191  0.3693
 2100SOL    HW117759   2.794   1.079   0.829 -0.6517 -0.2861  0.0487
 2100SOL    HW217760   2.826   1.050   0.969 -0.8478 -1.1186  0.8185
 2101SOL     OW17761   1.140   2.982   5.630 -0.1238  0.1780 -0.1721
 2101SOL    HW117762   1.165   2.964   5.539  1.6936 -2.0081  0.7660
 2101SOL    HW217763   1.048   3.006   5.616 -0.0128  0.9660  0.4440
 2102SOL     OW17764   0.880   3.384   5.398  0.0363 -0.4477  0.0262
 2102SOL    HW117765   0.811   3.318   5.407 -0.9984  0.6398  0.0619
 2102SOL    HW217766   0.902   3.362   5.307 -0.1743 -0.2079 -0.0799
 2103SOL     OW17767   0.718   0.310   8.807  0.4842 -0.4603  0.1654
 2103SOL    HW117768   0.644   0.332   8.751  1.1892 -0.6247 -0.8420
 2103SOL    HW217769   0.784   0.357   8.756 -0.3799  0.0704 -0.4669
 2104SOL     OW17770   0.345   0.650  12.064  0.2457 -0.4472  0.1700
 2104SOL    HW117771   0.292   0.659  12.143 -0.0131 -1.7606  0.1505
 2104SOL    HW217772   0.429   0.685  12.093  1.4704 -1.9839 -1.5485
 2105SOL     OW17773   0.709   0.587  17.255 -0.3204 -0.1319 -0.1032
 2105SOL    HW117774   0.768   0.535  17.310  1.1445 -0.4171 -1.9198
 2105SOL    HW217775   0.683   0.655  17.316 -0.7796  0.4446 -0.9339
 2106SOL     OW17776   1.526   3.163  11.012  0.3107 -0.0697  0.0196
 2106SOL    HW117777   1.512   3.104  11.086  0.5027 -0.5702 -0.3411
 2106SOL    HW217778   1.620   3.156  10.993 -0.1883 -2.1281 -1.5888
 2107SOL     OW17779   1.152   1.976   8.714 -0.2735 -0.0653 -0.0144
 2107SOL    HW117780   1.170   1.899   8.769  1.9864  1.9918  2.1545
 2107SOL    HW217781   1.197   1.966   8.631 -0.3166  2.1660 -0.2873
 2108SOL     OW17782   1.331   1.903   6.533 -0.3075  0.1409 -0.6370
 2108SOL    HW117783   1.272   1.945   6.471 -0.8944  0.3301  0.0483
 2108SOL    HW217784   1.284   1.821   6.550 -0.4824  0.5916  1.0346
 2109SOL     OW17785   3.474   3.738   1.775 -0.2201  0.8846  0.1125
 2109SOL    HW117786   3.432   3.713   1.693  0.8464  1.7755 -0.7076
 2109SOL    HW217787   3.520   3.658   1.802 -0.1949  0.5167 -1.0426
 2110SOL     OW17788   3.054   2.501   4.883 -0.0392  0.5685  0.0858
 2110SOL    HW117789   3.017   2.516   4.970  1.7094 -0.0391  0.9482
 2110SOL    HW217790   3.062   2.405   4.885  1.0591  0.6295 -1.0629
 2111SOL     OW17791   1.651   1.934   5.547 -1.0355 -0.1761 -0.3357
 2111SOL    HW117792   1.635   1.986   5.626  2.0664 -1.4724  1.1428
 2111SOL    HW217793   1.663   1.844   5.578  0.6667  0.6386  1.3736
 2112SOL     OW17794   0.067   3.754  10.321 -0.2925 -0.8228 -0.3053
 2112SOL    HW117795   0.071   3.842  10.283 -1.2633 -0.6498 -0.0017
 2112SOL    HW217796   0.160   3.734  10.330  0.3119  1.2543 -1.8410
 2113SOL     OW17797   1.248   4.551   5.728  0.5405 -0.1144 -0.3546
 2113SOL    HW117798   1.288   4.615   5.787  0.4839 -0.3703 -0.0396
 2113SOL    HW217799   1.156   4.573   5.741  1.1214  1.7275  0.6708
 2114SOL     OW17800   1.740   3.469  16.132  0.1076  0.3652  0.1525
 2114SOL    HW117801   1.826   3.486  16.171  1.3191  3.3495 -3.8660
 2114SOL    HW217802   1.734   3.535  16.064 -0.8263  1.1466  1.0127
 2115SOL     OW17803   4.613   2.557   3.883  0.7142 -0.1756  0.6464
 2115SOL    HW117804   4.572   2.472   3.900 -0.6362  0.0174 -1.7003
 2115SOL    HW217805   4.641   2.547   3.792 -1.7664 -2.5115  0.1513
 2116SOL     OW17806   3.661   4.106  11.739 -0.5583  0.5305 -0.2485
 2116SOL    HW117807   3.699   4.028  11.781 -0.4021  0.4161 -0.6067
 2116SOL    HW217808   3.740   4.144  11.701 -1.4176  1.7811 -0.7771
 2117SOL     OW17809   0.123   0.771   6.161 -0.1340  0.3875 -0.1523
 2117SOL    HW117810   0.074   0.838   6.207  0.7981  0.6098  0.5210
 2117SOL    HW217811   0.193   0.830   6.134 -0.4874  0.6540 -0.4852
 2118SOL     OW17812   2.932   0.362   2.007 -0.0798  0.9369  0.8328
 2118SOL    HW117813   2.846   0.403   2.006 -0.0384  1.0106  0.0092
 2118SOL    HW217814   2.912   0.286   1.953  0.6750  0.6739  0.9150
 2119SOL     OW17815   2.504   4.567  10.917 -0.4204 -0.0033  0.2638
 2119SOL    HW117816   2.599   4.556  10.926 -0.3617  0.4910  0.2388
 2119SOL    HW217817   2.496   4.594  10.826  0.9171 -1.5707 -0.3209
 2120SOL     OW17818   0.764   2.491  13.150  0.6792 -0.1967  0.3427
 2120SOL    HW117819   0.700   2.422  13.163  1.3077 -1.1259 -1.4623
 2120SOL    HW217820   0.706   2.554  13.106 -2.2641 -1.3955  2.5484
 2121SOL     OW17821   0.019   2.093   8.575  0.4886 -0.1247  0.6187
 2121SOL    HW117822   4.706   2.023   8.518  0.8312  1.5443 -1.6406
 2121SOL    HW217823   4.705   2.046   8.652 -1.4811 -0.4101 -0.3761
 2122SOL     OW17824   1.710   3.134   2.866  0.2254  0.1036 -0.3017
 2122SOL    HW117825   1.753   3.218   2.882  0.7630 -0.1718 -0.2999
 2122SOL    HW217826   1.637   3.144   2.927  0.6843 -0.6301  0.3812
 2123SOL     OW17827   2.907   3.137   9.616  0.2527 -0.1276 -0.0519
 2123SOL    HW117828   2.943   3.213   9.570 -2.1058  1.3393  0.4947
 2123SOL    HW217829   2.907   3.062   9.557  0.0475  0.9510 -1.4304
 2124SOL     OW17830   2.839   3.955   0.598  0.3461 -0.0171 -0.0180
 2124SOL    HW117831   2.804   3.869   0.622 -0.7856 -0.0927 -1.9620
 2124SOL    HW217832   2.818   4.010   0.674 -0.9825 -2.1059  1.1348
 2125SOL     OW17833   1.914   0.750   7.840  0.1238  0.1550 -0.1168
 2125SOL    HW117834   1.820   0.741   7.831  0.0786 -0.2355  0.6993
 2125SOL    HW217835   1.925   0.803   7.919  0.2766  0.3135 -0.2426
 2126SOL     OW17836   2.583   1.963  12.323  0.2043  0.0247  0.3558
 2126SOL    HW117837   2.671   2.000  12.326  0.5865 -0.7764 -1.3766
 2126SOL    HW217838   2.563   1.962  12.417 -0.0380 -1.1070  0.2906
 2127SOL     OW17839   1.502   4.234   5.268 -0.6287  0.4859 -0.2342
 2127SOL    HW117840   1.439   4.161   5.265 -0.2827  0.1897 -0.2415
 2127SOL    HW217841   1.463   4.288   5.200 -0.3596 -2.7383 -2.9504
 2128SOL     OW17842   3.595   3.981  15.049 -0.2450 -0.0151  0.5771
 2128SOL    HW117843   3.609   4.059  14.996 -1.9341  0.3307  0.6491
 2128SOL    HW217844   3.682   3.941  15.044  0.4110  1.1915  2.3608
 2129SOL     OW17845   4.446   1.276   5.329 -0.1156  0.1391 -0.2376
 2129SOL    HW117846   4.478   1.265   5.419  1.4325 -0.9776 -0.9369
 2129SOL    HW217847   4.460   1.187   5.296  0.3494 -0.1610  0.7650
 2130SOL     OW17848   1.164   2.412   8.218  0.2283  0.4994 -0.8495
 2130SOL    HW117849   1.086   2.468   8.217 -1.8211 -2.3193  1.6080
 2130SOL    HW217850   1.165   2.380   8.308  1.5749 -1.4107 -1.5619
 2131SOL     OW17851   0.339   0.613   5.797  0.0202  0.0509 -0.0067
 2131SOL    HW117852   0.368   0.564   5.720  3.0196  2.0191 -0.1507
 2131SOL    HW217853   0.346   0.545   5.864  0.0663  0.6585  0.6074
 2132SOL     OW17854   4.301   2.567   3.561 -0.7412  0.3388  0.0902
 2132SOL    HW117855   4.346   2.645   3.528  3.2042 -0.3540  3.9162
 2132SOL    HW217856   4.290   2.511   3.484  0.6357  2.9463 -1.9961
 2133SOL     OW17857   2.247   4.118   3.729 -0.6359 -0.0170 -0.2814
 2133SOL    HW117858   2.164   4.073   3.745 -0.5103  0.2917  1.2782
 2133SOL    HW217859   2.261   4.106   3.635 -3.6297  1.0292 -0.8633
 2134SOL     OW17860   3.994   2.337   3.556  0.6739 -0.4058  0.0970
 2134SOL    HW117861   4.043   2.327   3.474 -2.9384  0.1260 -2.1267
 2134SOL    HW217862   3.989   2.246   3.586 -1.3338  0.0887  1.2155
 2135SOL     OW17863   2.142   3.860   6.613 -0.4212 -0.0988  0.2989
 2135SOL    HW117864   2.090   3.938   6.592  0.0212  0.4759  1.3241
 2135SOL    HW217865   2.069   3.803   6.635 -1.0376  0.7794  0.5657
 2136SOL     OW17866   3.074   1.434   7.715 -0.1043 -0.2611 -0.3274
 2136SOL    HW117867   3.161   1.460   7.685  0.6593  0.1735  2.3068
 2136SOL    HW217868   3.054   1.499   7.783  0.3409  1.3336 -1.7271
 2137SOL     OW17869   2.584   0.656   7.440 -0.2201 -0.2275  0.4436
 2137SOL    HW117870   2.503   0.707   7.447 -0.4021 -0.4128 -0.2434
 2137SOL    HW217871   2.629   0.674   7.522 -0.1353  0.9764  0.1231
 2138SOL     OW17872   0.308   3.173   1.820  0.2045 -0.5564 -0.2424
 2138SOL    HW117873   0.389   3.200   1.776 -0.2639  1.5574  0.2190
 2138SOL    HW217874   0.306   3.237   1.891  3.1057 -0.1096 -0.5369
 2139SOL     OW17875   0.419   4.283   4.017  0.0261 -0.3552  0.7109
 2139SOL    HW117876   0.468   4.207   4.048 -0.7601 -1.1982 -0.1510
 2139SOL    HW217877   0.501   4.333   4.014  0.1918 -0.8397 -1.9745
 2140SOL     OW17878   0.602   2.134   7.749 -0.2115  0.5041  0.7350
 2140SOL    HW117879   0.588   2.047   7.786  2.4801 -0.9983 -1.7350
 2140SOL    HW217880   0.691   2.150   7.780  0.0496 -0.2821  0.4071
 2141SOL     OW17881   3.251   0.234  14.018 -0.4323 -0.3799 -0.7300
 2141SOL    HW117882   3.235   0.147  14.056 -1.2367 -0.6431 -1.6466
 2141SOL    HW217883   3.313   0.267  14.083 -0.1282 -0.2516 -1.0871
 2142SOL     OW17884   4.595   4.119   2.793 -0.1575  0.3688  0.2370
 2142SOL    HW117885   4.604   4.023   2.795  1.8402  0.5664  1.3640
 2142SOL    HW217886   4.502   4.124   2.774 -0.1928 -1.1406  0.0208
 2143SOL     OW17887   4.346   2.188   8.310  0.2263  0.5579 -0.2001
 2143SOL    HW117888   4.328   2.272   8.269  0.4120  1.1407  0.9274
 2143SOL    HW217889   4.407   2.151   8.245  0.8090 -1.7760  1.6533
 2144SOL     OW17890   3.985   3.358   0.900  0.2287 -0.1112  0.2464
 2144SOL    HW117891   3.982   3.375   0.994  1.0352  1.6059 -0.0323
 2144SOL    HW217892   3.901   3.316   0.881  0.6656 -0.0395 -1.7847
 2145SOL     OW17893   1.227   2.918   3.934  0.7655 -0.2983 -0.0819
 2145SOL    HW117894   1.237   2.877   4.019  0.9171 -2.3487 -1.0795
 2145SOL    HW217895   1.139   2.956   3.939  0.1614 -1.5144 -1.2419
 2146SOL     OW17896   0.151   4.458   4.487 -0.5289  0.3737 -0.3790
 2146SOL    HW117897   0.230   4.493   4.447  0.1778 -1.0796 -0.2538
 2146SOL    HW217898   0.182   4.368   4.493 -0.4352  0.3056 -1.8731
 2147SOL     OW17899   1.614   2.392   6.485  0.2789 -0.4108 -0.0245
 2147SOL    HW117900   1.556   2.433   6.420  1.7843 -1.6204 -2.1527
 2147SOL    HW217901   1.567   2.309   6.498  0.1528 -0.1469  1.1307
 2148SOL     OW17902   2.154   4.328   2.276  0.4588  0.1917  0.2825
 2148SOL    HW117903   2.230   4.324   2.218 -1.2964  0.2231 -2.0001
 2148SOL    HW217904   2.184   4.395   2.337 -0.1453  0.5158  0.2188
 2149SOL     OW17905   3.463   4.149   4.614  0.2223  0.1205  0.3359
 2149SOL    HW117906   3.516   4.085   4.566 -0.9627  0.3806 -1.3268
 2149SOL    HW217907   3.498   4.139   4.702  1.1146 -0.5262 -0.0831
 2150SOL     OW17908   1.062   0.208   5.214  0.2577 -0.2729 -0.4620
 2150SOL    HW117909   0.990   0.147   5.198  0.9358 -1.6541  1.7554
 2150SOL    HW217910   1.138   0.173   5.168  0.7727 -1.1470  1.0779
 2151SOL     OW17911   2.193   0.933   5.372 -0.0181 -0.2879 -0.0995
 2151SOL    HW117912   2.188   1.017   5.327 -2.7313 -0.3309  0.1325
 2151SOL    HW217913   2.205   0.964   5.462  0.2650 -0.3250 -0.1245
 2152SOL     OW17914   3.855   0.417   0.165 -0.6589  0.1369 -0.4451
 2152SOL    HW117915   3.826   0.496   0.210 -1.5165 -1.0884  1.1080
 2152SOL    HW217916   3.789   0.405   0.097 -0.3294 -0.3588 -0.6771
 2153SOL     OW17917   2.959   1.468  14.960  0.0071  0.5073  0.2018
 2153SOL    HW117918   2.919   1.552  14.941  2.7791  1.5808 -0.9791
 2153SOL    HW217919   3.053   1.484  14.948  0.5071 -1.2315  1.8287
 2154SOL     OW17920   0.881   0.731   6.013  0.7083  0.2212 -0.3545
 2154SOL    HW117921   0.818   0.750   5.944 -1.0774 -0.7696  1.0055
 2154SOL    HW217922   0.818   0.743   6.084 -1.1031 -0.0252 -1.9085
 2155SOL     OW17923   4.644   3.648   8.541  0.4216  0.1350  0.0276
 2155SOL    HW117924   0.010   3.649   8.587 -0.5657  1.2250  1.7728
 2155SOL    HW217925   4.642   3.726   8.486  0.2438  0.6840  0.8146
 2156SOL     OW17926   4.059   2.401  13.569 -0.3309 -0.3859 -0.3316
 2156SOL    HW117927   4.072   2.326  13.628 -2.0169  1.4408  2.3419
 2156SOL    HW217928   4.002   2.371  13.499 -1.2849  2.7399 -0.8600
 2157SOL     OW17929   4.700   4.480   4.879 -0.1590  0.8348 -0.3995
 2157SOL    HW117930   0.048   4.438   4.935  0.7022  2.0282 -0.5227
 2157SOL    HW217931   4.639   4.510   4.946 -1.8262 -2.5425 -0.4187
 2158SOL     OW17932   0.126   0.266  15.030  0.4078 -0.1381 -0.0887
 2158SOL    HW117933   0.131   0.176  14.998  0.3184 -0.5362  1.0053
 2158SOL    HW217934   0.048   0.261  15.085  0.8485  0.7406  0.6218
 2159SOL     OW17935   3.165   3.511   5.646  0.1798  0.2855  0.2161
 2159SOL    HW117936   3.205   3.425   5.662 -0.5663  0.0045  0.6028
 2159SOL    HW217937   3.223   3.564   5.699  0.9830 -0.8212  0.4497
 2160SOL     OW17938   2.942   2.120  10.230 -0.0646  0.2987  0.0299
 2160SOL    HW117939   2.884   2.137  10.156 -0.7727 -0.6407  0.3653
 2160SOL    HW217940   3.025   2.129  10.184 -1.7229  0.4266 -2.9479
 2161SOL     OW17941   4.114   3.766   3.420 -0.6768 -0.0422 -0.9941
 2161SOL    HW117942   4.192   3.816   3.444 -0.6116 -1.0915  1.0401
 2161SOL    HW217943   4.050   3.796   3.485  1.1493  3.1624 -0.6758
 2162SOL     OW17944   3.395   2.354   5.489  0.1103  0.0560  0.5598
 2162SOL    HW117945   3.483   2.376   5.458  0.2184 -0.6694  0.3459
 2162SOL    HW217946   3.396   2.265   5.454 -0.0139 -0.6260  2.3007
 2163SOL     OW17947   3.258   3.451  17.456  0.4092 -0.4710 -0.0220
 2163SOL    HW117948   3.338   3.411  17.491  1.7185  1.1538 -1.1487
 2163SOL    HW217949   3.296   3.537  17.439  0.7783 -0.3625  1.3545
 2164SOL     OW17950   3.413   0.120   0.543 -0.1690 -0.0894  0.1758
 2164SOL    HW117951   3.396   0.037   0.588  1.6341 -1.7159 -2.1146
 2164SOL    HW217952   3.413   0.183   0.615 -2.3021  0.1788 -0.0439
 2165SOL     OW17953   1.423   1.417   1.390  0.2956  0.2025  0.0890
 2165SOL    HW117954   1.410   1.385   1.301 -1.9402 -2.1410  1.2825
 2165SOL    HW217955   1.355   1.485   1.384  0.1674  0.0557 -0.1296
 2166SOL     OW17956   4.330   3.924   5.084  0.3169  0.0078  0.2009
 2166SOL    HW117957   4.381   4.002   5.063  0.9479  0.1984  2.4685
 2166SOL    HW217958   4.354   3.894   5.172 -0.3104  0.2948  0.4723
 2167SOL     OW17959   0.201   4.226   6.266  0.1848 -0.0530 -0.6635
 2167SOL    HW117960   0.124   4.169   6.270 -1.4350  2.0050 -3.0546
 2167SOL    HW217961   0.213   4.257   6.356 -0.3430 -0.4736 -0.4489
 2168SOL     OW17962   0.709   1.022   3.884  0.4627 -0.0929 -0.5092
 2168SOL    HW117963   0.657   0.942   3.879  0.0919  0.0447  1.2246
 2168SOL    HW217964   0.713   1.042   3.978 -0.5518 -0.7496 -0.3234
 2169SOL     OW17965   2.258   4.102  15.720 -0.1059  0.0392 -0.0784
 2169SOL    HW117966   2.237   4.165  15.651 -1.4547  2.1588  2.2404
 2169SOL    HW217967   2.340   4.065  15.687  0.0580 -1.0094  1.5144
 2170SOL     OW17968   2.552   1.363   1.759 -0.3477 -0.0590 -0.1378
 2170SOL    HW117969   2.582   1.308   1.831  0.0779 -0.0239 -0.2873
 2170SOL    HW217970   2.576   1.450   1.791  2.5059  0.2069 -3.0100
 2171SOL     OW17971   4.418   3.501  11.591  0.3670 -0.2180  0.1143
 2171SOL    HW117972   4.457   3.588  11.583 -0.6870  0.3512  1.2477
 2171SOL    HW217973   4.466   3.452  11.523  1.3253  2.4588 -1.1223
 2172SOL     OW17974   0.542   1.018   3.646 -0.4219  0.8006 -0.1825
 2172SOL    HW117975   0.614   0.984   3.698 -0.9073  2.6398  1.6884
 2172SOL    HW217976   0.559   1.112   3.651  0.7324  0.6393 -1.0174
 2173SOL     OW17977   3.987   3.107  13.657  0.5660 -0.0337  0.2476
 2173SOL    HW117978   4.038   3.171  13.606 -2.6816  2.7876  0.5396
 2173SOL    HW217979   3.915   3.091  13.596  2.2384  0.4931 -1.8635
 2174SOL     OW17980   3.244   0.228  16.855  0.2519 -0.2137 -0.2565
 2174SOL    HW117981   3.199   0.292  16.801 -0.8729  0.6294  1.6985
 2174SOL    HW217982   3.334   0.237  16.826  0.4605  0.0047  0.4583
 2175SOL     OW17983   2.384   2.291  15.474  0.2420  0.3106  0.3441
 2175SOL    HW117984   2.440   2.259  15.544 -0.0007 -2.7411 -0.8564
 2175SOL    HW217985   2.426   2.372  15.445 -0.2419  0.8862  1.2514
 2176SOL     OW17986   1.046   4.286  15.958  0.0689  0.1937  0.6998
 2176SOL    HW117987   1.025   4.225  16.030 -0.5953  0.9904  1.1826
 2176SOL    HW217988   0.960   4.288  15.914 -0.0381 -1.1263  0.8421
 2177SOL     OW17989   2.220   3.248   5.906 -0.5323 -0.9847  0.3345
 2177SOL    HW117990   2.193   3.252   5.814 -1.4652 -1.2519  0.6083
 2177SOL    HW217991   2.247   3.156   5.905  0.6562 -0.6379  0.0218
 2178SOL     OW17992   1.283   2.799  11.556 -0.3632 -0.4303  0.4401
 2178SOL    HW117993   1.237   2.763  11.632  0.5799 -0.1115  1.1767
 2178SOL    HW217994   1.357   2.741  11.540 -0.9278 -1.1981  0.6645
 2179SOL     OW17995   0.331   1.585   5.712  0.3546 -0.6520 -0.0205
 2179SOL    HW117996   0.284   1.658   5.671  0.9723 -0.2349  0.0022
 2179SOL    HW217997   0.418   1.619   5.686  0.7751  0.5271  2.9782
 2180SOL     OW17998   2.537   0.142   3.829 -0.0031 -0.1330 -0.6532
 2180SOL    HW117999   2.515   0.146   3.922  0.6456 -1.2366 -0.4446
 2180SOL    HW218000   2.556   0.235   3.814  1.5434 -0.0397  1.8632
 2181SOL     OW18001   1.190   1.662   7.566 -0.1655  0.5334 -0.2720
 2181SOL    HW118002   1.229   1.616   7.641 -1.2101 -0.5309 -0.3975
 2181SOL    HW218003   1.266   1.681   7.511  0.1918 -0.3865 -0.0978
 2182SOL     OW18004   3.977   2.065   3.639 -0.2791  0.6265  0.1677
 2182SOL    HW118005   3.891   2.025   3.647  0.2657  0.1384  3.9347
 2182SOL    HW218006   4.043   2.003   3.669 -1.9218  0.1806  2.8417
 2183SOL     OW18007   4.117   2.184  13.732  0.2420  0.6616  0.0362
 2183SOL    HW118008   4.210   2.166  13.746  0.0398 -2.8685 -3.0296
 2183SOL    HW218009   4.084   2.115  13.790  1.5166 -0.7977 -0.9589
 2184SOL     OW18010   2.341   4.227   0.418  0.1329  0.1339  0.0326
 2184SOL    HW118011   2.303   4.146   0.385 -1.4391  0.7812  0.2456
 2184SOL    HW218012   2.423   4.188   0.447  0.7682  3.6596  2.9984
 2185SOL     OW18013   1.924   3.775   3.260 -0.0622  0.2086  0.3480
 2185SOL    HW118014   1.907   3.850   3.203  1.5735 -0.4781 -1.0442
 2185SOL    HW218015   2.018   3.787   3.275 -0.3937  1.2527  1.6581
 2186SOL     OW18016   0.331   1.056   6.828 -0.7316 -0.1500  0.0951
 2186SOL    HW118017   0.310   1.003   6.905 -0.2072  1.9595  1.6891
 2186SOL    HW218018   0.249   1.103   6.814 -1.7310 -2.3049 -1.2765
 2187SOL     OW18019   1.389   3.225  11.442 -0.0736  0.3368  0.8560
 2187SOL    HW118020   1.431   3.257  11.522  0.3469 -0.4124  0.9402
 2187SOL    HW218021   1.412   3.296  11.382 -2.0048 -0.3774 -0.7180
 2188SOL     OW18022   1.835   2.153   8.310 -0.2667  0.1657 -0.4881
 2188SOL    HW118023   1.866   2.169   8.221  2.4092  0.6952  0.5395
 2188SOL    HW218024   1.895   2.085   8.342 -0.0084  0.7500  0.2705
 2189SOL     OW18025   1.662   2.505   1.914  0.2924  0.4623 -0.4182
 2189SOL    HW118026   1.671   2.454   1.833 -1.2573 -2.4703  1.2663
 2189SOL    HW218027   1.751   2.538   1.932  1.5949 -2.1879 -2.0398
 2190SOL     OW18028   2.013   1.528   7.106 -0.3737  0.1589 -0.6764
 2190SOL    HW118029   1.971   1.593   7.163 -0.6976 -0.4133 -0.2618
 2190SOL    HW218030   1.965   1.447   7.119 -1.8474  1.3539  1.3182
 2191SOL     OW18031   1.348   1.268   7.439 -0.1172  0.3780 -0.0366
 2191SOL    HW118032   1.259   1.271   7.475  0.2494  2.4435  0.7014
 2191SOL    HW218033   1.329   1.225   7.356  0.6691  2.8154 -1.4910
 2192SOL     OW18034   0.172   2.533   7.981  0.2702  0.2004  0.0764
 2192SOL    HW118035   0.184   2.520   7.887  3.2940 -1.1750  0.6758
 2192SOL    HW218036   0.250   2.487   8.011  0.1114 -1.4599 -2.1224
 2193SOL     OW18037   1.871   1.942  16.478 -0.2625  0.2286  0.0032
 2193SOL    HW118038   1.959   1.982  16.473  0.2209 -0.5720  2.1788
 2193SOL    HW218039   1.866   1.926  16.383 -0.2971 -0.7291  0.1704
 2194SOL     OW18040   1.755   0.483  10.058 -0.0972  0.4509 -0.0037
 2194SOL    HW118041   1.679   0.542  10.051 -1.3911 -1.1443  0.5211
 2194SOL    HW218042   1.750   0.419   9.987 -2.6624  0.6692 -0.0261
 2195SOL     OW18043   0.900   0.119   6.024 -0.6329  0.4814 -0.3263
 2195SOL    HW118044   0.940   0.102   5.939 -0.8109 -0.3171 -0.2538
 2195SOL    HW218045   0.861   0.205   6.013 -1.0474  0.3515  0.1695
 2196SOL     OW18046   1.887   3.221   8.673 -0.0689  0.1298 -0.2377
 2196SOL    HW118047   1.976   3.186   8.675 -0.2627 -0.3314  0.5801
 2196SOL    HW218048   1.834   3.141   8.669  0.0034  0.1008 -0.6310
 2197SOL     OW18049   1.211   0.480   1.278  0.6588  0.5314 -0.5911
 2197SOL    HW118050   1.194   0.418   1.208  0.5657  0.1040 -0.1908
 2197SOL    HW218051   1.128   0.468   1.323  0.2432 -0.0335 -1.5243
 2198SOL     OW18052   0.275   4.033   5.561  0.2779  0.0165  0.2409
 2198SOL    HW118053   0.207   4.075   5.507  1.3544  0.1617 -1.0048
 2198SOL    HW218054   0.299   4.103   5.621 -1.9917  1.3026 -0.3312
 2199SOL     OW18055   3.112   3.317   5.973 -0.6219  0.4248  0.0744
 2199SOL    HW118056   3.055   3.243   5.949 -0.7002  0.6496 -0.4449
 2199SOL    HW218057   3.151   3.339   5.888 -2.7168  0.6339 -0.8429
 2200SOL     OW18058   3.640   4.512   7.784  0.5778 -0.4000 -0.4326
 2200SOL    HW118059   3.603   4.566   7.853  1.4400  2.6565 -2.3543
 2200SOL    HW218060   3.701   4.455   7.831  0.3211 -1.4565 -1.3609
 2201SOL     OW18061   2.768   1.220  14.871 -0.2405  0.6281 -0.1267
 2201SOL    HW118062   2.819   1.281  14.924  0.6031 -0.0378 -0.1779
 2201SOL    HW218063   2.683   1.237  14.913 -0.2502 -0.4428  0.2838
 2202SOL     OW18064   3.534   2.408   5.122 -0.2475 -0.4985 -0.2644
 2202SOL    HW118065   3.513   2.486   5.174 -0.6604 -2.4358  2.4961
 2202SOL    HW218066   3.479   2.410   5.044 -1.8665  1.0181  0.9332
 2203SOL     OW18067   2.465   0.608   3.417 -0.1648 -0.3935  0.1055
 2203SOL    HW118068   2.397   0.598   3.484  0.4429 -0.1553  0.7688
 2203SOL    HW218069   2.431   0.554   3.346  1.2195  0.5078 -1.2480
 2204SOL     OW18070   3.474   0.276   0.326 -0.3128 -0.1560  0.2867
 2204SOL    HW118071   3.463   0.190   0.366 -1.8278 -1.1695 -2.2932
 2204SOL    HW218072   3.391   0.319   0.347  0.5498  1.5819  0.1812
 2205SOL     OW18073   0.573   3.500   9.353 -0.5020 -0.3022 -0.3252
 2205SOL    HW118074   0.540   3.489   9.442 -0.3465  0.5793 -0.1637
 2205SOL    HW218075   0.635   3.427   9.357 -0.8081 -0.4607  1.2865
 2206SOL     OW18076   4.495   2.663   7.460 -0.3368 -0.2904  0.7202
 2206SOL    HW118077   4.484   2.730   7.392  1.1895 -1.7322 -0.9746
 2206SOL    HW218078   4.421   2.605   7.444 -0.0172  0.1693 -2.5146
 2207SOL     OW18079   2.230   2.924   1.204 -0.1109  0.0369 -0.2247
 2207SOL    HW118080   2.226   2.829   1.211 -1.4716  0.0906 -0.2215
 2207SOL    HW218081   2.303   2.923   1.266  0.4940 -1.4554 -0.9763
 2208SOL     OW18082   3.490   3.215   3.507 -0.3387 -0.3311  0.6309
 2208SOL    HW118083   3.493   3.145   3.442  0.4802 -1.7430  2.2009
 2208SOL    HW218084   3.451   3.288   3.459 -0.8147 -1.7123 -1.0939
 2209SOL     OW18085   0.093   1.591  11.670 -0.2910 -0.1778  0.0451
 2209SOL    HW118086   0.173   1.563  11.626 -0.5070 -0.8770  0.0981
 2209SOL    HW218087   0.034   1.518  11.653  0.0668 -0.7144  1.1567
 2210SOL     OW18088   4.598   3.827   7.611  0.3040 -0.2966  0.0652
 2210SOL    HW118089   4.685   3.806   7.644 -0.1679 -1.6201  0.4986
 2210SOL    HW218090   4.621   3.876   7.532  0.2234  1.1339  0.9389
 2211SOL     OW18091   0.238   4.407  15.511  0.4499  0.6364 -0.2895
 2211SOL    HW118092   0.227   4.361  15.595  0.3218 -1.0609 -1.2363
 2211SOL    HW218093   0.291   4.482  15.539  1.6420 -0.2841 -0.0585
 2212SOL     OW18094   0.246   1.414  14.786 -0.0100  0.1937 -0.0502
 2212SOL    HW118095   0.216   1.505  14.778  0.3345  0.4804  1.8784
 2212SOL    HW218096   0.158   1.376  14.779  0.5174 -0.9058 -0.6155
 2213SOL     OW18097   3.932   1.570   0.768 -0.1910 -0.0554 -0.0729
 2213SOL    HW118098   4.025   1.583   0.780 -0.4259 -1.2721  2.9321
 2213SOL    HW218099   3.901   1.653   0.731  1.7076  0.5243 -0.3468
 2214SOL     OW18100   2.396   4.114  11.775 -0.2381  0.1561 -0.4289
 2214SOL    HW118101   2.360   4.040  11.726 -1.0082  0.5550 -0.4701
 2214SOL    HW218102   2.361   4.178  11.714  2.8244  1.4292 -0.8187
 2215SOL     OW18103   0.890   1.476  17.042  0.0428  0.3619  0.6024
 2215SOL    HW118104   0.854   1.518  16.963 -0.2284 -2.3053 -0.7115
 2215SOL    HW218105   0.848   1.537  17.103 -1.1522  2.3686 -2.1880
 2216SOL     OW18106   3.558   0.874   3.201 -0.2929  0.1195  0.2839
 2216SOL    HW118107   3.496   0.919   3.145 -0.0969  0.1254  0.0725
 2216SOL    HW218108   3.529   0.902   3.288 -0.6346 -1.8538  0.8063
 2217SOL     OW18109   3.161   1.254   5.912 -0.1405  0.0820  0.1760
 2217SOL    HW118110   3.204   1.276   5.994 -0.6419 -2.4397  1.1268
 2217SOL    HW218111   3.188   1.162   5.905 -2.4393 -0.4655 -1.5320
 2218SOL     OW18112   0.947   3.753  11.563 -0.1402  0.2420 -0.3390
 2218SOL    HW118113   0.927   3.669  11.521 -2.2661  1.7591 -2.3584
 2218SOL    HW218114   0.862   3.796  11.558 -0.2763 -0.2901 -2.9837
 2219SOL     OW18115   2.557   4.040   4.705 -0.0542  0.1617 -0.2464
 2219SOL    HW118116   2.473   4.018   4.747  0.8915 -2.7195  0.1450
 2219SOL    HW218117   2.530   4.048   4.613  0.7455 -1.9646 -0.6724
 2220SOL     OW18118   2.066   4.389   6.640 -0.1034  0.5580  0.7233
 2220SOL    HW118119   2.037   4.343   6.719  1.0650  1.8826  1.9378
 2220SOL    HW218120   2.147   4.433   6.666 -0.1866  0.7480  0.6646
 2221SOL     OW18121   3.570   1.324   5.475 -0.6654  0.2791 -0.0466
 2221SOL    HW118122   3.581   1.419   5.482 -0.1752  0.1109  1.4781
 2221SOL    HW218123   3.546   1.311   5.384  0.4132 -2.5876  0.0917
 2222SOL     OW18124   4.025   0.174   2.962  0.3213 -0.0354 -0.4264
 2222SOL    HW118125   4.076   0.213   3.033  0.5126 -1.5258  0.2660
 2222SOL    HW218126   4.093   0.111   2.938  0.1848 -0.3114 -0.1044
 2223SOL     OW18127   3.368   3.284   9.973 -0.4964 -0.2337  0.0364
 2223SOL    HW118128   3.370   3.324  10.060  0.5169  0.2428 -0.1921
 2223SOL    HW218129   3.459   3.302   9.947 -1.4490  1.0195 -2.3924
 2224SOL     OW18130   0.638   3.176   8.823 -0.1783  0.2621  0.3671
 2224SOL    HW118131   0.720   3.135   8.797 -0.5187  0.0559 -0.3908
 2224SOL    HW218132   0.667   3.233   8.895 -1.6708  1.7160 -0.1750
 2225SOL     OW18133   0.727   2.349   6.217  0.1288 -0.2316  0.3781
 2225SOL    HW118134   0.804   2.364   6.271 -0.6390  2.3661  0.7324
 2225SOL    HW218135   0.675   2.305   6.284 -0.5997  0.1028  0.0334
 2226SOL     OW18136   2.499   3.230  16.013  0.1647  0.0652  0.0636
 2226SOL    HW118137   2.473   3.227  16.105  0.8464  0.2457  0.2682
 2226SOL    HW218138   2.493   3.324  15.995  2.4815  0.3603  0.8070
 2227SOL     OW18139   3.858   3.550   7.543 -0.1401 -0.2256 -0.5530
 2227SOL    HW118140   3.785   3.611   7.552 -0.0637  0.0127 -1.5852
 2227SOL    HW218141   3.808   3.483   7.498  1.2275 -1.2392 -0.5787
 2228SOL     OW18142   2.984   4.304  16.014 -0.7789 -0.1085 -0.3359
 2228SOL    HW118143   3.071   4.280  15.980  0.0201  0.4568  1.2968
 2228SOL    HW218144   2.933   4.304  15.934 -0.2617 -1.7587 -0.6550
 2229SOL     OW18145   0.651   0.782   4.890  0.5740  0.8796  0.3324
 2229SOL    HW118146   0.637   0.708   4.949  2.0304 -0.2921 -0.7763
 2229SOL    HW218147   0.684   0.833   4.964 -4.5947  1.7882  2.0350
 2230SOL     OW18148   4.548   0.239  11.982 -0.0654  0.1321  0.1370
 2230SOL    HW118149   4.546   0.328  11.947 -0.6655 -0.1905 -0.6501
 2230SOL    HW218150   4.479   0.196  11.932 -1.4944  0.4409  1.8287
 2231SOL     OW18151   2.806   2.161  17.193 -0.0541  0.2258  0.1023
 2231SOL    HW118152   2.899   2.183  17.196 -0.7621  3.4538 -1.4344
 2231SOL    HW218153   2.795   2.150  17.287  1.9363  0.2121  0.3428
 2232SOL     OW18154   1.129   3.090  16.778 -0.2424  0.9425  0.2301
 2232SOL    HW118155   1.120   3.142  16.698 -0.2349  2.0572  0.9476
 2232SOL    HW218156   1.136   3.165  16.838 -2.1939  0.5136  0.9787
 2233SOL     OW18157   3.488   2.097   4.629 -0.3788  0.3336  0.2176
 2233SOL    HW118158   3.568   2.051   4.606  0.0307  0.5353  1.2413
 2233SOL    HW218159   3.504   2.186   4.599 -1.1171  0.0166 -1.1312
 2234SOL     OW18160   2.912   1.321   1.854  0.2872  0.6792 -0.2033
 2234SOL    HW118161   3.002   1.293   1.868 -0.5876 -1.7247  0.5685
 2234SOL    HW218162   2.894   1.367   1.936 -1.1505 -2.5811  1.3164
 2235SOL     OW18163   1.472   4.152   1.525 -0.0350  0.5953 -0.0714
 2235SOL    HW118164   1.435   4.210   1.458  0.0558 -0.8465 -1.3446
 2235SOL    HW218165   1.467   4.065   1.487 -0.1512  0.2926  0.6393
 2236SOL     OW18166   2.821   3.903   6.167 -0.1404 -0.2387  0.1506
 2236SOL    HW118167   2.868   3.848   6.230 -1.0635  0.3016  1.3135
 2236SOL    HW218168   2.852   3.991   6.188 -1.6903  0.2450  0.3976
 2237SOL     OW18169   1.195   2.192  10.803 -0.1691 -0.0431  0.4197
 2237SOL    HW118170   1.130   2.201  10.872  1.9711 -0.8192  2.5272
 2237SOL    HW218171   1.171   2.258  10.737 -2.1498 -0.6219  0.5710
 2238SOL     OW18172   2.806   3.399   8.027  0.1144  0.6070 -0.4086
 2238SOL    HW118173   2.759   3.424   7.948 -1.3053  0.7026  0.4660
 2238SOL    HW218174   2.776   3.472   8.082  2.6682  1.9337 -0.7717
 2239SOL     OW18175   3.877   1.371   7.261 -0.1323  0.0474 -0.6835
 2239SOL    HW118176   3.835   1.338   7.340 -0.6752  2.7088  0.1453
 2239SOL    HW218177   3.948   1.307   7.254  0.4643  0.8064 -1.5511
 2240SOL     OW18178   4.543   3.432   9.355  0.5054  0.4026 -0.0908
 2240SOL    HW118179   4.530   3.340   9.331  1.0256  0.8572 -2.1101
 2240SOL    HW218180   4.635   3.437   9.378  0.3947 -0.3321  0.5142
 2241SOL     OW18181   2.070   4.530   4.124  0.5040  0.0229 -0.1189
 2241SOL    HW118182   2.036   4.607   4.169 -0.2754 -0.0580 -0.5678
 2241SOL    HW218183   2.076   4.553   4.031  2.5394  0.5668  0.1406
 2242SOL     OW18184   0.086   4.312   0.226  0.0974  0.5885  0.0626
 2242SOL    HW118185   0.053   4.226   0.251  0.4520  0.0101 -1.4325
 2242SOL    HW218186   0.009   4.358   0.191 -1.9609 -1.3401  2.0838
 2243SOL     OW18187   2.687   2.177  15.278 -1.2010  0.7365 -0.3221
 2243SOL    HW118188   2.686   2.130  15.362 -0.4411 -1.4320 -1.5218
 2243SOL    HW218189   2.779   2.203  15.287 -1.3429  1.6933 -1.6554
 2244SOL     OW18190   3.763   0.651   1.723 -0.1935  0.0244  0.2721
 2244SOL    HW118191   3.858   0.657   1.732 -0.0048 -1.8661 -0.6589
 2244SOL    HW218192   3.761   0.600   1.643  1.5317  2.2715 -1.2041
 2245SOL     OW18193   0.219   1.560   2.261  0.1389  0.2383  0.0622
 2245SOL    HW118194   0.232   1.655   2.253  0.3484  0.2680  0.7962
 2245SOL    HW218195   0.130   1.550   2.296  0.3541  2.5364  1.2793
 2246SOL     OW18196   2.454   4.453   4.476  0.6320 -0.5244 -0.4218
 2246SOL    HW118197   2.396   4.521   4.510  0.7721 -1.2627  1.2930
 2246SOL    HW218198   2.392   4.409   4.418 -2.1920  2.3250  0.4389
 2247SOL     OW18199   0.356   2.725   3.683  0.4806  0.5283 -0.6379
 2247SOL    HW118200   0.361   2.819   3.667  0.8800  0.3537 -1.5757
 2247SOL    HW218201   0.338   2.696   3.593  0.8221  3.3294 -1.6173
 2248SOL     OW18202   1.200   1.672   6.539 -0.4426 -0.0822  0.3532
 2248SOL    HW118203   1.124   1.647   6.592 -0.1016  1.8837  1.7755
 2248SOL    HW218204   1.216   1.584   6.506  0.1567 -0.0400  0.5392
 2249SOL     OW18205   0.785   2.480   8.729 -0.0963 -0.3406  0.1902
 2249SOL    HW118206   0.800   2.455   8.820  0.6040  1.6328  0.6381
 2249SOL    HW218207   0.862   2.436   8.691 -0.5742  0.1069 -1.3142
 2250SOL     OW18208   1.472   1.937  17.372 -0.5324 -0.0040  0.5569
 2250SOL    HW118209   1.566   1.942  17.392 -0.3933  3.7031 -0.9344
 2250SOL    HW218210   1.472   1.911  17.280  1.4049  0.0236  0.5523
 2251SOL     OW18211   2.196   0.894   3.682 -0.0710  0.0849  0.0549
 2251SOL    HW118212   2.112   0.853   3.663  1.6287 -3.4367  0.3212
 2251SOL    HW218213   2.167   0.983   3.704 -2.1104 -0.8500  1.1519
 2252SOL     OW18214   1.209   4.201  13.779  0.9418  0.1891  0.1007
 2252SOL    HW118215   1.118   4.225  13.797  0.2153 -0.1952 -3.0138
 2252SOL    HW218216   1.199   4.123  13.723 -1.7680  0.0259  0.7737
 2253SOL     OW18217   1.009   4.581   3.830 -0.4150  0.0647  0.5335
 2253SOL    HW118218   1.095   4.554   3.800 -0.6533 -1.1310  0.9162
 2253SOL    HW218219   0.962   4.534   3.762 -1.2361  0.0457  1.1115
 2254SOL     OW18220   2.730   2.455   5.234 -0.0822 -0.2153  0.1904
 2254SOL    HW118221   2.762   2.369   5.205  1.8160  0.6296 -0.1539
 2254SOL    HW218222   2.690   2.485   5.152  0.0721  0.5775  0.4166
 2255SOL     OW18223   0.195   3.597   3.441 -0.3222 -0.1192  0.3732
 2255SOL    HW118224   0.259   3.557   3.499 -0.1815 -1.0715 -0.4434
 2255SOL    HW218225   0.139   3.523   3.416 -0.2904  0.0731 -0.2604
 2256SOL     OW18226   3.774   3.103   6.080  0.3780  0.1772 -0.4299
 2256SOL    HW118227   3.858   3.059   6.099 -1.5711 -2.8064  1.3073
 2256SOL    HW218228   3.741   3.044   6.013 -1.8617  0.3951  0.4858
 2257SOL     OW18229   3.334   1.011   3.352  0.1985 -0.1186 -0.5116
 2257SOL    HW118230   3.303   0.949   3.418  1.6559  0.3279  0.5930
 2257SOL    HW218231   3.365   1.077   3.414  1.2101 -1.2158  0.1322
 2258SOL     OW18232   2.717   1.011   1.287 -0.1902 -0.4963  0.4834
 2258SOL    HW118233   2.810   0.992   1.301 -0.2126 -1.5130 -0.7595
 2258SOL    HW218234   2.697   0.922   1.260  0.3685 -0.6564  0.5987
 2259SOL     OW18235   4.632   2.799   8.353 -0.0950 -0.1501  0.1005
 2259SOL    HW118236   4.560   2.862   8.354 -0.3011 -0.3739 -1.8299
 2259SOL    HW218237   4.586   2.722   8.386  0.6651 -0.2335  0.9761
 2260SOL     OW18238   4.169   1.298  16.885  0.1513 -0.3159  0.4006
 2260SOL    HW118239   4.095   1.357  16.868  0.6315  0.0278 -0.5048
 2260SOL    HW218240   4.192   1.274  16.795  0.0722  1.3860 -0.0831
 2261SOL     OW18241   3.988   3.450   5.086  0.0527 -0.1024  0.9254
 2261SOL    HW118242   4.011   3.531   5.041 -0.9857 -0.3554 -0.0600
 2261SOL    HW218243   3.895   3.458   5.106  0.4380  1.9832  1.8669
 2262SOL     OW18244   1.533   1.898  12.639 -0.0532 -0.6768  0.1439
 2262SOL    HW118245   1.439   1.914  12.634  0.1349  0.2999 -0.2162
 2262SOL    HW218246   1.566   1.976  12.684 -3.2811 -0.3044  1.9085
 2263SOL     OW18247   3.030   0.621   3.042  0.5342  0.0284  0.2624
 2263SOL    HW118248   3.112   0.574   3.056  2.7448  3.2311 -1.7747
 2263SOL    HW218249   2.965   0.552   3.055  2.4735 -1.8670  0.0188
 2264SOL     OW18250   2.760   1.474   6.444 -1.3834 -0.5333 -0.4906
 2264SOL    HW118251   2.758   1.490   6.539  2.1984 -1.1476 -0.3177
 2264SOL    HW218252   2.768   1.379   6.450  1.0338 -0.3754 -1.2505
 2265SOL     OW18253   2.276   4.192   8.848 -0.3317 -0.4922  0.4966
 2265SOL    HW118254   2.197   4.187   8.901 -1.1049 -2.9585 -0.8611
 2265SOL    HW218255   2.319   4.256   8.905 -0.4360 -1.5893  1.7907
 2266SOL     OW18256   1.873   3.909  17.248  0.2201 -0.3788 -0.3600
 2266SOL    HW118257   1.803   3.969  17.225 -0.5891 -1.7574 -1.4971
 2266SOL    HW218258   1.921   3.958  17.314 -1.2244  1.0880 -0.4159
 2267SOL     OW18259   1.609   4.173   8.625  0.0340 -0.2507 -0.6239
 2267SOL    HW118260   1.552   4.136   8.692  2.8398 -1.5359  1.0584
 2267SOL    HW218261   1.641   4.257   8.656  1.2886 -1.0690  0.2880
 2268SOL     OW18262   0.140   2.392   5.207  0.0839 -0.4925  0.3892
 2268SOL    HW118263   0.203   2.463   5.215  0.8985 -0.8524 -2.9422
 2268SOL    HW218264   0.064   2.441   5.175  0.0284 -0.3607  0.7217
 2269SOL     OW18265   3.465   1.254   7.166  0.2369 -0.1838 -0.0919
 2269SOL    HW118266   3.521   1.205   7.226 -0.8251 -0.4356  0.6789
 2269SOL    HW218267   3.531   1.320   7.143 -0.2986  0.5903  0.5901
 2270SOL     OW18268   4.286   1.042   5.593  0.2651 -0.4179 -0.3523
 2270SOL    HW118269   4.232   1.019   5.517  1.6684  0.0885 -1.4877
 2270SOL    HW218270   4.331   0.959   5.610 -0.7239 -1.7759 -4.2303
 2271SOL     OW18271   0.276   0.441  14.721  0.3630 -0.6640 -0.4223
 2271SOL    HW118272   0.188   0.455  14.755  1.2018 -1.6227  2.1534
 2271SOL    HW218273   0.312   0.386  14.791 -0.4388 -0.6458  0.0086
 2272SOL     OW18274   4.364   2.119  15.602 -0.1556 -0.0566  0.1457
 2272SOL    HW118275   4.402   2.098  15.687 -1.4707 -0.4135  0.6424
 2272SOL    HW218276   4.363   2.034  15.558  1.9485 -1.2751  2.4965
 2273SOL     OW18277   4.034   3.842  17.644 -0.0813 -0.1993 -0.8957
 2273SOL    HW118278   4.020   3.830   0.065 -0.1325  1.8309 -0.6454
 2273SOL    HW218279   4.100   3.775  17.628  0.1320 -0.1763 -0.1181
 2274SOL     OW18280   2.101   4.565   7.447  0.3551  0.0246 -0.2105
 2274SOL    HW118281   2.124   4.575   7.354 -1.3878  1.7491 -0.4538
 2274SOL    HW218282   2.119   4.471   7.454  2.7092  0.5003 -0.0380
 2275SOL     OW18283   3.601   3.502   9.143  0.3290  0.0479 -1.4721
 2275SOL    HW118284   3.554   3.569   9.192  0.5348  1.1601 -2.7852
 2275SOL    HW218285   3.646   3.457   9.215 -0.2680  0.4691 -0.8416
 2276SOL     OW18286   4.636   0.801   3.537  0.3976 -0.6872 -0.3745
 2276SOL    HW118287   4.627   0.713   3.574 -1.2224 -0.4479 -0.1947
 2276SOL    HW218288   4.663   0.782   3.447 -0.7189 -1.8490 -0.4692
 2277SOL     OW18289   3.175   0.627  13.224 -0.2158 -0.1550  0.2603
 2277SOL    HW118290   3.164   0.684  13.148  0.0785 -0.0996  0.2604
 2277SOL    HW218291   3.117   0.552  13.204 -1.4949  0.5574  1.2996
 2278SOL     OW18292   1.682   2.567  11.299 -0.2027 -0.0958 -0.2141
 2278SOL    HW118293   1.708   2.625  11.228 -1.8039  0.3104 -0.4678
 2278SOL    HW218294   1.709   2.476  11.283 -0.2984 -0.4524  1.6257
 2279SOL     OW18295   1.740   3.824   2.169  0.6549 -0.1516 -0.0395
 2279SOL    HW118296   1.679   3.755   2.145  0.0290  0.1406  0.7025
 2279SOL    HW218297   1.771   3.776   2.246  1.5208  1.7251  0.7873
 2280SOL     OW18298   1.179   2.472  15.608 -0.0645 -0.6647  0.0148
 2280SOL    HW118299   1.271   2.446  15.615 -0.1120 -1.0296 -0.7534
 2280SOL    HW218300   1.191   2.566  15.594  0.7224 -0.9944 -1.5382
 2281SOL     OW18301   3.810   4.299   8.292  0.3568 -0.5749 -0.3752
 2281SOL    HW118302   3.865   4.277   8.367 -1.0755  1.2283  1.1855
 2281SOL    HW218303   3.724   4.284   8.332 -0.3050  1.2865 -1.0860
 2282SOL     OW18304   0.147   0.915   5.628  0.1109 -0.3165 -0.1641
 2282SOL    HW118305   0.169   0.879   5.714 -0.3490  1.9409  0.8785
 2282SOL    HW218306   0.085   0.847   5.602  0.0340 -0.6866  0.9897
 2283SOL     OW18307   0.229   3.515  17.588 -0.4047  0.1262  0.5974
 2283SOL    HW118308   0.264   3.427  17.593  0.0128  0.4111  2.6366
 2283SOL    HW218309   0.275   3.563  17.657 -0.5679  0.0402  0.7685
 2284SOL     OW18310   3.761   3.862  17.494 -0.4315  0.0195  0.0999
 2284SOL    HW118311   3.707   3.911  17.556 -2.4029 -2.2809  0.1805
 2284SOL    HW218312   3.837   3.841  17.548  0.6418  0.8821 -1.0826
 2285SOL     OW18313   0.020   0.968   1.403 -0.3180  0.4294 -0.3685
 2285SOL    HW118314   0.041   1.056   1.373 -1.0784  0.0560 -1.9865
 2285SOL    HW218315   0.007   0.996   1.494  3.5345  0.1318  0.2769
 2286SOL     OW18316   3.590   4.670   7.993  0.0062 -0.2382 -0.2331
 2286SOL    HW118317   3.611   4.673   8.086  0.6857 -1.1075 -0.3579
 2286SOL    HW218318   3.506   4.716   7.997  0.3372  0.5139 -1.8027
 2287SOL     OW18319   4.221   0.662   5.241  0.1912 -0.3819 -0.4835
 2287SOL    HW118320   4.252   0.668   5.150  3.2891  1.1875  0.6610
 2287SOL    HW218321   4.296   0.624   5.287 -0.3348 -2.9816 -1.7765
 2288SOL     OW18322   1.719   2.588   8.398  0.0460  0.5930 -0.1980
 2288SOL    HW118323   1.707   2.569   8.306 -1.4082 -0.3240  0.1866
 2288SOL    HW218324   1.721   2.498   8.429 -1.5592 -0.2802 -2.6781
 2289SOL     OW18325   2.920   1.548   1.144  0.2006  0.1620  0.2225
 2289SOL    HW118326   2.850   1.496   1.105  1.1796 -0.9692  0.0099
 2289SOL    HW218327   2.883   1.562   1.232 -1.2625  0.7160 -0.4758
 2290SOL     OW18328   0.772   3.094   3.248  0.0669 -0.3375 -0.1143
 2290SOL    HW118329   0.744   3.019   3.196 -1.0413 -0.3335  0.4730
 2290SOL    HW218330   0.714   3.161   3.211 -0.7039 -1.8993 -1.7424
 2291SOL     OW18331   2.050   1.102   3.394  0.2127  0.2380  0.2446
 2291SOL    HW118332   2.137   1.130   3.424  0.5544 -0.8008  0.2351
 2291SOL    HW218333   2.061   1.007   3.400  0.5874  0.2671  0.0301
 2292SOL     OW18334   1.312   1.131   5.687 -0.2594 -0.4432  0.4332
 2292SOL    HW118335   1.243   1.145   5.753 -1.3147 -0.8302 -0.5971
 2292SOL    HW218336   1.395   1.167   5.719 -0.6182  0.1225  0.7187
 2293SOL     OW18337   3.904   1.558   3.980  0.3333  0.3248 -0.1364
 2293SOL    HW118338   3.910   1.477   3.931  0.8851 -0.4428  1.1921
 2293SOL    HW218339   3.988   1.545   4.024 -0.0867 -1.2030  0.2088
 2294SOL     OW18340   2.991   4.088   7.311 -0.1117 -0.1574  0.0999
 2294SOL    HW118341   2.901   4.084   7.341  0.5888  0.3798  2.2358
 2294SOL    HW218342   2.988   4.068   7.217 -0.0773  1.6817 -0.2973
 2295SOL     OW18343   2.506   1.530  14.555  0.3745 -0.2142 -0.4129
 2295SOL    HW118344   2.556   1.610  14.539 -2.1387  1.4498 -0.1003
 2295SOL    HW218345   2.580   1.471  14.563  1.8481  1.8132  0.6902
 2296SOL     OW18346   2.907   1.733   2.651 -0.3150  0.3012 -0.3755
 2296SOL    HW118347   2.903   1.797   2.579 -1.8024  1.9930  1.2177
 2296SOL    HW218348   2.885   1.781   2.730  0.4037 -1.7787  1.0732
 2297SOL     OW18349   0.689   1.213   6.599 -0.0948 -0.7460 -0.2017
 2297SOL    HW118350   0.699   1.307   6.612 -1.7140 -0.6154  0.0569
 2297SOL    HW218351   0.755   1.193   6.532 -1.6194 -0.1402 -1.8670
 2298SOL     OW18352   2.480   0.085   7.164  1.0035  0.0671 -0.7589
 2298SOL    HW118353   2.551   0.144   7.188  1.1194 -0.2759 -0.2646
 2298SOL    HW218354   2.453   0.124   7.081  1.7793 -2.1287 -2.0632
 2299SOL     OW18355   4.597   4.157   4.619 -0.1041  0.5904  0.2903
 2299SOL    HW118356   4.673   4.190   4.666  0.0333 -2.0124  1.9156
 2299SOL    HW218357   4.608   4.187   4.529  0.2267 -0.1200  0.0949
 2300SOL     OW18358   3.495   1.618   0.795 -0.4128 -0.4414 -0.4162
 2300SOL    HW118359   3.578   1.648   0.831 -0.1451  0.7010 -1.9812
 2300SOL    HW218360   3.433   1.676   0.839 -1.6864 -1.7073 -0.5197
 2301SOL     OW18361   2.139   1.534  16.265 -0.6244  0.1923  0.0704
 2301SOL    HW118362   2.093   1.452  16.284 -0.4715  0.2544  0.7316
 2301SOL    HW218363   2.209   1.498  16.212 -0.3908 -1.7424  1.6927
 2302SOL     OW18364   2.265   0.209   8.343  0.5128  0.5578 -0.3175
 2302SOL    HW118365   2.334   0.249   8.396  0.1190  1.3824 -0.4436
 2302SOL    HW218366   2.307   0.210   8.257 -1.2536  1.8003 -1.1583
 2303SOL     OW18367   0.155   4.183   4.664 -0.1631 -0.1456  0.3798
 2303SOL    HW118368   0.213   4.144   4.730 -0.6811  0.5586  1.2471
 2303SOL    HW218369   0.214   4.192   4.590 -0.2616  1.0261  0.4458
 2304SOL     OW18370   3.504   3.356   9.697  0.5116 -0.3782  0.1380
 2304SOL    HW118371   3.410   3.375   9.702  0.6142 -0.2691  1.6672
 2304SOL    HW218372   3.517   3.327   9.607  3.0144 -0.0496  0.4030
 2305SOL     OW18373   1.956   0.398  15.159 -0.3171  0.3444 -0.6699
 2305SOL    HW118374   1.871   0.371  15.125  0.1263  0.2809 -1.7249
 2305SOL    HW218375   1.977   0.480  15.116 -0.5135  1.6481  1.6934
 2306SOL     OW18376   1.579   3.880   3.251 -0.1564  0.1809  0.0828
 2306SOL    HW118377   1.502   3.849   3.204  0.4867 -1.3198  0.0338
 2306SOL    HW218378   1.653   3.873   3.191  1.0172  1.8070  1.3285
 2307SOL     OW18379   1.765   4.607   6.480  0.1919 -0.2567  0.6020
 2307SOL    HW118380   1.716   4.616   6.398  2.0069  0.1669 -0.4305
 2307SOL    HW218381   1.845   4.558   6.463 -0.2176 -0.7932  0.2294
 2308SOL     OW18382   4.577   4.526   7.938  0.5062  0.0371  0.4475
 2308SOL    HW118383   4.663   4.565   7.953  0.0845  1.7222 -1.5940
 2308SOL    HW218384   4.528   4.607   7.930 -0.3838 -0.8105 -2.6642
 2309SOL     OW18385   0.508   4.654  10.174 -0.2796  0.2350  0.2399
 2309SOL    HW118386   0.427   4.705  10.174 -1.2779 -1.3597 -0.8645
 2309SOL    HW218387   0.483   4.563  10.156 -0.9326 -0.0486  2.5852
 2310SOL     OW18388   1.214   1.811  15.409  0.4894  0.1006  0.1831
 2310SOL    HW118389   1.136   1.836  15.359 -0.8144  0.2419  2.2733
 2310SOL    HW218390   1.175   1.769  15.485 -1.2794 -1.3710 -1.5186
 2311SOL     OW18391   1.736   1.464   9.138 -0.0315  0.5072 -0.3379
 2311SOL    HW118392   1.726   1.371   9.119  0.0791  0.5319 -0.5211
 2311SOL    HW218393   1.733   1.473   9.233  0.7054  1.6421 -0.4189
 2312SOL     OW18394   2.973   0.552   7.456 -0.0929  0.5678 -0.2560
 2312SOL    HW118395   2.954   0.491   7.527  0.6903  0.5479 -0.0548
 2312SOL    HW218396   2.890   0.578   7.417  1.2260  1.5208 -2.4328
 2313SOL     OW18397   4.196   2.390   4.587  0.6148  0.4262  0.2275
 2313SOL    HW118398   4.287   2.409   4.564  0.0785  1.8724 -0.7161
 2313SOL    HW218399   4.174   2.321   4.524  0.5131  0.8800 -0.2393
 2314SOL     OW18400   2.983   1.059   6.235  0.1200  0.3373 -0.0855
 2314SOL    HW118401   2.924   0.988   6.258  3.0775 -1.5412  1.8092
 2314SOL    HW218402   3.041   1.001   6.185 -1.1898  2.3610 -3.9546
 2315SOL     OW18403   4.225   2.214   1.939  0.1637  0.4222  0.1945
 2315SOL    HW118404   4.286   2.202   1.866  1.2754  1.9954  0.8631
 2315SOL    HW218405   4.284   2.217   2.014  1.7574  0.7154 -1.0655
 2316SOL     OW18406   2.672   3.948   6.557  0.1514 -0.1445 -0.7636
 2316SOL    HW118407   2.689   3.858   6.582 -1.8579 -0.2128  0.3580
 2316SOL    HW218408   2.643   3.935   6.467 -1.4803  2.5755 -0.6627
 2317SOL     OW18409   4.270   0.158   7.269 -0.3392  0.4054  0.2641
 2317SOL    HW118410   4.348   0.130   7.221  0.7619  1.5398  1.3696
 2317SOL    HW218411   4.205   0.164   7.200 -1.0866  2.2801  1.1490
 2318SOL     OW18412   0.453   1.896   7.787  0.0382  0.0163 -0.2304
 2318SOL    HW118413   0.403   1.942   7.719  1.1839 -0.1360 -1.1682
 2318SOL    HW218414   0.410   1.811   7.791  1.0185 -0.3797  2.2946
 2319SOL     OW18415   3.504   3.430  15.719  0.6298  0.0002 -0.4571
 2319SOL    HW118416   3.435   3.446  15.783 -0.0140 -0.4927 -1.0328
 2319SOL    HW218417   3.576   3.422  15.782  0.7491  1.5182 -0.4008
 2320SOL     OW18418   0.455   1.782   2.589 -0.4017  0.3854 -0.4726
 2320SOL    HW118419   0.527   1.760   2.530  0.3353  0.6336  0.3403
 2320SOL    HW218420   0.476   1.720   2.659 -0.6076  0.7544 -0.0848
 2321SOL     OW18421   1.562   2.525   5.004  0.0511  0.2083  0.0331
 2321SOL    HW118422   1.513   2.505   4.924  1.4328 -1.2134 -0.4577
 2321SOL    HW218423   1.612   2.602   4.978  1.7665 -1.2179 -0.8579
 2322SOL     OW18424   1.290   2.637   9.989  0.1663  0.3771  0.0015
 2322SOL    HW118425   1.287   2.702   9.919 -1.3638 -2.2123 -2.3379
 2322SOL    HW218426   1.334   2.566   9.943  1.3156  1.2099 -0.1832
 2323SOL     OW18427   2.958   3.154   1.869 -0.5668 -0.0860  0.3943
 2323SOL    HW118428   3.026   3.094   1.836 -0.9441 -0.3021  0.0106
 2323SOL    HW218429   2.897   3.173   1.797 -0.6272 -0.2216  0.4089
 2324SOL     OW18430   2.581   4.330   2.856  0.1578  0.2160 -0.3361
 2324SOL    HW118431   2.674   4.341   2.838 -0.0595  1.7909 -0.5740
 2324SOL    HW218432   2.556   4.414   2.896 -1.3817 -0.5134  0.2284
 2325SOL     OW18433   0.274   0.570   3.191 -0.1158 -0.4609 -0.2442
 2325SOL    HW118434   0.202   0.571   3.255  0.1699 -0.7292  0.0821
 2325SOL    HW218435   0.294   0.663   3.177  1.7519 -0.6620  0.9981
 2326SOL     OW18436   0.781   3.137   1.216 -0.0131  0.0506  0.3895
 2326SOL    HW118437   0.737   3.100   1.293 -0.5162  0.0362  0.0915
 2326SOL    HW218438   0.826   3.058   1.188 -0.8526  0.4680 -2.0955
 2327SOL     OW18439   0.078   3.980   2.498 -0.0299  0.3298 -0.2183
 2327SOL    HW118440   0.020   4.055   2.483 -1.0128 -0.2775  0.5396
 2327SOL    HW218441   0.057   3.958   2.589  0.5198 -1.9309 -0.6311
 2328SOL     OW18442   2.822   0.022   4.363  0.0665  0.0871 -0.0452
 2328SOL    HW118443   2.766   4.704   4.294  0.9041  0.9778 -1.1830
 2328SOL    HW218444   2.908   0.005   4.327  0.0453 -0.5391  0.1935
 2329SOL     OW18445   4.653   2.561   5.075  0.2408  0.2446  0.1289
 2329SOL    HW118446   4.714   2.612   5.022  0.0091 -0.9379 -1.2857
 2329SOL    HW218447   4.565   2.553   5.038  0.5430 -1.5801 -0.1948
 2330SOL     OW18448   1.734   3.849  10.877 -0.5035  0.3199  0.0362
 2330SOL    HW118449   1.816   3.835  10.925 -0.1762 -0.4310 -0.7292
 2330SOL    HW218450   1.779   3.865  10.794  0.1918 -1.0580  0.1341
 2331SOL     OW18451   3.522   2.281   1.090 -0.0931 -0.3452 -0.2458
 2331SOL    HW118452   3.561   2.368   1.100 -0.6465 -0.1628  0.3280
 2331SOL    HW218453   3.526   2.260   1.183 -1.8025  0.5627  0.0298
 2332SOL     OW18454   0.318   0.067   3.716  0.3591 -0.1814  0.2690
 2332SOL    HW118455   0.367   0.090   3.637  1.7818  1.5133  1.6242
 2332SOL    HW218456   0.248   0.132   3.726  2.5890  2.0890  0.9972
 2333SOL     OW18457   1.858   2.029   8.699 -0.3659  0.6298  0.8578
 2333SOL    HW118458   1.879   2.113   8.658  0.8386 -0.2872 -0.3976
 2333SOL    HW218459   1.790   1.985   8.649  0.6253 -0.6093  0.6020
 2334SOL     OW18460   0.279   1.370  13.087 -0.3530  0.1596 -0.2034
 2334SOL    HW118461   0.271   1.296  13.027 -3.0014  1.5928 -1.5934
 2334SOL    HW218462   0.320   1.323  13.160 -0.9038  0.8976  0.5731
 2335SOL     OW18463   0.592   2.543  14.165 -0.2816 -0.6371  0.8441
 2335SOL    HW118464   0.544   2.559  14.084  0.6904 -2.1348 -0.0250
 2335SOL    HW218465   0.681   2.542  14.128 -0.7643 -0.4487 -0.3119
 2336SOL     OW18466   2.101   3.991   2.970 -0.2940 -0.0254  0.5768
 2336SOL    HW118467   2.132   4.060   3.028 -1.0937  0.5058  0.3661
 2336SOL    HW218468   2.182   3.968   2.923 -0.7112  1.9142 -1.1026
 2337SOL     OW18469   1.202   3.521  16.390  0.2692 -0.5689 -0.1231
 2337SOL    HW118470   1.271   3.459  16.414  1.0098  0.1227 -0.4553
 2337SOL    HW218471   1.178   3.487  16.304 -2.3449 -0.7018  0.6551
 2338SOL     OW18472   1.221   3.030  12.599 -0.1337  0.3141 -0.1663
 2338SOL    HW118473   1.295   3.043  12.539 -1.0911  0.3719 -1.3418
 2338SOL    HW218474   1.257   3.016  12.686 -2.0104 -4.5253 -0.1628
 2339SOL     OW18475   2.128   3.961  14.300  0.1729 -0.5996  0.1183
 2339SOL    HW118476   2.184   4.038  14.308 -0.3771 -0.2317  0.4470
 2339SOL    HW218477   2.161   3.905  14.371  2.0251 -1.2213 -1.2458
 2340SOL     OW18478   1.149   1.197   5.916 -0.4929 -0.0296 -0.0917
 2340SOL    HW118479   1.223   1.231   5.966 -0.2792 -0.6636  0.0275
 2340SOL    HW218480   1.121   1.124   5.971 -2.1294  1.2441  0.7507
 2341SOL     OW18481   2.180   0.417  10.861 -0.1652  0.3078  0.6521
 2341SOL    HW118482   2.102   0.436  10.809  0.3372  0.1499 -0.1629
 2341SOL    HW218483   2.190   0.322  10.857 -0.6505  0.3810 -2.1951
 2342SOL     OW18484   3.544   0.517   6.233 -0.3109 -0.4161 -0.1673
 2342SOL    HW118485   3.543   0.433   6.278 -0.5340 -0.9479 -1.1801
 2342SOL    HW218486   3.451   0.539   6.240 -0.2838  0.0725 -1.3254
 2343SOL     OW18487   3.728   1.208   2.849 -0.5054  0.3565  0.2443
 2343SOL    HW118488   3.740   1.285   2.795  0.7993 -0.7312 -1.0289
 2343SOL    HW218489   3.678   1.155   2.787 -0.0294 -2.2498  2.0606
 2344SOL     OW18490   2.060   1.655   4.898  0.5731  0.2867 -0.5280
 2344SOL    HW118491   2.134   1.654   4.838  0.1897 -0.6094 -0.9903
 2344SOL    HW218492   2.022   1.742   4.883  1.6170  0.6895 -0.8434
 2345SOL     OW18493   2.820   2.055  15.955 -0.1874  0.2691 -0.1580
 2345SOL    HW118494   2.744   2.105  15.926  0.0858  1.5235  1.2462
 2345SOL    HW218495   2.804   2.045  16.049  0.6936  0.5022  0.0198
 2346SOL     OW18496   2.373   0.100   1.230  0.3102 -0.2608  0.6016
 2346SOL    HW118497   2.382   0.050   1.311 -0.0403  1.5568  1.7518
 2346SOL    HW218498   2.408   0.033   1.171  0.8255  0.0910  0.5099
 2347SOL     OW18499   4.480   2.420   4.510  0.1729  0.2943 -0.2601
 2347SOL    HW118500   4.499   2.504   4.469 -1.6388  1.4996  1.3750
 2347SOL    HW218501   4.572   2.401   4.526 -0.6272 -0.0316  3.9911
 2348SOL     OW18502   2.853   2.033   3.469 -0.1989 -0.1226 -0.0746
 2348SOL    HW118503   2.771   2.022   3.517  0.8137  0.6523  1.8399
 2348SOL    HW218504   2.872   2.126   3.462  0.3020 -0.1414  0.9588
 2349SOL     OW18505   2.288   3.415  16.885  0.4940 -0.4677 -0.0173
 2349SOL    HW118506   2.295   3.375  16.799 -1.6351 -0.3513 -0.2424
 2349SOL    HW218507   2.360   3.476  16.868 -1.3130  1.4589 -0.6954
 2350SOL     OW18508   2.514   4.435   7.695  0.3769  0.0842 -0.6037
 2350SOL    HW118509   2.469   4.515   7.722  0.8988  0.3868 -0.6203
 2350SOL    HW218510   2.512   4.439   7.600 -0.8876  0.6473 -0.5448
 2351SOL     OW18511   1.055   1.143  11.858  0.4768  0.7362  0.0129
 2351SOL    HW118512   1.138   1.172  11.821 -0.1618  1.9167 -0.5118
 2351SOL    HW218513   1.099   1.104  11.933 -1.3381  0.2942  0.8420
 2352SOL     OW18514   1.248   4.273   1.671  0.0713  0.0181  0.3333
 2352SOL    HW118515   1.301   4.204   1.634  0.1091  0.2679 -0.0799
 2352SOL    HW218516   1.198   4.302   1.595  1.3653  3.2811  0.6867
 2353SOL     OW18517   1.654   4.052   6.484 -0.5158 -1.3012  0.5744
 2353SOL    HW118518   1.739   4.049   6.528 -0.3314 -0.4864  0.2734
 2353SOL    HW218519   1.598   4.107   6.538 -0.4297 -0.4522 -0.1965
 2354SOL     OW18520   2.956   1.763  15.182 -0.2372  0.0092  0.3825
 2354SOL    HW118521   2.926   1.685  15.229  1.0767  1.3018  3.3730
 2354SOL    HW218522   2.873   1.786  15.141 -0.4666 -2.4137 -0.5254
 2355SOL     OW18523   0.167   0.908   2.070  0.3006  0.0629 -0.4349
 2355SOL    HW118524   0.183   0.814   2.073 -0.1274  0.0199  0.7234
 2355SOL    HW218525   0.135   0.917   2.160 -2.7616 -0.7818 -1.4550
 2356SOL     OW18526   0.368   2.193   5.394  0.7522 -0.1035  0.1954
 2356SOL    HW118527   0.377   2.202   5.299  1.9852 -2.7262  0.0573
 2356SOL    HW218528   0.430   2.121   5.408 -0.4566 -1.0411  0.6413
 2357SOL     OW18529   3.276   0.139   6.973 -0.0472 -0.2760 -0.1969
 2357SOL    HW118530   3.247   0.231   6.974  1.5658  0.2381 -0.5904
 2357SOL    HW218531   3.345   0.136   7.038  0.5070 -0.6169 -0.8037
 2358SOL     OW18532   3.394   4.142  14.404  0.5386  0.0195 -0.3411
 2358SOL    HW118533   3.396   4.047  14.399  0.4363 -0.0802  1.4622
 2358SOL    HW218534   3.363   4.150  14.495 -0.5831 -1.0088 -0.6405
 2359SOL     OW18535   0.346   2.062   8.904  0.2564  0.0466 -1.1351
 2359SOL    HW118536   0.288   1.992   8.875  0.2786  0.2940 -1.7784
 2359SOL    HW218537   0.406   2.010   8.957 -0.6059  0.4060  0.1899
 2360SOL     OW18538   3.101   2.247   8.450  0.3304  0.2873  0.2643
 2360SOL    HW118539   3.151   2.269   8.371 -1.2741 -0.7658 -1.0484
 2360SOL    HW218540   3.080   2.338   8.471  1.3138  0.9843 -1.8406
 2361SOL     OW18541   0.421   1.500   2.428 -0.1640  0.1937 -0.1658
 2361SOL    HW118542   0.418   1.499   2.524 -2.1719  1.2119 -0.2171
 2361SOL    HW218543   0.337   1.541   2.409 -0.7048 -1.0348 -0.4852
 2362SOL     OW18544   1.534   4.236   6.631 -1.1368  0.7489 -0.5865
 2362SOL    HW118545   1.559   4.329   6.628 -0.4900  0.6602  1.7335
 2362SOL    HW218546   1.461   4.239   6.693 -2.0095  0.3496 -1.6144
 2363SOL     OW18547   1.576   0.296   9.378  0.5955 -0.0170  0.5264
 2363SOL    HW118548   1.648   0.269   9.321  1.7271  3.6076  0.2297
 2363SOL    HW218549   1.566   0.211   9.422 -1.9486  0.2494  0.4884
 2364SOL     OW18550   4.072   3.674   7.067  0.1159 -0.1476 -0.1493
 2364SOL    HW118551   3.987   3.638   7.042 -0.5787  0.4171  1.3769
 2364SOL    HW218552   4.064   3.754   7.015  0.3033 -0.6048 -0.8727
 2365SOL     OW18553   1.071   3.297   4.029 -0.0344  0.2400  0.1760
 2365SOL    HW118554   1.046   3.337   3.945 -2.6390 -0.4686  0.5950
 2365SOL    HW218555   1.074   3.202   4.014 -1.3865  0.4387 -1.4259
 2366SOL     OW18556   2.333   3.935   3.193 -0.6279  0.6430 -0.5791
 2366SOL    HW118557   2.325   4.030   3.189  2.0122  0.8800 -0.3331
 2366SOL    HW218558   2.424   3.924   3.167  0.2360 -0.9882  3.0499
 2367SOL     OW18559   3.832   2.964   8.795 -0.0549  0.1245  0.2118
 2367SOL    HW118560   3.849   3.033   8.859  0.9467  1.0231 -1.0294
 2367SOL    HW218561   3.775   3.003   8.729 -2.1603 -0.0082  1.9494
 2368SOL     OW18562   4.599   1.461   9.818  0.2926  0.2700 -0.3731
 2368SOL    HW118563   4.540   1.490   9.748 -1.5718 -1.2155  0.6166
 2368SOL    HW218564   4.675   1.419   9.777  1.7951  1.7562  0.9111
 2369SOL     OW18565   3.489   0.290  16.739 -0.2615  0.0002 -0.0259
 2369SOL    HW118566   3.575   0.324  16.715  0.3132 -1.3051  0.1367
 2369SOL    HW218567   3.454   0.313  16.653  1.6650  0.2476 -0.7498
 2370SOL     OW18568   3.208   3.158   4.890  0.2678 -0.4144  0.2718
 2370SOL    HW118569   3.192   3.064   4.881 -3.9464  0.3377 -0.1905
 2370SOL    HW218570   3.218   3.177   4.797 -0.2584  0.0014  0.3022
 2371SOL     OW18571   3.376   2.819   0.059 -0.8520  0.0989  0.5579
 2371SOL    HW118572   3.405   2.859   0.141 -1.1966  0.8958  0.2890
 2371SOL    HW218573   3.349   2.895   0.007  0.0545  0.4057  0.5378
 2372SOL     OW18574   2.938   0.484   9.826  0.0142 -0.5126  0.1148
 2372SOL    HW118575   2.937   0.517   9.915  0.3471 -3.6387  1.2955
 2372SOL    HW218576   2.936   0.568   9.780 -0.3282 -0.4249  0.2931
 2373SOL     OW18577   1.512   0.732  11.718 -0.6956 -0.3849  0.2507
 2373SOL    HW118578   1.497   0.826  11.710 -0.2245 -0.1869  1.6783
 2373SOL    HW218579   1.560   0.724  11.801 -0.4518 -0.0595  0.1367
 2374SOL     OW18580   3.107   3.398   3.014 -0.1866 -0.7339 -0.1257
 2374SOL    HW118581   3.079   3.486   3.039 -2.2480 -1.8298  1.4495
 2374SOL    HW218582   3.114   3.419   2.921 -2.9512  1.9207  0.2541
 2375SOL     OW18583   3.747   1.473  14.229 -0.2990 -0.5111 -0.1677
 2375SOL    HW118584   3.726   1.564  14.207  2.6600  0.3359  0.6209
 2375SOL    HW218585   3.667   1.424  14.208 -0.6122 -1.0785  2.3285
 2376SOL     OW18586   4.079   4.130   2.699  0.1419 -0.1257  0.1517
 2376SOL    HW118587   3.997   4.137   2.650  0.8842  0.5872 -1.0018
 2376SOL    HW218588   4.087   4.219   2.732 -2.4554  0.8930 -2.0415
 2377SOL     OW18589   3.305   0.418   4.244  0.6042  0.2570  0.4339
 2377SOL    HW118590   3.210   0.412   4.238  0.7415 -1.0500 -0.4026
 2377SOL    HW218591   3.325   0.351   4.179 -3.1427 -0.4476  0.0098
 2378SOL     OW18592   4.587   1.969  10.524 -0.3691  0.7713 -0.0804
 2378SOL    HW118593   4.589   1.999  10.615  0.2663 -0.6424  0.3744
 2378SOL    HW218594   4.588   2.055  10.482  0.5052  0.6262 -0.3732
 2379SOL     OW18595   3.443   4.030   8.684 -0.4237 -0.7660 -0.4723
 2379SOL    HW118596   3.363   3.981   8.703  0.3687 -0.6139  3.2254
 2379SOL    HW218597   3.501   3.955   8.694 -1.7171 -1.6343  0.5445
 2380SOL     OW18598   3.667   0.910   4.787 -0.0510  0.3863 -0.2666
 2380SOL    HW118599   3.640   0.885   4.875 -0.3415 -0.5912 -0.6372
 2380SOL    HW218600   3.757   0.936   4.807 -0.2128  0.9363 -0.2417
 2381SOL     OW18601   1.663   4.513  13.859 -0.6661 -0.3667  0.5288
 2381SOL    HW118602   1.584   4.463  13.878 -0.6286 -0.2357  1.0260
 2381SOL    HW218603   1.636   4.580  13.796 -3.8039 -2.6797 -0.5656
 2382SOL     OW18604   3.768   4.714  12.426 -0.0643  0.9861  0.6897
 2382SOL    HW118605   3.830   4.694  12.355  0.2273  0.6681  1.0316
 2382SOL    HW218606   3.691   4.660  12.404 -0.9491  1.5711  2.4104
 2383SOL     OW18607   0.627   0.844   9.792  0.6148  0.3685 -0.3067
 2383SOL    HW118608   0.715   0.823   9.823  0.3721  0.1834  0.2550
 2383SOL    HW218609   0.648   0.909   9.725 -1.8921  0.8943 -0.5605
 2384SOL     OW18610   3.243   2.659  13.394  0.0681 -0.8517  0.7235
 2384SOL    HW118611   3.247   2.599  13.320  0.2876 -0.0127  0.0506
 2384SOL    HW218612   3.181   2.621  13.456 -0.2326  0.6292  1.3456
 2385SOL     OW18613   2.131   4.692   4.429  0.0511  0.6243  0.4322
 2385SOL    HW118614   2.070   4.629   4.469  1.1007  0.2973  1.5015
 2385SOL    HW218615   2.077   4.697   4.349  0.7668  1.3463 -0.0042
 2386SOL     OW18616   0.496   2.887  12.888 -0.1139 -0.2674  0.4405
 2386SOL    HW118617   0.534   2.975  12.897  0.6122 -0.6021  0.6642
 2386SOL    HW218618   0.409   2.912  12.858 -0.2041  1.4382  2.1333
 2387SOL     OW18619   4.311   4.189  14.779 -0.3771  0.2445  0.5258
 2387SOL    HW118620   4.269   4.177  14.694  1.5143  2.2305 -0.6824
 2387SOL    HW218621   4.387   4.131  14.775  1.3228  2.5315  0.2469
 2388SOL     OW18622   1.957   0.122   7.166  0.1434 -0.0232 -0.2761
 2388SOL    HW118623   1.876   0.087   7.203  1.2921 -2.7419 -0.2939
 2388SOL    HW218624   1.955   0.215   7.190 -1.3475  0.0405 -0.6978
 2389SOL     OW18625   1.583   1.972   6.787 -0.4013 -0.5049  0.0394
 2389SOL    HW118626   1.517   1.914   6.748 -0.1210  0.6574 -2.1733
 2389SOL    HW218627   1.649   1.916   6.829  0.5103  0.9279  0.5013
 2390SOL     OW18628   0.496   0.787   5.629 -0.0648  0.8640 -0.2970
 2390SOL    HW118629   0.485   0.721   5.560 -1.1916  2.1637 -1.3684
 2390SOL    HW218630   0.423   0.757   5.684  0.4237 -0.2665 -0.2638
 2391SOL     OW18631   1.769   1.991   0.663  0.5712 -0.0264 -0.3839
 2391SOL    HW118632   1.854   1.947   0.661  1.5409  1.8073  0.5272
 2391SOL    HW218633   1.758   2.016   0.571  0.2621 -0.3991 -0.4496
 2392SOL     OW18634   1.556   2.742   0.547 -0.6497  0.0238 -0.3937
 2392SOL    HW118635   1.614   2.698   0.486 -0.4302  1.6043 -1.3188
 2392SOL    HW218636   1.617   2.791   0.603 -0.9543  0.2474 -0.2546
 2393SOL     OW18637   1.460   2.686   9.448 -0.2322  0.0942  0.5138
 2393SOL    HW118638   1.424   2.709   9.362  0.2035 -0.4246  0.1851
 2393SOL    HW218639   1.522   2.616   9.427 -0.8331 -0.3287  0.1324
 2394SOL     OW18640   0.436   4.467  11.052  0.0600  0.4936 -0.4904
 2394SOL    HW118641   0.402   4.437  11.136  1.3531 -0.1867 -0.2134
 2394SOL    HW218642   0.365   4.441  10.992 -0.5476 -0.1854  0.5282
 2395SOL     OW18643   1.532   3.052   4.784  0.0242 -0.0902  0.2977
 2395SOL    HW118644   1.574   2.995   4.848 -0.0574  0.6846  1.0363
 2395SOL    HW218645   1.447   3.077   4.820  0.4400 -1.6532  2.2966
 2396SOL     OW18646   1.340   1.759   6.817  0.3186  0.4582  0.1143
 2396SOL    HW118647   1.263   1.807   6.788 -0.6130 -1.6915 -0.9332
 2396SOL    HW218648   1.348   1.692   6.750 -0.7882 -0.3556  0.7870
 2397SOL     OW18649   2.023   2.544  11.083  0.5099 -0.3176  0.1770
 2397SOL    HW118650   2.018   2.573  10.992  1.1694 -0.1321  0.1952
 2397SOL    HW218651   2.117   2.527  11.089  0.4778 -1.7225 -3.2257
 2398SOL     OW18652   2.115   2.598  10.177 -0.0272  0.0034 -0.3394
 2398SOL    HW118653   2.062   2.659  10.126  0.9467 -0.3596 -1.7824
 2398SOL    HW218654   2.109   2.514  10.132  0.1503 -0.9176  1.3334
 2399SOL     OW18655   1.368   2.688   1.855  0.1376  0.2990  0.8051
 2399SOL    HW118656   1.425   2.719   1.925  1.3734 -1.8383  0.7252
 2399SOL    HW218657   1.332   2.772   1.826 -1.3583  0.0693  1.9613
 2400SOL     OW18658   1.846   3.545   3.681 -0.5679  0.0567  0.0982
 2400SOL    HW118659   1.931   3.541   3.726 -0.5511  3.5025  0.3222
 2400SOL    HW218660   1.884   3.531   3.594  0.4728  0.4293  0.4899
 2401SOL     OW18661   2.418   2.244   0.487  0.5831  0.6355 -0.4990
 2401SOL    HW118662   2.439   2.335   0.509  1.6914 -0.1420  1.7220
 2401SOL    HW218663   2.493   2.192   0.516  0.1968  0.3933  0.0689
 2402SOL     OW18664   3.092   1.974   8.513 -0.1094 -0.0366  0.1338
 2402SOL    HW118665   3.099   2.069   8.502  1.0782 -0.2534 -0.9799
 2402SOL    HW218666   3.155   1.940   8.449 -0.8611 -1.4423  0.1472
 2403SOL     OW18667   4.192   1.888  17.149  0.1172 -0.5159 -0.5687
 2403SOL    HW118668   4.258   1.908  17.083  1.3042  1.2106  1.1436
 2403SOL    HW218669   4.114   1.926  17.110  0.6165 -0.0038 -1.0630
 2404SOL     OW18670   3.274   3.297   8.448 -0.0525  0.3415  0.1037
 2404SOL    HW118671   3.329   3.353   8.394  1.2001 -0.5053  0.5191
 2404SOL    HW218672   3.333   3.255   8.511  1.1952  0.9631 -0.6574
 2405SOL     OW18673   3.219   3.325   9.531  0.0222 -0.2606  0.4927
 2405SOL    HW118674   3.283   3.284   9.472  0.6619  2.1658 -0.4854
 2405SOL    HW218675   3.193   3.240   9.568  0.3379 -0.8134 -0.5395
 2406SOL     OW18676   4.630   2.850   0.665 -0.0627  0.3690  0.8161
 2406SOL    HW118677   4.602   2.862   0.756 -0.2810 -1.1650  0.9643
 2406SOL    HW218678   4.544   2.859   0.623  0.2017  0.5541  0.3197
 2407SOL     OW18679   2.756   4.156   6.724  0.6288  0.0726  0.0811
 2407SOL    HW118680   2.760   4.141   6.819 -2.6559  1.5987  0.4745
 2407SOL    HW218681   2.737   4.068   6.692  2.2913 -0.8080  1.5090
 2408SOL     OW18682   0.085   1.356  11.950  0.3221  0.4906  0.1350
 2408SOL    HW118683   0.178   1.378  11.959  0.0847  1.0806  1.1405
 2408SOL    HW218684   0.086   1.261  11.957 -2.7462  0.4336 -0.1131
 2409SOL     OW18685   3.557   3.097  13.314  0.2322 -0.5013 -0.4853
 2409SOL    HW118686   3.491   3.038  13.275 -1.7321  0.5235  1.2996
 2409SOL    HW218687   3.620   3.029  13.337 -1.9226 -1.6692  2.0167
 2410SOL     OW18688   2.131   3.502  12.317 -0.7390 -0.3610 -0.0175
 2410SOL    HW118689   2.108   3.430  12.375  2.4356 -1.0997  0.3313
 2410SOL    HW218690   2.094   3.460  12.239  1.1698  0.9985 -1.6402
 2411SOL     OW18691   2.944   1.701   1.619  0.6394 -0.2973 -0.2352
 2411SOL    HW118692   2.868   1.742   1.579  0.2502  0.3386  1.1562
 2411SOL    HW218693   2.992   1.772   1.662  0.0647  0.1427 -0.3212
 2412SOL     OW18694   0.400   4.707   6.535  0.0190 -0.2091 -0.4581
 2412SOL    HW118695   0.454   0.024   6.464  1.4844  0.0206  0.7745
 2412SOL    HW218696   0.313   4.710   6.496  0.3735 -1.0014 -1.3267
 2413SOL     OW18697   4.388   4.594  11.161 -0.7911  0.2602 -0.3563
 2413SOL    HW118698   4.298   4.590  11.193 -0.1248  0.3494  1.5422
 2413SOL    HW218699   4.423   4.510  11.191 -1.2788  0.2110  0.0673
 2414SOL     OW18700   1.221   3.201   3.754  0.3695  0.3453  0.6839
 2414SOL    HW118701   1.283   3.269   3.728 -0.5458  0.5148 -1.1040
 2414SOL    HW218702   1.253   3.130   3.698 -0.3874  0.7665 -0.2989
 2415SOL     OW18703   2.846   0.137   2.998  0.5330  0.1056  0.6332
 2415SOL    HW118704   2.837   0.062   3.057 -0.5761 -0.0843  0.2157
 2415SOL    HW218705   2.937   0.134   2.967  0.9941  2.1739  1.7444
 2416SOL     OW18706   1.412   2.859  13.063 -0.0898  0.0355 -0.2445
 2416SOL    HW118707   1.425   2.883  13.154 -0.0077 -0.2112 -0.1909
 2416SOL    HW218708   1.337   2.799  13.065  1.5443 -1.9008  1.5922
 2417SOL     OW18709   4.480   1.863   7.165 -0.1114  0.2708 -0.5080
 2417SOL    HW118710   4.525   1.941   7.134 -0.7642  0.9931  0.3712
 2417SOL    HW218711   4.392   1.874   7.128  0.4479 -0.5457 -2.0938
 2418SOL     OW18712   1.957   4.226  14.682 -0.5793  0.0326 -0.2472
 2418SOL    HW118713   1.962   4.135  14.710  0.3038  0.3460  0.6181
 2418SOL    HW218714   1.898   4.261  14.749 -1.5369 -0.3182 -0.9152
 2419SOL     OW18715   4.392   3.194   8.441  0.4520 -0.4321  0.3827
 2419SOL    HW118716   4.363   3.145   8.518  2.0552 -0.5736  0.8833
 2419SOL    HW218717   4.433   3.271   8.480 -1.7890  0.3383  1.2127
 2420SOL     OW18718   1.976   3.761   1.472 -0.3589  0.2254 -0.0222
 2420SOL    HW118719   1.978   3.674   1.513  1.5155 -0.2612 -1.1233
 2420SOL    HW218720   1.890   3.796   1.492 -0.1923  0.0737  0.9570
 2421SOL     OW18721   1.164   0.183  14.280  0.1414 -0.1759 -0.3624
 2421SOL    HW118722   1.170   0.126  14.357  0.9920  2.2493  1.3512
 2421SOL    HW218723   1.094   0.244  14.301  1.0249  1.3944 -2.0398
 2422SOL     OW18724   0.824   0.951  14.679  0.2686 -0.0351 -0.1868
 2422SOL    HW118725   0.785   0.898  14.748 -0.6692  0.6181 -0.2109
 2422SOL    HW218726   0.830   1.032  14.730 -1.8364 -0.1390  0.2291
 2423SOL     OW18727   1.296   2.533   8.786  0.0890 -0.2895  0.1250
 2423SOL    HW118728   1.325   2.448   8.818 -0.7344 -1.5801 -2.5706
 2423SOL    HW218729   1.221   2.549   8.844 -0.3826 -1.3421 -0.2029
 2424SOL     OW18730   1.877   2.330   1.803 -0.3328  0.6069  0.3598
 2424SOL    HW118731   1.837   2.245   1.822 -2.9182  1.3298 -1.8329
 2424SOL    HW218732   1.958   2.299   1.764 -1.4753  0.0463 -1.5445
 2425SOL     OW18733   3.664   1.647   6.534 -0.5400 -0.1029  0.4202
 2425SOL    HW118734   3.710   1.650   6.450  0.1031  2.8610  0.8702
 2425SOL    HW218735   3.684   1.732   6.574  0.0723 -0.0436 -0.0096
 2426SOL     OW18736   2.954   2.278  13.916  0.8399 -0.4672 -0.6458
 2426SOL    HW118737   3.005   2.297  13.836 -0.2992 -1.1670 -1.5378
 2426SOL    HW218738   2.870   2.236  13.898  0.2228 -1.0473  3.7582
 2427SOL     OW18739   1.840   2.176   7.175 -0.8680  0.6430 -0.3376
 2427SOL    HW118740   1.772   2.151   7.112 -1.5252  0.5759  0.4006
 2427SOL    HW218741   1.917   2.137   7.133 -0.9710 -0.1755  0.2427
 2428SOL     OW18742   4.240   4.507  16.681 -0.3250 -0.1587  0.0249
 2428SOL    HW118743   4.276   4.431  16.634  1.2203 -0.8624  2.3588
 2428SOL    HW218744   4.145   4.496  16.677 -0.2373 -0.8268 -0.1439
 2429SOL     OW18745   3.019   1.827   8.756 -0.0566  0.0106  0.0599
 2429SOL    HW118746   2.936   1.862   8.722  1.1172 -0.2078 -3.0629
 2429SOL    HW218747   3.083   1.835   8.685 -1.5174  3.7867 -0.8340
 2430SOL     OW18748   3.384   0.674   7.685 -0.3970  0.8416  0.9719
 2430SOL    HW118749   3.380   0.717   7.771  1.3641 -0.6895  1.8235
 2430SOL    HW218750   3.476   0.647   7.689 -0.8912 -0.8134  1.0234
 2431SOL     OW18751   0.001   4.644  15.580  0.0434  0.4394 -0.0788
 2431SOL    HW118752   0.057   4.592  15.522 -2.1367  1.2410 -2.9409
 2431SOL    HW218753   4.667   4.693  15.515  3.6536  2.6804 -1.2374
 2432SOL     OW18754   0.790   3.033   1.821 -0.4958 -0.4523  0.4935
 2432SOL    HW118755   0.838   3.034   1.738  0.3467  0.8565  0.9964
 2432SOL    HW218756   0.843   2.961   1.855  0.2337 -0.1600 -0.0396
 2433SOL     OW18757   4.497   2.258   9.296 -0.6365 -0.6171 -0.4720
 2433SOL    HW118758   4.562   2.231   9.361  2.1854 -0.2365 -3.1326
 2433SOL    HW218759   4.538   2.211   9.223 -0.4313 -1.4599  0.1895
 2434SOL     OW18760   4.000   3.197   8.736 -0.2547 -0.3859 -0.5520
 2434SOL    HW118761   4.014   3.189   8.642 -1.2971 -0.6610 -0.6919
 2434SOL    HW218762   3.915   3.240   8.729 -0.6624 -0.7929  1.8560
 2435SOL     OW18763   2.168   4.183   5.145  0.0983  0.3270 -0.1022
 2435SOL    HW118764   2.190   4.275   5.133 -0.7731  0.6540  0.8902
 2435SOL    HW218765   2.163   4.180   5.240 -1.3809  0.3841 -0.1774
 2436SOL     OW18766   2.674   2.253   6.564 -0.3066  0.0263 -0.1386
 2436SOL    HW118767   2.606   2.312   6.530  0.5809  0.4224 -1.2335
 2436SOL    HW218768   2.720   2.218   6.487  1.6874 -0.0675  1.1007
 2437SOL     OW18769   3.515   1.065   0.441 -0.1980  0.2509 -0.0187
 2437SOL    HW118770   3.524   1.006   0.366  0.3917  0.5261 -0.1576
 2437SOL    HW218771   3.501   1.153   0.405  0.1891  1.1147  1.9421
 2438SOL     OW18772   0.596   3.943  10.469 -0.1303  0.2853 -0.5086
 2438SOL    HW118773   0.572   3.869  10.525 -1.8655  0.3805 -1.1407
 2438SOL    HW218774   0.566   3.906  10.386 -0.2073 -0.3874 -0.1819
 2439SOL     OW18775   3.275   3.023   2.370 -0.1241 -0.1229  0.1095
 2439SOL    HW118776   3.257   3.023   2.276 -1.0805 -1.5921  0.2863
 2439SOL    HW218777   3.302   2.934   2.393 -2.2429 -0.1845  2.4432
 2440SOL     OW18778   4.046   2.803   9.369 -0.3755 -0.3796  0.2099
 2440SOL    HW118779   4.066   2.711   9.389  1.7671  0.0074 -0.2204
 2440SOL    HW218780   3.953   2.799   9.393 -0.8218  1.8319 -1.1596
 2441SOL     OW18781   0.355   2.787   6.050 -0.0725  1.1795  0.0051
 2441SOL    HW118782   0.392   2.701   6.067  0.2880  1.7618  2.1060
 2441SOL    HW218783   0.306   2.803   6.131 -2.9160 -0.8557 -1.2797
 2442SOL     OW18784   3.088   1.093   3.574  0.2261 -0.1231  0.5428
 2442SOL    HW118785   3.049   1.049   3.498  1.4938 -0.9145  0.3647
 2442SOL    HW218786   3.139   1.169   3.544 -0.9214  0.3976 -0.1041
 2443SOL     OW18787   0.755   4.413   7.632  0.0574  0.1639 -0.1389
 2443SOL    HW118788   0.845   4.396   7.662 -0.1248  1.1504  0.9485
 2443SOL    HW218789   0.777   4.468   7.557  1.9320 -0.4035 -0.0049
 2444SOL     OW18790   3.094   2.390  16.331 -0.5110  0.2339  0.1462
 2444SOL    HW118791   3.160   2.442  16.286  0.4665 -0.9899  0.1465
 2444SOL    HW218792   3.013   2.439  16.316 -1.2322 -1.4075 -1.4019
 2445SOL     OW18793   2.055   3.880   2.162  0.1978 -0.2996 -0.1041
 2445SOL    HW118794   2.003   3.908   2.087  2.0803 -2.1688 -2.1067
 2445SOL    HW218795   2.013   3.934   2.229  1.0982  0.1132  0.1235
 2446SOL     OW18796   3.922   3.435   6.457 -0.6381  0.6750  0.3413
 2446SOL    HW118797   3.847   3.472   6.411  1.1185  1.4728 -1.8895
 2446SOL    HW218798   3.983   3.509   6.462 -0.4529  0.3398  3.1305
 2447SOL     OW18799   2.830   3.380   4.527  0.2580  0.0836  0.2529
 2447SOL    HW118800   2.873   3.298   4.504  1.7331  0.8091  0.4405
 2447SOL    HW218801   2.836   3.426   4.443 -0.0475  0.5449  0.4839
 2448SOL     OW18802   1.287   2.084   8.179 -0.1915  0.0208 -0.0716
 2448SOL    HW118803   1.318   2.113   8.265 -1.5784  0.9818  0.0980
 2448SOL    HW218804   1.265   1.991   8.185 -1.2294  0.1406 -2.0555
 2449SOL     OW18805   2.340   3.121   2.803  0.1144  0.2896  0.0082
 2449SOL    HW118806   2.328   3.027   2.816 -0.9649  0.3643 -0.4720
 2449SOL    HW218807   2.331   3.142   2.710  0.4739 -2.4697 -0.6432
 2450SOL     OW18808   3.074   2.792   5.286  0.0063  0.5714 -0.0761
 2450SOL    HW118809   3.038   2.709   5.254 -1.4115  1.9497 -2.0626
 2450SOL    HW218810   3.061   2.796   5.380 -0.0037 -2.0362  0.0509
 2451SOL     OW18811   2.627   1.762   4.448 -0.0408 -0.8890  0.2349
 2451SOL    HW118812   2.626   1.857   4.431 -2.1424 -1.2644 -1.7182
 2451SOL    HW218813   2.540   1.738   4.416  1.2437 -2.2111 -2.2351
 2452SOL     OW18814   0.310   3.585  16.231 -0.0038 -0.0667 -0.3453
 2452SOL    HW118815   0.345   3.673  16.245  0.3334 -0.6395  2.5173
 2452SOL    HW218816   0.270   3.563  16.316  1.2248 -0.6892  0.0693
 2453SOL     OW18817   3.173   3.883  13.627 -0.3857  0.2623 -0.6135
 2453SOL    HW118818   3.167   3.863  13.720 -1.4085  2.3447 -0.2363
 2453SOL    HW218819   3.091   3.932  13.620  0.4044  1.8442  1.3555
 2454SOL     OW18820   1.955   2.618   3.037  0.0943 -0.0574  0.1752
 2454SOL    HW118821   2.017   2.684   3.068  0.1140  0.0290 -0.0443
 2454SOL    HW218822   1.915   2.669   2.966  0.1736 -1.1215 -0.6319
 2455SOL     OW18823   3.221   2.299   2.468 -0.3644 -0.4873 -0.1386
 2455SOL    HW118824   3.247   2.308   2.559  1.2583 -1.8120 -0.4769
 2455SOL    HW218825   3.286   2.234   2.443 -0.7009 -0.6701 -0.5302
 2456SOL     OW18826   0.459   4.561   7.047  0.4106  0.5919 -0.7551
 2456SOL    HW118827   0.446   4.628   6.980  0.1509 -0.3560 -1.6525
 2456SOL    HW218828   0.451   4.483   6.993  0.6537 -0.0283  0.1214
 2457SOL     OW18829   1.325   0.366   8.116  0.6304  0.1692  0.1731
 2457SOL    HW118830   1.271   0.303   8.163  0.9092 -0.8058 -0.7959
 2457SOL    HW218831   1.270   0.389   8.042  1.6009 -0.4211 -0.7347
 2458SOL     OW18832   2.789   1.372   2.104 -0.3128  0.3820 -0.6770
 2458SOL    HW118833   2.766   1.464   2.118 -0.1574  0.4289 -0.7286
 2458SOL    HW218834   2.785   1.337   2.193 -1.0264 -1.0699 -1.2750
 2459SOL     OW18835   0.207   1.675   4.444 -0.5576 -0.1648  0.3374
 2459SOL    HW118836   0.295   1.662   4.480 -0.0911  2.0988  0.0149
 2459SOL    HW218837   0.224   1.731   4.368 -0.8871  1.3243  1.3771
 2460SOL     OW18838   4.674   0.745   0.073 -0.0574 -0.1467 -0.1149
 2460SOL    HW118839   4.600   0.713   0.021  0.2446 -1.9817  0.5816
 2460SOL    HW218840   4.696   0.824   0.025  0.4934 -0.6070 -0.6136
 2461SOL     OW18841   0.883   2.206   7.231  0.4774  0.2720  0.1408
 2461SOL    HW118842   0.851   2.200   7.321  1.5766  1.2011  0.5920
 2461SOL    HW218843   0.883   2.301   7.219 -0.0655  0.0239 -1.9297
 2462SOL     OW18844   2.789   4.001   7.894  0.0755 -0.5932 -0.3136
 2462SOL    HW118845   2.707   4.042   7.868 -0.6363 -1.3723  0.6936
 2462SOL    HW218846   2.825   4.068   7.952 -0.0423  0.8142 -1.8602
 2463SOL     OW18847   3.334   4.622   0.813 -0.4345 -0.1340 -0.3045
 2463SOL    HW118848   3.369   4.671   0.888 -1.2297  0.0022 -0.0320
 2463SOL    HW218849   3.380   4.540   0.831  0.3839  0.9658  2.5427
 2464SOL     OW18850   3.818   2.108   2.724  0.5900  0.1923  0.4918
 2464SOL    HW118851   3.746   2.080   2.780 -0.3306  3.2428  0.8442
 2464SOL    HW218852   3.780   2.189   2.689  0.0956 -0.6920 -0.9978
 2465SOL     OW18853   1.964   1.382   7.505  0.4509  0.1031 -0.2287
 2465SOL    HW118854   1.886   1.420   7.465  1.0073  0.0587 -1.3687
 2465SOL    HW218855   1.941   1.402   7.595 -0.2263 -0.3507 -0.2999
 2466SOL     OW18856   0.871   3.451   8.436 -0.2541  0.6983 -0.2984
 2466SOL    HW118857   0.919   3.497   8.504 -0.1441  1.1871 -0.7110
 2466SOL    HW218858   0.886   3.358   8.455  0.7788  0.8388 -0.3898
 2467SOL     OW18859   4.316   0.239   2.019  0.4986  0.6493  0.0704
 2467SOL    HW118860   4.240   0.259   1.965  0.2473 -1.5135 -0.3985
 2467SOL    HW218861   4.295   0.147   2.037  0.3950  1.0400  2.0149
 2468SOL     OW18862   2.502   2.538   8.653  0.4359 -0.0022 -0.1723
 2468SOL    HW118863   2.413   2.524   8.686  0.2060 -2.0771 -1.7234
 2468SOL    HW218864   2.549   2.578   8.727 -1.7173  1.8512  0.1858
 2469SOL     OW18865   1.482   3.758   5.459 -0.4500  0.3940  0.0369
 2469SOL    HW118866   1.511   3.667   5.468  0.7385  0.7204 -0.4356
 2469SOL    HW218867   1.403   3.758   5.512  0.4604  1.4864  1.3761
 2470SOL     OW18868   3.920   2.462   1.416  0.1476 -0.6117  0.6591
 2470SOL    HW118869   3.966   2.503   1.490 -0.3421  0.7663  0.1998
 2470SOL    HW218870   3.983   2.391   1.404  0.7518  0.2902 -1.3589
 2471SOL     OW18871   0.486   3.981   2.711 -0.2952 -0.0408  0.1603
 2471SOL    HW118872   0.480   3.897   2.664  0.2078 -0.8207  1.4730
 2471SOL    HW218873   0.509   4.028   2.631  2.6365  0.8623  1.5436
 2472SOL     OW18874   2.865   0.367   0.810  0.2258 -0.0645  0.2339
 2472SOL    HW118875   2.892   0.454   0.782 -1.7661  0.5656  0.2616
 2472SOL    HW218876   2.904   0.356   0.896  2.2214 -2.4278 -0.9579
 2473SOL     OW18877   4.024   4.418   4.118 -0.2049  0.1495  0.4964
 2473SOL    HW118878   4.075   4.477   4.062 -0.3572  0.0260  0.2231
 2473SOL    HW218879   3.981   4.364   4.051  0.7376  3.3959 -2.7544
 2474SOL     OW18880   4.166   2.344   6.110 -0.5737  0.1189 -0.1340
 2474SOL    HW118881   4.134   2.352   6.020  0.0881  0.3682 -0.3453
 2474SOL    HW218882   4.210   2.262   6.086  0.4006  0.9244 -1.0621
 2475SOL     OW18883   1.390   1.373  13.793 -0.4206  0.4885  0.1593
 2475SOL    HW118884   1.307   1.421  13.784 -1.0194 -0.3242  1.4623
 2475SOL    HW218885   1.380   1.314  13.718 -0.5535 -1.5790  1.8225
 2476SOL     OW18886   0.684   3.850  11.550  0.2990 -0.3563 -0.1992
 2476SOL    HW118887   0.595   3.813  11.549  0.1956 -0.0972 -0.8124
 2476SOL    HW218888   0.690   3.905  11.472  0.4724 -0.4649 -0.2635
 2477SOL     OW18889   1.871   4.127  16.522  0.3138  0.5484 -0.1408
 2477SOL    HW118890   1.784   4.162  16.540  0.7718  1.1900  0.8281
 2477SOL    HW218891   1.842   4.041  16.493 -1.1213  0.4177  1.6884
 2478SOL     OW18892   3.189   2.318  10.294  0.4777  0.3161  0.6221
 2478SOL    HW118893   3.226   2.243  10.342 -0.5969 -0.2966  0.4897
 2478SOL    HW218894   3.234   2.389  10.339 -1.0893  0.4857  1.9466
 2479SOL     OW18895   0.047   4.397   1.805 -0.1612  0.1880  0.1235
 2479SOL    HW118896   0.041   4.317   1.753  2.9500  0.5645 -0.7860
 2479SOL    HW218897   4.675   4.395   1.838 -0.5273  2.6199 -0.7361
 2480SOL     OW18898   1.656   0.978   6.936  0.0799  0.2583  0.2395
 2480SOL    HW118899   1.589   1.037   6.972 -0.7700 -0.9951  0.6990
 2480SOL    HW218900   1.716   0.970   7.010  1.0633 -1.1570 -0.7268
 2481SOL     OW18901   2.345   2.894  12.598 -0.8561 -0.1269  0.1183
 2481SOL    HW118902   2.281   2.823  12.604 -0.7022 -0.2841 -0.1015
 2481SOL    HW218903   2.324   2.937  12.681  1.4619 -1.3429  1.3330
 2482SOL     OW18904   1.222   0.079  16.573  0.3287  0.3222 -0.3310
 2482SOL    HW118905   1.303   0.113  16.535  1.1241  0.7278  1.7404
 2482SOL    HW218906   1.161   0.087  16.499  0.3963 -0.1691 -0.4403
 2483SOL     OW18907   2.085   1.624  16.534 -0.0267 -0.0816  0.3052
 2483SOL    HW118908   2.113   1.595  16.448  0.3104 -0.1890  0.4538
 2483SOL    HW218909   2.163   1.640  16.587  1.2575  1.7947 -2.1313
 2484SOL     OW18910   1.246   2.250   1.951 -0.3005  0.5481  0.2276
 2484SOL    HW118911   1.276   2.305   1.880 -0.4676 -0.6466 -0.7691
 2484SOL    HW218912   1.306   2.276   2.021  2.3427 -2.1231 -1.0394
 2485SOL     OW18913   1.717   3.718   1.192 -0.4351  0.8305 -0.8634
 2485SOL    HW118914   1.699   3.799   1.143  2.4132  1.0775 -1.5034
 2485SOL    HW218915   1.767   3.747   1.269 -0.3916 -1.3659 -0.0516
 2486SOL     OW18916   2.417   0.283  15.081 -0.1091 -0.0023  0.1067
 2486SOL    HW118917   2.440   0.283  15.174  1.8435 -1.9556 -0.3821
 2486SOL    HW218918   2.403   0.378  15.072 -0.3116 -0.0177  0.2657
 2487SOL     OW18919   0.068   4.039  13.642  0.5961 -0.0287 -0.2023
 2487SOL    HW118920   0.092   4.126  13.672 -1.0637  0.8632 -1.4631
 2487SOL    HW218921   4.692   4.053  13.626  0.5377  0.4141  0.5466
 2488SOL     OW18922   2.599   0.370  17.497 -1.0722 -0.2550  0.0696
 2488SOL    HW118923   2.557   0.354  17.413  0.2312  1.8941 -0.9952
 2488SOL    HW218924   2.664   0.300  17.499 -2.3685 -1.4310  1.1005
 2489SOL     OW18925   1.582   0.238   4.720  0.3556 -0.3592 -0.3807
 2489SOL    HW118926   1.492   0.208   4.732  0.6256 -1.5538 -1.2932
 2489SOL    HW218927   1.589   0.310   4.783  0.9420  0.8108 -1.7874
 2490SOL     OW18928   3.516   0.752   6.506  0.9320  0.5139 -0.7492
 2490SOL    HW118929   3.448   0.812   6.474 -2.0503 -1.5506  1.6703
 2490SOL    HW218930   3.478   0.711   6.583 -2.9408 -0.1378 -2.9894
 2491SOL     OW18931   3.116   1.983   4.362 -0.7307 -0.3829  0.2888
 2491SOL    HW118932   3.040   2.034   4.335 -0.2760  0.0543 -0.1547
 2491SOL    HW218933   3.083   1.909   4.413  1.7412 -0.6058  1.5954
 2492SOL     OW18934   3.477   2.772   2.171  0.0648 -0.0390 -0.4698
 2492SOL    HW118935   3.490   2.727   2.254  0.9620  2.4086  0.7155
 2492SOL    HW218936   3.542   2.728   2.116  0.9381  0.3875  0.2368
 2493SOL     OW18937   2.674   0.082   1.111 -0.0627 -0.6343 -0.1256
 2493SOL    HW118938   2.767   0.089   1.131 -0.7578  2.3386  2.0782
 2493SOL    HW218939   2.660   4.716   1.156  2.1680 -0.9356  0.0128
 2494SOL     OW18940   0.916   3.754   7.585 -0.1399 -0.4060  0.5005
 2494SOL    HW118941   0.831   3.789   7.557 -0.7101 -2.1828  0.0191
 2494SOL    HW218942   0.921   3.669   7.542 -2.3969 -0.6824  0.7699
 2495SOL     OW18943   4.443   2.208   7.466  0.3380  0.4239  0.1219
 2495SOL    HW118944   4.534   2.225   7.442  0.5629 -1.4497 -0.3114
 2495SOL    HW218945   4.396   2.290   7.449 -0.6342 -0.6446 -2.3987
 2496SOL     OW18946   1.111   0.833   8.100  0.0865 -0.3418 -0.7220
 2496SOL    HW118947   1.050   0.775   8.146 -1.0162  1.7869  0.4676
 2496SOL    HW218948   1.200   0.802   8.121  0.7221  2.2169  0.3079
 2497SOL     OW18949   1.728   3.423   9.188 -0.3749  0.1319  0.4636
 2497SOL    HW118950   1.737   3.380   9.103 -0.4063  0.3642  0.3427
 2497SOL    HW218951   1.633   3.419   9.190 -0.4950  1.8070 -1.3507
 2498SOL     OW18952   1.217   0.910  11.069  0.1561 -0.4969 -0.4000
 2498SOL    HW118953   1.304   0.944  11.049 -0.8930  1.4061 -1.7636
 2498SOL    HW218954   1.243   0.819  11.087  0.9766  0.0157  0.9209
 2499SOL     OW18955   3.499   3.054   4.385 -0.1830 -0.5154 -0.3690
 2499SOL    HW118956   3.432   3.100   4.335  1.5294  0.2862 -1.9525
 2499SOL    HW218957   3.514   2.972   4.336  0.7732  0.3587 -1.5556
 2500SOL     OW18958   3.316   0.286   1.967 -0.0736 -0.2094 -0.0280
 2500SOL    HW118959   3.270   0.240   2.037 -1.9788  2.1880  0.3065
 2500SOL    HW218960   3.253   0.262   1.899  0.5672  1.5151 -1.2214
 2501SOL     OW18961   0.172   1.576   2.920  0.1291  0.0689 -0.3215
 2501SOL    HW118962   0.201   1.621   2.841 -0.1477  0.2949 -0.2937
 2501SOL    HW218963   0.086   1.538   2.901  1.9145 -2.4141 -3.3637
 2502SOL     OW18964   3.097   3.420   4.618 -0.4412 -0.0551 -0.5680
 2502SOL    HW118965   3.053   3.356   4.562  2.2635 -1.8929 -0.6117
 2502SOL    HW218966   3.049   3.406   4.699  0.2210  1.2611  0.0440
 2503SOL     OW18967   2.630   3.093  15.781 -0.1562  0.4617 -0.7377
 2503SOL    HW118968   2.591   3.131  15.859 -0.3034  0.3122 -0.7364
 2503SOL    HW218969   2.641   3.169  15.724  1.7486  1.2194  0.6781
 2504SOL     OW18970   2.291   2.688   0.950 -0.3458  0.2320 -0.0134
 2504SOL    HW118971   2.334   2.603   0.945 -0.4753  0.1837 -0.2769
 2504SOL    HW218972   2.288   2.705   0.856  1.2312  0.7699  0.0228
 2505SOL     OW18973   4.471   0.501   5.275  0.2070 -0.1058  0.3915
 2505SOL    HW118974   4.505   0.469   5.359  2.6332  1.6820  0.0885
 2505SOL    HW218975   4.556   0.528   5.240 -0.8054  0.2862 -1.7928
 2506SOL     OW18976   0.132   2.461  13.799  0.0852  0.0952  0.5917
 2506SOL    HW118977   0.116   2.450  13.705  1.2249  1.3568  0.2532
 2506SOL    HW218978   0.071   2.533  13.816 -1.1717 -0.3220 -2.0828
 2507SOL     OW18979   4.005   0.589   3.185 -0.0597 -0.4555 -0.6006
 2507SOL    HW118980   4.034   0.665   3.133  0.5966 -1.3922 -1.6180
 2507SOL    HW218981   3.960   0.552   3.109  1.4693 -2.0536 -0.7551
 2508SOL     OW18982   1.395   4.101   0.030  0.1666 -0.2003  0.0687
 2508SOL    HW118983   1.399   4.162  17.629 -2.7732  1.5674  1.3885
 2508SOL    HW218984   1.463   4.038   0.009 -1.1983 -1.1369 -1.5248
 2509SOL     OW18985   3.272   1.479   5.550 -0.2254  0.5608  0.0515
 2509SOL    HW118986   3.359   1.507   5.522 -0.4430  1.4385  0.2705
 2509SOL    HW218987   3.260   1.561   5.597 -1.1033  0.8740 -0.7076
 2510SOL     OW18988   2.033   1.619   2.265 -0.4230 -0.0095 -0.1161
 2510SOL    HW118989   1.998   1.634   2.352  1.2587 -1.5135  0.8063
 2510SOL    HW218990   2.080   1.536   2.270 -1.0833 -0.4758 -1.5635
 2511SOL     OW18991   3.115   2.242   4.998  0.6204  0.0013 -0.3097
 2511SOL    HW118992   3.160   2.168   4.959  1.0380 -0.0218  0.2255
 2511SOL    HW218993   3.167   2.239   5.078 -0.9376  0.9344  0.7423
 2512SOL     OW18994   3.794   0.320   6.900 -0.7234 -0.1376  0.1650
 2512SOL    HW118995   3.752   0.403   6.879 -0.5923 -0.2856 -0.6841
 2512SOL    HW218996   3.872   0.346   6.949 -0.6645  0.4665 -0.2487
 2513SOL     OW18997   1.097   1.583  13.209 -0.5542  0.1663 -0.5247
 2513SOL    HW118998   1.163   1.574  13.140 -0.6953 -1.0691 -0.5009
 2513SOL    HW218999   1.022   1.580  13.150 -1.0902  1.8371  0.0664
 2514SOL     OW19000   3.391   1.473  11.315 -0.1674 -0.4524 -0.0290
 2514SOL    HW119001   3.451   1.547  11.305  1.7369 -2.0268 -0.2477
 2514SOL    HW219002   3.434   1.399  11.272  0.8963 -1.5227  2.8409
 2515SOL     OW19003   1.368   3.907   3.082  0.7763  0.0777 -0.0415
 2515SOL    HW119004   1.337   3.819   3.063 -0.1996  0.4755 -0.2765
 2515SOL    HW219005   1.395   3.926   2.992 -1.4933  0.2862 -0.6785
 2516SOL     OW19006   2.320   2.871   6.571  0.4107  0.1905  0.1517
 2516SOL    HW119007   2.405   2.837   6.600 -0.3795 -1.3473  0.6797
 2516SOL    HW219008   2.299   2.819   6.494  2.2754  1.2051 -1.0655
 2517SOL     OW19009   2.373   0.222  10.662 -0.3488  0.0537 -0.6200
 2517SOL    HW119010   2.354   0.161  10.733  1.7174  0.4143  0.2456
 2517SOL    HW219011   2.463   0.195  10.642  0.0061  1.1215 -0.4734
 2518SOL     OW19012   1.953   2.928  11.392 -0.3397  0.0088  0.2481
 2518SOL    HW119013   2.042   2.963  11.390 -0.2044 -0.2748  1.3152
 2518SOL    HW219014   1.974   2.842  11.356 -0.1039 -0.5756  1.7755
 2519SOL     OW19015   2.778   0.429   6.163  0.3914  0.1901 -0.3947
 2519SOL    HW119016   2.824   0.409   6.244  1.5315 -0.2506 -1.1451
 2519SOL    HW219017   2.808   0.359   6.105  2.5168  0.2628  0.6202
 2520SOL     OW19018   3.463   1.477   4.790 -0.7748  0.3649  0.2788
 2520SOL    HW119019   3.425   1.423   4.721  0.3436 -0.4871  0.3302
 2520SOL    HW219020   3.523   1.421   4.840 -1.4159 -0.5371  0.0412
 2521SOL     OW19021   0.843   2.104   9.367 -0.7737  0.0222 -0.7441
 2521SOL    HW119022   0.920   2.089   9.422 -0.7325 -1.7766 -1.2965
 2521SOL    HW219023   0.789   2.033   9.402  1.3044 -1.4054 -0.4447
 2522SOL     OW19024   1.110   3.409  14.076 -0.6049  0.2961 -0.2940
 2522SOL    HW119025   1.034   3.350  14.072 -1.3215  1.1898  0.3564
 2522SOL    HW219026   1.065   3.493  14.083  0.2165  0.7640 -0.5416
 2523SOL     OW19027   1.003   3.431   7.129 -0.3296  0.6791  0.3103
 2523SOL    HW119028   0.997   3.381   7.048  1.4843 -1.3489  1.4149
 2523SOL    HW219029   1.039   3.366   7.190  0.2363  0.7758  0.0769
 2524SOL     OW19030   1.473   3.565  15.437  0.4528 -0.8196  0.1553
 2524SOL    HW119031   1.551   3.575  15.382  0.8878  0.8670  1.0638
 2524SOL    HW219032   1.500   3.481  15.474  2.4696 -0.8924 -1.4797
 2525SOL     OW19033   2.042   2.983   3.100  0.0267 -0.0100  0.3178
 2525SOL    HW119034   1.969   2.957   3.044 -0.4249 -1.3898  1.5523
 2525SOL    HW219035   2.029   3.074   3.127 -0.7538 -0.2475  0.7451
 2526SOL     OW19036   1.815   4.337  13.332 -0.3157  0.2596  0.6852
 2526SOL    HW119037   1.805   4.258  13.385  1.4359 -0.0917  0.4908
 2526SOL    HW219038   1.738   4.383  13.366 -1.5327 -1.5417  0.3180
 2527SOL     OW19039   3.805   0.067  17.469  0.1862 -0.3440  0.0486
 2527SOL    HW119040   3.818   4.708  17.413 -0.7782 -0.8554  0.5337
 2527SOL    HW219041   3.730   0.044  17.523  0.7644 -0.7248  0.6879
 2528SOL     OW19042   2.579   2.584  13.354 -0.2871  0.5223 -0.2828
 2528SOL    HW119043   2.635   2.661  13.349  2.4385 -1.6343 -2.5759
 2528SOL    HW219044   2.499   2.619  13.394 -0.3769  0.1842 -0.1618
 2529SOL     OW19045   1.624   1.708   7.710 -0.3000 -0.3827 -0.5657
 2529SOL    HW119046   1.552   1.770   7.696  0.1405  0.3143  0.2532
 2529SOL    HW219047   1.584   1.627   7.677  0.1911 -1.1028  0.5890
 2530SOL     OW19048   0.866   4.090  15.115 -0.2042 -0.4452 -0.0384
 2530SOL    HW119049   0.872   4.164  15.055  0.6380  0.6698  1.4645
 2530SOL    HW219050   0.782   4.049  15.093 -2.2825  2.6045  2.2440
 2531SOL     OW19051   2.309   2.931   4.575 -0.4048 -0.5995  0.0409
 2531SOL    HW119052   2.402   2.943   4.596 -0.2906 -2.4384  0.6235
 2531SOL    HW219053   2.272   3.018   4.590 -0.4354 -0.4075 -1.1997
 2532SOL     OW19054   3.853   2.041   1.799  0.3238 -0.1651 -0.0763
 2532SOL    HW119055   3.899   2.111   1.753 -1.2107 -0.1257 -1.5619
 2532SOL    HW219056   3.903   2.036   1.880 -0.3096 -0.1482  0.3143
 2533SOL     OW19057   3.475   3.273  11.004  0.3135 -0.2595  0.9204
 2533SOL    HW119058   3.411   3.298  10.937  2.2448 -2.9736 -1.9591
 2533SOL    HW219059   3.556   3.281  10.952 -0.7345 -1.2896 -0.8759
 2534SOL     OW19060   0.011   0.549   0.727 -0.0775 -0.2285  0.0569
 2534SOL    HW119061   4.698   0.630   0.687 -0.0202  0.1021  0.6924
 2534SOL    HW219062   0.106   0.552   0.724  0.0006 -1.9428  0.4158
 2535SOL     OW19063   3.873   0.318   5.531 -0.4579 -0.0888  0.3687
 2535SOL    HW119064   3.799   0.291   5.586  0.9351  0.3218  2.4500
 2535SOL    HW219065   3.840   0.325   5.441 -1.9131  2.1538  1.0600
 2536SOL     OW19066   1.873   4.391  13.759  0.2929  0.2093 -0.2295
 2536SOL    HW119067   1.856   4.310  13.808  0.5353  0.6970  0.6618
 2536SOL    HW219068   1.804   4.440  13.803 -0.2311 -0.7526  0.0073
 2537SOL     OW19069   3.888   0.556   2.570  0.0584 -0.1854 -0.0532
 2537SOL    HW119070   3.887   0.461   2.560 -1.1181 -0.0835 -0.9520
 2537SOL    HW219071   3.954   0.552   2.639 -1.5880  2.1310  1.6821
 2538SOL     OW19072   2.308   2.196   2.077 -1.2231 -0.6790  0.0873
 2538SOL    HW119073   2.345   2.117   2.038 -0.1440  0.1840 -0.6096
 2538SOL    HW219074   2.370   2.256   2.036  0.5969 -1.2493  2.0551
 2539SOL     OW19075   3.631   3.041   3.057  0.0675 -0.4025 -0.1468
 2539SOL    HW119076   3.725   3.061   3.055  0.2778 -1.5905 -1.5684
 2539SOL    HW219077   3.627   3.019   3.150  0.7705  0.8590  0.1823
 2540SOL     OW19078   3.765   0.124   2.810  0.1255  0.2172  0.2318
 2540SOL    HW119079   3.842   0.182   2.815 -0.9961  1.7667 -0.4571
 2540SOL    HW219080   3.689   0.180   2.825 -0.9710 -1.2273  0.0015
 2541SOL     OW19081   3.521   2.478   6.123  0.3001 -0.0853  0.1396
 2541SOL    HW119082   3.485   2.452   6.207 -2.0903 -1.0445 -1.1850
 2541SOL    HW219083   3.512   2.404   6.062  0.1815  0.2219 -0.2179
 2542SOL     OW19084   2.648   1.717   5.944  0.8367  0.1417  0.5077
 2542SOL    HW119085   2.600   1.788   5.900  0.1181 -1.4652 -1.2964
 2542SOL    HW219086   2.590   1.723   6.021 -0.9462 -1.1462 -0.7335
 2543SOL     OW19087   0.805   1.886   7.436  0.2002 -0.2269 -0.1785
 2543SOL    HW119088   0.888   1.930   7.413 -0.3825  1.3827  0.7669
 2543SOL    HW219089   0.777   1.838   7.358 -2.7135  0.5154  0.4205
 2544SOL     OW19090   4.334   3.315  13.346  0.3974 -0.0906  0.4787
 2544SOL    HW119091   4.284   3.325  13.265 -0.6019 -2.9337  0.7386
 2544SOL    HW219092   4.383   3.397  13.349 -0.6595  0.6207 -1.4209
 2545SOL     OW19093   0.731   0.921   7.927  0.0887 -0.1015 -0.0354
 2545SOL    HW119094   0.718   0.899   8.019 -1.2924 -0.2379 -0.2659
 2545SOL    HW219095   0.758   1.013   7.925  1.5777 -0.4989  1.8078
 2546SOL     OW19096   2.495   4.677   8.015 -0.0734 -0.0265 -0.0538
 2546SOL    HW119097   2.480   0.054   8.021  0.6069  0.1537 -1.2992
 2546SOL    HW219098   2.463   4.654   8.102  0.7741 -2.8271 -0.5042
 2547SOL     OW19099   4.259   3.806   4.334  0.5992 -0.1206  0.0234
 2547SOL    HW119100   4.243   3.725   4.381 -1.2947  0.2638  0.0204
 2547SOL    HW219101   4.248   3.777   4.244 -1.4602  1.0187 -0.0953
 2548SOL     OW19102   0.655   3.243   7.815  0.4434 -0.2419  0.0094
 2548SOL    HW119103   0.625   3.167   7.866 -0.5388  1.2310  1.6153
 2548SOL    HW219104   0.574   3.293   7.812  1.6351  1.6810  0.0764
 2549SOL     OW19105   1.126   1.748   1.988  0.4909  0.1137  0.1781
 2549SOL    HW119106   1.194   1.687   1.960 -0.9821 -1.3228 -0.2957
 2549SOL    HW219107   1.141   1.829   1.940 -0.4012  2.2361  3.4486
 2550SOL     OW19108   1.663   0.030  17.063  0.1464 -0.7382  0.4894
 2550SOL    HW119109   1.652   0.064  17.152 -0.6698  0.9290 -0.2463
 2550SOL    HW219110   1.668   0.119  17.027 -2.5915 -0.4159  0.9100
 2551SOL     OW19111   3.511   3.613   1.092  0.6162 -0.2828  0.3352
 2551SOL    HW119112   3.587   3.615   1.033  0.6204 -1.3916  0.3121
 2551SOL    HW219113   3.527   3.697   1.135 -1.5439  0.1866  0.1989
 2552SOL     OW19114   0.542   1.420  12.742  0.4631 -0.3523  0.5963
 2552SOL    HW119115   0.569   1.328  12.739 -0.8828 -0.7135 -0.4435
 2552SOL    HW219116   0.611   1.453  12.685 -1.1388 -1.9821 -2.2859
 2553SOL     OW19117   3.747   0.447   1.522 -0.3582 -0.1966 -0.3844
 2553SOL    HW119118   3.652   0.453   1.519 -0.4008  0.6686  2.9744
 2553SOL    HW219119   3.770   0.476   1.434 -0.4548 -1.9331 -0.9839
 2554SOL     OW19120   4.158   4.555   3.916 -0.6397 -0.0852 -0.6232
 2554SOL    HW119121   4.124   4.544   3.827 -0.0229 -0.5000 -0.8062
 2554SOL    HW219122   4.191   4.644   3.905  1.5690 -0.5355  2.3870
 2555SOL     OW19123   2.402   2.927   6.183  0.7551 -0.1837 -0.2885
 2555SOL    HW119124   2.344   2.994   6.219 -0.7375 -1.3338 -0.5391
 2555SOL    HW219125   2.470   2.930   6.250 -0.5244  0.3814  0.9864
 2556SOL     OW19126   3.368   2.586   9.691 -0.0813  0.0069  0.3126
 2556SOL    HW119127   3.280   2.601   9.724 -0.7054 -0.0048 -1.3450
 2556SOL    HW219128   3.401   2.534   9.764 -1.9098 -0.9757  0.4278
 2557SOL     OW19129   0.932   0.632   2.796  0.1657  0.3826 -0.3101
 2557SOL    HW119130   0.911   0.644   2.889 -0.5519  0.3327 -0.4619
 2557SOL    HW219131   0.844   0.608   2.765 -0.2158 -0.7590  1.6576
 2558SOL     OW19132   4.135   0.383   1.440  0.1318  0.3163  0.1942
 2558SOL    HW119133   4.138   0.357   1.532  3.6511  0.0133 -0.0068
 2558SOL    HW219134   4.142   0.479   1.449  2.0158  0.1046  1.1200
 2559SOL     OW19135   3.584   2.756   3.030  0.2722  0.0176 -0.4142
 2559SOL    HW119136   3.502   2.789   3.066  0.1649  0.6617 -1.2348
 2559SOL    HW219137   3.629   2.838   3.008 -1.0263  1.3626  1.9857
 2560SOL     OW19138   1.015   2.404   7.728  0.2749  0.3359 -0.4152
 2560SOL    HW119139   0.970   2.487   7.710 -1.2047 -0.8402 -2.0586
 2560SOL    HW219140   0.937   2.363   7.765  0.5109  0.7899  0.6043
 2561SOL     OW19141   1.655   1.848  16.891  0.2803 -0.1064  0.6293
 2561SOL    HW119142   1.726   1.797  16.852 -1.5664 -0.3853 -2.3828
 2561SOL    HW219143   1.586   1.789  16.863  0.3820 -0.9694  2.2453
 2562SOL     OW19144   4.196   2.571   4.786 -0.2932 -0.0631  0.4966
 2562SOL    HW119145   4.172   2.512   4.714 -1.1141  0.4195  0.3755
 2562SOL    HW219146   4.202   2.657   4.745 -0.9329 -0.3679 -0.2472
 2563SOL     OW19147   1.265   3.190   4.414  0.0752 -0.2566  0.3386
 2563SOL    HW119148   1.298   3.162   4.329 -1.6264  2.6440 -1.2711
 2563SOL    HW219149   1.345   3.234   4.442  0.2570  0.8990 -2.0938
 2564SOL     OW19150   2.689   3.864   5.923  0.0587 -0.0839 -0.1841
 2564SOL    HW119151   2.599   3.832   5.929 -0.1486  0.4946 -0.2289
 2564SOL    HW219152   2.702   3.890   6.014  2.3269 -0.6862 -0.3179
 2565SOL     OW19153   0.224   2.716   0.693  0.0252  0.0346  0.3866
 2565SOL    HW119154   0.151   2.773   0.716 -0.8541 -0.9003 -0.0718
 2565SOL    HW219155   0.296   2.726   0.756 -0.3324  0.8736  0.6492
 2566SOL     OW19156   2.245   2.447   2.215 -0.1372  0.0916  0.6318
 2566SOL    HW119157   2.238   2.451   2.119  1.4485  3.3019  0.6471
 2566SOL    HW219158   2.198   2.364   2.219 -1.4416  0.7762 -0.2635
 2567SOL     OW19159   3.984   4.315   3.388  0.0518 -0.3169 -0.0844
 2567SOL    HW119160   4.061   4.303   3.332  0.4255  1.2542  0.0943
 2567SOL    HW219161   3.981   4.410   3.372  3.1499  0.1861  2.1666
 2568SOL     OW19162   0.260   1.230   8.406  0.4837  0.3285  0.3431
 2568SOL    HW119163   0.252   1.260   8.497 -0.1180  0.3622  0.2760
 2568SOL    HW219164   0.251   1.312   8.359 -3.3422  0.0340  0.5497
 2569SOL     OW19165   3.362   4.412  16.551 -0.9398  0.3171  0.0242
 2569SOL    HW119166   3.430   4.365  16.598 -1.0663 -0.6880 -0.8116
 2569SOL    HW219167   3.327   4.340  16.499  1.8222 -2.3976  1.9838
 2570SOL     OW19168   1.689   2.437   7.475 -0.7127 -0.0718  0.0508
 2570SOL    HW119169   1.663   2.438   7.567 -0.1500 -2.5496  0.2306
 2570SOL    HW219170   1.608   2.471   7.436 -1.4151  0.2300  1.7591
 2571SOL     OW19171   3.815   1.822  12.373  0.3897  0.1728 -0.1591
 2571SOL    HW119172   3.730   1.779  12.382  0.4462  0.4352  1.5420
 2571SOL    HW219173   3.827   1.845  12.465 -0.3438  0.8697 -0.2335
 2572SOL     OW19174   2.293   3.322  14.637  0.5399 -1.3461  0.6092
 2572SOL    HW119175   2.279   3.238  14.681 -0.0661 -0.8396  1.3792
 2572SOL    HW219176   2.385   3.336  14.658  0.6135 -0.5898 -0.2189
 2573SOL     OW19177   1.564   1.221   4.185 -0.1269  0.2786 -0.1503
 2573SOL    HW119178   1.610   1.226   4.269  0.7680  0.8546 -0.6680
 2573SOL    HW219179   1.487   1.167   4.205  0.6803 -1.2426 -1.1669
 2574SOL     OW19180   1.804   4.038   8.817  0.0631 -0.0212 -0.2692
 2574SOL    HW119181   1.812   4.075   8.729  0.1396  0.7827  0.0691
 2574SOL    HW219182   1.880   4.067   8.866  1.5388  0.5100 -2.8580
 2575SOL     OW19183   2.366   3.504   6.825 -0.1199 -0.1517  0.2009
 2575SOL    HW119184   2.439   3.451   6.859 -0.1911 -0.7634 -0.5910
 2575SOL    HW219185   2.288   3.453   6.845 -0.7891  0.6774 -0.3109
 2576SOL     OW19186   2.447   1.427   7.671  0.0678 -0.5948 -0.3600
 2576SOL    HW119187   2.352   1.440   7.676  0.3329  2.0561 -2.3102
 2576SOL    HW219188   2.448   1.416   7.576 -0.9978 -1.0229 -0.3165
 2577SOL     OW19189   3.549   2.304   7.318  0.1292 -0.2174 -0.0890
 2577SOL    HW119190   3.619   2.337   7.263  2.5584 -1.1092  2.4439
 2577SOL    HW219191   3.472   2.347   7.280  0.8101  1.0408 -0.0568
 2578SOL     OW19192   0.068   4.113  15.077  0.0876 -0.4641  0.2421
 2578SOL    HW119193   0.117   4.089  14.999 -1.5310  0.4983 -1.0519
 2578SOL    HW219194   0.121   4.182  15.116  0.1078  0.1492 -0.8931
 2579SOL     OW19195   3.761   3.498   9.627  0.1347  0.1438  0.5686
 2579SOL    HW119196   3.741   3.588   9.601  1.6967  0.1977 -0.4458
 2579SOL    HW219197   3.680   3.459   9.661  0.3771 -1.0214 -0.1857
 2580SOL     OW19198   3.315   2.847  10.308 -0.4548 -0.2179  0.2540
 2580SOL    HW119199   3.227   2.853  10.271  0.2800  2.1862 -1.1116
 2580SOL    HW219200   3.357   2.931  10.288 -1.8250  0.0913 -1.3689
 2581SOL     OW19201   1.579   1.232  14.790  0.8364  0.2288 -0.0611
 2581SOL    HW119202   1.643   1.160  14.794  0.9727  0.3363 -0.2987
 2581SOL    HW219203   1.505   1.209  14.845  1.0394  0.9013  0.4825
 2582SOL     OW19204   0.224   2.332  16.490  0.0230  0.0801  0.0812
 2582SOL    HW119205   0.215   2.427  16.495 -0.8318 -0.1177  2.2944
 2582SOL    HW219206   0.168   2.314  16.415 -0.1952  0.6784  0.1010
 2583SOL     OW19207   0.333   3.714  10.257 -0.5024 -0.3075 -0.1113
 2583SOL    HW119208   0.360   3.717  10.348  1.0723  1.0450 -0.6277
 2583SOL    HW219209   0.417   3.735  10.215 -0.4152  0.5309  0.4842
 2584SOL     OW19210   4.702   3.992  14.106 -0.3195 -0.2279 -0.9597
 2584SOL    HW119211   0.074   3.967  14.132 -0.6762  1.3013  1.7445
 2584SOL    HW219212   4.669   3.907  14.078  0.6002 -0.7478 -0.5003
 2585SOL     OW19213   3.874   4.597   4.281 -0.0618 -0.6961 -0.1287
 2585SOL    HW119214   3.846   4.554   4.361 -1.0888  0.0191 -0.1050
 2585SOL    HW219215   3.927   4.528   4.242  0.3893 -1.5238  1.9723
 2586SOL     OW19216   1.083   1.218   7.578  0.1488  0.8206  0.0256
 2586SOL    HW119217   1.032   1.139   7.597 -0.2162  0.5867 -1.9746
 2586SOL    HW219218   1.073   1.268   7.659 -0.4608 -2.1616  1.7953
 2587SOL     OW19219   0.336   0.274   4.172 -0.2148  0.2667  0.2158
 2587SOL    HW119220   0.278   0.223   4.229 -0.3551  0.3882  0.1824
 2587SOL    HW219221   0.360   0.204   4.111  0.1673  1.1154 -0.6118
 2588SOL     OW19222   2.332   1.255  14.893  0.0376  0.7965  0.2911
 2588SOL    HW119223   2.365   1.283  14.808  2.1172 -1.2100  0.4211
 2588SOL    HW219224   2.245   1.221  14.871  0.6805  0.0312 -1.0717
 2589SOL     OW19225   2.749   2.374   2.185 -0.3111  0.4864  0.2529
 2589SOL    HW119226   2.728   2.305   2.248 -0.2112 -0.1697 -0.4387
 2589SOL    HW219227   2.845   2.368   2.185 -0.4209 -1.4338  1.0789
 2590SOL     OW19228   4.089   0.669  14.522  0.1173 -0.3719 -0.1831
 2590SOL    HW119229   4.079   0.726  14.598  0.5802 -0.4477 -0.0709
 2590SOL    HW219230   4.040   0.592  14.551  1.9147 -1.4934 -0.1196
 2591SOL     OW19231   4.054   3.032   1.687  0.8453 -0.2492  0.2699
 2591SOL    HW119232   4.101   3.110   1.715 -0.5134 -0.1765  2.3258
 2591SOL    HW219233   3.973   3.039   1.736 -0.0126 -0.3133 -1.1395
 2592SOL     OW19234   4.265   4.406  14.911 -0.1529  0.3860 -0.3467
 2592SOL    HW119235   4.276   4.317  14.878 -3.4044 -0.7492  1.6425
 2592SOL    HW219236   4.324   4.457  14.855  0.3380 -0.4120 -0.5465
 2593SOL     OW19237   0.804   4.648   7.444  0.4775 -0.3826 -0.1177
 2593SOL    HW119238   0.718   4.668   7.482  0.6811  0.4072 -0.0752
 2593SOL    HW219239   0.788   4.670   7.352  1.2173  2.5266  0.4452
 2594SOL     OW19240   0.341   1.889   3.748  0.7071 -0.7167  0.3500
 2594SOL    HW119241   0.275   1.833   3.788 -1.0305 -0.0039 -1.4473
 2594SOL    HW219242   0.359   1.840   3.668  1.4302  0.5833 -0.2929
 2595SOL     OW19243   3.227   1.783  15.935 -0.0998 -0.2846 -0.0103
 2595SOL    HW119244   3.238   1.777  16.029 -1.0973  1.9697  0.2603
 2595SOL    HW219245   3.309   1.749  15.899 -0.0773  0.9263 -1.0937
 2596SOL     OW19246   3.981   1.957   4.943  0.5134  0.2156  0.3744
 2596SOL    HW119247   4.041   2.032   4.949  1.1669 -0.2564 -0.2307
 2596SOL    HW219248   3.939   1.962   5.029  0.9119  1.1939  0.5197
 2597SOL     OW19249   3.242   0.037   0.343 -0.5041 -0.3471 -0.1567
 2597SOL    HW119250   3.198   4.699   0.407  1.9038 -1.3622  0.6388
 2597SOL    HW219251   3.289   0.086   0.411  0.4730 -0.3647 -0.8248
 2598SOL     OW19252   2.476   2.398   6.451 -0.9270 -0.2755 -0.2954
 2598SOL    HW119253   2.422   2.323   6.424 -1.3941 -0.9698  2.5620
 2598SOL    HW219254   2.410   2.459   6.483 -0.0209  0.9248 -0.7121
 2599SOL     OW19255   3.890   0.483   5.797  0.0420  0.0568 -0.1350
 2599SOL    HW119256   3.843   0.424   5.738 -0.0340  0.1138 -0.1307
 2599SOL    HW219257   3.856   0.569   5.774 -0.9444  0.1853  1.7845
 2600SOL     OW19258   2.096   1.967  10.175  0.3970 -0.8300  0.2961
 2600SOL    HW119259   2.074   1.878  10.145 -2.9796  0.3344 -0.6500
 2600SOL    HW219260   2.013   2.004  10.202  1.1343  0.2156  1.1380
 2601SOL     OW19261   2.443   4.545   7.243 -0.7019 -0.0735  0.3490
 2601SOL    HW119262   2.350   4.569   7.242 -0.2174  1.8105  0.8964
 2601SOL    HW219263   2.477   4.623   7.201 -1.3626  0.4372  0.7626
 2602SOL     OW19264   3.228   1.973   0.089 -0.0854  0.0978 -0.0234
 2602SOL    HW119265   3.290   2.012   0.150 -1.9734 -1.5285  2.8899
 2602SOL    HW219266   3.272   1.889   0.074  1.0854  1.0390 -1.9276
 2603SOL     OW19267   0.172   4.173   4.130 -0.0432  0.2258 -0.1518
 2603SOL    HW119268   0.242   4.234   4.105 -1.1190  1.5618  0.1005
 2603SOL    HW219269   0.222   4.094   4.152 -0.7685 -0.0761  0.3896
 2604SOL     OW19270   0.096   0.290   6.316  0.2093 -0.0639 -0.1464
 2604SOL    HW119271   0.082   0.253   6.229  0.7468 -0.3655 -0.1121
 2604SOL    HW219272   0.068   0.379   6.300  0.2347  0.2629  1.5874
 2605SOL     OW19273   1.727   3.881  12.382  0.0993  0.1182  0.2404
 2605SOL    HW119274   1.790   3.809  12.386  1.2895  1.1709  0.3235
 2605SOL    HW219275   1.691   3.863  12.295  0.1934  0.8216  0.0559
 2606SOL     OW19276   0.182   1.891   3.274  0.4751  1.0657 -0.0034
 2606SOL    HW119277   0.161   1.912   3.183  1.2384  2.9420  0.2463
 2606SOL    HW219278   0.275   1.878   3.259  0.2718  0.7629 -0.9506
 2607SOL     OW19279   3.991   4.550  15.545 -0.0695  0.0106 -0.6855
 2607SOL    HW119280   4.023   4.482  15.604  0.5311  1.1417  0.3036
 2607SOL    HW219281   3.906   4.513  15.525 -0.0146 -0.4081 -0.1410
 2608SOL     OW19282   1.995   3.526  16.273 -0.5143 -0.1335  0.1697
 2608SOL    HW119283   2.037   3.460  16.218  0.0291  1.9168 -1.8735
 2608SOL    HW219284   2.011   3.604  16.219 -0.2093  0.3584  0.9726
 2609SOL     OW19285   3.809   0.915  12.279  0.5596 -0.0639 -0.5961
 2609SOL    HW119286   3.816   0.977  12.207 -1.2259 -0.5859 -1.2164
 2609SOL    HW219287   3.732   0.862  12.258  0.3736 -0.0233 -0.0030
 2610SOL     OW19288   1.082   1.239   6.261  1.0118 -0.3424 -0.0300
 2610SOL    HW119289   1.016   1.201   6.319  1.5160 -1.9028 -0.4672
 2610SOL    HW219290   1.032   1.265   6.183 -0.2284 -0.1245  0.8285
 2611SOL     OW19291   4.530   2.407   5.541 -0.1163  0.4289 -0.1345
 2611SOL    HW119292   4.559   2.316   5.538 -0.9677  0.1047  1.4972
 2611SOL    HW219293   4.600   2.457   5.498  2.2349 -1.7501  1.1376
 2612SOL     OW19294   2.042   3.216   3.205  0.3054 -0.0585  0.4288
 2612SOL    HW119295   2.022   3.299   3.161 -2.8265 -0.6124  0.8320
 2612SOL    HW219296   2.112   3.236   3.267 -0.0450  1.4610  0.3319
 2613SOL     OW19297   2.962   4.559   4.862 -0.7345  0.5901  0.1211
 2613SOL    HW119298   2.899   4.511   4.916  2.4422 -1.4906  2.0211
 2613SOL    HW219299   2.990   4.490   4.801 -0.9963 -0.2767  0.9767
 2614SOL     OW19300   3.366   3.888   6.400  0.2079 -0.5130  0.1165
 2614SOL    HW119301   3.420   3.831   6.345 -2.4034 -1.2618 -1.6255
 2614SOL    HW219302   3.279   3.849   6.394 -0.5660  1.2642 -0.3106
 2615SOL     OW19303   2.342   4.502  14.803 -0.2357 -0.1527 -0.3808
 2615SOL    HW119304   2.254   4.504  14.841 -0.0731 -1.1729  0.0393
 2615SOL    HW219305   2.389   4.434  14.851  0.4204  2.1970  2.2674
 2616SOL     OW19306   3.561   0.937   9.509  0.1438  0.3610  0.1460
 2616SOL    HW119307   3.581   1.006   9.446  1.2271 -1.5263 -1.5781
 2616SOL    HW219308   3.481   0.975   9.544 -1.4863 -0.2644 -2.9120
 2617SOL     OW19309   0.381   1.400   4.613 -0.1238 -0.9429 -0.0132
 2617SOL    HW119310   0.430   1.375   4.691 -0.1188  1.5752  0.8088
 2617SOL    HW219311   0.438   1.474   4.591 -0.5852 -1.0986 -1.7193
 2618SOL     OW19312   4.399   0.330   2.990  0.5968 -0.7383 -0.2508
 2618SOL    HW119313   4.324   0.298   2.939 -1.2561 -1.0112  2.6082
 2618SOL    HW219314   4.475   0.290   2.948 -0.2224 -0.8976 -1.5702
 2619SOL     OW19315   1.048   1.285   2.758  1.2331 -0.2777  0.0105
 2619SOL    HW119316   1.026   1.361   2.812  0.4090 -1.5981  1.5129
 2619SOL    HW219317   0.980   1.304   2.694  1.9160  0.4128 -0.5202
 2620SOL     OW19318   2.166   4.329   5.917  0.0973 -0.2186 -0.5810
 2620SOL    HW119319   2.230   4.290   5.977  1.4090  2.3302 -0.3185
 2620SOL    HW219320   2.177   4.262   5.850  2.6209  0.8675 -1.2319
 2621SOL     OW19321   3.462   0.807  12.805  0.5754  0.2501  0.5579
 2621SOL    HW119322   3.427   0.726  12.841 -2.4939  1.4988  0.3624
 2621SOL    HW219323   3.531   0.773  12.748 -0.1197  0.0048 -0.1316
 2622SOL     OW19324   0.737   4.028   0.232 -0.4149 -0.2860  0.3116
 2622SOL    HW119325   0.689   4.100   0.190 -0.6448  0.7669  2.3454
 2622SOL    HW219326   0.726   3.948   0.181  0.8486  0.0095 -0.4028
 2623SOL     OW19327   4.598   2.852   9.057  0.4499  0.0496  0.1651
 2623SOL    HW119328   4.570   2.798   8.984  0.8089 -1.2988  1.0248
 2623SOL    HW219329   4.586   2.936   9.012  0.5193 -0.4843 -0.8486
 2624SOL     OW19330   1.876   2.808   3.880 -0.4035  0.0183  0.3162
 2624SOL    HW119331   1.853   2.898   3.903 -1.5993 -0.5462  1.3403
 2624SOL    HW219332   1.905   2.815   3.790  0.7059  1.4536  0.7881
 2625SOL     OW19333   1.607   1.056   7.941 -0.4790 -0.2425  0.2709
 2625SOL    HW119334   1.622   0.970   7.980 -0.6905 -0.4616 -0.1324
 2625SOL    HW219335   1.641   1.116   8.007 -0.1690  0.2443 -0.3251
 2626SOL     OW19336   4.390   0.279   0.814  0.1000 -0.5229 -0.4681
 2626SOL    HW119337   4.434   0.262   0.897  0.0532 -0.5628 -0.4512
 2626SOL    HW219338   4.401   0.374   0.810  1.4126 -0.6317  0.5929
 2627SOL     OW19339   4.051   0.653  10.239  0.2528  0.3300  0.1963
 2627SOL    HW119340   4.087   0.700  10.314  1.3557 -0.6958  0.3086
 2627SOL    HW219341   3.969   0.618  10.275  0.3499 -0.0084  0.0830
 2628SOL     OW19342   1.641   1.271   1.423  0.5988 -0.2972  0.6171
 2628SOL    HW119343   1.558   1.316   1.408  2.1630  3.0039  1.9062
 2628SOL    HW219344   1.667   1.318   1.502 -1.9588  0.6975  0.8596
 2629SOL     OW19345   2.709   1.197  14.298  0.3806 -0.4167  0.1346
 2629SOL    HW119346   2.791   1.202  14.347  0.9877 -0.7654 -0.8504
 2629SOL    HW219347   2.734   1.214  14.207  1.4442  1.6653  0.8237
 2630SOL     OW19348   3.116   4.574   6.559  0.3440  0.0844 -0.0437
 2630SOL    HW119349   3.147   4.603   6.644 -0.2867 -0.8883  0.5151
 2630SOL    HW219350   3.192   4.531   6.519  0.8647 -0.0332  1.0967
 2631SOL     OW19351   2.523   3.447   5.914 -0.4876  0.3295  0.0371
 2631SOL    HW119352   2.552   3.487   5.831  2.2498  2.0470  1.8295
 2631SOL    HW219353   2.538   3.357   5.882 -0.0178  0.6240 -0.5892
 2632SOL     OW19354   4.276   3.144   8.684  0.2526 -0.3822  0.5087
 2632SOL    HW119355   4.195   3.172   8.727  0.9231  0.4704  1.2222
 2632SOL    HW219356   4.291   3.056   8.719 -1.2365 -0.5447  0.7206
 2633SOL     OW19357   2.104   4.067   5.847  0.4427  0.3647  0.5409
 2633SOL    HW119358   2.038   4.050   5.781 -0.2845 -0.7623  1.5558
 2633SOL    HW219359   2.153   3.986   5.858  1.2685  0.8983  0.8327
 2634SOL     OW19360   4.439   3.498   7.267  0.0391  0.2562 -0.0679
 2634SOL    HW119361   4.400   3.582   7.241 -0.0751 -0.2659 -1.5996
 2634SOL    HW219362   4.366   3.443   7.295 -0.3465  0.1016 -1.3845
 2635SOL     OW19363   0.415   2.110   6.078 -0.2059 -0.3756 -0.5256
 2635SOL    HW119364   0.451   2.196   6.057 -1.0545  0.5687  1.9775
 2635SOL    HW219365   0.492   2.062   6.109  0.7311  0.9287 -0.8438
 2636SOL     OW19366   0.223   0.732   4.789  0.4689  0.0453  0.0908
 2636SOL    HW119367   0.158   0.785   4.743  0.0237  1.5257  2.4173
 2636SOL    HW219368   0.304   0.781   4.773 -0.2959  0.8612 -1.3324
 2637SOL     OW19369   0.475   0.571   3.413  0.1934 -0.1060 -0.0164
 2637SOL    HW119370   0.392   0.598   3.373 -0.4429 -2.4174 -0.2120
 2637SOL    HW219371   0.515   0.659   3.410  1.0748 -0.5234 -0.6615
 2638SOL     OW19372   1.369   2.691   5.781 -0.1789  0.1525  0.2609
 2638SOL    HW119373   1.374   2.742   5.700  1.2579  0.5330  0.5961
 2638SOL    HW219374   1.315   2.615   5.760 -0.6963  0.5205  0.2395
 2639SOL     OW19375   4.563   3.996   3.791 -0.4968  0.3690 -0.1261
 2639SOL    HW119376   4.645   3.948   3.776 -0.1743  0.6666  0.6889
 2639SOL    HW219377   4.590   4.088   3.787 -2.8786  0.9851 -2.1695
 2640SOL     OW19378   1.504   4.230   2.164 -0.4810  0.4571 -0.4026
 2640SOL    HW119379   1.580   4.190   2.123 -0.2872  2.3796 -1.9004
 2640SOL    HW219380   1.441   4.216   2.093  0.8880  0.7268 -1.6538
 2641SOL     OW19381   0.840   3.612   1.274 -0.4240  0.3762  0.1496
 2641SOL    HW119382   0.868   3.537   1.222 -0.5297  0.3005  0.2011
 2641SOL    HW219383   0.745   3.606   1.282 -0.8762  4.5291 -2.3037
 2642SOL     OW19384   3.080   1.946   7.084 -0.1780 -0.1522  0.0955
 2642SOL    HW119385   3.052   1.958   7.175 -1.1862 -1.6580 -0.0160
 2642SOL    HW219386   3.167   1.985   7.079 -0.0110 -0.9190 -2.8829
 2643SOL     OW19387   2.072   2.589  13.657  0.5968  0.0289  0.0366
 2643SOL    HW119388   2.122   2.671  13.662  0.7570  0.0538 -1.9143
 2643SOL    HW219389   2.008   2.611  13.590  1.1245 -0.7848 -0.7315
 2644SOL     OW19390   2.484   4.042  13.060  0.1411 -0.0701  0.4692
 2644SOL    HW119391   2.433   4.100  13.003 -1.2774 -3.0310 -1.2565
 2644SOL    HW219392   2.413   3.996  13.103 -0.2455 -0.8720 -1.0095
 2645SOL     OW19393   4.437   2.173   5.114 -0.5617 -0.3276 -0.5129
 2645SOL    HW119394   4.505   2.223   5.159 -0.3021 -2.8676  1.9772
 2645SOL    HW219395   4.428   2.093   5.167 -0.2746 -0.0816 -0.0914
 2646SOL     OW19396   0.203   1.002   2.579 -0.2089 -0.3981 -0.2974
 2646SOL    HW119397   0.115   0.966   2.592 -0.5127 -0.6144 -2.8933
 2646SOL    HW219398   0.222   0.959   2.496 -1.7311 -1.3804 -0.1259
 2647SOL     OW19399   0.052   1.438  15.681  0.0766 -0.2552  0.5440
 2647SOL    HW119400   0.006   1.420  15.599  1.3762 -0.3870 -0.1572
 2647SOL    HW219401   0.080   1.528  15.662  2.4728 -1.2395 -0.4938
 2648SOL     OW19402   1.338   1.286  16.614  0.0668  0.0536  0.2768
 2648SOL    HW119403   1.261   1.309  16.666 -1.1872 -1.5370 -0.8670
 2648SOL    HW219404   1.405   1.338  16.660  0.1848 -1.2364  1.5700
 2649SOL     OW19405   2.024   0.694  10.723 -0.1867  0.6950 -0.6570
 2649SOL    HW119406   2.024   0.686  10.818  0.0684 -2.4218 -0.9257
 2649SOL    HW219407   1.942   0.741  10.707 -1.7515 -0.7094  3.1917
 2650SOL     OW19408   2.110   3.883   7.701  0.0600 -0.8628 -0.3663
 2650SOL    HW119409   2.060   3.954   7.742 -0.6538 -1.2209 -0.6077
 2650SOL    HW219410   2.144   3.838   7.778  0.2184  2.1209  1.2996
 2651SOL     OW19411   4.310   0.368   4.561 -0.1728  0.1929  0.0461
 2651SOL    HW119412   4.350   0.289   4.598  1.7389  1.0165 -0.2644
 2651SOL    HW219413   4.218   0.349   4.579 -0.0524 -0.4342 -0.0023
 2652SOL     OW19414   0.273   1.297  10.483  0.4076  0.0428  0.1026
 2652SOL    HW119415   0.290   1.364  10.550 -2.2074  0.6652  0.1511
 2652SOL    HW219416   0.183   1.315  10.457 -0.6529 -1.0973  3.0156
 2653SOL     OW19417   2.872   0.260   5.970  0.1239 -0.0419 -0.1158
 2653SOL    HW119418   2.941   0.204   5.933  1.1296  0.3834  1.1377
 2653SOL    HW219419   2.819   0.270   5.890  0.1210  3.9123  0.3805
 2654SOL     OW19420   1.266   1.605   8.317  0.3472 -0.1437  0.0202
 2654SOL    HW119421   1.200   1.548   8.277 -0.8924  1.4634 -0.2036
 2654SOL    HW219422   1.348   1.565   8.287  0.9177 -0.6544  2.2529
 2655SOL     OW19423   1.310   1.539   5.392  0.3653  0.0402  0.0935
 2655SOL    HW119424   1.355   1.623   5.387 -0.3150  0.5825  3.1477
 2655SOL    HW219425   1.332   1.506   5.479 -0.2525 -1.1094 -0.1862
 2656SOL     OW19426   3.849   2.624   7.653 -0.3196 -0.2216 -0.5068
 2656SOL    HW119427   3.812   2.601   7.738 -0.2223 -0.6612 -0.5802
 2656SOL    HW219428   3.900   2.698   7.686 -1.8031  0.2697  0.6563
 2657SOL     OW19429   4.116   0.452   5.549  0.3044  0.0335 -0.0447
 2657SOL    HW119430   4.030   0.412   5.558 -0.3676  1.0455 -2.0891
 2657SOL    HW219431   4.087   0.541   5.570  0.6592  0.0654  0.3284
 2658SOL     OW19432   3.741   2.681   1.371 -0.5282 -0.0426  0.0370
 2658SOL    HW119433   3.738   2.752   1.434  0.2299  1.4478 -1.5923
 2658SOL    HW219434   3.826   2.638   1.380  0.5251  1.9620 -0.3110
 2659SOL     OW19435   3.484   2.158   6.719  0.3515  0.2002  0.0477
 2659SOL    HW119436   3.431   2.170   6.641  0.4909 -0.3405 -0.1319
 2659SOL    HW219437   3.433   2.215   6.776  1.3241  2.5934 -1.5069
 2660SOL     OW19438   0.918   1.749   6.190  1.2689 -0.4277 -0.2472
 2660SOL    HW119439   0.849   1.683   6.179  1.2938 -0.1675 -1.9302
 2660SOL    HW219440   0.992   1.689   6.187  1.6131  0.0826 -1.6405
 2661SOL     OW19441   3.184   2.466   6.588  0.2588  0.2253  0.2011
 2661SOL    HW119442   3.093   2.490   6.572 -0.1319 -1.8947 -0.7890
 2661SOL    HW219443   3.208   2.534   6.651 -2.0294 -0.9755  2.3915
 2662SOL     OW19444   2.110   3.288   2.312  0.1582 -0.0107 -0.0117
 2662SOL    HW119445   2.203   3.279   2.288 -0.4171 -1.1791 -1.8067
 2662SOL    HW219446   2.082   3.198   2.297  1.6300 -0.0836 -2.3985
 2663SOL     OW19447   0.208   4.372  15.238 -0.7736 -0.6841 -0.1193
 2663SOL    HW119448   0.214   4.376  15.333 -0.4651  2.0404 -0.2533
 2663SOL    HW219449   0.113   4.375  15.229 -0.7232  2.1717  0.5129
 2664SOL     OW19450   2.502   0.316  17.220  0.4012  0.4478 -0.0509
 2664SOL    HW119451   2.408   0.304  17.204  0.5355  0.4422 -0.8224
 2664SOL    HW219452   2.534   0.244  17.166 -1.8699 -0.6714  0.0899
 2665SOL     OW19453   4.317   2.097   9.049  0.5041  0.0882  0.4368
 2665SOL    HW119454   4.250   2.029   9.057  0.9463 -0.3619  0.2984
 2665SOL    HW219455   4.353   2.119   9.135  0.8795  0.4303  0.1944
 2666SOL     OW19456   0.410   2.774  15.732  0.3365  0.4535  0.2854
 2666SOL    HW119457   0.417   2.869  15.720  1.4100  0.5765  1.8390
 2666SOL    HW219458   0.501   2.753  15.708  0.4760 -0.7082  1.8578
 2667SOL     OW19459   2.818   1.793   4.205 -0.1653 -0.1464  0.4842
 2667SOL    HW119460   2.862   1.814   4.287 -1.9357 -0.1985  1.4458
 2667SOL    HW219461   2.843   1.865   4.148 -0.7176 -0.0676  0.3375
 2668SOL     OW19462   2.194   4.226   3.069 -0.2997  0.4790  0.5566
 2668SOL    HW119463   2.290   4.228   3.068 -0.2714 -0.9040  0.4686
 2668SOL    HW219464   2.171   4.281   3.145 -0.2854 -0.8874  1.5545
 2669SOL     OW19465   2.765   3.305   9.857  0.5427  0.1683  0.1357
 2669SOL    HW119466   2.713   3.296   9.778  0.5370  0.7504  0.0746
 2669SOL    HW219467   2.775   3.399   9.841 -0.1315  0.3341  0.6809
 2670SOL     OW19468   0.543   2.971   5.940 -0.0158 -0.6527 -0.1365
 2670SOL    HW119469   0.593   2.965   6.021 -0.2634  0.9053  0.1319
 2670SOL    HW219470   0.477   2.904   5.957 -0.8546 -0.0465 -0.9588
 2671SOL     OW19471   4.346   1.787   5.073 -0.5662 -0.3099 -0.7878
 2671SOL    HW119472   4.376   1.855   5.133 -0.8090 -0.9213  0.0241
 2671SOL    HW219473   4.260   1.771   5.111 -0.8313  0.8243 -0.9020
 2672SOL     OW19474   0.634   3.729  15.780 -0.3797  0.3992 -0.0599
 2672SOL    HW119475   0.685   3.772  15.848 -1.1884 -1.4757  1.7348
 2672SOL    HW219476   0.699   3.743  15.711  0.9370 -0.5594  0.9942
 2673SOL     OW19477   1.491   2.034   5.042  0.6400 -0.2615  0.0902
 2673SOL    HW119478   1.462   2.124   5.059  0.6973 -0.2740  0.2577
 2673SOL    HW219479   1.538   2.021   5.124 -0.5703 -0.7507  0.7128
 2674SOL     OW19480   1.083   0.157   2.499  0.2634 -0.1889 -0.3697
 2674SOL    HW119481   1.152   0.203   2.546  1.1140 -1.8804  0.0502
 2674SOL    HW219482   1.009   0.217   2.505  0.9473  0.5871  0.3397
 2675SOL     OW19483   2.333   1.978   7.559  0.1057  0.0447 -1.1493
 2675SOL    HW119484   2.390   1.914   7.602 -0.8540 -1.6939 -2.4709
 2675SOL    HW219485   2.252   1.928   7.553 -1.0761  1.7142  0.8216
 2676SOL     OW19486   4.001   3.964   4.230 -0.1255  0.3751  0.1288
 2676SOL    HW119487   4.056   3.893   4.197  1.5005  2.5303 -1.8238
 2676SOL    HW219488   3.914   3.923   4.232  0.3266 -0.5308  1.0673
 2677SOL     OW19489   1.461   3.751  11.470  0.7292  0.0556 -0.2263
 2677SOL    HW119490   1.402   3.753  11.395  1.1530  3.3828 -0.4762
 2677SOL    HW219491   1.492   3.842  11.475 -0.8085  0.5611  0.0175
 2678SOL     OW19492   1.935   2.204   8.052 -0.0995  0.2707  0.0248
 2678SOL    HW119493   1.853   2.199   8.004  1.0589  0.3752 -1.9856
 2678SOL    HW219494   1.970   2.278   8.002  0.7121  0.5128  0.9341
 2679SOL     OW19495   3.366   0.385   7.252 -0.1357 -0.3043  0.0544
 2679SOL    HW119496   3.415   0.395   7.171  1.1446  1.3609  1.0428
 2679SOL    HW219497   3.433   0.406   7.316 -0.2852  1.9064 -0.5347
 2680SOL     OW19498   3.104   2.919   0.464  0.5889  0.2041 -0.4141
 2680SOL    HW119499   3.180   2.964   0.426  0.2805  1.8859  0.9124
 2680SOL    HW219500   3.127   2.929   0.557  1.1063  2.2153 -0.7566
 2681SOL     OW19501   4.046   1.811   4.727  0.8502  0.6874  0.1882
 2681SOL    HW119502   3.951   1.800   4.719  0.9686 -0.3951  0.2911
 2681SOL    HW219503   4.045   1.843   4.817 -0.3408  1.5359 -0.1279
 2682SOL     OW19504   1.982   2.413  16.460 -0.2466  0.0634  0.2924
 2682SOL    HW119505   2.073   2.439  16.445 -0.5064 -0.7222 -2.7281
 2682SOL    HW219506   1.956   2.377  16.375 -0.5889  3.5708 -1.1095
 2683SOL     OW19507   4.210   1.276   6.282  0.2423 -0.3759 -0.0520
 2683SOL    HW119508   4.172   1.196   6.319 -0.6937 -0.0822 -0.3781
 2683SOL    HW219509   4.193   1.343   6.348 -1.0909  0.0078 -0.7861
 2684SOL     OW19510   3.977   2.955   5.014  0.3672 -0.1107 -0.3091
 2684SOL    HW119511   4.041   2.925   4.950  1.2193  1.1235 -0.0252
 2684SOL    HW219512   3.917   3.005   4.959  0.6572 -1.0132 -1.4534
 2685SOL     OW19513   2.810   1.772   2.008 -0.2999 -0.1689  0.6979
 2685SOL    HW119514   2.730   1.824   1.995 -0.5957 -0.6841  0.4914
 2685SOL    HW219515   2.835   1.800   2.096  1.2452  0.8051 -0.0288
 2686SOL     OW19516   1.924   3.062  15.437 -0.0382  0.1263 -0.7693
 2686SOL    HW119517   1.851   3.000  15.434  0.2461 -0.2456  0.0070
 2686SOL    HW219518   1.938   3.076  15.343  0.5542 -3.7307 -1.2605
 2687SOL     OW19519   0.768   0.727   7.740  0.7780 -0.0578  1.0597
 2687SOL    HW119520   0.781   0.760   7.651 -0.5666 -2.0354  0.1453
 2687SOL    HW219521   0.744   0.801   7.797  2.6120  0.6398  0.9394
 2688SOL     OW19522   0.030   3.317   2.628 -0.4274  0.0580  0.1494
 2688SOL    HW119523   0.025   3.340   2.536  0.8494  0.7784  0.2549
 2688SOL    HW219524   4.694   3.378   2.679 -0.2095  2.5274 -2.6049
 2689SOL     OW19525   0.989   0.492   5.796  0.1617 -0.0642  0.0402
 2689SOL    HW119526   1.075   0.454   5.817  0.2716  0.4309  0.4940
 2689SOL    HW219527   0.994   0.499   5.701  1.4802  3.2908  0.3376
 2690SOL     OW19528   2.675   0.186   0.096 -0.0413 -0.2783 -0.1831
 2690SOL    HW119529   2.587   0.198   0.061 -0.2723  2.4291  1.3493
 2690SOL    HW219530   2.733   0.185   0.019  1.0169  0.9802  0.5943
 2691SOL     OW19531   1.733   1.043   8.884  0.0166 -0.3858 -0.1565
 2691SOL    HW119532   1.673   1.112   8.910 -1.0397 -1.3843  0.0563
 2691SOL    HW219533   1.678   0.966   8.898  0.2646 -0.4241  0.5831
 2692SOL     OW19534   3.632   2.597  14.643  0.3295  0.0577  0.2748
 2692SOL    HW119535   3.660   2.636  14.560  0.2484  1.7130  1.0167
 2692SOL    HW219536   3.560   2.541  14.614  0.2463  1.7831 -2.9259
 2693SOL     OW19537   1.825   3.505  11.668 -0.2985 -0.8385 -0.3523
 2693SOL    HW119538   1.834   3.580  11.608 -0.1222  0.2931  1.0954
 2693SOL    HW219539   1.730   3.507  11.676 -0.1398 -1.3050  1.4498
 2694SOL     OW19540   4.281   0.402  17.334 -0.3067 -0.0561  0.0630
 2694SOL    HW119541   4.363   0.447  17.356  1.4823 -3.0468 -0.5402
 2694SOL    HW219542   4.217   0.430  17.399  0.8094 -0.1101  1.1775
 2695SOL     OW19543   0.760   4.524   6.652  0.3324  0.0807 -0.1530
 2695SOL    HW119544   0.672   4.498   6.626 -0.5284  1.8523  0.9371
 2695SOL    HW219545   0.801   4.445   6.686  0.4717  0.4897  0.6259
 2696SOL     OW19546   0.462   2.819  10.591  0.2748  0.0968 -0.3340
 2696SOL    HW119547   0.443   2.737  10.545  1.0411 -0.1833 -0.1512
 2696SOL    HW219548   0.444   2.803  10.684  0.1927  1.6405 -0.0842
 2697SOL     OW19549   4.663   3.447  17.205  0.3834 -0.0041  0.0476
 2697SOL    HW119550   4.599   3.500  17.157 -0.9302 -2.2135 -0.6599
 2697SOL    HW219551   4.603   3.441  17.280  1.7383 -1.0050  1.0344
 2698SOL     OW19552   0.697   2.522  17.613  0.0637 -0.5643 -0.4821
 2698SOL    HW119553   0.747   2.592  17.656 -0.2401 -1.2047  0.9228
 2698SOL    HW219554   0.681   2.456   0.007  1.7361  0.2680  0.7195
 2699SOL     OW19555   2.008   4.309   7.960 -0.1386  0.4972 -0.3582
 2699SOL    HW119556   1.981   4.235   7.906 -0.9349  1.7441 -1.6389
 2699SOL    HW219557   2.102   4.312   7.943  0.2733  1.2887  1.9795
 2700SOL     OW19558   3.526   4.587   8.471 -0.2780 -0.1993 -0.5450
 2700SOL    HW119559   3.585   4.515   8.492  0.2065  0.4827  0.4024
 2700SOL    HW219560   3.450   4.538   8.440  0.3942 -1.0337 -0.8714
 2701SOL     OW19561   1.235   4.660   4.570 -0.2433 -0.1395 -0.6075
 2701SOL    HW119562   1.304   4.605   4.607  0.7123  2.3379  1.2915
 2701SOL    HW219563   1.180   4.675   4.647 -0.7044  2.0196 -1.3468
 2702SOL     OW19564   0.527   2.451   4.773 -0.2465 -0.0968  0.1228
 2702SOL    HW119565   0.449   2.490   4.731  0.5219  1.8310  0.4626
 2702SOL    HW219566   0.512   2.357   4.764 -0.2625 -0.2731  2.1738
 2703SOL     OW19567   1.834   1.912   7.620  0.3068 -0.6813  0.0029
 2703SOL    HW119568   1.769   1.842   7.625  0.2240 -0.6850 -1.1438
 2703SOL    HW219569   1.819   1.957   7.537  1.3194 -0.4345 -0.0460
 2704SOL     OW19570   3.909   0.858   0.241  0.3532 -0.1077 -0.1650
 2704SOL    HW119571   3.911   0.919   0.167  1.2255 -0.1338 -0.1630
 2704SOL    HW219572   3.816   0.844   0.259  0.0059  0.9024 -1.2000
 2705SOL     OW19573   3.082   4.509   5.103 -0.1133 -0.1366  0.0535
 2705SOL    HW119574   3.036   4.511   5.019 -0.9146 -1.7795  0.4510
 2705SOL    HW219575   3.018   4.455   5.149 -0.0808 -0.7747 -0.6609
 2706SOL     OW19576   2.339   0.297   2.963  0.2337  0.1481 -0.2688
 2706SOL    HW119577   2.395   0.226   2.932  0.1847 -0.3504  0.7875
 2706SOL    HW219578   2.403   0.366   2.981 -0.4774  0.3577  1.5230
 2707SOL     OW19579   1.529   1.961   3.936  0.1933 -0.7666  0.5711
 2707SOL    HW119580   1.609   1.916   3.965 -0.1096 -1.3300  0.5356
 2707SOL    HW219581   1.552   1.974   3.844  2.3099 -1.4391  1.0187
 2708SOL     OW19582   0.176   3.861   8.386 -0.2176  0.1755  0.1933
 2708SOL    HW119583   0.245   3.849   8.451  0.0113 -0.4961 -0.1711
 2708SOL    HW219584   0.155   3.950   8.412 -0.5893 -0.1809  1.1178
 2709SOL     OW19585   4.399   1.029   3.041  0.0023 -0.5069  0.0267
 2709SOL    HW119586   4.465   1.042   2.974  0.4943  2.1771  1.0586
 2709SOL    HW219587   4.415   0.936   3.059  0.1949 -0.6979 -1.1466
 2710SOL     OW19588   3.547   3.639  15.561 -0.2490  0.0573  0.5030
 2710SOL    HW119589   3.536   3.557  15.609  0.7416 -0.5928 -0.3789
 2710SOL    HW219590   3.583   3.701  15.626  0.6196  0.9262 -0.8112
 2711SOL     OW19591   2.743   1.194   6.282 -0.3323  0.1759  0.0971
 2711SOL    HW119592   2.717   1.104   6.304 -0.1067  0.0079 -0.3355
 2711SOL    HW219593   2.833   1.181   6.254 -0.0275  0.3554  0.9911
 2712SOL     OW19594   1.549   1.003  12.504  0.2096  0.0086 -0.0738
 2712SOL    HW119595   1.505   0.979  12.586  1.6075  1.0637  0.9939
 2712SOL    HW219596   1.633   1.040  12.531 -0.9064  1.0448  1.9936
 2713SOL     OW19597   1.600   2.600   5.962 -0.1633  0.4452  0.1932
 2713SOL    HW119598   1.674   2.654   5.932 -0.9965 -0.1976 -2.9474
 2713SOL    HW219599   1.535   2.613   5.893  0.2249  0.8109 -0.1060
 2714SOL     OW19600   1.933   3.890   2.780 -0.2347 -1.0610  0.6611
 2714SOL    HW119601   1.987   3.955   2.825 -3.5634  1.5069  0.9597
 2714SOL    HW219602   1.978   3.881   2.696  0.5011  1.3402  0.7954
 2715SOL     OW19603   0.879   2.998  16.830 -0.3068 -0.2297 -0.3715
 2715SOL    HW119604   0.954   3.056  16.844 -1.5044  1.6755 -1.8573
 2715SOL    HW219605   0.804   3.052  16.856  1.4338  1.9124  0.1753
 2716SOL     OW19606   4.607   4.168   4.060 -0.2954  0.0209 -0.2831
 2716SOL    HW119607   4.617   4.183   3.966  0.2732  0.0142 -0.2269
 2716SOL    HW219608   4.700   4.149   4.074  0.2862  2.9261 -0.2354
 2717SOL     OW19609   1.025   3.114   7.984  0.2883  0.0258  0.3222
 2717SOL    HW119610   1.049   3.040   7.928 -1.2928  0.0835 -0.4214
 2717SOL    HW219611   0.950   3.078   8.031  1.4479 -2.3735  0.3303
 2718SOL     OW19612   2.267   2.814  12.961  0.6467 -0.6200  0.2657
 2718SOL    HW119613   2.233   2.886  12.908  0.0584 -1.6723 -0.7706
 2718SOL    HW219614   2.252   2.836  13.053 -0.3298  0.5683 -0.1775
 2719SOL     OW19615   2.163   1.790   3.324  0.1541  0.2552 -0.1723
 2719SOL    HW119616   2.075   1.828   3.321  0.2682  0.6176  1.2720
 2719SOL    HW219617   2.148   1.710   3.374 -0.8346  0.6507  0.1678
 2720SOL     OW19618   2.171   0.522  13.775  0.4618  0.4606 -0.3364
 2720SOL    HW119619   2.175   0.442  13.827 -1.1175 -0.6870 -1.9615
 2720SOL    HW219620   2.244   0.511  13.716  0.3046  0.3302 -0.5061
 2721SOL     OW19621   0.073   2.908  11.685  0.4067  0.3119 -0.1954
 2721SOL    HW119622   0.005   2.970  11.660 -0.9130 -0.7153  0.8795
 2721SOL    HW219623   0.094   2.936  11.774 -2.2501  0.7551  0.2687
 2722SOL     OW19624   1.214   1.445   9.442 -0.5038 -0.1816 -0.0412
 2722SOL    HW119625   1.234   1.383   9.512  1.8181  0.5516 -0.0608
 2722SOL    HW219626   1.272   1.405   9.377  1.2484  2.1375  0.1014
 2723SOL     OW19627   4.409   0.182   4.369 -0.0246  0.2194  0.2294
 2723SOL    HW119628   4.329   0.168   4.317 -0.6936 -0.6585  1.5099
 2723SOL    HW219629   4.378   0.248   4.432  0.6616 -0.1718  0.9727
 2724SOL     OW19630   0.632   0.573   6.959  0.0540  0.6706 -0.1389
 2724SOL    HW119631   0.709   0.516   6.949 -0.8606 -0.9680  2.2844
 2724SOL    HW219632   0.683   0.652   6.944 -1.0564  0.9963 -2.1534
 2725SOL     OW19633   3.937   1.556   8.223  0.4981  0.4912 -0.6331
 2725SOL    HW119634   4.005   1.614   8.191  3.9436 -0.8936  4.0465
 2725SOL    HW219635   3.892   1.521   8.147  1.7467  1.0938 -1.6374
 2726SOL     OW19636   0.682   1.049  10.101  0.6802 -0.0206 -0.0805
 2726SOL    HW119637   0.633   0.967  10.094 -0.0166  0.6117 -2.6148
 2726SOL    HW219638   0.608   1.108  10.112 -1.2414 -2.3803 -0.2949
 2727SOL     OW19639   1.709   3.757   1.810 -0.4192  0.5907  1.3939
 2727SOL    HW119640   1.685   3.805   1.889  2.2533  1.6186  1.5655
 2727SOL    HW219641   1.638   3.693   1.813  1.2020 -1.1975  1.4537
 2728SOL     OW19642   4.692   0.191   8.086  0.4109  0.7534  0.8400
 2728SOL    HW119643   4.716   0.273   8.045  0.0702  0.3404 -0.1919
 2728SOL    HW219644   4.600   0.211   8.106 -1.0681 -3.1958 -2.1404
 2729SOL     OW19645   3.436   3.913   1.463  0.6845  0.7636 -0.1098
 2729SOL    HW119646   3.448   3.929   1.369 -3.5444 -1.9656 -1.1148
 2729SOL    HW219647   3.376   3.838   1.464  0.6673  0.7978  1.0231
 2730SOL     OW19648   4.215   0.897   0.627 -0.3670 -0.3554  1.1564
 2730SOL    HW119649   4.204   0.928   0.537  1.9310  0.7529  1.2479
 2730SOL    HW219650   4.138   0.940   0.664  1.0221  4.0616 -1.0666
 2731SOL     OW19651   2.977   2.186   2.764  0.4214  0.0796  0.3363
 2731SOL    HW119652   3.036   2.128   2.813  2.6530  1.7702 -0.3434
 2731SOL    HW219653   2.972   2.261   2.823 -0.2672 -1.6867  2.5114
 2732SOL     OW19654   0.433   0.452  11.940  0.0262  0.0265 -0.5239
 2732SOL    HW119655   0.389   0.521  11.990 -1.4766 -1.1499 -0.2216
 2732SOL    HW219656   0.427   0.382  12.005 -0.0392 -1.1673 -1.8310
 2733SOL     OW19657   0.301   1.874   1.781 -0.2955 -0.1909 -0.7681
 2733SOL    HW119658   0.350   1.809   1.832 -3.3393 -0.4268  1.8674
 2733SOL    HW219659   0.257   1.825   1.712 -0.6764 -2.4125  1.0499
 2734SOL     OW19660   3.557   2.608   2.358 -0.6433  0.2921 -0.0563
 2734SOL    HW119661   3.505   2.579   2.433  2.4714  0.2085  2.0399
 2734SOL    HW219662   3.599   2.524   2.341 -0.4573  0.2231  0.7404
 2735SOL     OW19663   3.178   1.876   2.279  0.0505 -0.6275  0.0751
 2735SOL    HW119664   3.100   1.920   2.315  1.2477  1.5859 -0.0231
 2735SOL    HW219665   3.150   1.876   2.188  0.1210  0.1732  0.0494
 2736SOL     OW19666   0.467   3.521   8.683  0.1118 -0.2704  0.0243
 2736SOL    HW119667   0.487   3.484   8.769  0.3106  0.6867  0.3914
 2736SOL    HW219668   0.547   3.572   8.668  0.0553  0.4704  2.1964
 2737SOL     OW19669   2.783   1.900   0.662 -0.2252  0.1414 -0.4889
 2737SOL    HW119670   2.850   1.832   0.664 -0.1802  0.1689 -0.9746
 2737SOL    HW219671   2.790   1.915   0.568  0.2467 -2.4457 -0.8749
 2738SOL     OW19672   1.320   2.896  16.817  0.0621  0.5581 -0.3447
 2738SOL    HW119673   1.257   2.965  16.799  0.5252  1.0135 -0.2121
 2738SOL    HW219674   1.320   2.890  16.912 -1.1701  0.0408 -0.3683
 2739SOL     OW19675   0.761   2.853   6.106 -0.0365 -0.2470 -0.0524
 2739SOL    HW119676   0.774   2.829   6.198 -0.9857  0.6636  0.3224
 2739SOL    HW219677   0.759   2.773   6.054 -0.1871  0.0743 -0.5340
 2740SOL     OW19678   1.643   1.215   2.303 -0.2328  0.0712 -0.4160
 2740SOL    HW119679   1.699   1.240   2.229  0.9282  0.1843  0.5103
 2740SOL    HW219680   1.635   1.298   2.350 -0.2429 -0.4597  0.5057
 2741SOL     OW19681   2.393   0.676   1.226  0.1677  0.3672 -0.6631
 2741SOL    HW119682   2.429   0.678   1.138  0.6090  1.3515 -0.4637
 2741SOL    HW219683   2.456   0.622   1.272 -2.2316  1.2972  3.7045
 2742SOL     OW19684   2.905   1.936  17.013 -0.1750 -0.4111 -0.1985
 2742SOL    HW119685   2.864   1.864  17.061 -1.7025  1.2753  1.0400
 2742SOL    HW219686   2.871   2.015  17.055 -1.5430 -0.3574 -1.3998
 2743SOL     OW19687   0.921   1.797   5.199  0.1458  0.0113 -0.4565
 2743SOL    HW119688   0.889   1.718   5.155  1.3922 -0.7904  0.0698
 2743SOL    HW219689   0.917   1.768   5.290  1.9455  0.4670 -0.2226
 2744SOL     OW19690   3.530   0.080   7.240 -0.0332  0.3825 -0.4073
 2744SOL    HW119691   3.530   4.703   7.230 -0.2882  0.1814  1.4801
 2744SOL    HW219692   3.593   0.113   7.176 -0.1989 -1.0747 -1.3065
 2745SOL     OW19693   2.293   3.276   3.013  0.0164 -0.0382 -0.4199
 2745SOL    HW119694   2.198   3.278   3.010  0.0563  0.5567 -1.2450
 2745SOL    HW219695   2.315   3.225   2.935  0.4037  2.1688 -1.7600
 2746SOL     OW19696   3.937   4.399   5.202  0.2241 -0.4430  0.5738
 2746SOL    HW119697   3.891   4.474   5.165 -2.1346 -0.9169  2.5818
 2746SOL    HW219698   3.872   4.330   5.194  0.5495 -0.6851  0.0230
 2747SOL     OW19699   0.150   2.287   7.631 -0.3892 -0.6152  0.0465
 2747SOL    HW119700   0.196   2.206   7.612  2.8449  0.4116  3.5605
 2747SOL    HW219701   0.071   2.245   7.664  0.2363 -1.6067  0.2677
 2748SOL     OW19702   1.184   2.138   7.747  0.8564  0.3556  0.7618
 2748SOL    HW119703   1.182   2.050   7.785 -0.1931 -0.1470 -0.4515
 2748SOL    HW219704   1.114   2.185   7.792 -0.0628 -0.1028 -0.1903
 2749SOL     OW19705   1.807   4.183   1.870 -0.1726 -0.1924  0.2409
 2749SOL    HW119706   1.870   4.249   1.900 -1.4851  1.2024 -0.0727
 2749SOL    HW219707   1.773   4.143   1.950 -2.3449  0.9572 -0.1131
 2750SOL     OW19708   1.029   3.492   4.208 -0.1788  0.1851  0.2726
 2750SOL    HW119709   1.044   3.415   4.153 -1.0785 -1.3945  2.2380
 2750SOL    HW219710   1.062   3.570   4.164 -1.7842  0.7353  0.0308
 2751SOL     OW19711   2.197   4.198  17.095 -0.2832 -0.7486  0.4377
 2751SOL    HW119712   2.133   4.242  17.151  0.4763 -2.9332  3.0347
 2751SOL    HW219713   2.129   4.149  17.048 -0.7005 -1.1425  1.4492
 2752SOL     OW19714   3.464   2.234  11.397 -0.1799  0.2014 -0.1440
 2752SOL    HW119715   3.391   2.171  11.398  0.9450 -1.0925  0.6906
 2752SOL    HW219716   3.462   2.265  11.307 -0.8286  0.2547 -0.1162
 2753SOL     OW19717   4.521   2.484  16.324  1.0058 -0.1290 -0.0948
 2753SOL    HW119718   4.616   2.495  16.332  1.1702 -1.6506 -0.0841
 2753SOL    HW219719   4.502   2.528  16.241  2.7827 -0.6771 -0.7836
 2754SOL     OW19720   3.603   2.686   3.472  0.6879  0.0377  0.4754
 2754SOL    HW119721   3.686   2.643   3.450  0.4782 -0.6551  1.0330
 2754SOL    HW219722   3.587   2.652   3.560  1.0201  0.1009  0.5601
 2755SOL     OW19723   3.243   4.447  10.496 -0.2514 -0.6296 -0.3744
 2755SOL    HW119724   3.201   4.371  10.457 -1.2849  1.8146 -4.0921
 2755SOL    HW219725   3.323   4.447  10.443  0.9777 -0.4138  1.4875
 2756SOL     OW19726   2.859   2.035  12.367 -0.8790  0.0331 -0.6480
 2756SOL    HW119727   2.860   2.109  12.428  0.9175 -1.1590  0.7296
 2756SOL    HW219728   2.905   2.079  12.295 -2.4096  0.7900 -1.1752
 2757SOL     OW19729   3.109   3.615   6.956 -0.7507  0.2062  0.8992
 2757SOL    HW119730   3.198   3.581   6.953 -1.2935 -1.2348  1.3820
 2757SOL    HW219731   3.050   3.546   6.928 -1.1869 -0.9738  4.6772
 2758SOL     OW19732   2.579   1.833   4.089 -0.6711  0.3212 -0.0413
 2758SOL    HW119733   2.661   1.820   4.137 -1.5875 -1.1189  1.1088
 2758SOL    HW219734   2.567   1.913   4.140 -1.4394  1.1935 -1.5948
 2759SOL     OW19735   3.971   1.541   9.630 -0.6388 -0.6090  0.1056
 2759SOL    HW119736   4.036   1.606   9.602  0.4701 -0.9708  1.8383
 2759SOL    HW219737   4.028   1.491   9.689  0.8005 -0.3196 -1.0124
 2760SOL     OW19738   2.340   3.604   2.308  0.6057 -0.0566 -0.2738
 2760SOL    HW119739   2.385   3.567   2.232  0.8787  3.6065 -1.8710
 2760SOL    HW219740   2.375   3.557   2.384 -0.3858  0.8200  0.7123
 2761SOL     OW19741   3.548   1.205   4.394  0.0809 -0.0683  0.1693
 2761SOL    HW119742   3.584   1.154   4.321 -0.4461  1.4967 -1.1720
 2761SOL    HW219743   3.623   1.212   4.454  0.9856  0.4591 -1.0419
 2762SOL     OW19744   1.843   2.722  16.438 -0.0780  0.0419  0.3172
 2762SOL    HW119745   1.837   2.630  16.415 -2.1702 -0.5831  3.3514
 2762SOL    HW219746   1.751   2.746  16.448  0.5595  1.8565  1.9002
 2763SOL     OW19747   1.773   0.961  12.091  0.5051  0.2731 -0.0983
 2763SOL    HW119748   1.785   0.922  12.005  1.8342  0.5711 -0.0540
 2763SOL    HW219749   1.766   0.883  12.146  0.2247 -0.0006 -0.5247
 2764SOL     OW19750   0.273   4.533   1.327 -0.4749 -0.2472 -0.0854
 2764SOL    HW119751   0.310   4.452   1.293 -2.0897 -1.8053  1.9170
 2764SOL    HW219752   0.295   4.578   1.245  2.0259 -2.9390 -0.8843
 2765SOL     OW19753   1.905   2.968   6.857  0.6181  0.0084  0.2095
 2765SOL    HW119754   1.967   2.963   6.784  0.8017 -0.3981  0.3895
 2765SOL    HW219755   1.863   3.052   6.843  2.9288  0.9786 -0.9625
 2766SOL     OW19756   1.020   4.390   7.649 -0.2410 -0.0144  0.5250
 2766SOL    HW119757   1.038   4.371   7.741  0.7549 -1.1049  0.0970
 2766SOL    HW219758   1.097   4.442   7.625 -0.0355 -0.4823  0.1575
 2767SOL     OW19759   0.572   3.591   5.911 -0.6729 -0.1368 -0.9684
 2767SOL    HW119760   0.660   3.553   5.907 -1.0168 -1.0063 -0.2077
 2767SOL    HW219761   0.592   3.674   5.867 -0.5287  0.5542  0.4015
 2768SOL     OW19762   3.370   0.494   4.770 -0.0326  0.0277  0.0071
 2768SOL    HW119763   3.382   0.448   4.688 -0.5344  2.3156 -1.3616
 2768SOL    HW219764   3.442   0.557   4.765 -0.4984  0.6584  1.1323
 2769SOL     OW19765   4.378   3.319   0.527  0.3199 -0.0377 -0.1442
 2769SOL    HW119766   4.395   3.351   0.616  0.1514  0.3440 -0.2483
 2769SOL    HW219767   4.285   3.298   0.536 -0.0693  1.3945 -0.7259
 2770SOL     OW19768   4.413   4.048   7.072 -0.1208  0.1935 -0.0627
 2770SOL    HW119769   4.464   3.968   7.059  1.2316  0.5787  2.7091
 2770SOL    HW219770   4.401   4.073   6.981  1.0966 -2.5320 -0.9589
 2771SOL     OW19771   4.146   2.936   4.349 -0.3853  0.0617 -0.1064
 2771SOL    HW119772   4.088   2.872   4.308  2.0186 -0.3365 -2.8297
 2771SOL    HW219773   4.173   2.979   4.268 -0.8407  0.7319  0.0906
 2772SOL     OW19774   2.742   2.679   6.128  0.0378  0.1606  0.0369
 2772SOL    HW119775   2.672   2.659   6.190  0.4110  1.3970  0.8623
 2772SOL    HW219776   2.708   2.751   6.076 -1.5430 -0.3474  0.3841
 2773SOL     OW19777   1.774   3.027   5.321 -0.0757 -0.1020 -0.1080
 2773SOL    HW119778   1.697   3.080   5.300 -0.0848 -0.2498 -0.4373
 2773SOL    HW219779   1.769   3.024   5.417 -1.4097 -2.1387 -0.2427
 2774SOL     OW19780   3.598   0.924   1.703  0.3375 -0.3570 -0.1707
 2774SOL    HW119781   3.514   0.902   1.662  0.0380  0.3850  0.0421
 2774SOL    HW219782   3.588   0.890   1.792 -1.3524  1.6593  0.4294
 2775SOL     OW19783   3.448   2.659   8.491 -0.2614  0.1953 -0.1716
 2775SOL    HW119784   3.358   2.692   8.488 -0.4596 -0.3067  0.3138
 2775SOL    HW219785   3.450   2.611   8.574 -0.2907 -0.2628 -0.4408
 2776SOL     OW19786   1.694   0.713   6.672 -0.2471 -0.5015 -0.2563
 2776SOL    HW119787   1.624   0.743   6.730  0.5523  1.4536 -0.3165
 2776SOL    HW219788   1.767   0.705   6.732 -0.8420  0.9460  0.6610
 2777SOL     OW19789   0.263   0.767  13.447  0.4061 -0.4914 -0.0630
 2777SOL    HW119790   0.306   0.788  13.364 -1.8188 -0.3034 -1.1788
 2777SOL    HW219791   0.336   0.729  13.496  1.7944  3.0529  0.6229
 2778SOL     OW19792   2.216   4.433   3.296  0.5235 -0.2145 -0.3339
 2778SOL    HW119793   2.124   4.443   3.274  0.7140  0.5287 -0.8110
 2778SOL    HW219794   2.216   4.459   3.388  2.5156  0.8758 -0.6415
 2779SOL     OW19795   0.611   4.676   5.782  0.2824  0.5637  0.2876
 2779SOL    HW119796   0.591   0.047   5.752 -1.3032 -0.1368 -0.6980
 2779SOL    HW219797   0.526   4.639   5.803  0.2456 -0.9754 -2.5170
 2780SOL     OW19798   2.039   4.680  13.986  0.6262 -0.4554  0.0247
 2780SOL    HW119799   2.061   4.591  14.014  1.2696 -0.8096 -1.5592
 2780SOL    HW219800   2.129   4.715  13.984  1.3843 -2.3814 -0.0026
 2781SOL     OW19801   3.415   2.922   9.389 -0.0958 -0.5531  0.1014
 2781SOL    HW119802   3.334   2.906   9.437 -0.6740  0.1597 -0.6431
 2781SOL    HW219803   3.469   2.861   9.439  0.7268 -1.6521 -2.1194
 2782SOL     OW19804   3.038   3.889   6.998 -0.2781  0.1806 -0.7742
 2782SOL    HW119805   3.044   3.798   6.970 -2.1718  0.0202 -0.6767
 2782SOL    HW219806   3.101   3.881   7.069 -2.1557  0.9250  0.9819
 2783SOL     OW19807   3.636   4.641   5.786  0.9002  0.0550  0.2405
 2783SOL    HW119808   3.616   4.601   5.701  1.2631  1.2684 -0.4212
 2783SOL    HW219809   3.549   4.662   5.821  1.1215 -0.1188  0.8846
 2784SOL     OW19810   1.632   0.735   7.797  0.0492 -0.2377 -0.5965
 2784SOL    HW119811   1.607   0.648   7.827 -1.8722  0.7348  0.6131
 2784SOL    HW219812   1.545   0.774   7.803  1.0439  1.9285 -0.1587
 2785SOL     OW19813   3.808   2.217   1.079 -0.0038  0.4749  0.2907
 2785SOL    HW119814   3.786   2.293   1.132  0.7772 -0.9509  2.6868
 2785SOL    HW219815   3.743   2.155   1.113  0.0587 -1.3365 -2.9118
 2786SOL     OW19816   4.270   0.499  16.865 -0.4137  0.4187  0.3411
 2786SOL    HW119817   4.323   0.579  16.869 -1.1584  0.9102  0.4835
 2786SOL    HW219818   4.278   0.470  16.955 -0.7238  1.3910  0.6872
 2787SOL     OW19819   0.161   3.134   8.057  0.0252 -0.0836  0.2145
 2787SOL    HW119820   0.074   3.096   8.047  0.9695 -1.5156 -2.3463
 2787SOL    HW219821   0.183   3.141   7.964 -0.9671 -0.8737 -0.0746
 2788SOL     OW19822   1.410   3.727  16.107  0.0085 -0.2179  0.1625
 2788SOL    HW119823   1.443   3.707  16.019 -0.2500 -0.1361  0.0466
 2788SOL    HW219824   1.411   3.639  16.145  1.1107 -0.1263  0.3217
 2789SOL     OW19825   4.211   0.837  14.856  0.1066  0.1541 -0.0110
 2789SOL    HW119826   4.291   0.792  14.826 -0.5611 -1.2896  0.3924
 2789SOL    HW219827   4.211   0.914  14.798 -0.9687  0.0635 -0.1277
 2790SOL     OW19828   1.232   1.891   6.073  0.6705  0.0473 -0.0147
 2790SOL    HW119829   1.271   1.927   5.994  0.7454  1.0020  0.4645
 2790SOL    HW219830   1.157   1.852   6.028  0.7415  1.9712 -1.7979
 2791SOL     OW19831   2.329   4.522   8.173  0.5566 -0.2837 -0.1045
 2791SOL    HW119832   2.239   4.553   8.183  1.0513  0.4105  2.2387
 2791SOL    HW219833   2.366   4.564   8.251  0.0363 -1.5389  0.8117
 2792SOL     OW19834   0.995   4.298   6.205 -0.2484 -0.0965 -0.3832
 2792SOL    HW119835   1.076   4.265   6.166  0.1282  2.0046 -1.4031
 2792SOL    HW219836   0.970   4.355   6.132 -0.3781 -2.6096 -2.2900
 2793SOL     OW19837   1.491   1.744   3.028  0.1970 -0.4094  0.6660
 2793SOL    HW119838   1.575   1.788   3.012 -1.3806  1.4391 -2.6808
 2793SOL    HW219839   1.519   1.653   3.031  3.0641  0.3741 -1.4836
 2794SOL     OW19840   2.341   4.008   1.638 -0.1271  0.0813 -0.0999
 2794SOL    HW119841   2.263   4.059   1.615  0.9804  2.5285  1.5521
 2794SOL    HW219842   2.350   4.028   1.731 -0.4423 -0.7719  0.1113
 2795SOL     OW19843   4.099   4.135  17.254  0.2295  0.2065  0.0538
 2795SOL    HW119844   4.153   4.204  17.215  1.0309 -0.4743 -0.0287
 2795SOL    HW219845   4.084   4.162  17.344  0.4125 -1.5420  0.6065
 2796SOL     OW19846   4.653   1.925   4.075  0.3805  0.0798  0.9633
 2796SOL    HW119847   4.584   1.958   4.133 -0.8881 -0.0784 -0.4407
 2796SOL    HW219848   4.610   1.928   3.989 -0.7858  0.6452  1.5630
 2797SOL     OW19849   3.399   4.334   6.113  0.4440 -0.1806 -0.0392
 2797SOL    HW119850   3.494   4.340   6.113  0.4249  0.1496 -0.2184
 2797SOL    HW219851   3.387   4.241   6.130 -2.6735  0.2847  0.3425
 2798SOL     OW19852   0.587   0.297   0.570 -0.0531 -0.1971  0.0102
 2798SOL    HW119853   0.528   0.233   0.530 -1.3973  0.8400  0.3495
 2798SOL    HW219854   0.605   0.260   0.657 -1.5468  1.2193  0.9148
 2799SOL     OW19855   4.199   3.043  11.655 -0.4730  0.0913 -0.2798
 2799SOL    HW119856   4.235   3.097  11.585 -0.9514  2.5845  1.4031
 2799SOL    HW219857   4.271   2.982  11.668 -0.4067  0.2564  0.1615
 2800SOL     OW19858   0.499   3.722   2.277 -0.2074  0.4976 -0.2042
 2800SOL    HW119859   0.522   3.634   2.248 -0.4358  0.6032 -0.6970
 2800SOL    HW219860   0.426   3.754   2.224  0.0186 -1.0097 -1.4196
 2801SOL     OW19861   1.613   4.194   7.004 -0.4477 -0.2214  0.5664
 2801SOL    HW119862   1.619   4.220   7.096  1.2426  0.5862  0.2340
 2801SOL    HW219863   1.520   4.212   6.989 -0.1331  0.8355 -0.1857
 2802SOL     OW19864   2.116   3.384   4.354  0.7299  0.1106 -0.1240
 2802SOL    HW119865   2.084   3.301   4.391  0.6566 -0.6422 -1.8775
 2802SOL    HW219866   2.034   3.432   4.350  1.2598  0.9243 -1.3073
 2803SOL     OW19867   4.320   1.456   7.135  0.4195 -0.0614 -0.1381
 2803SOL    HW119868   4.244   1.437   7.081  0.4439  1.4271 -0.7111
 2803SOL    HW219869   4.388   1.490   7.076  0.9577  0.7457  0.9372
 2804SOL     OW19870   3.858   3.099   0.423 -0.0098  0.4867  0.2174
 2804SOL    HW119871   3.840   3.184   0.463 -0.8379  0.4418 -0.0534
 2804SOL    HW219872   3.823   3.124   0.337 -2.5802  2.3106  1.7808
 2805SOL     OW19873   1.430   3.615   7.899  0.3327  0.0477 -0.0066
 2805SOL    HW119874   1.391   3.701   7.884  0.0268 -0.3870 -1.7046
 2805SOL    HW219875   1.493   3.630   7.970 -1.2768  0.0656  1.4098
 2806SOL     OW19876   0.607   4.473  12.709 -0.7547 -0.1203  0.0653
 2806SOL    HW119877   0.528   4.512  12.745 -1.3262 -0.0575 -1.2343
 2806SOL    HW219878   0.601   4.381  12.737  0.6212  0.4660  2.2881
 2807SOL     OW19879   4.526   3.422   8.589 -0.4279  0.2728  0.2072
 2807SOL    HW119880   4.615   3.391   8.573 -0.9577 -2.2185  2.1212
 2807SOL    HW219881   4.541   3.510   8.555  1.5731  0.6958  2.2209
 2808SOL     OW19882   1.954   0.013   3.195  0.1491  0.0103 -0.2007
 2808SOL    HW119883   1.872   0.024   3.147 -0.1967 -1.1505  0.1207
 2808SOL    HW219884   2.014   0.019   3.121 -1.3099  0.5487 -1.3513
 2809SOL     OW19885   2.183   1.454   9.277 -0.4008  0.4658  0.5200
 2809SOL    HW119886   2.136   1.378   9.310  0.7033  0.9705  3.2106
 2809SOL    HW219887   2.129   1.526   9.309 -1.8799 -0.0030 -0.8930
 2810SOL     OW19888   4.463   1.944   7.450  0.2929  0.6385  0.4623
 2810SOL    HW119889   4.464   2.039   7.438  3.2690  0.8236  2.0715
 2810SOL    HW219890   4.438   1.923   7.360  0.0587 -1.2728  0.9775
 2811SOL     OW19891   2.686   2.580   3.049 -0.1394  0.6293 -0.0174
 2811SOL    HW119892   2.644   2.507   3.096 -1.9205  1.5996 -0.1286
 2811SOL    HW219893   2.633   2.654   3.076  0.5193  1.7861 -1.8866
 2812SOL     OW19894   2.032   0.230  17.291  0.0481  0.5319 -0.3686
 2812SOL    HW119895   2.068   0.302  17.343 -1.2325  0.7324  0.2258
 2812SOL    HW219896   1.939   0.249  17.295 -0.0220 -0.1011  1.0401
 2813SOL     OW19897   0.420   3.370   7.779  0.0496  0.0509  0.3345
 2813SOL    HW119898   0.334   3.386   7.818 -0.0102 -1.6466  0.9004
 2813SOL    HW219899   0.415   3.390   7.686 -2.2688  0.7520  0.5974
 2814SOL     OW19900   2.507   2.406   2.666  0.0687  0.1401 -0.2222
 2814SOL    HW119901   2.531   2.478   2.725  0.8954  0.5867 -1.1126
 2814SOL    HW219902   2.507   2.458   2.586 -0.2137  1.9706  0.9713
 2815SOL     OW19903   4.249   0.524   0.370  0.6803 -0.6566 -0.5809
 2815SOL    HW119904   4.218   0.600   0.320  0.7130  0.6017  1.3234
 2815SOL    HW219905   4.201   0.453   0.327 -1.7532  0.2710  0.6047
 2816SOL     OW19906   2.101   0.710   5.243 -0.0548  0.9824  0.7008
 2816SOL    HW119907   2.079   0.744   5.156 -2.5610  0.9670  1.3061
 2816SOL    HW219908   2.157   0.781   5.275 -0.7011  1.3691  0.9802
 2817SOL     OW19909   4.091   2.607   1.999  0.7097  0.2081  0.1645
 2817SOL    HW119910   4.004   2.598   1.960  0.0628  1.4603  1.3344
 2817SOL    HW219911   4.147   2.626   1.924 -0.0307  1.7336 -0.0077
 2818SOL     OW19912   1.917   4.214   3.645  0.1939  0.2005 -0.1049
 2818SOL    HW119913   1.870   4.157   3.706 -0.2286  1.4701  0.7406
 2818SOL    HW219914   1.903   4.162   3.566  1.3498  0.3247 -0.3863
 2819SOL     OW19915   1.302   1.042   8.412  0.2014 -0.4143  0.3585
 2819SOL    HW119916   1.313   1.112   8.348  1.3054 -2.3974 -1.6162
 2819SOL    HW219917   1.284   0.965   8.359  1.0771 -1.6861  1.9205
 2820SOL     OW19918   3.836   3.123   8.073  0.1938  0.5489 -0.0054
 2820SOL    HW119919   3.802   3.170   8.149  0.5630 -0.0119  0.5059
 2820SOL    HW219920   3.904   3.068   8.112 -0.0275  0.5655  0.4049
 2821SOL     OW19921   4.217   0.834  11.458  0.0723 -0.8410 -0.8823
 2821SOL    HW119922   4.130   0.838  11.419 -1.1659  0.5573  1.9871
 2821SOL    HW219923   4.264   0.842  11.375  1.2943  1.6267  0.0395
 2822SOL     OW19924   2.770   2.486   9.411 -0.5407 -0.4539 -0.1087
 2822SOL    HW119925   2.682   2.514   9.384  0.0296  1.1625 -0.2793
 2822SOL    HW219926   2.755   2.477   9.505  1.6417  2.6359  0.5137
 2823SOL     OW19927   1.101   1.414   3.794 -0.3537  0.3529 -0.0356
 2823SOL    HW119928   1.143   1.386   3.712  2.4276 -1.2362  1.9504
 2823SOL    HW219929   1.147   1.359   3.857  0.7982  0.5649 -0.6808
 2824SOL     OW19930   0.307   3.559   8.059 -0.2424  0.0643 -0.5505
 2824SOL    HW119931   0.280   3.484   8.007 -1.4805  0.3702 -0.3479
 2824SOL    HW219932   0.389   3.531   8.099 -0.2438 -0.3741 -0.8669
 2825SOL     OW19933   0.544   0.078   1.583 -0.3482  0.4008  0.4595
 2825SOL    HW119934   0.560   4.708   1.548 -2.4080  0.5556 -0.8449
 2825SOL    HW219935   0.449   0.090   1.593 -0.4635 -0.4610  0.3846
 2826SOL     OW19936   2.798   1.377   4.674 -0.0526  0.1064 -0.1042
 2826SOL    HW119937   2.770   1.469   4.677 -1.3394 -0.2354 -1.3943
 2826SOL    HW219938   2.892   1.375   4.654  0.3094  0.7439  1.5466
 2827SOL     OW19939   3.425   4.702   3.023 -0.7427 -0.1546 -0.2616
 2827SOL    HW119940   3.336   4.686   3.054 -1.1734  0.0650 -1.4125
 2827SOL    HW219941   3.467   0.045   3.084  1.3068  0.0989 -1.9216
 2828SOL     OW19942   2.045   1.847  11.704  0.2958  0.2486 -0.3648
 2828SOL    HW119943   1.985   1.920  11.715  0.8616  0.6832 -0.1422
 2828SOL    HW219944   2.020   1.796  11.627 -0.3456  1.6746 -1.0884
 2829SOL     OW19945   3.161   2.599  16.117 -0.0684 -0.4813 -0.7877
 2829SOL    HW119946   3.086   2.647  16.154 -0.0732 -0.8761 -0.2871
 2829SOL    HW219947   3.172   2.651  16.038 -0.5317  0.6317 -0.1360
 2830SOL     OW19948   1.636   4.285   7.257  0.0617  0.2777 -0.0225
 2830SOL    HW119949   1.727   4.294   7.287  0.3261  0.1282 -0.7809
 2830SOL    HW219950   1.613   4.378   7.254 -1.4811 -0.0616  1.4973
 2831SOL     OW19951   4.065   3.105  10.437  0.0855 -0.7198  0.2595
 2831SOL    HW119952   4.049   3.199  10.435  0.7675 -0.6198 -0.3620
 2831SOL    HW219953   4.045   3.094  10.530  2.4890 -1.0383  0.7393
 2832SOL     OW19954   3.005   2.758   4.765  0.1237  0.2573 -0.0459
 2832SOL    HW119955   2.912   2.742   4.779  0.0795 -1.0690 -1.7692
 2832SOL    HW219956   3.038   2.671   4.786 -2.4222 -0.1969  2.0590
 2833SOL     OW19957   4.510   3.688   2.018  0.2498  0.3917 -0.2655
 2833SOL    HW119958   4.422   3.671   1.984 -0.3946  0.1628  1.5066
 2833SOL    HW219959   4.555   3.610   1.984 -0.7605 -0.6162  0.7150
 2834SOL     OW19960   3.267   2.517   7.713  0.0187  0.1445 -0.0541
 2834SOL    HW119961   3.353   2.484   7.686 -0.1545  0.2222 -0.6871
 2834SOL    HW219962   3.287   2.611   7.717  1.0537 -0.1007  0.4426
 2835SOL     OW19963   2.742   2.497   9.681  0.1646 -0.0691 -0.2609
 2835SOL    HW119964   2.786   2.543   9.754 -0.3546 -1.0442  0.6600
 2835SOL    HW219965   2.767   2.411   9.714  1.3274  0.2641 -0.2370
 2836SOL     OW19966   1.988   3.909   4.524  0.4316 -0.8346  0.5039
 2836SOL    HW119967   1.906   3.877   4.487 -0.8640  2.2156  0.7580
 2836SOL    HW219968   2.041   3.915   4.444 -1.0664  1.0381 -0.3421
 2837SOL     OW19969   4.574   4.028  16.971 -0.2278 -0.5654 -0.0193
 2837SOL    HW119970   4.667   4.018  16.948  0.0328  0.9492  0.3781
 2837SOL    HW219971   4.575   3.990  17.058  2.6134  1.3817  0.8007
 2838SOL     OW19972   0.543   3.729   1.898  0.8989 -0.0842 -0.1420
 2838SOL    HW119973   0.594   3.783   1.959  0.2030  2.0144 -1.4118
 2838SOL    HW219974   0.616   3.668   1.885  1.1775  0.1751  0.1899
 2839SOL     OW19975   1.814   1.216   8.344 -0.4269  0.3119  0.3881
 2839SOL    HW119976   1.873   1.241   8.414 -0.2179  0.4948  0.1440
 2839SOL    HW219977   1.793   1.130   8.381 -3.3492  0.5943 -0.5578
 2840SOL     OW19978   3.159   4.654   0.590  0.3605 -0.4371 -0.3110
 2840SOL    HW119979   3.102   4.715   0.636 -0.6167 -0.9754 -0.7883
 2840SOL    HW219980   3.208   4.640   0.671 -0.3863  1.7889  0.5114
 2841SOL     OW19981   2.840   4.449   6.211 -0.2297 -0.6353 -0.0514
 2841SOL    HW119982   2.838   4.355   6.233 -2.1836 -1.0553 -2.0550
 2841SOL    HW219983   2.932   4.466   6.232 -0.2502 -2.4107  1.5074
 2842SOL     OW19984   0.410   2.908   8.682  0.1741  0.2916  0.9470
 2842SOL    HW119985   0.377   2.968   8.615 -1.2478  0.1337  1.5088
 2842SOL    HW219986   0.492   2.882   8.641 -1.8657 -0.1029 -2.9381
 2843SOL     OW19987   2.397   1.585   5.933  0.1608 -0.1381  0.5547
 2843SOL    HW119988   2.358   1.668   5.906 -1.1895 -1.9221 -3.0062
 2843SOL    HW219989   2.375   1.588   6.026  0.7005 -0.7933  0.7080
 2844SOL     OW19990   3.692   4.487  17.484  0.6308 -0.1843 -0.3451
 2844SOL    HW119991   3.690   4.487  17.388  0.9012  0.1621 -0.3517
 2844SOL    HW219992   3.616   4.536  17.514 -0.2992 -0.6219 -2.0091
 2845SOL     OW19993   0.539   0.807   3.895  0.0917  1.1169  0.3073
 2845SOL    HW119994   0.575   0.759   3.970  1.7308  2.3874  0.3244
 2845SOL    HW219995   0.512   0.737   3.836 -1.2013  1.3551  0.6130
 2846SOL     OW19996   2.964   0.461   5.742  0.1133  0.0517  0.1133
 2846SOL    HW119997   3.034   0.442   5.805 -0.0221 -0.5362  0.0896
 2846SOL    HW219998   2.902   0.518   5.787 -1.5225 -0.5876 -1.3358
 2847SOL     OW19999   3.206   2.812  10.615 -0.4979 -0.0426 -0.0108
 2847SOL    HW120000   3.215   2.740  10.677 -0.2356 -1.5005 -1.7591
 2847SOL    HW220001   3.169   2.769  10.538  0.6540 -0.1452 -0.5012
 2848SOL     OW20002   3.635   0.716   4.365 -0.0203  0.2831 -0.1180
 2848SOL    HW120003   3.629   0.677   4.278 -0.2612  1.5253 -0.6494
 2848SOL    HW220004   3.544   0.739   4.383 -0.0662  0.4909 -0.6481
 2849SOL     OW20005   3.737   3.836   4.156  0.1190  0.5204 -0.6493
 2849SOL    HW120006   3.687   3.882   4.223  2.8097 -0.0426  1.7070
 2849SOL    HW220007   3.663   3.787   4.120  0.5613 -0.8040  0.2491
 2850SOL     OW20008   4.113   1.737   8.151 -0.6980  0.1564  0.0829
 2850SOL    HW120009   4.141   1.801   8.085 -0.8862 -0.4777 -0.6167
 2850SOL    HW220010   4.122   1.788   8.231 -1.2643 -1.5483  1.2273
 2851SOL     OW20011   2.386   1.000   6.253 -0.3599 -0.3551 -0.6638
 2851SOL    HW120012   2.424   1.068   6.197  1.1988 -2.7119 -2.4713
 2851SOL    HW220013   2.447   0.925   6.251  0.8898  0.6275  0.9287
 2852SOL     OW20014   4.633   3.468   4.511 -0.3472  0.4218  0.0586
 2852SOL    HW120015   4.669   3.518   4.437 -1.2884  1.3567  0.2319
 2852SOL    HW220016   4.707   3.459   4.571 -0.4820  2.0785  0.4641
 2853SOL     OW20017   2.672   1.555   3.364  0.0281  0.1107 -0.2021
 2853SOL    HW120018   2.618   1.482   3.336 -2.4088  2.4239 -1.4598
 2853SOL    HW220019   2.759   1.515   3.370 -0.0166  0.3660  2.2656
 2854SOL     OW20020   1.921   0.386   3.284  0.6043  0.2501 -0.2600
 2854SOL    HW120021   1.956   0.419   3.201  1.0770 -0.0044 -0.1626
 2854SOL    HW220022   1.831   0.366   3.259  1.3932 -0.4176 -2.6073
 2855SOL     OW20023   4.654   2.125   2.948 -0.3385  0.0615  0.8363
 2855SOL    HW120024   4.705   2.128   2.867 -1.1246 -0.4743  0.3235
 2855SOL    HW220025   4.663   2.034   2.975  1.4108 -0.3864 -1.2994
 2856SOL     OW20026   2.818   0.557   1.684  0.1760 -0.0365  0.5141
 2856SOL    HW120027   2.892   0.615   1.668 -0.5926  0.5749 -0.7563
 2856SOL    HW220028   2.860   0.478   1.649  0.1843  1.2888 -2.4464
 2857SOL     OW20029   4.506   4.121   5.389 -0.1537  0.4314 -0.0986
 2857SOL    HW120030   4.498   4.134   5.484  0.0843 -1.6138  0.2202
 2857SOL    HW220031   4.462   4.036   5.381  1.7400 -0.5279 -0.5296
 2858SOL     OW20032   2.121   4.137  12.435  0.6598  0.0926  0.0198
 2858SOL    HW120033   2.027   4.152  12.431  0.7467  0.0506 -1.8288
 2858SOL    HW220034   2.133   4.043  12.442  0.4126  0.1929  1.8222
 2859SOL     OW20035   4.613   4.205   1.964  0.1881  0.2083  0.0360
 2859SOL    HW120036   4.647   4.255   2.038  1.3087 -1.2152  0.4896
 2859SOL    HW220037   4.590   4.125   2.012  2.0661  0.0015  0.5673
 2860SOL     OW20038   1.254   1.322  12.114  0.5640 -0.4733 -0.0205
 2860SOL    HW120039   1.323   1.344  12.176  0.0765 -2.2377  1.1710
 2860SOL    HW220040   1.219   1.236  12.139  5.0108 -1.9429  1.0587
 2861SOL     OW20041   2.045   1.728  11.442 -0.2148 -0.1255  0.0207
 2861SOL    HW120042   1.990   1.720  11.364 -0.4181 -2.2024  0.3801
 2861SOL    HW220043   2.069   1.645  11.482  1.2521 -1.5630 -3.8008
 2862SOL     OW20044   4.279   3.913   6.576 -0.4117  0.3807  0.3832
 2862SOL    HW120045   4.289   3.941   6.485 -0.5297  0.5787  0.4318
 2862SOL    HW220046   4.311   3.823   6.571  0.9078  0.9730 -1.6797
 2863SOL     OW20047   4.380   3.604   4.592 -0.5155  0.1666  0.1222
 2863SOL    HW120048   4.470   3.572   4.597  0.1702  1.7608 -2.0877
 2863SOL    HW220049   4.400   3.693   4.618  0.4553  0.2095 -0.7487
 2864SOL     OW20050   0.890   1.754   1.129 -0.3032  0.2654 -0.4259
 2864SOL    HW120051   0.852   1.804   1.057 -1.1155 -0.3072 -0.4014
 2864SOL    HW220052   0.817   1.774   1.187 -1.4918 -0.8729 -1.5235
 2865SOL     OW20053   2.838   1.866   7.360 -0.2677  0.2689 -0.1211
 2865SOL    HW120054   2.912   1.883   7.417 -0.6907  0.0270  0.5000
 2865SOL    HW220055   2.772   1.884   7.427  0.2309 -3.9070  1.4942
 2866SOL     OW20056   2.974   3.408   2.039 -0.1458  1.0564  0.7268
 2866SOL    HW120057   3.012   3.328   2.002 -1.5771 -0.0124  1.5584
 2866SOL    HW220058   3.045   3.473   2.040  1.1936 -0.4269  1.6024
 2867SOL     OW20059   1.943   2.126   2.448  0.1456  0.3517  0.5223
 2867SOL    HW120060   2.017   2.067   2.463  0.5098  0.2100 -1.8264
 2867SOL    HW220061   1.870   2.067   2.464  0.1278 -0.2834 -2.0028
 2868SOL     OW20062   2.607   0.183  10.566 -0.1301 -0.6313  0.0582
 2868SOL    HW120063   2.660   0.141  10.633 -0.3800 -1.1973 -0.0972
 2868SOL    HW220064   2.681   0.208  10.512 -1.5922 -0.3592 -1.8110
 2869SOL     OW20065   2.205   0.612   9.187 -0.0382  0.1595 -0.0142
 2869SOL    HW120066   2.297   0.632   9.168 -0.0470 -0.3546 -0.5853
 2869SOL    HW220067   2.203   0.666   9.266  0.3117 -1.3318  1.0125
 2870SOL     OW20068   2.997   1.197   2.736  0.0018  0.3378 -0.0034
 2870SOL    HW120069   2.960   1.272   2.782  0.3300 -0.5833  1.7328
 2870SOL    HW220070   3.074   1.171   2.787 -0.3790 -2.3507 -0.8112
 2871SOL     OW20071   2.732   1.636  10.807 -0.1073  0.2815  0.4592
 2871SOL    HW120072   2.675   1.687  10.865 -0.3604 -0.6470  1.0286
 2871SOL    HW220073   2.782   1.708  10.768 -1.6865  1.1118 -0.0255
 2872SOL     OW20074   0.152   2.964   3.465  0.2062 -0.3706  0.7907
 2872SOL    HW120075   0.228   2.980   3.521 -0.0054 -2.0602  1.5454
 2872SOL    HW220076   0.073   2.985   3.514  2.6363  2.7082  3.3598
 2873SOL     OW20077   3.903   0.369   4.254 -0.2852 -0.0535  0.0302
 2873SOL    HW120078   3.819   0.407   4.227 -0.8930  0.3007  2.4880
 2873SOL    HW220079   3.931   0.319   4.177 -0.5375  2.3873 -1.6465
 2874SOL     OW20080   3.626   3.204   9.157  0.2207 -0.5829  0.1941
 2874SOL    HW120081   3.708   3.160   9.136  1.8088  1.5082  1.8991
 2874SOL    HW220082   3.649   3.256   9.234  2.3177 -1.9148  0.4711
 2875SOL     OW20083   2.210   3.562   7.715 -0.0943 -0.7124 -0.5305
 2875SOL    HW120084   2.228   3.616   7.638  1.3043  0.6761  0.7866
 2875SOL    HW220085   2.182   3.477   7.679 -3.1015 -0.3153  0.8900
 2876SOL     OW20086   2.610   4.565   1.238 -0.2543  0.0442 -0.4357
 2876SOL    HW120087   2.535   4.533   1.289 -1.1286  2.4457 -0.2324
 2876SOL    HW220088   2.595   4.517   1.157 -0.2154  0.4571 -0.6873
 2877SOL     OW20089   3.592   4.195   6.834  0.1484  0.7408 -0.3590
 2877SOL    HW120090   3.669   4.189   6.778 -0.4809 -1.1148 -1.0299
 2877SOL    HW220091   3.620   4.264   6.895  1.5862  1.1186 -1.4526
 2878SOL     OW20092   3.764   0.346  17.473  0.0784  0.7742 -0.2715
 2878SOL    HW120093   3.710   0.357  17.551 -0.4069 -0.6641 -0.4013
 2878SOL    HW220094   3.760   0.250  17.467 -2.0135  0.7605  1.2203
 2879SOL     OW20095   4.278   0.859   9.838  0.0008 -0.3046 -0.3106
 2879SOL    HW120096   4.325   0.832   9.917 -0.5445  2.3360  0.9408
 2879SOL    HW220097   4.189   0.828   9.853  0.4143 -1.9307 -1.3072
 2880SOL     OW20098   0.919   3.989   5.688 -0.0174  0.1436  0.3143
 2880SOL    HW120099   0.981   4.019   5.621 -0.1008 -0.5098 -0.0523
 2880SOL    HW220100   0.960   4.025   5.767 -0.5356 -0.2658  0.7683
 2881SOL     OW20101   1.258   2.654   6.100 -0.0094  0.2063 -0.1135
 2881SOL    HW120102   1.295   2.730   6.145  0.5249 -0.0820 -0.0730
 2881SOL    HW220103   1.231   2.693   6.016 -1.0130 -0.2232  0.0014
 2882SOL     OW20104   3.887   0.879  10.545 -0.1594  0.1546 -0.5544
 2882SOL    HW120105   3.899   0.895  10.452  1.1401  4.8180  0.3708
 2882SOL    HW220106   3.871   0.970  10.573  0.4177  0.4177 -1.0783
 2883SOL     OW20107   1.748   3.294   8.923  0.2666 -0.0707 -0.3364
 2883SOL    HW120108   1.819   3.268   8.864  0.8620 -1.3829  0.9754
 2883SOL    HW220109   1.737   3.382   8.886 -1.7211  0.6083  1.8618
 2884SOL     OW20110   2.388   3.996   6.965  0.0423  0.2868  0.1860
 2884SOL    HW120111   2.411   4.020   6.876 -0.7853  0.7696  0.0944
 2884SOL    HW220112   2.292   4.002   6.959 -0.0375 -0.8498  0.3675
 2885SOL     OW20113   1.466   2.178  10.855  0.0574 -0.0735  0.0490
 2885SOL    HW120114   1.371   2.186  10.844  0.2004 -0.5085 -1.6131
 2885SOL    HW220115   1.489   2.197  10.764 -0.5253  0.4779  0.0131
 2886SOL     OW20116   3.740   3.805   7.500  0.3969 -0.3273  0.3299
 2886SOL    HW120117   3.653   3.810   7.460  1.6849  1.8168 -2.1708
 2886SOL    HW220118   3.738   3.854   7.581 -0.1161 -0.2266  0.2580
 2887SOL     OW20119   1.966   2.716   6.904 -0.4440 -0.2416 -0.2917
 2887SOL    HW120120   1.936   2.806   6.891  2.4487  0.5864 -1.2446
 2887SOL    HW220121   1.883   2.681   6.935 -0.3400 -0.0482  0.1983
 2888SOL     OW20122   3.864   3.682   8.823  0.0471  0.1433 -0.7308
 2888SOL    HW120123   3.958   3.669   8.827 -0.2128 -1.9830 -1.7927
 2888SOL    HW220124   3.842   3.629   8.900  0.9496 -0.1800 -0.6979
 2889SOL     OW20125   3.922   3.842   4.524  0.3860  0.0616  0.7224
 2889SOL    HW120126   3.876   3.840   4.608 -0.1377  0.3335  0.4414
 2889SOL    HW220127   3.948   3.934   4.524 -0.1231  0.2064  0.7877
 2890SOL     OW20128   1.998   0.877   3.927  0.2703  0.0846 -1.1293
 2890SOL    HW120129   1.911   0.885   3.966  0.4577 -0.9254 -0.4913
 2890SOL    HW220130   1.980   0.844   3.839 -0.3265  0.5258 -1.1726
 2891SOL     OW20131   3.416   1.711   1.589  0.0958  0.0856  0.0460
 2891SOL    HW120132   3.447   1.621   1.598  0.1570 -0.2154 -2.9452
 2891SOL    HW220133   3.491   1.769   1.600 -0.3306  0.7521 -0.5253
 2892SOL     OW20134   0.182   3.361   8.757 -0.3115  0.2300 -0.0285
 2892SOL    HW120135   0.130   3.311   8.819 -0.0012 -0.1112 -0.0370
 2892SOL    HW220136   0.271   3.327   8.772 -0.0677  1.4392  1.2327
 2893SOL     OW20137   0.896   0.639   8.225  0.3408 -0.2025  0.3156
 2893SOL    HW120138   0.880   0.589   8.305 -0.9214 -0.7037 -0.2512
 2893SOL    HW220139   0.923   0.570   8.165 -0.2747 -0.8537  0.7959
 2894SOL     OW20140   2.693   4.147   3.221 -0.3024 -0.2129 -0.3054
 2894SOL    HW120141   2.740   4.171   3.301 -1.8298  4.4060 -0.7801
 2894SOL    HW220142   2.748   4.175   3.148  0.3380 -0.2170  0.1807
 2895SOL     OW20143   3.830   1.370   8.393  0.2051  1.0073 -0.5436
 2895SOL    HW120144   3.873   1.288   8.371  2.2247  2.6253 -2.6771
 2895SOL    HW220145   3.859   1.433   8.327 -3.3502  2.2659 -0.9227
 2896SOL     OW20146   1.447   3.850  10.801 -0.7873 -0.0255 -0.9847
 2896SOL    HW120147   1.538   3.826  10.819 -1.3098  0.0434  1.6815
 2896SOL    HW220148   1.431   3.911  10.873  1.4030  1.4459 -1.7297
 2897SOL     OW20149   3.239   1.704  12.344  0.1733  0.6238 -0.0287
 2897SOL    HW120150   3.244   1.772  12.277  0.2609  1.1032  0.4616
 2897SOL    HW220151   3.331   1.679  12.335  0.6884  1.5929  2.4015
 2898SOL     OW20152   3.798   0.241   1.696 -0.3020  0.5130 -0.1385
 2898SOL    HW120153   3.773   0.302   1.627  0.9373  0.4779 -0.6172
 2898SOL    HW220154   3.709   0.229   1.729 -1.2122  1.2910 -2.3126
 2899SOL     OW20155   3.380   1.309   8.394 -0.2846 -0.2665  0.3647
 2899SOL    HW120156   3.354   1.382   8.337  1.0520  0.0212  0.1132
 2899SOL    HW220157   3.458   1.347   8.435  1.8965 -0.3306 -3.6442
 2900SOL     OW20158   0.504   0.310   1.323 -0.3055  0.3248  0.0995
 2900SOL    HW120159   0.571   0.377   1.315  0.4852 -0.8890 -3.3971
 2900SOL    HW220160   0.463   0.337   1.405  1.6751  1.0479  0.8264
 2901SOL     OW20161   3.413   4.522   4.665 -0.3672 -0.0800 -0.4368
 2901SOL    HW120162   3.421   4.443   4.611  0.5033  0.5869 -1.2729
 2901SOL    HW220163   3.409   4.473   4.748  0.7183  0.2036 -0.2109
 2902SOL     OW20164   4.289   3.908   1.782  0.0017  0.3223  0.1190
 2902SOL    HW120165   4.316   3.842   1.719  1.5506 -0.5820  1.7430
 2902SOL    HW220166   4.257   3.857   1.856 -0.5276 -0.4252 -0.6308
 2903SOL     OW20167   2.265   1.622  12.102  0.0502  0.2767  0.3409
 2903SOL    HW120168   2.339   1.681  12.117  0.7566  0.1523 -2.8249
 2903SOL    HW220169   2.192   1.684  12.112 -1.0257 -1.1120  1.2813
 2904SOL     OW20170   3.738   2.649   8.117 -0.1409  0.0155 -0.2288
 2904SOL    HW120171   3.706   2.706   8.187 -0.2287 -0.3746  0.0509
 2904SOL    HW220172   3.707   2.567   8.156  1.0394  0.2367  1.2037
 2905SOL     OW20173   0.224   4.078   9.542 -0.4431  0.4739 -0.0407
 2905SOL    HW120174   0.284   4.143   9.577 -1.2411  2.4262 -2.2831
 2905SOL    HW220175   0.184   4.042   9.621 -1.6844 -2.3062 -1.9291
 2906SOL     OW20176   3.584   1.362   8.752 -0.3636 -0.3421  0.0573
 2906SOL    HW120177   3.539   1.431   8.800  0.8681  1.7323 -1.8040
 2906SOL    HW220178   3.508   1.304   8.742  0.2009 -1.2778  1.1774
 2907SOL     OW20179   0.083   4.313  13.760 -0.1168 -0.5133  0.4557
 2907SOL    HW120180   0.017   4.319  13.829 -2.2351 -0.0976 -1.6170
 2907SOL    HW220181   0.170   4.311  13.800  0.2328 -1.8801 -0.3714
 2908SOL     OW20182   4.172   4.696   3.189 -0.2597 -0.5029  0.1557
 2908SOL    HW120183   4.105   0.005   3.252  0.1277  2.1542 -0.5513
 2908SOL    HW220184   4.191   0.058   3.139  1.3539 -0.9438  0.0519
 2909SOL     OW20185   3.554   0.278   6.379  0.2254 -0.2774  0.4780
 2909SOL    HW120186   3.523   0.192   6.352 -0.3216 -0.8333  2.8299
 2909SOL    HW220187   3.649   0.273   6.389  0.3722  0.7166 -0.4330
 2910SOL     OW20188   1.391   1.329   6.762 -0.1723  0.3126  0.1738
 2910SOL    HW120189   1.297   1.308   6.768 -0.3382  1.3875  1.4799
 2910SOL    HW220190   1.418   1.249   6.716 -0.6254  0.1228  0.2361
 2911SOL     OW20191   1.473   2.601   4.112  0.2096  0.0229 -1.1470
 2911SOL    HW120192   1.473   2.633   4.022  0.7838  1.3770 -0.6666
 2911SOL    HW220193   1.565   2.623   4.124 -0.0190 -0.0385  0.7960
 2912SOL     OW20194   3.089   0.092   2.878  0.3002  0.4084 -0.0557
 2912SOL    HW120195   3.144   0.162   2.843  1.3648  0.5731  1.9337
 2912SOL    HW220196   3.073   0.045   2.796  1.5804  1.1222 -0.7171
 2913SOL     OW20197   3.333   2.329   2.751 -0.5115  0.2387 -0.8258
 2913SOL    HW120198   3.272   2.375   2.809 -1.0880 -0.0310 -1.2286
 2913SOL    HW220199   3.413   2.376   2.775 -1.2660  0.5645  1.0575
 2914SOL     OW20200   0.570   0.709   2.893  0.0573 -0.6939 -0.3566
 2914SOL    HW120201   0.588   0.615   2.889 -3.2808 -1.3343 -0.0165
 2914SOL    HW220202   0.559   0.720   2.987 -0.6868  0.9796 -0.6277
 2915SOL     OW20203   1.335   1.671   2.412 -0.0692  0.2780 -0.4908
 2915SOL    HW120204   1.242   1.652   2.406  0.3178 -1.9484  0.4465
 2915SOL    HW220205   1.373   1.636   2.331 -1.1127  0.2350 -0.9587
 2916SOL     OW20206   2.882   1.105   1.668  0.2762  0.1618 -0.1225
 2916SOL    HW120207   2.881   1.181   1.727 -1.0880 -0.8695  1.1801
 2916SOL    HW220208   2.816   1.129   1.603 -0.2759  0.3379  0.4999
 2917SOL     OW20209   2.972   3.633   3.708  0.1142  0.3059  0.3008
 2917SOL    HW120210   3.046   3.607   3.763  0.0723  2.6331  1.4876
 2917SOL    HW220211   2.921   3.695   3.761 -2.3251 -0.6916 -0.9236
 2918SOL     OW20212   4.582   4.456  17.096  0.0391 -0.2759  0.2996
 2918SOL    HW120213   4.624   4.485  17.015 -0.1335 -0.4748  0.1367
 2918SOL    HW220214   4.586   4.535  17.149  0.7268 -1.7109  2.3782
 2919SOL     OW20215   0.091   2.981   4.902  0.2048  0.0073  0.1292
 2919SOL    HW120216   0.086   3.058   4.846 -0.5116 -0.1983 -0.1013
 2919SOL    HW220217   0.186   2.978   4.894  0.2721 -0.2418  1.0249
 2920SOL     OW20218   1.204   0.715   7.175  0.9669 -0.2818 -0.3936
 2920SOL    HW120219   1.153   0.685   7.099 -1.3682  2.9015 -0.0781
 2920SOL    HW220220   1.136   0.703   7.242  0.5048  0.5358 -0.7119
 2921SOL     OW20221   0.841   2.049   2.868 -0.2569  0.1246  0.5193
 2921SOL    HW120222   0.874   2.121   2.922  1.0459 -0.9412  1.1488
 2921SOL    HW220223   0.902   2.039   2.795 -0.7797 -0.0085  0.1053
 2922SOL     OW20224   1.778   0.382  11.528 -0.2562 -0.2539  0.4864
 2922SOL    HW120225   1.791   0.475  11.547  0.9753 -0.0839 -1.1945
 2922SOL    HW220226   1.867   0.356  11.551 -0.2035 -0.7047 -0.2442
 2923SOL     OW20227   1.549   3.540   4.950  0.0401 -0.4550  0.2465
 2923SOL    HW120228   1.575   3.462   4.900  0.3107  0.4487 -1.0372
 2923SOL    HW220229   1.582   3.608   4.891 -0.0782 -0.6571 -0.0539
 2924SOL     OW20230   2.165   1.314   2.713 -0.4207 -0.6062  0.1009
 2924SOL    HW120231   2.248   1.279   2.681  0.0003 -0.9898  1.6467
 2924SOL    HW220232   2.202   1.395   2.749  0.1356 -1.1732  0.8135
 2925SOL     OW20233   4.574   3.537   8.998 -0.3394 -0.1378  0.0560
 2925SOL    HW120234   4.527   3.462   8.961  1.6983 -1.9834  1.2204
 2925SOL    HW220235   4.550   3.602   8.932 -1.6042 -0.6549 -0.0047
 2926SOL     OW20236   3.696   1.275   4.648  0.1834  0.2179 -0.0239
 2926SOL    HW120237   3.674   1.367   4.661 -1.3460 -0.3441  1.3040
 2926SOL    HW220238   3.673   1.247   4.737 -0.1861  0.9692  0.1109
 2927SOL     OW20239   4.302   1.098   6.917 -0.0194  0.3714  0.0949
 2927SOL    HW120240   4.360   1.078   6.843 -1.9496 -1.8340 -0.8278
 2927SOL    HW220241   4.368   1.120   6.983  0.5278  1.4388 -0.8094
 2928SOL     OW20242   1.660   3.883   5.834  0.1124 -0.4612 -0.0165
 2928SOL    HW120243   1.740   3.837   5.809  0.0576 -0.0845 -0.8709
 2928SOL    HW220244   1.694   3.955   5.888 -0.1495  0.5833 -1.2489
 2929SOL     OW20245   4.493   0.327   3.404 -0.4067 -0.1305  0.4054
 2929SOL    HW120246   4.447   0.407   3.378 -0.2691  0.0311  0.6636
 2929SOL    HW220247   4.529   0.305   3.318 -1.7772  0.8327 -0.3958
 2930SOL     OW20248   0.396   2.560  15.402 -0.8207 -0.2421 -0.0902
 2930SOL    HW120249   0.467   2.624  15.392 -2.3474  1.5088  0.2059
 2930SOL    HW220250   0.338   2.615  15.455 -0.5563  1.8089 -1.8948
 2931SOL     OW20251   2.458   0.006   2.079 -0.5751 -0.0883 -0.3627
 2931SOL    HW120252   2.497   0.092   2.068 -1.5113  0.3693 -0.1510
 2931SOL    HW220253   2.368   0.014   2.112 -0.3269  0.2396  0.2260
 2932SOL     OW20254   2.045   0.912   2.184  0.1815 -0.0618 -0.0661
 2932SOL    HW120255   2.112   0.906   2.252 -0.2392 -0.6971  0.3019
 2932SOL    HW220256   2.069   0.988   2.131 -0.3425  1.7834  2.3671
 2933SOL     OW20257   1.604   4.415   2.447  0.3279 -0.3989 -0.4528
 2933SOL    HW120258   1.673   4.382   2.389  0.7370  2.9218 -1.8383
 2933SOL    HW220259   1.593   4.504   2.412  3.0136 -0.2615 -0.9386
 2934SOL     OW20260   4.218   1.181  14.846 -0.0184 -0.1635 -0.5528
 2934SOL    HW120261   4.195   1.113  14.782  0.8939 -1.7130  0.7622
 2934SOL    HW220262   4.209   1.250  14.781 -0.5031  0.2279 -0.0591
 2935SOL     OW20263   0.084   1.702  11.270 -0.1394 -0.7121 -1.0451
 2935SOL    HW120264   0.044   1.622  11.307  0.6263 -2.4208 -3.9572
 2935SOL    HW220265   0.009   1.738  11.223  0.1492  2.2967  0.8012
 2936SOL     OW20266   4.036   4.567   7.141  0.6084  0.2521 -0.1192
 2936SOL    HW120267   3.965   4.523   7.187  0.5338 -1.2484 -1.6654
 2936SOL    HW220268   4.039   4.658   7.172  1.4547  0.1525  0.0820
 2937SOL     OW20269   3.637   2.336   2.865  0.1483  0.1052 -0.3740
 2937SOL    HW120270   3.711   2.323   2.924 -0.2446  1.3159  0.3707
 2937SOL    HW220271   3.578   2.384   2.923 -0.4280 -0.5476 -0.4309
 2938SOL     OW20272   3.025   2.829  10.279  0.0390 -0.4458 -0.1528
 2938SOL    HW120273   2.991   2.758  10.334  1.0868 -0.3060  0.7006
 2938SOL    HW220274   2.950   2.887  10.290  1.5113  1.2108  1.1878
 2939SOL     OW20275   0.890   2.393   0.243  0.1897  0.1480 -0.2539
 2939SOL    HW120276   0.805   2.409   0.203 -0.8805 -1.3818  1.4244
 2939SOL    HW220277   0.876   2.321   0.304 -0.1287  0.6563  0.2704
 2940SOL     OW20278   3.796   2.614   5.354 -0.1534  0.4323 -0.0331
 2940SOL    HW120279   3.744   2.616   5.434 -2.9024  0.5651 -1.8101
 2940SOL    HW220280   3.881   2.636   5.391  0.1663 -0.4275 -0.2526
 2941SOL     OW20281   4.652   2.394   8.067  0.1760  0.1770 -0.4892
 2941SOL    HW120282   0.009   2.451   8.086 -0.4642  0.6962  0.4801
 2941SOL    HW220283   4.683   2.314   8.109  0.1912 -0.1472 -1.1291
 2942SOL     OW20284   4.546   3.876  15.153  0.4695 -0.0572  0.1810
 2942SOL    HW120285   4.462   3.923  15.153 -0.4144 -1.6294  0.5313
 2942SOL    HW220286   4.580   3.899  15.240  0.1878  1.8967 -0.2084
 2943SOL     OW20287   2.495   4.223   5.704  0.0590 -0.7438  0.0766
 2943SOL    HW120288   2.474   4.265   5.621 -0.2711  0.8446  0.9610
 2943SOL    HW220289   2.499   4.299   5.762 -0.8157 -2.1392  1.9833
 2944SOL     OW20290   3.151   1.356  15.386  0.2300  0.1419  0.3484
 2944SOL    HW120291   3.151   1.324  15.476 -2.1590 -2.3172 -0.5478
 2944SOL    HW220292   3.106   1.441  15.386 -0.2732 -0.1230 -1.3654
 2945SOL     OW20293   3.019   2.928   4.372  0.5957  0.4113 -0.2949
 2945SOL    HW120294   2.977   2.940   4.287 -1.0329 -0.3729  0.4061
 2945SOL    HW220295   2.968   2.861   4.417 -1.1640  2.7959  1.2412
 2946SOL     OW20296   0.441   1.896   6.367 -0.4254  0.0148 -0.3378
 2946SOL    HW120297   0.520   1.928   6.411 -0.1447 -1.6039  0.3183
 2946SOL    HW220298   0.486   1.852   6.295  1.3317 -1.0798  1.4186
 2947SOL     OW20299   2.562   2.823   3.125  0.2060 -0.2986  0.7428
 2947SOL    HW120300   2.476   2.865   3.117  0.5669  0.2222 -0.3752
 2947SOL    HW220301   2.610   2.906   3.124 -1.3400  0.5493 -1.6606
 2948SOL     OW20302   4.111   3.291  13.495 -0.1821  0.1015  0.3068
 2948SOL    HW120303   4.193   3.280  13.446 -0.8433  0.7496 -0.9462
 2948SOL    HW220304   4.118   3.380  13.529  1.0582 -0.1808  0.7722
 2949SOL     OW20305   2.750   2.802   7.434  0.3292 -1.1658 -0.5903
 2949SOL    HW120306   2.811   2.828   7.365  0.7075  0.5300  0.3763
 2949SOL    HW220307   2.747   2.707   7.443 -0.8846 -0.8792  1.9809
 2950SOL     OW20308   2.942   3.155   4.497  0.0289 -0.7753 -0.2648
 2950SOL    HW120309   2.890   3.087   4.540 -1.0921  0.1788 -0.1273
 2950SOL    HW220310   3.008   3.104   4.450  0.4202 -0.7733  0.2714
 2951SOL     OW20311   2.938   3.941  11.704  0.1542 -0.0099 -0.2679
 2951SOL    HW120312   2.982   3.931  11.620  1.2104  2.4425  0.0099
 2951SOL    HW220313   2.850   3.972  11.684  0.3361  0.2406 -0.6771
 2952SOL     OW20314   4.603   0.906   8.418  0.2573 -0.3371 -0.0776
 2952SOL    HW120315   4.689   0.866   8.428  0.5480  0.4863  0.6777
 2952SOL    HW220316   4.545   0.862   8.481 -0.9560  1.3886  0.0193
 2953SOL     OW20317   3.909   1.481  16.486 -0.0431  0.4243  0.5411
 2953SOL    HW120318   3.886   1.452  16.575 -2.0241 -1.2764 -0.5221
 2953SOL    HW220319   3.980   1.542  16.508 -0.0645  0.2391  1.1359
 2954SOL     OW20320   0.529   2.388   4.411  0.5033  0.6051 -0.0952
 2954SOL    HW120321   0.552   2.356   4.324  2.0281  2.2994 -0.3181
 2954SOL    HW220322   0.489   2.473   4.392 -0.8882  0.8554  3.9958
 2955SOL     OW20323   3.202   4.624   6.848  0.1809 -0.9695  0.0835
 2955SOL    HW120324   3.239   4.564   6.913  0.6946 -1.9878 -1.1543
 2955SOL    HW220325   3.232   4.705   6.889 -0.0117  0.3649 -2.4121
 2956SOL     OW20326   0.865   4.673   4.419 -0.6810 -1.0507 -0.6693
 2956SOL    HW120327   0.883   4.587   4.381 -1.6772 -1.4937 -0.1463
 2956SOL    HW220328   0.800   0.004   4.369  1.3303  1.4864 -0.8539
 2957SOL     OW20329   4.229   1.278   6.725 -0.1074  0.1464 -0.7457
 2957SOL    HW120330   4.293   1.235   6.782  0.1911 -0.0613 -1.2366
 2957SOL    HW220331   4.163   1.315   6.783  0.3875  0.0712 -0.1319
 2958SOL     OW20332   4.598   0.138  17.377  0.4240 -0.8413  0.2771
 2958SOL    HW120333   4.515   0.159  17.421  0.8222  1.2040  0.0637
 2958SOL    HW220334   4.591   0.198  17.303  2.6233 -1.1535 -0.2005
 2959SOL     OW20335   4.437   4.067   2.534  0.4050  0.1877 -0.3441
 2959SOL    HW120336   4.379   4.143   2.528  0.6286  0.5705  2.1927
 2959SOL    HW220337   4.470   4.068   2.445  1.0614 -1.4359 -0.1279
 2960SOL     OW20338   4.206   0.868   6.465 -0.2778 -0.4079  0.2328
 2960SOL    HW120339   4.161   0.820   6.535  1.9444 -2.1313  0.5128
 2960SOL    HW220340   4.190   0.961   6.477 -0.7026 -0.7790  2.5666
 2961SOL     OW20341   1.777   4.098   2.444 -0.0810 -0.4588 -0.1693
 2961SOL    HW120342   1.810   4.179   2.405 -1.2258 -1.2364 -2.7232
 2961SOL    HW220343   1.845   4.031   2.433  2.2977  1.8125  0.5068
 2962SOL     OW20344   4.414   1.712   9.732  0.2418  0.3928 -0.1996
 2962SOL    HW120345   4.375   1.637   9.687 -0.7049  0.1723  0.9810
 2962SOL    HW220346   4.342   1.771   9.753 -0.1117 -0.1732  0.1889
 2963SOL     OW20347   2.377   4.404  11.374 -0.5561 -0.4337  0.3041
 2963SOL    HW120348   2.429   4.479  11.345  3.7086 -2.5962  2.3465
 2963SOL    HW220349   2.314   4.395  11.303 -0.7551 -1.1252  0.5627
 2964SOL     OW20350   1.772   3.012  16.838 -0.5107  0.4797  0.7923
 2964SOL    HW120351   1.696   2.989  16.785 -0.0214  0.4682  0.1031
 2964SOL    HW220352   1.842   3.025  16.774  0.6158  1.0065  2.1105
 2965SOL     OW20353   0.949   3.764   3.632 -0.4988 -0.1485 -0.0882
 2965SOL    HW120354   0.997   3.684   3.655 -0.9680 -0.2269  0.6194
 2965SOL    HW220355   1.016   3.831   3.635  0.2514 -0.9407  0.7995
 2966SOL     OW20356   3.469   4.712   2.732  0.2869  0.1402 -0.0520
 2966SOL    HW120357   3.476   4.702   2.827  1.7632  0.5629 -0.1197
 2966SOL    HW220358   3.559   0.006   2.702  0.7100  0.5840  1.3804
 2967SOL     OW20359   4.177   2.370   6.453  0.9062 -0.7926 -0.5428
 2967SOL    HW120360   4.094   2.417   6.443  0.0467 -2.4010 -1.1416
 2967SOL    HW220361   4.173   2.314   6.375  1.2658 -0.7710 -0.5762
 2968SOL     OW20362   0.426   2.851  15.417  0.5164 -0.1395  0.5353
 2968SOL    HW120363   0.361   2.877  15.351  0.1859 -4.0421 -0.6493
 2968SOL    HW220364   0.361   2.837  15.485  0.2337 -0.6676  0.1529
 2969SOL     OW20365   0.298   3.021   3.230  0.1083 -0.3003 -0.0080
 2969SOL    HW120366   0.298   3.112   3.202 -0.5246  0.0003  0.9537
 2969SOL    HW220367   0.294   3.042   3.323  0.3524  0.0112 -0.0671
 2970SOL     OW20368   4.641   0.057   1.849  0.4264  0.2932  0.1012
 2970SOL    HW120369   4.654   0.059   1.755  1.8191  0.1863  0.2962
 2970SOL    HW220370   0.017   0.061   1.870  0.9007  0.6853 -2.1410
 2971SOL     OW20371   2.812   3.165   8.663  0.4255  0.0517  0.0787
 2971SOL    HW120372   2.751   3.228   8.701 -0.4015 -1.6826  1.6521
 2971SOL    HW220373   2.819   3.107   8.739 -0.2650 -0.5132 -0.2875
 2972SOL     OW20374   1.484   1.235  11.946 -0.1447 -0.4353 -0.1608
 2972SOL    HW120375   1.510   1.189  12.026  0.0393 -0.3589 -0.1762
 2972SOL    HW220376   1.402   1.280  11.964  0.4770  0.4618  0.4091
 2973SOL     OW20377   0.385   3.769  15.953 -0.3447  0.0677  0.4594
 2973SOL    HW120378   0.358   3.677  15.952  1.2368 -0.3848  0.0661
 2973SOL    HW220379   0.454   3.764  15.887 -1.5516 -0.8520 -0.7606
 2974SOL     OW20380   0.678   2.732  15.705  0.0420  0.2079 -0.7851
 2974SOL    HW120381   0.702   2.693  15.789  2.9518  0.6944 -1.3920
 2974SOL    HW220382   0.765   2.737  15.665  1.2367  1.4640  1.9547
 2975SOL     OW20383   3.526   2.912   2.674 -0.1792 -0.3872 -0.0691
 2975SOL    HW120384   3.594   2.942   2.734 -0.6630  0.7696 -0.1005
 2975SOL    HW220385   3.575   2.919   2.592 -0.6136 -1.6353 -0.4418
 2976SOL     OW20386   3.650   0.103  16.901  0.4531 -0.4674 -0.0969
 2976SOL    HW120387   3.678   0.182  16.948  1.0695 -1.0122  0.4521
 2976SOL    HW220388   3.570   0.132  16.857  0.0835  0.5340  1.2140
 2977SOL     OW20389   2.779   0.690  11.905 -0.4409 -0.2162 -0.6248
 2977SOL    HW120390   2.686   0.678  11.891 -0.6156 -1.5337  1.5857
 2977SOL    HW220391   2.816   0.619  11.853  0.2250 -0.7614  0.5709
 2978SOL     OW20392   4.412   3.707   3.148 -0.1462  0.5659  0.8970
 2978SOL    HW120393   4.383   3.657   3.071 -0.7275  0.4186  1.2069
 2978SOL    HW220394   4.367   3.660   3.218 -4.3739  1.1426 -1.4446
 2979SOL     OW20395   0.302   0.429   0.131  0.6177 -0.0725  0.5150
 2979SOL    HW120396   0.332   0.481   0.056  0.8888 -1.8096 -0.5750
 2979SOL    HW220397   0.221   0.474   0.153  0.0766 -1.0502  0.5334
 2980SOL     OW20398   1.224   4.315   8.613 -0.1332 -0.0857  0.2264
 2980SOL    HW120399   1.190   4.279   8.695  1.6057 -1.3017  0.4133
 2980SOL    HW220400   1.146   4.311   8.558 -1.2531  0.1315  1.8227
 2981SOL     OW20401   3.421   3.885   2.030 -0.2177 -0.0611 -0.5049
 2981SOL    HW120402   3.432   3.839   1.947 -0.6625 -2.7573  0.9346
 2981SOL    HW220403   3.339   3.934   2.020 -1.6329 -1.9426  1.9247
 2982SOL     OW20404   4.107   0.321   0.222 -0.1087  0.5189 -0.4763
 2982SOL    HW120405   4.030   0.377   0.231  0.0941  0.9819 -1.6895
 2982SOL    HW220406   4.068   0.256   0.164  0.0176  0.1200 -0.1068
 2983SOL     OW20407   2.695   2.460  14.123  0.1529  0.7546 -0.7174
 2983SOL    HW120408   2.708   2.382  14.176 -0.0253  1.0305 -0.2643
 2983SOL    HW220409   2.620   2.498  14.170  0.0867 -1.1168  0.6813
 2984SOL     OW20410   3.119   3.193   6.932 -0.4030  0.5564  0.3352
 2984SOL    HW120411   3.075   3.218   7.013  1.2014 -0.8165  1.6440
 2984SOL    HW220412   3.095   3.271   6.883 -0.2848 -1.1032 -2.3762
 2985SOL     OW20413   2.761   3.146  11.656  0.1554 -0.5472  0.4090
 2985SOL    HW120414   2.681   3.182  11.618  0.7316  0.2838 -0.0190
 2985SOL    HW220415   2.800   3.227  11.688 -0.3032  0.1851 -0.8639
 2986SOL     OW20416   3.693   4.301   4.331 -0.2465 -1.0741  0.0795
 2986SOL    HW120417   3.676   4.268   4.419  2.2150 -2.3397  0.0748
 2986SOL    HW220418   3.788   4.295   4.323  0.0456 -0.5592  3.2027
 2987SOL     OW20419   1.537   4.041   3.786 -0.0602 -0.4853  0.4133
 2987SOL    HW120420   1.459   4.081   3.824  1.4774  2.2968  0.6384
 2987SOL    HW220421   1.530   4.050   3.690 -2.2198  0.5429  0.6640
 2988SOL     OW20422   1.769   1.677   4.749  0.4364  0.0155 -0.2767
 2988SOL    HW120423   1.780   1.759   4.797 -0.6441 -0.1271  0.2093
 2988SOL    HW220424   1.696   1.633   4.791  1.3895  0.4797  1.9091
 2989SOL     OW20425   1.883   0.310  14.813  0.1149 -0.2089 -0.9566
 2989SOL    HW120426   1.958   0.282  14.866 -0.5648 -2.4675 -1.1876
 2989SOL    HW220427   1.818   0.343  14.876  1.6883  0.6528  0.2231
 2990SOL     OW20428   1.263   1.021   3.724  0.4512 -0.4598  0.9081
 2990SOL    HW120429   1.195   0.958   3.748  0.2315 -0.5042  0.1721
 2990SOL    HW220430   1.336   0.959   3.724  0.6939 -0.1806 -0.4033
 2991SOL     OW20431   3.440   3.903   0.615  0.1763  0.0854  0.3385
 2991SOL    HW120432   3.373   3.849   0.574 -0.3889  0.3629  0.8875
 2991SOL    HW220433   3.513   3.887   0.555  0.3469 -0.4014  0.6751
 2992SOL     OW20434   1.899   2.673  13.403  0.0430 -0.9000 -0.0398
 2992SOL    HW120435   1.956   2.618  13.350 -0.7114 -1.1544 -0.5806
 2992SOL    HW220436   1.843   2.703  13.332  0.8268 -0.3975 -0.4483
 2993SOL     OW20437   1.229   0.874   8.634  0.1793  0.0971 -0.0136
 2993SOL    HW120438   1.228   0.957   8.585  1.0396  0.4902  0.6380
 2993SOL    HW220439   1.145   0.834   8.612 -0.6233  0.8876  1.5688
 2994SOL     OW20440   2.445   3.234  17.334  0.9177  0.5370 -0.3759
 2994SOL    HW120441   2.391   3.228  17.255  2.3794 -1.9550 -1.1851
 2994SOL    HW220442   2.479   3.146  17.322 -0.0858  0.3597 -1.9150
 2995SOL     OW20443   2.597   0.471   1.335 -0.0522 -0.6209 -0.0385
 2995SOL    HW120444   2.622   0.413   1.407 -0.1840 -3.4255 -2.2985
 2995SOL    HW220445   2.603   0.418   1.256  1.7752  0.6692 -0.7835
 2996SOL     OW20446   2.002   0.549   3.536  0.1144 -0.7915 -0.4005
 2996SOL    HW120447   1.940   0.502   3.479  0.7801 -0.6339 -1.2417
 2996SOL    HW220448   2.086   0.504   3.544  0.1492 -0.8911 -1.3863
 2997SOL     OW20449   2.737   4.537   7.095 -0.6025  0.1689  0.4305
 2997SOL    HW120450   2.727   4.501   7.007  0.6230 -0.0545  0.3903
 2997SOL    HW220451   2.735   4.630   7.071  2.4602  0.1436  0.0751
 2998SOL     OW20452   0.742   4.429   8.368  0.8564 -0.2669  0.0492
 2998SOL    HW120453   0.670   4.492   8.369  0.2176 -0.9094 -3.3384
 2998SOL    HW220454   0.747   4.417   8.273  0.7143 -0.2943  0.0453
 2999SOL     OW20455   0.941   2.746  17.293 -0.0980  0.1336  0.0161
 2999SOL    HW120456   0.912   2.706  17.211 -3.4241 -0.7074  1.5907
 2999SOL    HW220457   0.980   2.674  17.343  1.0260  1.1439  0.5760
 3000SOL     OW20458   2.732   3.786   3.779  0.3661 -0.0173 -0.1250
 3000SOL    HW120459   2.638   3.772   3.765  0.6429 -0.5297 -1.4585
 3000SOL    HW220460   2.738   3.868   3.731 -0.7115 -0.2422 -0.6534
 3001SOL     OW20461   1.558   0.137  17.310  0.4718 -0.3172 -0.5096
 3001SOL    HW120462   1.475   0.091  17.296 -2.3208  5.0221 -1.5752
 3001SOL    HW220463   1.559   0.148  17.406 -0.0630 -0.5242 -0.4812
 3002SOL     OW20464   0.360   1.637  17.592 -0.0066  0.1391  0.4386
 3002SOL    HW120465   0.301   1.697  17.637 -2.0211 -0.3799 -1.4852
 3002SOL    HW220466   0.393   1.689  17.519  0.1233 -0.6988 -0.1081
 3003SOL     OW20467   0.755   4.407  16.098 -0.5656  0.5476 -0.1597
 3003SOL    HW120468   0.663   4.433  16.100 -0.7084 -0.1371  2.3706
 3003SOL    HW220469   0.782   4.444  16.015  4.4103 -1.3675  0.6058
 3004SOL     OW20470   4.370   4.107   9.662 -0.1571  0.4530 -0.3712
 3004SOL    HW120471   4.459   4.118   9.695 -1.0216  1.0008  1.7396
 3004SOL    HW220472   4.316   4.132   9.737  1.2988  0.7527  0.5848
 3005SOL     OW20473   1.764   2.812  11.811 -0.1028 -0.6307 -0.0015
 3005SOL    HW120474   1.694   2.795  11.874 -1.8038  0.0473 -1.7218
 3005SOL    HW220475   1.770   2.724  11.773 -1.4109 -1.5102  1.8447
 3006SOL     OW20476   2.657   4.033  11.637  0.0773  0.0898 -0.2179
 3006SOL    HW120477   2.677   4.118  11.600 -0.8504 -0.6888 -2.4812
 3006SOL    HW220478   2.581   4.064  11.686  0.4654  0.3966  0.1874
 3007SOL     OW20479   0.941   3.219   8.577 -0.1522  0.1155  0.4140
 3007SOL    HW120480   1.024   3.212   8.624  1.4015  1.4723 -2.1597
 3007SOL    HW220481   0.893   3.158   8.634 -0.5034  1.1455  1.2286
 3008SOL     OW20482   0.871   1.698   2.974 -0.2810  0.6197 -0.0413
 3008SOL    HW120483   0.885   1.730   2.885  2.2631 -0.1122  0.0716
 3008SOL    HW220484   0.951   1.740   3.007  0.3070 -0.1664 -0.4457
 3009SOL     OW20485   1.547   2.792  16.899 -0.1651  0.3364  0.0163
 3009SOL    HW120486   1.623   2.749  16.860 -0.8715 -2.1639  1.3979
 3009SOL    HW220487   1.503   2.846  16.833  0.1975  0.0496 -0.4655
 3010SOL     OW20488   1.787   1.058  14.858 -0.5560  0.2480 -0.1352
 3010SOL    HW120489   1.877   1.077  14.832 -0.1772  1.1597  1.8390
 3010SOL    HW220490   1.782   1.104  14.942 -0.2745 -0.4108  0.2442
 3011SOL     OW20491   2.793   4.175   4.703 -0.6177  0.6186  0.5579
 3011SOL    HW120492   2.747   4.091   4.698  1.3713 -0.5005  1.2687
 3011SOL    HW220493   2.772   4.216   4.619 -1.8065 -0.8687  0.1228
 3012SOL     OW20494   2.471   3.187   5.095  0.2549  0.4143  0.3925
 3012SOL    HW120495   2.502   3.155   5.179 -0.1093  0.8492  0.6900
 3012SOL    HW220496   2.387   3.143   5.093 -0.3659  1.6475 -1.5574
 3013SOL     OW20497   1.120   3.915   2.914 -0.2315 -0.3029 -0.2292
 3013SOL    HW120498   1.069   3.841   2.949 -0.2997 -0.0054  0.3003
 3013SOL    HW220499   1.077   3.989   2.956 -0.0157  1.4806 -3.2335
 3014SOL     OW20500   2.741   0.445   8.141 -0.6932  0.4692 -0.2048
 3014SOL    HW120501   2.746   0.537   8.169  2.1187  0.4535 -0.6145
 3014SOL    HW220502   2.760   0.402   8.224  0.5896  1.0230 -0.2032
 3015SOL     OW20503   4.202   3.645   2.743  0.0382  0.7545 -0.4177
 3015SOL    HW120504   4.165   3.711   2.802 -1.5025 -0.5322  0.0548
 3015SOL    HW220505   4.207   3.702   2.666  0.0883  0.4727 -0.6204
 3016SOL     OW20506   3.938   3.690  10.288 -0.1571 -0.0707 -0.3239
 3016SOL    HW120507   3.925   3.737  10.370  2.1302  0.3240 -0.1783
 3016SOL    HW220508   3.902   3.751  10.224  1.2743  1.6114  0.4731
 3017SOL     OW20509   1.149   1.722   5.857 -0.2161 -0.6161 -0.4733
 3017SOL    HW120510   1.081   1.674   5.810 -0.9333  0.9228 -1.0222
 3017SOL    HW220511   1.208   1.750   5.788 -0.7798 -0.5492 -0.9233
 3018SOL     OW20512   0.725   1.754   4.712 -0.0634  0.1876  0.1503
 3018SOL    HW120513   0.769   1.703   4.644  2.7159  0.9835  1.3866
 3018SOL    HW220514   0.757   1.844   4.710  1.7615 -0.4835 -1.1484
 3019SOL     OW20515   2.217   0.866   2.677 -0.1303 -0.8802  0.4301
 3019SOL    HW120516   2.209   0.772   2.692  1.2852 -0.9301  0.9175
 3019SOL    HW220517   2.137   0.897   2.719 -1.0867  1.7298 -3.3290
 3020SOL     OW20518   4.014   2.987   6.474 -0.7506 -0.0156 -0.2352
 3020SOL    HW120519   3.921   3.001   6.490 -0.6593 -0.9061  1.0677
 3020SOL    HW220520   4.032   3.034   6.393 -0.0963 -0.2441 -0.2267
 3021SOL     OW20521   0.731   0.768   5.796 -0.2419  0.1256  0.0266
 3021SOL    HW120522   0.791   0.719   5.739 -0.3978  0.3883 -0.3642
 3021SOL    HW220523   0.668   0.799   5.731 -0.5184  0.6518  0.5567
 3022SOL     OW20524   1.567   1.748   3.680  0.2168 -0.1206  0.5073
 3022SOL    HW120525   1.603   1.703   3.757  1.4596  2.0322  1.1765
 3022SOL    HW220526   1.526   1.676   3.632 -2.9006  2.5757 -0.8149
 3023SOL     OW20527   0.842   2.968  14.473  0.3556  0.0346  0.0037
 3023SOL    HW120528   0.756   2.957  14.513  0.4011 -0.3486 -0.0044
 3023SOL    HW220529   0.862   2.875  14.463  4.0917  0.4639  3.3452
 3024SOL     OW20530   2.397   4.380   5.462 -0.1116 -0.8217  0.1463
 3024SOL    HW120531   2.307   4.409   5.446 -0.5317 -0.4275  3.2329
 3024SOL    HW220532   2.439   4.466   5.457 -0.3938 -0.6653  0.4406
 3025SOL     OW20533   0.758   4.171   4.611  0.2313 -0.3087 -0.1065
 3025SOL    HW120534   0.831   4.218   4.570  0.9037 -0.3925  0.9995
 3025SOL    HW220535   0.732   4.230   4.682  0.3502 -0.9602  0.4683
 3026SOL     OW20536   4.526   2.529   8.379  0.0754 -0.2899  0.1286
 3026SOL    HW120537   4.438   2.502   8.354 -0.0950  1.1786 -0.8094
 3026SOL    HW220538   4.538   2.458   8.443  0.3480  0.0680  0.4739
 3027SOL     OW20539   1.384   3.053   7.152 -0.6351 -0.2283  1.0167
 3027SOL    HW120540   1.450   2.986   7.170 -1.5107 -1.4458 -0.3298
 3027SOL    HW220541   1.412   3.118   7.217 -1.4595 -0.5912  1.7501
 3028SOL     OW20542   1.414   0.960  11.835 -0.3116 -0.5305 -0.4061
 3028SOL    HW120543   1.403   0.914  11.918 -0.5196 -0.2893 -0.3009
 3028SOL    HW220544   1.450   1.042  11.868 -1.9720 -0.0554  0.1796
 3029SOL     OW20545   3.315   1.359   6.106 -0.1615  0.1869  0.7317
 3029SOL    HW120546   3.397   1.363   6.059 -0.2358  2.1646  0.7712
 3029SOL    HW220547   3.317   1.434   6.166  0.5263 -0.7824  1.9214
 3030SOL     OW20548   4.635   3.847   3.046  0.8906  0.1601 -0.2952
 3030SOL    HW120549   4.587   3.812   2.970  0.0321  0.3632  0.1559
 3030SOL    HW220550   4.575   3.817   3.114  0.5852  1.4483 -0.0126
 3031SOL     OW20551   3.000   0.247   6.237 -0.1317 -0.3083 -0.1719
 3031SOL    HW120552   2.998   0.173   6.297 -0.3112 -1.2949 -1.3840
 3031SOL    HW220553   2.975   0.207   6.153  2.0396 -2.7882  0.3611
 3032SOL     OW20554   4.019   2.628   9.668  0.0372 -0.4605  0.5906
 3032SOL    HW120555   3.986   2.574   9.596  0.9604 -0.7457  0.3917
 3032SOL    HW220556   4.109   2.639   9.638 -0.8862 -2.1784 -2.7539
 3033SOL     OW20557   3.112   0.629   4.407 -0.3668  0.0703  0.1507
 3033SOL    HW120558   3.117   0.673   4.322 -0.5627  0.2449  0.2289
 3033SOL    HW220559   3.085   0.540   4.384 -0.2749 -0.2011  1.0656
 3034SOL     OW20560   4.502   1.624   3.047 -0.1994 -0.5426  0.2566
 3034SOL    HW120561   4.536   1.551   2.996 -0.7045  1.6005 -3.1336
 3034SOL    HW220562   4.543   1.610   3.133 -0.0393 -1.1360  0.0843
 3035SOL     OW20563   2.608   0.599   9.745  0.2782  0.6220 -0.2989
 3035SOL    HW120564   2.691   0.639   9.719  0.2272  1.0665  0.2088
 3035SOL    HW220565   2.639   0.516   9.781  1.4318  0.3888 -1.8243
 3036SOL     OW20566   2.705   2.417   8.518 -0.2280 -0.3412 -0.3086
 3036SOL    HW120567   2.651   2.473   8.573 -1.7165 -0.3655 -1.7318
 3036SOL    HW220568   2.645   2.345   8.500 -1.8863  0.8086  0.7173
 3037SOL     OW20569   0.197   1.276   2.298 -0.8061 -0.0014  0.1387
 3037SOL    HW120570   0.236   1.357   2.266  2.9516 -1.4537  1.0475
 3037SOL    HW220571   0.277   1.224   2.310 -1.9351 -2.2078 -1.9157
 3038SOL     OW20572   3.081   1.988   5.770  0.5128  0.6076 -0.6823
 3038SOL    HW120573   2.993   2.022   5.758 -0.2976 -0.6831  1.8646
 3038SOL    HW220574   3.076   1.956   5.859  2.1404  0.8550 -0.4882
 3039SOL     OW20575   0.587   0.928   2.329  0.4720 -0.1518 -0.0087
 3039SOL    HW120576   0.600   0.834   2.342 -0.0722 -0.3554 -0.9554
 3039SOL    HW220577   0.650   0.961   2.393 -0.8988 -0.6973  1.6231
 3040SOL     OW20578   2.451   0.558  15.014  0.1286  0.1943 -0.0859
 3040SOL    HW120579   2.486   0.614  14.944  2.5876 -0.5862  0.5294
 3040SOL    HW220580   2.468   0.608  15.094  0.0931 -1.0069  0.6583
 3041SOL     OW20581   1.780   3.482   5.985  0.0603  0.1321 -0.1432
 3041SOL    HW120582   1.713   3.506   5.921  2.4847  1.4194 -2.1323
 3041SOL    HW220583   1.857   3.532   5.961  0.4529 -0.9966 -1.2470
 3042SOL     OW20584   2.174   1.730   7.311 -1.0901  0.0237 -0.2203
 3042SOL    HW120585   2.138   1.757   7.396 -1.4333 -0.6889 -0.1382
 3042SOL    HW220586   2.157   1.807   7.258 -1.6123 -0.3518 -0.5995
 3043SOL     OW20587   0.008   0.519   6.211  0.4030  0.0046  0.4801
 3043SOL    HW120588   4.686   0.493   6.128 -0.1176  2.2938  0.0020
 3043SOL    HW220589   0.074   0.576   6.171 -0.0094 -1.2102 -1.8913
 3044SOL     OW20590   3.738   0.015   1.374  0.5507  0.4411  0.0834
 3044SOL    HW120591   3.672   4.697   1.433 -1.0857  1.4064 -1.1639
 3044SOL    HW220592   3.699   4.706   1.291 -1.0008  0.1431  0.9225
 3045SOL     OW20593   3.387   3.835   7.762 -0.6743  0.2421  0.7581
 3045SOL    HW120594   3.338   3.917   7.770 -1.0105  0.1940 -0.8466
 3045SOL    HW220595   3.404   3.812   7.853  1.9775  0.0596  0.2252
 3046SOL     OW20596   3.975   1.776   1.431  0.0477  0.0059 -0.1016
 3046SOL    HW120597   3.980   1.725   1.350 -2.5097  0.5294 -0.5842
 3046SOL    HW220598   3.964   1.701   1.490 -1.9405  0.4233  0.0325
 3047SOL     OW20599   1.186   1.618   0.114  0.2330 -0.2892  0.1675
 3047SOL    HW120600   1.250   1.611   0.185 -1.3874 -2.6378  1.3921
 3047SOL    HW220601   1.180   1.527   0.086 -0.5506  0.5134 -2.2621
 3048SOL     OW20602   3.969   3.686   1.867 -0.1552  0.5437 -0.6730
 3048SOL    HW120603   3.942   3.760   1.813 -2.6300 -0.5497 -0.9326
 3048SOL    HW220604   3.888   3.674   1.917  0.2462  0.2003 -0.1009
 3049SOL     OW20605   3.190   0.473   0.572 -0.1738 -0.6887 -0.6335
 3049SOL    HW120606   3.188   0.420   0.492 -0.2554  2.3334 -2.6033
 3049SOL    HW220607   3.276   0.515   0.565 -0.7831  0.8965  1.5649
 3050SOL     OW20608   1.526   2.153   7.558  0.1809  0.3251  0.1628
 3050SOL    HW120609   1.618   2.147   7.531  0.7005  1.7510  1.6485
 3050SOL    HW220610   1.500   2.235   7.516  0.1306 -0.8902 -2.2033
 3051SOL     OW20611   2.682   2.989   9.731 -0.1192 -0.0168  0.1486
 3051SOL    HW120612   2.683   3.009   9.824  0.6646 -2.4387  0.6480
 3051SOL    HW220613   2.756   3.039   9.695 -0.4280 -0.2762 -0.8644
 3052SOL     OW20614   2.371   4.064   5.398  0.5567  0.0463  0.0376
 3052SOL    HW120615   2.393   4.001   5.467  1.2406 -0.2037 -0.4116
 3052SOL    HW220616   2.298   4.110   5.439  0.0338 -1.7219  1.0981
 3053SOL     OW20617   2.645   2.271   7.419  0.1432  0.0530  0.2125
 3053SOL    HW120618   2.592   2.249   7.343 -0.2605 -0.3221  0.6015
 3053SOL    HW220619   2.710   2.327   7.376  1.4041 -1.8806 -0.3944
 3054SOL     OW20620   0.388   4.079   6.704 -0.4247  0.4006 -0.4629
 3054SOL    HW120621   0.429   4.099   6.620  2.0733 -0.3885  0.5790
 3054SOL    HW220622   0.418   3.989   6.707 -0.8178  0.2394 -1.3776
 3055SOL     OW20623   2.877   3.400  13.007 -0.7015 -0.2212  0.3468
 3055SOL    HW120624   2.887   3.344  12.930  0.8133 -0.7598  0.9260
 3055SOL    HW220625   2.791   3.437  12.990  0.2170  1.3805 -0.7651
 3056SOL     OW20626   0.077   2.381  12.714 -0.2536 -0.8376  0.3748
 3056SOL    HW120627   4.706   2.363  12.744  0.0172  0.2814  1.8611
 3056SOL    HW220628   0.117   2.407  12.798  0.9872 -0.6802 -0.2731
 3057SOL     OW20629   2.165   0.246  14.974 -0.8313 -0.7159 -0.0389
 3057SOL    HW120630   2.250   0.262  15.015 -1.2680 -0.0089  0.5646
 3057SOL    HW220631   2.128   0.332  14.991 -0.0417 -0.6899  1.5351
 3058SOL     OW20632   3.299   0.875   2.216 -0.0361 -0.2012  0.1181
 3058SOL    HW120633   3.361   0.874   2.143 -0.4938 -0.5379 -0.2587
 3058SOL    HW220634   3.248   0.954   2.198  1.4000  0.4148 -1.1879
 3059SOL     OW20635   1.762   0.739   2.429  0.1208 -0.3856 -0.0515
 3059SOL    HW120636   1.749   0.777   2.342 -2.5905 -0.8447  0.1384
 3059SOL    HW220637   1.715   0.803   2.483 -0.1786 -1.8608  1.4461
 3060SOL     OW20638   0.168   2.271   3.315  0.7965 -0.6063  0.4696
 3060SOL    HW120639   0.236   2.298   3.376 -0.6528  1.7795  1.0287
 3060SOL    HW220640   0.222   2.252   3.238 -0.4447 -0.4960 -0.4198
 3061SOL     OW20641   0.150   2.279   5.528 -0.3101 -0.0871 -0.0725
 3061SOL    HW120642   0.228   2.249   5.481 -0.7667  0.2781 -1.0695
 3061SOL    HW220643   0.159   2.374   5.528  0.4442 -0.1539 -1.8696
 3062SOL     OW20644   3.690   0.945  16.707  0.6047 -0.2460  0.0686
 3062SOL    HW120645   3.749   0.996  16.762 -1.2307  0.7453  1.1307
 3062SOL    HW220646   3.691   1.002  16.630  2.1297 -0.4153 -0.0381
 3063SOL     OW20647   1.030   2.457   4.572  0.3448  0.2021 -0.0802
 3063SOL    HW120648   1.015   2.483   4.663  0.8172 -0.9784  0.3356
 3063SOL    HW220649   0.942   2.471   4.539  0.1417  0.9515  0.7510
 3064SOL     OW20650   1.586   4.099  15.945 -0.8914 -0.3432 -0.5497
 3064SOL    HW120651   1.614   4.117  15.855 -1.9116  1.3554 -0.5304
 3064SOL    HW220652   1.662   4.131  15.993 -0.7823 -0.0194 -0.9407
 3065SOL     OW20653   0.589   3.276   4.708 -0.7227  0.4040 -0.2569
 3065SOL    HW120654   0.549   3.356   4.674 -0.3758  1.6311  2.2213
 3065SOL    HW220655   0.678   3.290   4.675  0.2246 -0.4067  1.9734
 3066SOL     OW20656   4.694   0.748   4.009  0.8034  0.0315 -0.0821
 3066SOL    HW120657   4.599   0.737   4.014  0.0225  5.0434 -3.6573
 3066SOL    HW220658   4.709   0.842   4.006 -2.0727  0.4626 -1.1322
 3067SOL     OW20659   0.243   1.078   9.313  0.2150  0.6172  0.6603
 3067SOL    HW120660   0.336   1.056   9.323  0.2255  0.7900  0.9315
 3067SOL    HW220661   0.243   1.084   9.217 -1.4148  1.6674  0.7398
 3068SOL     OW20662   2.229   0.612   8.242  0.0180  0.1238 -0.3577
 3068SOL    HW120663   2.258   0.703   8.249  0.7206 -0.0444 -1.0217
 3068SOL    HW220664   2.308   0.579   8.285 -1.2827 -0.5591  1.4900
 3069SOL     OW20665   0.789   1.951  12.915  0.0093  0.2287 -0.3483
 3069SOL    HW120666   0.789   1.999  12.998  1.5494 -0.4442  0.0455
 3069SOL    HW220667   0.719   1.890  12.940 -0.4839  0.3656 -1.3966
 3070SOL     OW20668   2.665   2.793   9.085 -0.4420 -0.6859  0.0469
 3070SOL    HW120669   2.640   2.868   9.030  1.4647 -0.6911 -0.8329
 3070SOL    HW220670   2.651   2.718   9.027 -1.9027 -0.2739 -0.1348
 3071SOL     OW20671   1.567   3.114   7.789 -0.6472 -0.2243  0.0063
 3071SOL    HW120672   1.512   3.037   7.803  1.3894 -1.5412  0.7917
 3071SOL    HW220673   1.636   3.066   7.744  0.3981 -0.0647  1.4503
 3072SOL     OW20674   4.465   0.855   1.102 -0.0760 -0.2055  0.2321
 3072SOL    HW120675   4.375   0.821   1.107 -0.4621  1.1363  2.7170
 3072SOL    HW220676   4.461   0.898   1.017 -0.1071 -0.8804 -0.1067
 3073SOL     OW20677   3.629   3.769   0.819 -0.3505 -0.0140 -0.1772
 3073SOL    HW120678   3.543   3.809   0.803 -1.0107 -1.1433  0.5359
 3073SOL    HW220679   3.665   3.777   0.731  0.9262 -2.2360  0.1190
 3074SOL     OW20680   1.587   2.651  15.287  0.3622 -0.0756 -0.1121
 3074SOL    HW120681   1.610   2.689  15.202 -1.3944  0.7456 -0.2107
 3074SOL    HW220682   1.668   2.614  15.324  0.1357 -0.5951 -0.1393
 3075SOL     OW20683   1.031   0.746   0.586  0.4564 -0.1796 -0.3771
 3075SOL    HW120684   0.997   0.664   0.623 -1.4711  0.4547 -0.7505
 3075SOL    HW220685   1.099   0.705   0.534 -0.3504  0.3517 -1.8364
 3076SOL     OW20686   3.119   0.849   7.252  0.5605  0.7493 -0.5721
 3076SOL    HW120687   3.053   0.883   7.312 -0.0264 -1.4479  0.0062
 3076SOL    HW220688   3.170   0.927   7.229 -2.4696  3.2387  1.2770
 3077SOL     OW20689   2.242   0.877  12.813 -0.0889 -0.0566  0.5027
 3077SOL    HW120690   2.301   0.825  12.867 -1.1547 -2.2655 -0.4533
 3077SOL    HW220691   2.182   0.922  12.873 -0.1155  0.4738  0.0697
 3078SOL     OW20692   2.162   0.344  12.427 -0.3138  0.1008  0.4472
 3078SOL    HW120693   2.177   0.353  12.333  1.7119 -1.1913  0.6552
 3078SOL    HW220694   2.236   0.289  12.454 -1.4628 -1.5971  0.1412
 3079SOL     OW20695   4.376   2.110  15.889  0.2009  0.2688  0.0757
 3079SOL    HW120696   4.391   2.096  15.983 -0.1592  0.5452  0.1760
 3079SOL    HW220697   4.438   2.182  15.877  2.8180 -1.8149  1.0014
 3080SOL     OW20698   2.855   4.623   3.096 -0.2802  0.1099  0.2533
 3080SOL    HW120699   2.927   4.564   3.077 -0.4368  0.3576 -1.0904
 3080SOL    HW220700   2.864   4.639   3.190  0.2579  2.8943 -0.2709
 3081SOL     OW20701   4.509   4.604   5.135  0.4401  0.1700  0.1716
 3081SOL    HW120702   4.584   4.645   5.177  0.7490 -0.3945  0.1731
 3081SOL    HW220703   4.500   4.535   5.201 -0.4128  0.3325  0.2248
 3082SOL     OW20704   1.796   3.541   8.823  0.1595  0.0920 -0.3724
 3082SOL    HW120705   1.748   3.506   8.748 -2.7434  3.0110  0.0975
 3082SOL    HW220706   1.837   3.615   8.780  0.7694  1.1033  1.9444
 3083SOL     OW20707   0.852   2.253   6.645  0.4254  0.2389 -0.0103
 3083SOL    HW120708   0.933   2.207   6.668 -0.0137 -0.0623  0.9394
 3083SOL    HW220709   0.891   2.301   6.572  2.3774  0.0923  0.9310
 3084SOL     OW20710   4.632   2.590   5.343 -0.0755  0.1142 -0.2352
 3084SOL    HW120711   4.548   2.632   5.355 -0.1831 -0.3906  0.8201
 3084SOL    HW220712   4.642   2.593   5.248  0.9090  0.2019 -0.1367
 3085SOL     OW20713   1.407   0.099   6.405 -0.7822 -0.2648 -0.1813
 3085SOL    HW120714   1.313   0.108   6.422 -0.9262  0.5378 -1.3284
 3085SOL    HW220715   1.450   0.087   6.489 -0.0112 -1.0213 -0.6849
 3086SOL     OW20716   4.308   4.549  15.642 -0.2747  0.4222  0.3233
 3086SOL    HW120717   4.395   4.521  15.671  0.3331  2.5026  0.4538
 3086SOL    HW220718   4.320   4.598  15.561 -0.0609 -0.2164 -0.0387
 3087SOL     OW20719   3.066   4.463   3.008 -0.5651 -0.5916 -0.5311
 3087SOL    HW120720   3.085   4.422   3.092 -2.3855  0.8582  0.5814
 3087SOL    HW220721   3.057   4.385   2.953 -2.3837 -0.2971 -0.6652
 3088SOL     OW20722   1.973   1.310   1.891  0.5513 -0.5016  0.2126
 3088SOL    HW120723   1.993   1.403   1.881  3.2521 -1.0703  0.2647
 3088SOL    HW220724   1.980   1.284   1.800  0.5233 -0.4335  0.1909
 3089SOL     OW20725   2.950   1.103  12.338  0.0924  0.0847  0.9200
 3089SOL    HW120726   2.983   1.040  12.402  1.5915  0.3298  0.3851
 3089SOL    HW220727   2.941   1.187  12.383  0.3836  1.4356 -1.5655
 3090SOL     OW20728   3.873   4.592  12.201 -0.4424 -0.0466 -0.1458
 3090SOL    HW120729   3.800   4.558  12.149 -0.3389  2.1515 -1.7387
 3090SOL    HW220730   3.917   4.512  12.231  0.9507 -0.0232 -2.0817
 3091SOL     OW20731   4.503   2.281   3.901 -0.3750 -0.6805  0.0553
 3091SOL    HW120732   4.423   2.296   3.852 -1.5496 -1.0863  1.8561
 3091SOL    HW220733   4.540   2.230   3.829  0.8028  1.5057 -0.8801
 3092SOL     OW20734   4.459   3.341   8.879 -0.0344 -0.0990 -0.1375
 3092SOL    HW120735   4.493   3.255   8.904  1.7708  1.3881  2.5763
 3092SOL    HW220736   4.462   3.330   8.784 -1.9492  1.8879 -0.4216
 3093SOL     OW20737   0.741   2.766   3.607  0.1134  0.1861 -0.3752
 3093SOL    HW120738   0.723   2.778   3.514 -1.5823 -0.8874 -0.1746
 3093SOL    HW220739   0.748   2.671   3.606  0.8130  0.2182  3.0538
 3094SOL     OW20740   1.254   0.571   3.649 -0.0262 -0.3817  0.2771
 3094SOL    HW120741   1.203   0.649   3.674  0.2657 -0.6077  1.5978
 3094SOL    HW220742   1.335   0.600   3.693 -0.3729  2.0317 -0.6887
 3095SOL     OW20743   2.747   4.474   2.292 -0.0537 -0.8000  0.1650
 3095SOL    HW120744   2.839   4.454   2.272 -0.1522 -0.8061 -0.2796
 3095SOL    HW220745   2.699   4.459   2.210 -1.1183 -1.2966  0.8888
 3096SOL     OW20746   0.474   1.483  14.385  0.0809  0.4707 -0.0415
 3096SOL    HW120747   0.427   1.424  14.327 -0.5622 -0.6516  1.6444
 3096SOL    HW220748   0.565   1.460  14.366 -0.1302  1.2250 -1.9416
 3097SOL     OW20749   3.164   4.123  14.683  0.0336  0.1084  0.0089
 3097SOL    HW120750   3.090   4.160  14.634 -0.3296  0.1861  0.6242
 3097SOL    HW220751   3.181   4.044  14.632  1.8530  0.7961 -0.4625
 3098SOL     OW20752   4.267   2.910   3.506 -0.1552 -0.3959 -0.1239
 3098SOL    HW120753   4.227   2.979   3.453 -0.5024 -0.0022  0.6604
 3098SOL    HW220754   4.270   2.853   3.429 -0.6532  1.0183 -1.2103
 3099SOL     OW20755   0.548   4.552   5.530 -0.0768  0.3912 -0.1128
 3099SOL    HW120756   0.617   4.558   5.597  0.4420  0.6515 -0.6718
 3099SOL    HW220757   0.465   4.564   5.577  0.1241  0.7031  0.1648
 3100SOL     OW20758   1.709   1.289   2.656 -0.2611  0.4626  0.4677
 3100SOL    HW120759   1.640   1.223   2.656 -0.3461  0.5435 -0.2180
 3100SOL    HW220760   1.779   1.237   2.694 -0.4772 -1.8778 -2.3549
 3101SOL     OW20761   0.846   0.518   8.480  0.7309 -0.1874 -0.4536
 3101SOL    HW120762   0.825   0.534   8.572  2.5265  1.9717 -0.4392
 3101SOL    HW220763   0.770   0.461   8.468  0.5963 -0.0847 -0.0836
 3102SOL     OW20764   3.976   1.572   1.597  0.4720  0.0945 -0.0664
 3102SOL    HW120765   3.984   1.482   1.566 -0.1833  0.7170 -2.0124
 3102SOL    HW220766   3.894   1.564   1.646 -0.9699  1.1227 -2.2945
 3103SOL     OW20767   2.722   0.669   8.280  0.1362  0.0474  0.2601
 3103SOL    HW120768   2.787   0.735   8.302  0.0476  0.3011 -0.2347
 3103SOL    HW220769   2.668   0.673   8.359 -0.2493 -2.0853  0.1042
 3104SOL     OW20770   4.107   0.763   4.563  0.1115  0.2246  0.1566
 3104SOL    HW120771   4.033   0.704   4.578  0.0487  0.7305  1.8777
 3104SOL    HW220772   4.108   0.777   4.469  0.1988  0.5086  0.2019
 3105SOL     OW20773   4.238   0.111   3.875  0.5134  0.4483 -0.7433
 3105SOL    HW120774   4.319   0.158   3.857  1.6115 -1.8128 -1.7298
 3105SOL    HW220775   4.184   0.178   3.833 -1.7154 -0.4778  0.6521
 3106SOL     OW20776   3.920   1.481   8.866 -0.3233 -0.2637 -0.0855
 3106SOL    HW120777   3.896   1.528   8.786 -1.2475 -0.2859  0.1712
 3106SOL    HW220778   3.972   1.407   8.833  0.4812  1.0694 -1.8245
 3107SOL     OW20779   3.913   2.831   7.117 -0.6577  0.0943  0.2339
 3107SOL    HW120780   3.994   2.834   7.168  0.3790 -1.8663 -1.3085
 3107SOL    HW220781   3.920   2.740   7.088 -1.2693  0.1717 -0.1597
 3108SOL     OW20782   4.625   0.848   5.966  0.8743 -0.3839 -0.4025
 3108SOL    HW120783   4.592   0.769   6.009 -1.9468  2.0291  1.9733
 3108SOL    HW220784   4.705   0.812   5.928  0.8220 -1.6316  0.6899
 3109SOL     OW20785   3.693   2.571   7.865 -0.0496 -0.2266 -0.1746
 3109SOL    HW120786   3.664   2.482   7.884  0.1886  0.1705  2.0563
 3109SOL    HW220787   3.673   2.622   7.943  1.0978 -0.6456  0.3918
 3110SOL     OW20788   2.996   4.436   2.144  0.3561  0.0243  0.1836
 3110SOL    HW120789   3.056   4.486   2.199 -1.2758  0.5981  1.4344
 3110SOL    HW220790   3.054   4.384   2.088  1.4672 -0.6830  1.9886
 3111SOL     OW20791   4.596   0.446  10.416  0.0770 -0.0484  0.1656
 3111SOL    HW120792   4.603   0.357  10.382 -0.1421 -0.1895  0.4868
 3111SOL    HW220793   4.687   0.465  10.439  0.6497 -1.7256 -0.7566
 3112SOL     OW20794   2.255   3.856   8.189 -0.1991  0.4957  0.3346
 3112SOL    HW120795   2.225   3.804   8.115  1.6104 -0.4788  0.2892
 3112SOL    HW220796   2.307   3.919   8.137 -0.7464  0.4808 -0.2305
 3113SOL     OW20797   3.755   3.637   2.029  0.0241 -0.3083  0.3166
 3113SOL    HW120798   3.687   3.582   2.070 -1.9953  1.1391 -1.0678
 3113SOL    HW220799   3.822   3.621   2.095  1.7738  0.4741 -1.2859
 3114SOL     OW20800   4.211   3.546   3.313  0.2903  0.3198 -0.3306
 3114SOL    HW120801   4.188   3.632   3.348 -1.0011 -0.9442  1.8789
 3114SOL    HW220802   4.190   3.488   3.386 -1.3668  0.9036 -0.3541
 3115SOL     OW20803   4.625   3.727  11.248  0.3274 -0.4806  0.0602
 3115SOL    HW120804   4.533   3.708  11.265  0.0187  0.6210 -0.3656
 3115SOL    HW220805   4.634   3.661  11.180  1.9551  0.0153 -0.2138
 3116SOL     OW20806   2.902   0.365   9.104 -0.5795  0.8691  0.4540
 3116SOL    HW120807   2.859   0.387   9.187  2.1174 -1.4599  2.4748
 3116SOL    HW220808   2.913   0.457   9.082  0.0235  0.5723 -0.4819
 3117SOL     OW20809   0.150   3.590  11.735  0.2508 -0.2366 -0.6494
 3117SOL    HW120810   0.103   3.577  11.653  0.7050  0.2851 -0.9891
 3117SOL    HW220811   0.088   3.632  11.796  0.4250  0.3839 -0.8954
 3118SOL     OW20812   2.640   3.208  14.948  0.3373 -0.1548  0.1366
 3118SOL    HW120813   2.714   3.268  14.939  1.6487 -1.8020 -0.0096
 3118SOL    HW220814   2.572   3.267  14.916  0.1181 -0.1767  0.5715
 3119SOL     OW20815   0.748   0.485   7.323  0.2940 -0.4191  0.3275
 3119SOL    HW120816   0.703   0.402   7.342 -1.6815  0.3621 -0.9633
 3119SOL    HW220817   0.730   0.491   7.229  1.2129 -2.4647  0.0168
 3120SOL     OW20818   0.707   1.924   5.790  0.2617 -0.2769 -0.7218
 3120SOL    HW120819   0.710   1.834   5.823  1.5182  0.8018  2.1135
 3120SOL    HW220820   0.617   1.919   5.759 -0.5420  0.2297  1.5244
 3121SOL     OW20821   3.122   1.103   4.473  0.1367 -0.4953  0.2336
 3121SOL    HW120822   3.202   1.058   4.444 -0.7288 -1.2178 -0.9929
 3121SOL    HW220823   3.106   1.167   4.404  0.4593 -2.4597 -1.6670
 3122SOL     OW20824   3.530   2.862   7.422 -0.3615  0.1950  0.1887
 3122SOL    HW120825   3.523   2.802   7.348  1.6433  0.5009 -0.2494
 3122SOL    HW220826   3.625   2.869   7.436 -0.3412  1.3181 -0.4950
 3123SOL     OW20827   3.417   2.112   1.318 -0.4181  0.8328 -0.7211
 3123SOL    HW120828   3.347   2.176   1.308  0.1191  1.0875 -2.8148
 3123SOL    HW220829   3.410   2.089   1.410 -0.9600 -0.6749 -1.1329
 3124SOL     OW20830   3.969   0.232   7.886 -0.0965  0.1775  0.2869
 3124SOL    HW120831   4.032   0.302   7.869  1.1435 -0.7362  1.0353
 3124SOL    HW220832   3.962   0.199   7.797  0.6943  1.2879 -0.1892
 3125SOL     OW20833   4.563   1.885   3.560  0.1433  0.4149 -0.1430
 3125SOL    HW120834   4.620   1.956   3.530  2.3444 -0.8177  1.0757
 3125SOL    HW220835   4.478   1.928   3.560  0.1318  0.4076  0.9146
 3126SOL     OW20836   3.819   2.174   4.886  0.1980  0.7603  0.1015
 3126SOL    HW120837   3.849   2.243   4.828 -2.2102  1.7798  0.0571
 3126SOL    HW220838   3.856   2.091   4.854 -1.5024 -0.1761  0.5621
 3127SOL     OW20839   1.353   2.111   2.804 -0.1608  0.2609 -0.1809
 3127SOL    HW120840   1.417   2.161   2.753 -0.8865  0.2057 -1.1632
 3127SOL    HW220841   1.343   2.165   2.883 -1.1728 -0.8548  0.4524
 3128SOL     OW20842   1.516   2.859   6.448 -0.6945  0.5021  0.0976
 3128SOL    HW120843   1.480   2.942   6.480 -0.4968 -0.1272  1.9493
 3128SOL    HW220844   1.458   2.797   6.492  1.2381 -0.8832  0.6748
 3129SOL     OW20845   3.882   0.749   3.558  0.1602 -0.3409  0.1973
 3129SOL    HW120846   3.963   0.785   3.522  0.5210  0.6849  2.0438
 3129SOL    HW220847   3.907   0.739   3.650 -2.4228  0.8088  1.0295
 3130SOL     OW20848   4.245   3.868   7.949 -0.1712 -0.2336  0.3194
 3130SOL    HW120849   4.293   3.796   7.908  2.8404  2.0522 -0.1819
 3130SOL    HW220850   4.311   3.938   7.954  0.4272 -0.8432  0.8780
 3131SOL     OW20851   2.024   1.582   6.843 -0.0097 -0.7651 -0.3937
 3131SOL    HW120852   2.026   1.677   6.857  0.5623 -0.8318 -0.0503
 3131SOL    HW220853   2.023   1.544   6.931 -0.3875 -0.4373 -0.2550
 3132SOL     OW20854   4.468   1.528   4.056 -0.8668  0.0188 -0.2285
 3132SOL    HW120855   4.555   1.512   4.020 -0.9550 -1.1516  0.0780
 3132SOL    HW220856   4.401   1.489   4.001 -0.1215 -0.1224 -1.0303
 3133SOL     OW20857   2.482   4.062   7.312  0.1880  1.0083  0.2049
 3133SOL    HW120858   2.418   4.041   7.244 -0.4863  0.7890  0.9131
 3133SOL    HW220859   2.440   4.014   7.383 -0.8261 -0.0302 -1.0961
 3134SOL     OW20860   2.621   0.651   6.461  0.4727 -0.3623 -0.0290
 3134SOL    HW120861   2.687   0.718   6.472  0.8271 -0.3833 -2.0361
 3134SOL    HW220862   2.561   0.684   6.528  0.2577 -2.2596  0.7152
 3135SOL     OW20863   1.597   3.034   8.939 -0.1368  0.4580  0.1499
 3135SOL    HW120864   1.618   3.127   8.951 -0.1345  0.5498 -0.5838
 3135SOL    HW220865   1.673   2.997   8.983  0.8775  1.3712 -0.8092
 3136SOL     OW20866   1.936   4.037   7.859 -0.0827  0.2196 -0.3935
 3136SOL    HW120867   1.849   4.066   7.833  0.3614  1.6988 -0.2286
 3136SOL    HW220868   1.920   3.996   7.944  1.6090 -0.4604 -0.3957
 3137SOL     OW20869   2.080   0.099   8.034 -0.6226 -0.1098 -0.0575
 3137SOL    HW120870   2.143   0.143   7.976 -2.2597 -0.4262 -2.0803
 3137SOL    HW220871   2.017   0.060   7.974  0.3319 -2.5064  0.5188
 3138SOL     OW20872   4.456   2.774   3.806  0.1607  0.2047  0.7622
 3138SOL    HW120873   4.510   2.710   3.852  0.0345  1.0766  2.1266
 3138SOL    HW220874   4.389   2.715   3.772  0.7105  1.5095 -2.5808
 3139SOL     OW20875   3.084   1.197   0.708 -0.2136 -0.1742 -0.0608
 3139SOL    HW120876   3.038   1.279   0.727  0.3407  0.4513 -1.4385
 3139SOL    HW220877   3.088   1.210   0.613  0.0075  0.4823  0.0391
 3140SOL     OW20878   4.627   1.654   3.722 -0.4636  0.4999 -0.0449
 3140SOL    HW120879   4.560   1.587   3.714  3.1398 -3.1504  0.3804
 3140SOL    HW220880   4.597   1.696   3.641  0.0874  1.0755  0.0492
 3141SOL     OW20881   0.962   0.339   3.370  0.2836  0.0971 -0.2509
 3141SOL    HW120882   0.960   0.276   3.298 -3.1283  0.0896 -0.1295
 3141SOL    HW220883   0.916   0.303   3.446  0.0778  1.9197  0.4950
 3142SOL     OW20884   1.310   2.103   3.231 -1.0531  0.6097  0.1949
 3142SOL    HW120885   1.266   2.017   3.237 -0.5989  0.3999  0.5056
 3142SOL    HW220886   1.259   2.153   3.294  0.4309  1.9571  0.2896
 3143SOL     OW20887   2.792   0.897   5.998 -0.4661  0.0243  0.6800
 3143SOL    HW120888   2.860   0.947   5.952 -2.0224  1.6600  0.1585
 3143SOL    HW220889   2.735   0.875   5.924  2.3805 -3.9093 -0.3405
 3144SOL     OW20890   1.936   4.029  15.532  0.4039 -0.1752  0.8558
 3144SOL    HW120891   1.871   4.031  15.462 -0.1106  0.2056  1.3465
 3144SOL    HW220892   1.957   4.121  15.546  0.4635 -0.0063 -0.2778
 3145SOL     OW20893   0.583   1.991   5.116 -0.3795  0.3908  0.5312
 3145SOL    HW120894   0.504   1.999   5.063 -2.6597 -3.4231  3.3397
 3145SOL    HW220895   0.555   1.936   5.189  1.2926 -2.8736 -1.3125
 3146SOL     OW20896   4.611   1.914   8.385  0.1343  0.0347 -0.1593
 3146SOL    HW120897   4.644   1.884   8.300  2.8380 -0.6584  1.1485
 3146SOL    HW220898   4.541   1.973   8.357 -0.0537 -0.2328 -0.2565
 3147SOL     OW20899   4.570   0.067   2.888  0.7147  0.4203 -0.9803
 3147SOL    HW120900   4.648   0.122   2.877  0.6249  0.2192 -2.5738
 3147SOL    HW220901   4.578   0.036   2.979  3.5442  0.9576 -1.0236
 3148SOL     OW20902   1.516   2.797   8.388 -0.1482 -0.4474 -0.3526
 3148SOL    HW120903   1.578   2.727   8.406  1.0381  1.3021  2.3947
 3148SOL    HW220904   1.533   2.820   8.297 -1.4151  3.3783  0.3626
 3149SOL     OW20905   3.028   3.857   2.579  0.2266 -0.0589  0.1396
 3149SOL    HW120906   3.067   3.928   2.529 -2.0506  0.5821 -0.7005
 3149SOL    HW220907   2.935   3.864   2.560  0.6573 -0.2095 -1.9855
 3150SOL     OW20908   1.544   0.736   6.908 -0.2703  0.0227  0.1335
 3150SOL    HW120909   1.554   0.705   6.999 -0.4248  1.5923  0.6897
 3150SOL    HW220910   1.584   0.822   6.911  1.1954 -0.6880  0.9128
 3151SOL     OW20911   3.179   2.056  10.076 -0.0377 -0.3823  0.1565
 3151SOL    HW120912   3.203   1.986  10.016  1.2730  1.3864 -1.3964
 3151SOL    HW220913   3.249   2.039  10.139  1.6538  1.9976 -1.0616
 3152SOL     OW20914   3.504   2.485   3.049  0.5289  0.0210 -0.5789
 3152SOL    HW120915   3.476   2.494   3.140  1.8519 -0.9578 -0.0661
 3152SOL    HW220916   3.526   2.577   3.037  1.0938  0.4185  3.5013
 3153SOL     OW20917   3.636   4.614  11.474  0.5003 -0.1488 -0.3127
 3153SOL    HW120918   3.716   4.642  11.429 -0.7178  0.6893 -1.9509
 3153SOL    HW220919   3.677   4.613  11.560 -1.1020 -1.1251  0.4533
 3154SOL     OW20920   3.152   2.911   0.732  0.1328  0.1445  0.2933
 3154SOL    HW120921   3.118   3.000   0.743 -2.0433 -0.5251 -0.8873
 3154SOL    HW220922   3.143   2.872   0.819 -1.3142 -1.0073 -0.3674
 3155SOL     OW20923   0.971   2.686   8.055 -0.2212 -0.4588 -0.0911
 3155SOL    HW120924   1.042   2.649   8.003 -0.3297  0.6840 -1.0443
 3155SOL    HW220925   0.905   2.709   7.989 -2.0478  1.4110  2.3921
 3156SOL     OW20926   0.483   1.906   3.225 -0.5049 -0.0276 -0.0834
 3156SOL    HW120927   0.476   1.978   3.163 -0.2213  0.3768  0.3510
 3156SOL    HW220928   0.522   1.839   3.169  0.2841 -1.0950  1.7467
 3157SOL     OW20929   1.977   1.146   7.843  0.1715 -0.1040 -0.0380
 3157SOL    HW120930   1.891   1.109   7.825  0.9937 -1.1526 -1.8371
 3157SOL    HW220931   2.005   1.100   7.923 -0.0388  1.3942  0.8878
 3158SOL     OW20932   1.138   2.440   3.142  0.1011 -0.5217  0.0638
 3158SOL    HW120933   1.220   2.443   3.191  0.9412 -2.6199 -1.2099
 3158SOL    HW220934   1.094   2.523   3.157 -1.1863 -0.9983 -1.1130
 3159SOL     OW20935   2.189   4.217  12.151 -0.1460  0.5153 -0.1954
 3159SOL    HW120936   2.206   4.200  12.244  3.3736 -0.2640 -1.0054
 3159SOL    HW220937   2.094   4.221  12.166  0.2272  2.1969  1.7961
 3160SOL     OW20938   1.391   3.898   7.813  0.4447  0.4297 -0.2878
 3160SOL    HW120939   1.366   3.974   7.760 -1.9956 -0.1748 -0.0063
 3160SOL    HW220940   1.478   3.886   7.776  0.3197  0.3943 -0.5787
 3161SOL     OW20941   1.676   0.954  11.523 -0.0344 -0.4081  0.0445
 3161SOL    HW120942   1.663   0.977  11.431  2.6876  1.5742  0.1719
 3161SOL    HW220943   1.670   1.035  11.573 -1.1549 -0.5631  0.1663
 3162SOL     OW20944   1.299   1.753   4.620 -0.1170 -0.5104  0.0933
 3162SOL    HW120945   1.305   1.742   4.715 -2.1062  0.8425  0.3701
 3162SOL    HW220946   1.382   1.794   4.598 -0.4972  0.4506  0.4207
 3163SOL     OW20947   4.180   4.654  13.104 -0.4863 -0.1257 -0.0715
 3163SOL    HW120948   4.167   0.003  13.172  1.1800  0.7232 -0.5817
 3163SOL    HW220949   4.222   4.581  13.150 -0.8836 -0.6114 -0.4834
 3164SOL     OW20950   3.262   4.591  13.832  0.0142  0.2967 -0.0282
 3164SOL    HW120951   3.255   4.520  13.768 -0.2483  2.3496 -2.3002
 3164SOL    HW220952   3.342   4.566  13.878  1.5103  2.0448 -1.6823
 3165SOL     OW20953   2.303   3.006  13.257 -0.2979 -0.0136 -0.0272
 3165SOL    HW120954   2.301   3.014  13.353  0.0890  3.9112 -0.3556
 3165SOL    HW220955   2.387   2.961  13.243 -0.2776  0.4598 -1.3892
 3166SOL     OW20956   2.112   1.153   2.056  0.1509 -0.1990  0.4569
 3166SOL    HW120957   2.066   1.212   1.996 -0.4800  0.2794  1.4104
 3166SOL    HW220958   2.180   1.128   1.993 -1.2965 -0.7792 -0.8869
 3167SOL     OW20959   3.470   2.002   1.067  0.3810 -0.4047 -0.4400
 3167SOL    HW120960   3.512   2.079   1.029  0.9687 -0.7602 -0.5097
 3167SOL    HW220961   3.466   2.027   1.160  0.1434  2.0050 -1.1000
 3168SOL     OW20962   3.835   4.323   1.599  0.6242 -0.2961 -0.0454
 3168SOL    HW120963   3.881   4.391   1.549  0.3392 -1.4567 -1.8783
 3168SOL    HW220964   3.745   4.355   1.597  0.0969 -1.8176 -0.6091
 3169SOL     OW20965   0.652   2.695  12.229  0.0139  0.6161 -0.0272
 3169SOL    HW120966   0.730   2.700  12.284 -0.0037 -2.6670  0.2821
 3169SOL    HW220967   0.680   2.635  12.160  0.3591 -0.1620  0.8019
 3170SOL     OW20968   2.194   3.968  14.036  0.3848 -0.0748  0.2573
 3170SOL    HW120969   2.125   3.919  13.990  0.1933  0.9173 -0.5235
 3170SOL    HW220970   2.170   3.959  14.128 -1.0414  0.5493 -0.0422
 3171SOL     OW20971   1.662   1.224   9.496 -0.3277 -0.5653  0.4869
 3171SOL    HW120972   1.638   1.280   9.569 -1.2360 -2.4251  1.6236
 3171SOL    HW220973   1.625   1.150   9.544 -0.6373 -1.5185 -1.2148
 3172SOL     OW20974   1.089   3.230   3.127 -0.1253  0.1094 -0.3666
 3172SOL    HW120975   1.062   3.157   3.071 -1.4038  0.4215 -0.1576
 3172SOL    HW220976   1.111   3.176   3.202  0.6591 -0.5482 -1.0740
 3173SOL     OW20977   2.728   0.450  10.289  0.6809 -0.0220  0.2604
 3173SOL    HW120978   2.761   0.363  10.311 -0.7463 -1.0599 -1.5818
 3173SOL    HW220979   2.691   0.473  10.374 -0.2641  0.2115 -0.2095
 3174SOL     OW20980   3.113   0.303  11.984 -0.4170  0.0259  0.4924
 3174SOL    HW120981   3.126   0.299  12.079 -0.1324 -1.0181  0.4167
 3174SOL    HW220982   3.179   0.365  11.953  1.6716 -1.0456  2.8591
 3175SOL     OW20983   2.032   3.997   8.958 -0.6639 -0.0679 -0.0709
 3175SOL    HW120984   2.082   3.924   8.920  2.1719  2.1106 -0.4717
 3175SOL    HW220985   2.072   4.005   9.044 -1.3622  1.1029  0.1411
 3176SOL     OW20986   2.981   3.114  10.328  0.0494 -0.2570 -0.0660
 3176SOL    HW120987   3.047   3.084  10.266  0.2813  2.0087 -0.9071
 3176SOL    HW220988   2.898   3.114  10.279  0.5134 -0.0220 -0.8575
 3177SOL     OW20989   1.937   4.436   5.842  0.3750 -0.3225  0.5952
 3177SOL    HW120990   2.018   4.388   5.858 -0.2263 -1.9074 -1.0433
 3177SOL    HW220991   1.886   4.381   5.782 -1.1826  0.2458  1.4103
 3178SOL     OW20992   3.688   4.478   1.850  0.1361  0.7248 -0.8067
 3178SOL    HW120993   3.692   4.389   1.815  0.0312  1.3136 -2.3256
 3178SOL    HW220994   3.716   4.532   1.776 -0.1067  0.0255 -1.4143
 3179SOL     OW20995   3.313   2.792   3.116 -0.3166  0.1464 -0.1798
 3179SOL    HW120996   3.264   2.744   3.049  0.0428  1.5822 -1.4758
 3179SOL    HW220997   3.241   2.845   3.150  1.1336  1.8610  0.2032
 3180SOL     OW20998   2.265   2.550  12.957 -0.1095 -0.4234  0.6687
 3180SOL    HW120999   2.318   2.529  13.034 -0.7431 -1.7424  0.7478
 3180SOL    HW221000   2.262   2.645  12.958  1.3662 -0.3315 -1.7465
 3181SOL     OW21001   4.040   3.861   6.145 -0.5289  0.2251  0.2862
 3181SOL    HW121002   4.000   3.890   6.063  0.5814 -0.5783 -0.5292
 3181SOL    HW221003   4.038   3.945   6.190  1.0947  0.8361 -0.8003
 3182SOL     OW21004   4.495   2.965  15.352  0.1872  1.0544  0.2570
 3182SOL    HW121005   4.529   3.046  15.315  0.3919  0.8677  0.0372
 3182SOL    HW221006   4.538   2.897  15.300 -1.1756  0.9502 -0.7156
 3183SOL     OW21007   2.599   1.861   8.203 -0.0664  0.1267 -0.2651
 3183SOL    HW121008   2.569   1.861   8.294  0.0928 -1.3512 -0.2266
 3183SOL    HW221009   2.539   1.792   8.176 -1.5639  0.9292  1.0184
 3184SOL     OW21010   4.432   2.039  12.794 -0.3519 -0.3648 -0.1932
 3184SOL    HW121011   4.367   1.974  12.766 -0.5731 -0.0963 -0.3066
 3184SOL    HW221012   4.511   1.986  12.803 -0.1047  0.0816  0.2563
 3185SOL     OW21013   2.033   0.239  11.633  0.3124 -0.4818 -0.6745
 3185SOL    HW121014   2.070   0.232  11.545  0.8277  1.8036 -0.6346
 3185SOL    HW221015   2.113   0.239  11.686 -0.1596 -2.2099  0.0504
 3186SOL     OW21016   3.143   1.470   0.946 -0.2981  0.1275 -0.0628
 3186SOL    HW121017   3.109   1.536   1.007  0.7320 -0.1719  0.8362
 3186SOL    HW221018   3.200   1.421   1.005 -0.8732  1.7916  1.9049
 3187SOL     OW21019   1.694   1.119   1.114  0.1182 -0.1568 -0.3505
 3187SOL    HW121020   1.748   1.178   1.167 -0.3585  1.4826 -1.7019
 3187SOL    HW221021   1.624   1.100   1.177 -1.1970 -0.2238 -1.8370
 3188SOL     OW21022   1.769   0.882   0.998 -0.0246  0.1981 -0.4054
 3188SOL    HW121023   1.744   0.974   1.002  1.8308  0.6469  0.9076
 3188SOL    HW221024   1.714   0.844   1.066  3.1051  0.2815  2.1772
 3189SOL     OW21025   4.333   4.336  17.203 -0.4462  0.2649  0.8363
 3189SOL    HW121026   4.412   4.357  17.154  1.1533 -3.0175  2.0076
 3189SOL    HW221027   4.331   4.412  17.261  0.8379  1.0066 -0.1069
 3190SOL     OW21028   1.941   0.348   4.144 -0.7194  0.2220  0.0247
 3190SOL    HW121029   1.849   0.347   4.118 -0.4614  2.7958 -0.9655
 3190SOL    HW221030   1.958   0.443   4.142  1.7062 -0.2134 -0.0069
 3191SOL     OW21031   2.209   2.667  13.256  0.3691  0.5922 -0.4817
 3191SOL    HW121032   2.258   2.589  13.232 -0.4175 -0.1124  0.2465
 3191SOL    HW221033   2.130   2.660  13.203 -0.1210 -0.0834  0.3430
 3192SOL     OW21034   3.402   2.458  10.608 -0.0423 -0.7037 -0.7962
 3192SOL    HW121035   3.392   2.494  10.521  0.2316  1.6312  0.1575
 3192SOL    HW221036   3.487   2.416  10.598 -0.0593 -1.1720  0.9605
 3193SOL     OW21037   3.839   0.609   0.939  0.6164 -0.4622 -0.0455
 3193SOL    HW121038   3.843   0.514   0.932  0.0430 -0.6285  1.8888
 3193SOL    HW221039   3.744   0.614   0.936  0.6665 -0.3329 -1.4285
 3194SOL     OW21040   1.119   1.005   7.074 -0.4078  0.2126  0.2319
 3194SOL    HW121041   1.136   0.943   7.003  1.4442 -1.1623  1.8670
 3194SOL    HW221042   1.046   0.951   7.104 -0.0442 -0.5880 -0.3123
 3195SOL     OW21043   4.098   0.793   3.844  0.0852  0.2316 -0.2694
 3195SOL    HW121044   4.192   0.775   3.840  0.3750  1.1211  2.7578
 3195SOL    HW221045   4.066   0.713   3.886  1.3417 -0.5782 -0.8442
 3196SOL     OW21046   2.913   4.658  17.596  0.0357  0.0904  0.0465
 3196SOL    HW121047   2.971   4.601  17.544  1.3019  2.0457 -0.6563
 3196SOL    HW221048   2.912   4.598  17.671 -0.0057  1.2866  0.9985
 3197SOL     OW21049   3.875   2.760   6.791  0.2357 -0.3466 -0.6198
 3197SOL    HW121050   3.807   2.726   6.732  0.2314 -0.4574 -0.5515
 3197SOL    HW221051   3.884   2.686   6.851  0.6361  0.3739  0.1986
 3198SOL     OW21052   0.890   0.409   9.371 -0.1346 -0.1185  0.2038
 3198SOL    HW121053   0.964   0.427   9.429 -0.3613  3.1191 -0.4957
 3198SOL    HW221054   0.944   0.406   9.292 -1.6573 -0.5874 -0.8057
 3199SOL     OW21055   1.078   2.420  14.075  0.5988  0.1196  0.4090
 3199SOL    HW121056   0.993   2.385  14.100  1.4268 -2.4908 -0.4606
 3199SOL    HW221057   1.066   2.514  14.067  1.3702 -0.1131 -3.2154
 3200SOL     OW21058   3.687   3.199  10.163 -0.0287  0.2704  0.0729
 3200SOL    HW121059   3.723   3.288  10.151  0.1705  0.0335 -1.0437
 3200SOL    HW221060   3.735   3.140  10.105  1.0928  0.7783  0.4722
 3201SOL     OW21061   3.472   0.322   7.982  0.0751  0.2373 -0.7049
 3201SOL    HW121062   3.469   0.303   8.076 -1.2812  3.6274 -0.0601
 3201SOL    HW221063   3.558   0.363   7.976  0.5272 -0.7818 -1.2744
 3202SOL     OW21064   1.344   3.110   0.624 -0.3495  0.3515 -0.4551
 3202SOL    HW121065   1.338   3.198   0.661 -0.9928  0.3237 -0.4782
 3202SOL    HW221066   1.317   3.045   0.689 -2.4388  0.0947 -1.5698
 3203SOL     OW21067   2.676   3.168   5.361  0.1504  0.0327 -0.5838
 3203SOL    HW121068   2.750   3.167   5.422 -1.0230  0.2245  0.8330
 3203SOL    HW221069   2.688   3.255   5.321  2.6542 -0.8612 -1.8159
 3204SOL     OW21070   3.701   1.180   2.340  0.2426 -0.4732 -0.4330
 3204SOL    HW121071   3.756   1.180   2.419 -1.7554  4.2048  0.9298
 3204SOL    HW221072   3.617   1.215   2.370 -0.4330 -1.3983 -1.2457
 3205SOL     OW21073   3.400   3.834   7.489 -0.1608  0.3519  0.3016
 3205SOL    HW121074   3.400   3.815   7.583 -3.4720  1.8855  0.6247
 3205SOL    HW221075   3.333   3.774   7.457 -0.1390 -0.7199  2.2669
 3206SOL     OW21076   1.472   0.535   2.009 -0.8079 -0.0437 -0.1494
 3206SOL    HW121077   1.433   0.607   2.058 -0.3821 -1.0346  1.6290
 3206SOL    HW221078   1.567   0.549   2.011 -0.7489 -0.2548 -1.5378
 3207SOL     OW21079   1.516   1.724   8.098  0.3164 -0.2257 -0.1289
 3207SOL    HW121080   1.592   1.764   8.055  0.2143 -1.1546 -1.1699
 3207SOL    HW221081   1.458   1.796   8.073  2.2503  1.6721  0.7915
 3208SOL     OW21082   0.368   1.851   9.652  0.0554 -0.2586 -0.4091
 3208SOL    HW121083   0.369   1.890   9.740  2.9104 -0.5368 -0.3295
 3208SOL    HW221084   0.444   1.795   9.665 -0.1086 -0.3875 -0.0017
 3209SOL     OW21085   3.888   1.194  13.383 -0.8378 -0.4325  0.8948
 3209SOL    HW121086   3.894   1.114  13.331  0.5178  0.7323 -0.7519
 3209SOL    HW221087   3.876   1.251  13.307 -0.4419 -0.2210  0.9901
 3210SOL     OW21088   2.238   2.529   6.477 -0.8164  0.2296  0.0216
 3210SOL    HW121089   2.185   2.569   6.546 -1.7642  0.0919 -0.6206
 3210SOL    HW221090   2.194   2.555   6.395 -1.5807 -1.2072 -0.0256
 3211SOL     OW21091   3.858   0.281  14.537  0.2834 -0.0444 -0.4325
 3211SOL    HW121092   3.885   0.361  14.583  1.0537 -0.2929 -0.4574
 3211SOL    HW221093   3.933   0.225  14.555 -0.2849 -1.5322 -2.7234
 3212SOL     OW21094   0.260   1.299   3.879 -0.4855  0.1847  0.1139
 3212SOL    HW121095   0.176   1.294   3.832 -0.8763  1.5309  0.6686
 3212SOL    HW221096   0.286   1.207   3.889  1.3842  0.5841 -1.1367
 3213SOL     OW21097   4.405   1.338  11.687 -0.3577 -0.1408  0.1819
 3213SOL    HW121098   4.499   1.357  11.691 -0.2402 -0.1195 -2.5853
 3213SOL    HW221099   4.378   1.389  11.763 -1.4459  0.2640 -0.4797
 3214SOL     OW21100   2.120   4.631  10.419 -0.4272 -0.0070 -0.3615
 3214SOL    HW121101   2.169   4.560  10.376  0.2319  0.2545 -0.0360
 3214SOL    HW221102   2.113   4.607  10.511 -0.2669  0.4448 -0.2349
 3215SOL     OW21103   4.008   1.613   7.162  0.0853 -0.1193  0.1191
 3215SOL    HW121104   4.023   1.641   7.253 -1.1069  0.3663  0.1662
 3215SOL    HW221105   4.003   1.518   7.169  2.2245 -0.2770 -0.4886
 3216SOL     OW21106   3.218   3.599   7.545  0.6450 -0.2312 -0.1088
 3216SOL    HW121107   3.149   3.535   7.528 -0.3763  1.5445 -2.5674
 3216SOL    HW221108   3.293   3.558   7.502  3.0784  0.2504  3.7069
 3217SOL     OW21109   1.684   1.728   6.318 -0.6610 -0.5030  0.4680
 3217SOL    HW121110   1.589   1.735   6.321 -0.6729 -0.0338 -0.7512
 3217SOL    HW221111   1.695   1.736   6.223 -2.2212 -0.9318  0.2606
 3218SOL     OW21112   4.694   3.530   7.392  0.3357  0.0260 -0.4096
 3218SOL    HW121113   4.610   3.541   7.347 -0.4273  0.7590  1.1977
 3218SOL    HW221114   4.664   3.451   7.437  0.6005  1.7254  2.7216
 3219SOL     OW21115   4.621   2.143   5.561 -0.9570  0.2521 -0.2457
 3219SOL    HW121116   4.620   2.048   5.565 -1.2090  0.3178  1.1420
 3219SOL    HW221117   4.705   2.169   5.599 -1.1766 -0.4361  0.7073
 3220SOL     OW21118   1.219   1.442   0.686 -0.0372 -0.5159 -0.2792
 3220SOL    HW121119   1.281   1.402   0.747 -0.0555 -1.5490 -0.9341
 3220SOL    HW221120   1.146   1.450   0.747  1.0165  1.1623  0.7557
 3221SOL     OW21121   0.099   3.751  17.183 -0.4482  0.1478  0.2174
 3221SOL    HW121122   0.137   3.837  17.166 -0.7400 -0.0161 -1.2646
 3221SOL    HW221123   0.091   3.719  17.093 -0.0785 -1.3716  0.7166
 3222SOL     OW21124   3.176   1.918   6.705  0.2405  0.6550 -0.1017
 3222SOL    HW121125   3.186   2.008   6.672 -0.1920  0.1723 -1.5446
 3222SOL    HW221126   3.267   1.906   6.732 -0.1022 -0.4395  0.5814
 3223SOL     OW21127   2.817   2.254   9.715 -0.4323 -0.5251  0.1153
 3223SOL    HW121128   2.901   2.217   9.742 -0.1880  0.7579  1.1098
 3223SOL    HW221129   2.759   2.181   9.736 -2.3028  1.3310  1.3298
 3224SOL     OW21130   3.869   2.665  17.073 -0.1943 -0.0207 -0.3639
 3224SOL    HW121131   3.806   2.712  17.018  0.0201 -0.9346 -1.3922
 3224SOL    HW221132   3.826   2.580  17.083 -1.0992  0.5810  0.7989
 3225SOL     OW21133   2.515   2.236   8.477  0.1049 -0.3265 -0.2340
 3225SOL    HW121134   2.482   2.188   8.552  2.7014 -0.4824  0.8121
 3225SOL    HW221135   2.432   2.259   8.435 -0.3025  1.0516  1.3383
 3226SOL     OW21136   2.801   2.245   7.821  0.4817  0.3195 -0.0862
 3226SOL    HW121137   2.745   2.287   7.886 -1.0112 -2.8818  0.7086
 3226SOL    HW221138   2.876   2.304   7.821 -0.4676  1.5079  0.3588
 3227SOL     OW21139   1.030   0.919   5.966  0.0792  0.4840  0.4063
 3227SOL    HW121140   1.113   0.879   5.989  0.0339 -0.1054 -0.4490
 3227SOL    HW221141   0.964   0.852   5.986 -0.1209  1.2887  2.4265
 3228SOL     OW21142   0.926   1.155   4.738 -0.3891 -0.4895  0.1303
 3228SOL    HW121143   0.868   1.149   4.662 -1.3196  0.5615  0.7470
 3228SOL    HW221144   0.974   1.075   4.717  1.6695  0.5675  0.7371
 3229SOL     OW21145   2.717   2.946   7.043  0.2840  0.0982 -0.0164
 3229SOL    HW121146   2.645   2.884   7.035  0.8728 -0.5473 -0.3670
 3229SOL    HW221147   2.777   2.903   7.103  1.0048 -0.3099 -1.0176
 3230SOL     OW21148   4.597   1.662   6.006 -0.1163 -0.8316  0.2690
 3230SOL    HW121149   4.580   1.728   6.073 -0.1570 -0.6616  0.0897
 3230SOL    HW221150   4.693   1.657   6.011 -0.2045 -1.6364  1.0804
 3231SOL     OW21151   3.594   4.188   9.170 -0.1034 -0.5246  0.3260
 3231SOL    HW121152   3.573   4.279   9.190 -0.1063 -0.6225  0.7745
 3231SOL    HW221153   3.688   4.191   9.154  0.0445 -0.7366  1.1754
 3232SOL     OW21154   1.545   4.703  14.987  0.1431 -0.1699 -0.2408
 3232SOL    HW121155   1.568   4.702  15.080 -0.0768  0.2744 -0.1804
 3232SOL    HW221156   1.622   4.674  14.939 -0.4763 -0.0454 -1.3107
 3233SOL     OW21157   1.651   2.844  11.532 -0.2580 -0.2082 -0.6474
 3233SOL    HW121158   1.593   2.890  11.471  0.5413  2.6643  0.7110
 3233SOL    HW221159   1.599   2.774  11.571  0.9271  0.2338  1.7526
 3234SOL     OW21160   0.191   2.425   8.369 -0.4900 -0.3569 -0.2198
 3234SOL    HW121161   0.268   2.395   8.418 -0.7195 -0.4763  0.0673
 3234SOL    HW221162   0.234   2.492   8.315  0.6927 -1.6836 -0.9020
 3235SOL     OW21163   3.834   0.751   7.230 -0.1309 -0.2274 -0.3023
 3235SOL    HW121164   3.905   0.810   7.256 -0.3266  0.0013 -0.2994
 3235SOL    HW221165   3.821   0.766   7.137  1.1440  2.2004 -0.0785
 3236SOL     OW21166   2.056   3.380   4.079  0.2102 -0.1830 -0.6340
 3236SOL    HW121167   2.047   3.376   4.175  1.6680 -0.2559 -0.5028
 3236SOL    HW221168   2.139   3.420   4.056  0.3750  0.5530  1.2356
 3237SOL     OW21169   2.341   3.232  12.261  0.3284 -0.0482 -0.2119
 3237SOL    HW121170   2.337   3.236  12.357 -0.6547 -1.5003 -0.2015
 3237SOL    HW221171   2.435   3.223  12.247  0.1631  0.0940 -1.3568
 3238SOL     OW21172   3.129   2.975   2.925 -0.1062  0.1434 -0.0259
 3238SOL    HW121173   3.110   3.005   2.836 -2.2570  0.3326  0.5119
 3238SOL    HW221174   3.085   3.041   2.979  0.9424  0.3474  0.5899
 3239SOL     OW21175   2.111   3.100   5.316  0.1819 -0.0171 -0.3235
 3239SOL    HW121176   2.025   3.123   5.352  0.0763 -0.3734 -0.3533
 3239SOL    HW221177   2.163   3.073   5.391 -1.0299  0.6236  0.7522
 3240SOL     OW21178   0.439   1.544   7.587  0.1493 -0.1898  0.4105
 3240SOL    HW121179   0.350   1.577   7.600  0.9286  2.6705 -1.6077
 3240SOL    HW221180   0.485   1.626   7.572  0.5204 -0.3364  0.7495
 3241SOL     OW21181   0.038   2.511   3.370  0.4299  0.3226 -0.2288
 3241SOL    HW121182   0.090   2.583   3.335  0.3075 -0.0352 -1.1417
 3241SOL    HW221183   0.082   2.434   3.333  0.6577 -0.1760  1.0697
 3242SOL     OW21184   1.499   2.999  11.360  0.1593 -0.0386 -0.1144
 3242SOL    HW121185   1.462   2.977  11.274 -0.4681 -1.8499  0.6224
 3242SOL    HW221186   1.442   3.074  11.375  0.5894  0.2218  0.2033
 3243SOL     OW21187   0.711   1.012   2.077 -0.2332 -0.1199 -0.0015
 3243SOL    HW121188   0.670   0.995   2.162 -1.3267 -2.2142 -0.9407
 3243SOL    HW221189   0.709   0.922   2.043  1.2694 -0.7004  1.4534
 3244SOL     OW21190   0.445   2.743   3.933  0.6463 -0.2335 -0.5675
 3244SOL    HW121191   0.406   2.742   3.845 -2.4378 -1.4061  0.8176
 3244SOL    HW221192   0.527   2.696   3.915  0.6879  0.3015 -1.8402
 3245SOL     OW21193   1.140   3.146   8.739  0.7838  0.0883 -0.2178
 3245SOL    HW121194   1.071   3.087   8.770 -0.3288  1.7008  0.3917
 3245SOL    HW221195   1.204   3.106   8.797 -1.0148 -2.5302 -0.0016
 3246SOL     OW21196   3.844   4.190   2.595  0.2265 -0.4458  0.4231
 3246SOL    HW121197   3.864   4.225   2.508  1.3011 -1.0272  0.4369
 3246SOL    HW221198   3.790   4.254   2.642  0.6570 -1.7967  2.8147
 3247SOL     OW21199   3.143   2.292   6.783  0.3361  0.0047 -0.1791
 3247SOL    HW121200   3.182   2.317   6.699  0.3260  1.5293  0.2682
 3247SOL    HW221201   3.052   2.281   6.757 -0.0074  2.0899  0.1173
 3248SOL     OW21202   4.021   2.813   7.738 -0.3363  0.1364 -0.0110
 3248SOL    HW121203   4.104   2.774   7.763 -0.0839  1.8675  1.8168
 3248SOL    HW221204   4.044   2.905   7.723  0.0095  0.1677  0.7328
 3249SOL     OW21205   1.903   0.632   4.163 -0.1805  0.5890  0.3362
 3249SOL    HW121206   1.841   0.699   4.133 -0.1411  0.5524  0.1755
 3249SOL    HW221207   1.879   0.636   4.256  1.7266  0.7860  0.8105
 3250SOL     OW21208   2.901   2.129   7.584  0.5583 -1.1769 -0.6598
 3250SOL    HW121209   2.948   2.192   7.530  0.7970 -1.9233 -1.3226
 3250SOL    HW221210   2.864   2.184   7.653  1.7393  0.9172 -1.7089
 3251SOL     OW21211   1.572   1.368   8.433  0.1532  0.6819  0.2520
 3251SOL    HW121212   1.568   1.421   8.354 -3.5692 -1.1835 -0.8175
 3251SOL    HW221213   1.663   1.337   8.432 -0.4107 -0.8190 -2.2254
 3252SOL     OW21214   2.673   1.874  12.830 -0.5906 -0.2340 -0.1059
 3252SOL    HW121215   2.723   1.800  12.796  1.4971  2.0201 -1.9371
 3252SOL    HW221216   2.645   1.921  12.751  3.1007  0.4963 -0.9968
 3253SOL     OW21217   0.154   4.674   7.506 -0.0760  1.0216  0.0415
 3253SOL    HW121218   0.093   4.602   7.525 -0.2495  0.6857 -1.7202
 3253SOL    HW221219   0.181   4.652   7.417 -0.9808  1.5626 -0.3706
 3254SOL     OW21220   2.615   2.259   0.784  0.0811 -0.6197 -0.2371
 3254SOL    HW121221   2.672   2.288   0.713 -1.9215  3.3986 -0.1822
 3254SOL    HW221222   2.653   2.178   0.819 -1.1452  0.0087  2.5263
 3255SOL     OW21223   3.362   4.542   5.034  0.0476 -0.1263 -0.3149
 3255SOL    HW121224   3.301   4.532   5.107 -0.0943 -0.3806 -0.4701
 3255SOL    HW221225   3.338   4.473   4.973 -2.9767  0.6579 -0.0337
 3256SOL     OW21226   1.034   3.479  16.629 -0.4628  0.7687  0.2049
 3256SOL    HW121227   0.970   3.546  16.650 -0.9084  0.4303 -0.0828
 3256SOL    HW221228   1.078   3.520  16.554 -1.2216 -0.8613 -1.1326
 3257SOL     OW21229   4.255   0.678   5.767  0.4307 -0.1179 -0.3867
 3257SOL    HW121230   4.200   0.717   5.699  0.1643  0.2503  0.0398
 3257SOL    HW221231   4.195   0.691   5.840 -0.1654 -1.8226 -0.5636
 3258SOL     OW21232   4.114   3.256   1.322 -0.1099 -0.0515  0.1373
 3258SOL    HW121233   4.058   3.202   1.377 -1.2988  1.3071  0.2580
 3258SOL    HW221234   4.198   3.252   1.368  1.3235  1.9219 -2.3079
 3259SOL     OW21235   3.961   4.206   0.086 -0.1289  0.1968  0.7462
 3259SOL    HW121236   3.945   4.300   0.101  0.3426 -0.0803  2.9141
 3259SOL    HW221237   3.961   4.174   0.176 -0.7133  0.8643  0.9889
 3260SOL     OW21238   3.219   1.014   0.360  0.1642  0.1278 -0.1988
 3260SOL    HW121239   3.144   1.072   0.352  0.6278  0.8025  0.3143
 3260SOL    HW221240   3.265   1.072   0.422 -2.0970  1.3392  0.3230
 3261SOL     OW21241   0.861   2.344  16.413 -0.0263  0.8261 -0.4928
 3261SOL    HW121242   0.826   2.431  16.429 -0.6697  0.5197 -0.2337
 3261SOL    HW221243   0.795   2.285  16.450 -1.9809  3.8173  0.8195
 3262SOL     OW21244   2.586   2.308   5.417 -0.0824  0.4268 -0.3227
 3262SOL    HW121245   2.502   2.350   5.434 -0.8094 -1.6346  1.2599
 3262SOL    HW221246   2.618   2.376   5.359 -1.4046  0.6195 -0.8155
 3263SOL     OW21247   2.055   2.359   3.073  0.5047 -0.2484 -0.2102
 3263SOL    HW121248   2.004   2.436   3.046  2.3155  0.3922 -1.8513
 3263SOL    HW221249   1.996   2.284   3.067 -0.2803  0.4233 -0.8499
 3264SOL     OW21250   0.161   1.639   7.590 -0.1976  0.0235  0.1076
 3264SOL    HW121251   0.072   1.659   7.618  0.1298  1.7876 -0.0731
 3264SOL    HW221252   0.137   1.596   7.508 -3.2547 -1.0308  1.5516
 3265SOL     OW21253   3.128   0.830  12.171 -0.0024 -0.3374  0.0832
 3265SOL    HW121254   3.193   0.760  12.173  1.6342  1.1449 -0.9959
 3265SOL    HW221255   3.042   0.791  12.189  0.1929 -1.0859 -0.6499
 3266SOL     OW21256   4.070   4.263   3.061  0.0620 -0.1485  0.5075
 3266SOL    HW121257   4.127   4.285   3.135  1.2638  0.8392 -0.7128
 3266SOL    HW221258   4.029   4.179   3.080 -0.6742  0.0524 -0.2003
 3267SOL     OW21259   0.350   1.801   2.124  0.0040 -0.8202  0.2534
 3267SOL    HW121260   0.297   1.731   2.085  1.4016 -1.0676 -1.1725
 3267SOL    HW221261   0.436   1.770   2.099  0.0535 -0.6016  0.1470
 3268SOL     OW21262   2.501   0.053   2.404 -0.6172  0.2910  0.1160
 3268SOL    HW121263   2.509   0.021   2.315 -1.8104  1.2602 -0.3364
 3268SOL    HW221264   2.593   0.067   2.427 -0.4107  1.8581 -1.7737
 3269SOL     OW21265   2.123   2.452   7.142  0.1191 -0.3748  0.3265
 3269SOL    HW121266   2.032   2.444   7.169 -0.4642 -0.2942 -1.5899
 3269SOL    HW221267   2.148   2.524   7.198 -0.2588  0.2833 -0.3485
 3270SOL     OW21268   1.594   2.044   7.158  0.6589 -0.1552  0.2728
 3270SOL    HW121269   1.675   1.995   7.141  1.2984  0.9557  0.1236
 3270SOL    HW221270   1.533   1.975   7.130  3.3115 -2.2469 -0.4491
 3271SOL     OW21271   2.587   1.508   8.419 -0.2888 -0.3223 -0.3127
 3271SOL    HW121272   2.579   1.464   8.335  1.0013 -0.6107 -0.2807
 3271SOL    HW221273   2.600   1.437   8.482  3.3176  0.1424 -0.5454
 3272SOL     OW21274   4.566   3.736   1.350 -0.0128 -0.3403 -0.4783
 3272SOL    HW121275   4.502   3.799   1.320 -0.9250 -0.9513  0.1661
 3272SOL    HW221276   4.582   3.769   1.439 -0.2229 -0.9989 -0.1962
 3273SOL     OW21277   1.928   3.322   4.831 -0.4136  0.1109  0.2482
 3273SOL    HW121278   1.992   3.292   4.895  0.3322  1.3086  0.0628
 3273SOL    HW221279   1.930   3.416   4.851 -0.3645  0.7182 -2.6731
 3274SOL     OW21280   1.491   1.463   7.612  0.1378 -0.3222  0.4413
 3274SOL    HW121281   1.456   1.386   7.567 -0.6818  0.5687 -0.4352
 3274SOL    HW221282   1.422   1.485   7.674  0.5023 -1.8276  1.3992
 3275SOL     OW21283   1.727   3.659   3.074 -0.8946  0.1482  0.6869
 3275SOL    HW121284   1.812   3.702   3.085  0.9799 -2.6043 -2.6992
 3275SOL    HW221285   1.695   3.712   3.001 -0.1041  1.0660  1.0188
 3276SOL     OW21286   2.372   1.324  13.562  0.1104 -0.4224  0.3980
 3276SOL    HW121287   2.383   1.419  13.557  0.8661 -0.4272  2.0370
 3276SOL    HW221288   2.443   1.296  13.503  0.9170 -1.5135  1.8790
 3277SOL     OW21289   3.261   0.066   8.808 -0.0727  0.0339  0.0835
 3277SOL    HW121290   3.245   0.032   8.720  0.0468  0.6559 -0.1775
 3277SOL    HW221291   3.352   0.038   8.823 -0.7280 -1.8680  0.4719
 3278SOL     OW21292   4.235   2.017   7.300  0.0389  0.0154 -0.5266
 3278SOL    HW121293   4.225   1.942   7.241  2.1514 -0.2562 -0.5324
 3278SOL    HW221294   4.244   2.083   7.232  0.6092  0.2348 -0.2345
 3279SOL     OW21295   2.160   3.319   6.879 -0.1475 -0.6685 -0.1851
 3279SOL    HW121296   2.068   3.306   6.854  0.3323 -3.8671 -0.1830
 3279SOL    HW221297   2.184   3.244   6.933 -1.6192 -0.6278  0.5427
 3280SOL     OW21298   4.622   2.193  10.375  0.1034  0.6227 -0.0350
 3280SOL    HW121299   4.707   2.237  10.375 -0.1321  1.0754  0.1259
 3280SOL    HW221300   4.596   2.217  10.286 -0.2360 -0.6992 -0.2955
 3281SOL     OW21301   3.210   1.252   0.475  0.0900  0.3195 -0.4617
 3281SOL    HW121302   3.266   1.300   0.414  2.2044 -2.4518 -0.7059
 3281SOL    HW221303   3.255   1.280   0.555 -2.3334  0.6145  0.8085
 3282SOL     OW21304   2.352   1.191   5.433 -0.5494 -0.4416 -0.4877
 3282SOL    HW121305   2.414   1.187   5.506 -0.0682  0.0905 -0.8673
 3282SOL    HW221306   2.413   1.141   5.378 -0.3684 -0.5874 -0.1581
 3283SOL     OW21307   2.864   1.031   0.658 -0.1794 -0.5888 -0.0433
 3283SOL    HW121308   2.953   1.058   0.678 -0.5477  1.7902 -1.6827
 3283SOL    HW221309   2.879   0.973   0.583 -0.2739  0.9424 -1.2426
 3284SOL     OW21310   1.397   1.727   3.984 -0.6068  0.4133  0.2949
 3284SOL    HW121311   1.409   1.797   4.048  1.7942  0.7019 -0.5034
 3284SOL    HW221312   1.437   1.767   3.907  1.7813 -0.5037  1.0556
 3285SOL     OW21313   3.554   0.396  10.564 -0.4732  0.0254  0.0717
 3285SOL    HW121314   3.590   0.485  10.566 -1.3201  0.3164  2.8084
 3285SOL    HW221315   3.585   0.363  10.649 -1.9463  1.6436  1.2412
 3286SOL     OW21316   2.342   2.191   4.447 -0.2414 -0.3301 -0.0293
 3286SOL    HW121317   2.294   2.260   4.402  0.1293  1.8628  2.9643
 3286SOL    HW221318   2.328   2.119   4.385  0.5734  0.6914 -1.4071
 3287SOL     OW21319   2.181   3.227  10.438 -0.3432 -0.0257 -0.3044
 3287SOL    HW121320   2.179   3.219  10.533  1.4320  0.3677 -0.2365
 3287SOL    HW221321   2.152   3.316  10.419  0.8844  0.1598 -1.2913
 3288SOL     OW21322   1.066   0.278   6.219 -0.1658 -0.9545 -0.5941
 3288SOL    HW121323   1.038   0.359   6.176  0.6706  1.1913  2.8187
 3288SOL    HW221324   0.991   0.220   6.209 -0.6002 -0.7334  1.2240
 3289SOL     OW21325   1.216   1.452  10.125 -0.2805  0.4501 -0.4348
 3289SOL    HW121326   1.295   1.415  10.086 -1.2914 -0.6586 -1.4384
 3289SOL    HW221327   1.148   1.390  10.099 -0.9170  0.3298  1.4878
 3290SOL     OW21328   0.727   3.576   9.557 -0.4256  0.1985  0.0851
 3290SOL    HW121329   0.810   3.534   9.533  0.5505  2.0833  0.1323
 3290SOL    HW221330   0.709   3.619   9.473  0.3442 -1.9953 -1.2075
 3291SOL     OW21331   1.644   0.773   4.475  0.1772 -0.0136  0.3611
 3291SOL    HW121332   1.608   0.807   4.393  0.8523 -1.8235 -0.6990
 3291SOL    HW221333   1.655   0.855   4.523 -1.7573  0.9568 -0.8632
 3292SOL     OW21334   2.655   3.644   2.268 -0.3559  0.4095 -0.0548
 3292SOL    HW121335   2.614   3.631   2.354  2.5908  1.4782  1.5074
 3292SOL    HW221336   2.613   3.725   2.240 -0.8127  0.0822 -0.3208
 3293SOL     OW21337   4.613   2.649   4.768  0.1436  0.1069 -0.0424
 3293SOL    HW121338   4.649   2.657   4.679  0.7310 -1.0377  0.0929
 3293SOL    HW221339   4.667   2.714   4.812 -1.1857  1.2418 -0.0928
 3294SOL     OW21340   1.316   0.295   5.500  0.2265 -0.1164  0.2873
 3294SOL    HW121341   1.247   0.246   5.543 -1.3357  2.5815  0.8453
 3294SOL    HW221342   1.369   0.224   5.464  0.9735 -0.3226  1.7675
 3295SOL     OW21343   1.294   4.063   1.969  0.2373  0.3994  0.5135
 3295SOL    HW121344   1.230   4.135   1.965  1.3199  1.4908  2.5691
 3295SOL    HW221345   1.285   4.024   1.883  1.2820  4.1806 -1.3077
 3296SOL     OW21346   2.377   3.236   2.231  0.4083 -0.0244  0.4519
 3296SOL    HW121347   2.409   3.145   2.235  0.1097 -0.1715 -0.5984
 3296SOL    HW221348   2.415   3.279   2.155  1.4742  1.7880  2.0036
 3297SOL     OW21349   0.394   1.765   1.285 -0.5929 -0.5812 -0.3298
 3297SOL    HW121350   0.384   1.737   1.376 -1.9657  0.0161 -0.2929
 3297SOL    HW221351   0.335   1.703   1.242 -1.4692 -0.0049  0.0243
 3298SOL     OW21352   1.567   2.874   5.805  0.0226  0.7756 -0.0616
 3298SOL    HW121353   1.594   2.908   5.890 -0.0656  1.3439 -0.2587
 3298SOL    HW221354   1.474   2.858   5.818  0.0300 -0.3320 -1.3453
 3299SOL     OW21355   4.104   4.391   8.709  0.0643  0.1764 -0.4751
 3299SOL    HW121356   4.189   4.351   8.688  1.0298  0.5026  2.8569
 3299SOL    HW221357   4.132   4.449   8.779 -0.7368  1.1377 -0.9519
 3300SOL     OW21358   4.048   0.128   0.809  0.8479  0.3498 -0.5652
 3300SOL    HW121359   4.032   0.185   0.734 -0.1108  1.3202  0.3953
 3300SOL    HW221360   4.008   0.044   0.786 -1.1321  0.5633  2.1638
 3301SOL     OW21361   1.325   4.352   2.427 -0.5385  0.0263  0.2098
 3301SOL    HW121362   1.299   4.260   2.436  2.8864 -1.0631 -1.1880
 3301SOL    HW221363   1.420   4.351   2.436 -0.3550 -0.8196 -1.8557
 3302SOL     OW21364   3.829   1.685  16.674  0.0970 -0.2558 -0.2512
 3302SOL    HW121365   3.882   1.727  16.742  0.5679 -0.9780 -0.1705
 3302SOL    HW221366   3.743   1.718  16.700  0.5735 -0.1094  1.1421
 3303SOL     OW21367   4.206   2.769   4.586  0.1735  0.3505 -0.5826
 3303SOL    HW121368   4.282   2.757   4.529  0.4427  0.7052 -0.2991
 3303SOL    HW221369   4.135   2.729   4.537 -0.2950 -1.0653  1.2379
 3304SOL     OW21370   2.818   0.393   6.809 -0.5566  0.1018  0.6371
 3304SOL    HW121371   2.729   0.416   6.782 -1.5591 -2.6724  1.6861
 3304SOL    HW221372   2.844   0.467   6.864  3.0159 -1.4108  0.9989
 3305SOL     OW21373   0.296   4.584   5.919  0.0375 -0.5710 -0.2668
 3305SOL    HW121374   0.273   4.500   5.958 -1.3369 -0.5183 -0.9899
 3305SOL    HW221375   0.269   4.645   5.989  0.4130 -1.6862  0.8447
 3306SOL     OW21376   4.670   0.516   2.755  0.3289  0.1487 -0.0457
 3306SOL    HW121377   4.625   0.531   2.672 -1.0474 -1.0223  0.4976
 3306SOL    HW221378   0.039   0.540   2.720 -0.6086 -0.4680 -2.7952
 3307SOL     OW21379   1.539   3.316   1.545 -0.0171  0.1623 -0.2193
 3307SOL    HW121380   1.519   3.375   1.472 -4.0869  2.5028  2.7610
 3307SOL    HW221381   1.452   3.296   1.579  0.0289  2.2807  1.1483
 3308SOL     OW21382   0.606   1.740   3.854  0.2424  0.2783  0.3375
 3308SOL    HW121383   0.632   1.763   3.765  4.4947 -0.7238  1.3299
 3308SOL    HW221384   0.525   1.690   3.837 -0.3615  0.3065  3.1598
 3309SOL     OW21385   1.039   2.882   3.412 -0.2367  0.0308 -0.6698
 3309SOL    HW121386   1.087   2.954   3.371 -1.6342  0.3851 -1.6618
 3309SOL    HW221387   0.973   2.926   3.465 -0.2376 -1.3500  0.4672
 3310SOL     OW21388   1.329   2.438  14.359 -0.4877  0.3744  0.3026
 3310SOL    HW121389   1.285   2.506  14.307  0.5496  1.0906  0.3639
 3310SOL    HW221390   1.311   2.355  14.315  0.5333  0.6657 -0.6520
 3311SOL     OW21391   1.224   3.200   2.242 -0.2803 -0.3599  0.5143
 3311SOL    HW121392   1.218   3.107   2.222  0.6979 -0.5710  1.1963
 3311SOL    HW221393   1.134   3.232   2.245 -0.0114  0.3830  0.8306
 3312SOL     OW21394   4.043   2.763   5.362 -0.0750 -0.6522  0.0130
 3312SOL    HW121395   4.083   2.765   5.275  0.4058  1.4678  0.2986
 3312SOL    HW221396   4.007   2.850   5.379 -1.0332 -1.2034  0.7726
 3313SOL     OW21397   2.557   4.069   3.663  0.6624  0.0322 -0.0244
 3313SOL    HW121398   2.546   4.161   3.684  0.5643  0.3509 -1.5083
 3313SOL    HW221399   2.469   4.040   3.685  0.5081  0.5517  0.0277
 3314SOL     OW21400   0.314   3.439  13.494 -0.1325  0.0303 -0.2041
 3314SOL    HW121401   0.356   3.515  13.454 -0.0180 -0.9672 -1.9854
 3314SOL    HW221402   0.389   3.379  13.492 -1.1273 -1.2138 -0.1508
 3315SOL     OW21403   1.267   2.247   9.792  0.2094  0.2612 -0.4736
 3315SOL    HW121404   1.195   2.282   9.846  1.2835  2.8298 -0.7211
 3315SOL    HW221405   1.238   2.155   9.788  1.4106 -0.1027 -0.7116
 3316SOL     OW21406   1.117   0.230   6.682 -0.1842  0.0545 -0.0673
 3316SOL    HW121407   1.132   0.168   6.753  0.4169  1.0837  0.7002
 3316SOL    HW221408   1.206   0.253   6.655  0.2213 -2.6015 -1.0073
 3317SOL     OW21409   1.445   2.332   0.980 -0.7369  0.1262 -0.7252
 3317SOL    HW121410   1.537   2.308   0.968 -0.7540 -0.0503 -0.5007
 3317SOL    HW221411   1.473   2.404   1.037  2.0694 -1.2391 -0.3687
 3318SOL     OW21412   0.142   3.725   4.127  0.3976  0.1569 -0.1542
 3318SOL    HW121413   0.160   3.819   4.124 -2.7435  0.8139  1.2794
 3318SOL    HW221414   0.046   3.719   4.127  0.5543 -2.4300 -1.6175
 3319SOL     OW21415   1.309   1.829  14.816  0.1911 -0.0482 -0.7540
 3319SOL    HW121416   1.233   1.781  14.786 -0.0474  0.9379 -1.7514
 3319SOL    HW221417   1.308   1.910  14.764 -0.6299  0.2890 -0.2020
 3320SOL     OW21418   0.333   4.269   5.241 -0.2162  0.3886  0.4940
 3320SOL    HW121419   0.374   4.196   5.194 -1.2938  1.5133 -2.2021
 3320SOL    HW221420   0.362   4.255   5.331  2.3717  1.5748 -0.1638
 3321SOL     OW21421   0.287   0.888   2.364  0.0778 -0.2529  0.2311
 3321SOL    HW121422   0.289   0.794   2.349 -3.6365 -0.4268  0.9772
 3321SOL    HW221423   0.382   0.898   2.371  0.2541  0.5065 -3.1493
 3322SOL     OW21424   2.431   4.608  10.649 -0.5416 -0.1035  0.0817
 3322SOL    HW121425   2.430   4.685  10.592  0.1054 -1.1728 -1.3606
 3322SOL    HW221426   2.337   4.592  10.643 -0.5557 -0.9430  2.4211
 3323SOL     OW21427   2.564   4.532   6.174 -0.2842 -0.5508  0.3692
 3323SOL    HW121428   2.595   4.623   6.170  0.1368 -0.7494 -0.7943
 3323SOL    HW221429   2.650   4.493   6.184 -0.0956 -0.5647 -1.3241
 3324SOL     OW21430   1.031   3.888  11.198 -0.4939 -0.0806 -0.0126
 3324SOL    HW121431   1.063   3.905  11.287  1.3131  1.7732 -1.0050
 3324SOL    HW221432   1.103   3.933  11.152 -0.1711  0.2705  0.8379
 3325SOL     OW21433   2.098   3.127  12.138 -0.6801  0.3393  0.0612
 3325SOL    HW121434   2.043   3.200  12.166  0.2710  1.0398  0.0846
 3325SOL    HW221435   2.169   3.121  12.201  1.9142  0.5952 -2.8593
 3326SOL     OW21436   2.650   1.086   3.122  0.5394 -0.3953 -0.0324
 3326SOL    HW121437   2.679   1.119   3.207 -1.3174  1.9864 -0.3437
 3326SOL    HW221438   2.704   1.126   3.053  1.6081 -1.7694 -0.0054
 3327SOL     OW21439   3.585   3.710  12.560 -0.2216  0.0221 -0.4050
 3327SOL    HW121440   3.598   3.623  12.597  0.8041 -1.1113 -3.4512
 3327SOL    HW221441   3.568   3.687  12.469 -0.7768  1.7874 -0.7507
 3328SOL     OW21442   3.508   2.696   7.688  0.0132  0.0383 -0.0945
 3328SOL    HW121443   3.524   2.689   7.594  0.2058  0.6516 -0.1098
 3328SOL    HW221444   3.577   2.649   7.735  0.1374  0.7819  0.4624
 3329SOL     OW21445   0.700   0.206   0.807  0.4052 -0.0389 -0.1015
 3329SOL    HW121446   0.760   0.203   0.882  0.3423 -2.0318 -0.1212
 3329SOL    HW221447   0.618   0.171   0.842  0.4090 -0.6247 -0.6703
 3330SOL     OW21448   2.587   1.198   5.590  0.3699  0.3950 -0.2466
 3330SOL    HW121449   2.597   1.293   5.602  0.9720  0.4841 -1.5539
 3330SOL    HW221450   2.672   1.163   5.564 -0.0686 -0.5779 -0.3617
 3331SOL     OW21451   0.231   0.836   5.333 -0.6168 -0.6292  0.4268
 3331SOL    HW121452   0.218   0.785   5.414 -0.2074  0.0498  0.9223
 3331SOL    HW221453   0.305   0.793   5.290 -0.7734  0.1834 -0.6427
 3332SOL     OW21454   0.738   3.647  10.739  0.0965 -0.3848  0.1573
 3332SOL    HW121455   0.684   3.572  10.765 -0.6772  0.7397  1.7955
 3332SOL    HW221456   0.690   3.711  10.793 -1.2361 -0.2261 -1.2139
 3333SOL     OW21457   0.775   2.864   3.086 -0.4716 -0.4199  0.5331
 3333SOL    HW121458   0.710   2.854   3.018 -1.0614 -0.6689  1.1341
 3333SOL    HW221459   0.815   2.777   3.085 -0.6361 -0.4386 -3.2062
 3334SOL     OW21460   1.315   3.657   4.634 -0.1389 -0.4603  0.1782
 3334SOL    HW121461   1.224   3.632   4.650 -0.7548  0.9591 -1.0683
 3334SOL    HW221462   1.312   3.720   4.562  0.4294 -0.0426  0.5213
 3335SOL     OW21463   4.246   2.356   3.817 -0.2300  0.1655 -0.3974
 3335SOL    HW121464   4.161   2.313   3.808 -0.0473 -0.2284 -0.2250
 3335SOL    HW221465   4.219   2.448   3.808 -1.7828 -0.2634 -0.2205
 3336SOL     OW21466   4.172   3.963   5.857  0.1606  0.1493 -0.0009
 3336SOL    HW121467   4.144   4.033   5.798 -3.6076 -0.3353  1.2065
 3336SOL    HW221468   4.124   3.896   5.808 -0.7158 -0.4275  1.6226
 3337SOL     OW21469   4.315   0.062  17.147 -0.0551  0.5098 -0.1244
 3337SOL    HW121470   4.249   0.025  17.205  0.4117 -0.3810 -0.1740
 3337SOL    HW221471   4.307   0.006  17.070  0.7834  0.5928 -0.2698
 3338SOL     OW21472   3.595   3.805   8.735 -0.1270 -0.2730  0.2964
 3338SOL    HW121473   3.568   3.817   8.826  0.6326  1.7360  0.2549
 3338SOL    HW221474   3.659   3.736   8.752 -1.1931 -1.1201  0.8374
 3339SOL     OW21475   2.260   0.044  14.271 -0.5349  0.1012  0.8573
 3339SOL    HW121476   2.217   4.679  14.294  1.2225 -0.8558  0.6582
 3339SOL    HW221477   2.269   0.041  14.176 -0.6126 -0.7280  0.8820
 3340SOL     OW21478   3.516   1.709   5.176 -0.4687  0.6090 -0.8281
 3340SOL    HW121479   3.587   1.696   5.114 -0.4844 -0.4215 -0.6277
 3340SOL    HW221480   3.451   1.648   5.142  2.6126 -3.4286  0.5855
 3341SOL     OW21481   0.077   0.421   7.972 -0.4193  0.0409 -0.2475
 3341SOL    HW121482   0.148   0.418   8.036 -2.0162 -1.6575  1.4469
 3341SOL    HW221483   0.097   0.508   7.938  0.5515  0.0734  0.4085
 3342SOL     OW21484   3.970   0.389   5.058  0.2114  0.1903  0.1605
 3342SOL    HW121485   4.039   0.377   4.992  0.9557  3.1545  0.4026
 3342SOL    HW221486   3.924   0.467   5.029  0.6767 -0.3855 -2.1468
 3343SOL     OW21487   3.079   2.373  15.124  0.0628 -0.2351 -0.1702
 3343SOL    HW121488   3.105   2.300  15.181  0.6514 -2.0530 -2.7328
 3343SOL    HW221489   3.124   2.447  15.165 -0.2085  1.2893 -2.6240
 3344SOL     OW21490   2.539   0.106   2.913 -0.1673  0.1599 -0.0702
 3344SOL    HW121491   2.624   0.141   2.888  1.0733 -2.6666  0.2893
 3344SOL    HW221492   2.502   0.095   2.825 -0.8662 -1.3141  0.4121
 3345SOL     OW21493   0.192   0.022   8.108 -0.0164  0.6698 -0.4145
 3345SOL    HW121494   0.158   4.653   8.133  0.1678  0.9706  0.8906
 3345SOL    HW221495   0.115   0.078   8.118 -1.3614 -1.2368 -0.1524
 3346SOL     OW21496   3.437   2.284  11.123 -0.2419  0.0392 -0.2112
 3346SOL    HW121497   3.519   2.238  11.139 -0.4152 -0.0066  0.5517
 3346SOL    HW221498   3.428   2.307  11.030  1.0769  0.8632 -0.1285
 3347SOL     OW21499   2.073   0.281   2.578 -0.1825  0.8022  0.8206
 3347SOL    HW121500   2.145   0.292   2.516  0.7772  1.4625  2.0545
 3347SOL    HW221501   2.001   0.305   2.520  1.9567  0.7703 -1.7865
 3348SOL     OW21502   0.453   0.771   7.044  0.0234  0.1138 -0.4361
 3348SOL    HW121503   0.491   0.693   7.003  1.2890  1.1516 -1.2273
 3348SOL    HW221504   0.374   0.737   7.087 -0.2343  0.8343 -0.3363
 3349SOL     OW21505   3.335   3.479   4.796 -0.2210 -0.0607  0.3996
 3349SOL    HW121506   3.264   3.447   4.740 -0.2132 -1.2035  1.0382
 3349SOL    HW221507   3.393   3.403   4.804 -4.2861 -3.2750 -0.8933
 3350SOL     OW21508   4.604   1.167   9.186  0.5597  0.0182  0.8459
 3350SOL    HW121509   4.647   1.086   9.158 -1.1235  0.0532 -1.7413
 3350SOL    HW221510   4.665   1.235   9.161 -0.1352  0.0113 -0.8494
 3351SOL     OW21511   2.400   3.241  10.961 -0.0458  0.3396  0.0256
 3351SOL    HW121512   2.320   3.196  10.933 -0.0564  2.1202 -2.7601
 3351SOL    HW221513   2.405   3.315  10.901  1.4302  2.3280  2.5811
 3352SOL     OW21514   3.285   3.686   8.771 -0.4297  0.4528 -0.2834
 3352SOL    HW121515   3.234   3.686   8.852 -0.7301 -0.3767 -0.4739
 3352SOL    HW221516   3.275   3.593   8.753  0.4286  0.3914 -0.4727
 3353SOL     OW21517   4.505   4.347  14.494 -0.5649  0.6920  0.0852
 3353SOL    HW121518   4.440   4.281  14.520  1.6639 -0.7025  2.1303
 3353SOL    HW221519   4.565   4.297  14.438 -2.5619 -0.1141 -1.3669
 3354SOL     OW21520   4.080   3.981   2.021 -0.3095  0.7912 -0.0678
 3354SOL    HW121521   4.000   3.984   1.969 -1.9052 -3.1370  2.2330
 3354SOL    HW221522   4.135   4.046   1.976  2.5062 -1.7468 -0.3400
 3355SOL     OW21523   0.151   0.642   0.435 -0.7488  0.4480  0.4476
 3355SOL    HW121524   0.162   0.734   0.411 -2.4416  0.1602 -1.5144
 3355SOL    HW221525   0.187   0.635   0.523  1.8558 -0.2967 -0.6861
 3356SOL     OW21526   4.657   2.172   4.370 -0.5627  0.4506  0.6959
 3356SOL    HW121527   4.631   2.227   4.296 -0.4895 -0.4549 -0.0076
 3356SOL    HW221528   0.030   2.202   4.375 -0.1349 -0.7978  0.3286
 3357SOL     OW21529   1.287   3.735  10.175 -0.5842  0.1859 -0.5572
 3357SOL    HW121530   1.268   3.666  10.239  0.7872  0.7320  0.4313
 3357SOL    HW221531   1.271   3.815  10.225 -2.8956  0.2812 -1.4352
 3358SOL     OW21532   4.659   0.970   6.217  0.2019 -0.1569 -0.1321
 3358SOL    HW121533   4.609   1.049   6.237  1.6148  0.7878 -0.3637
 3358SOL    HW221534   4.631   0.959   6.126 -2.0181 -0.8471  0.6261
 3359SOL     OW21535   1.796   3.248   3.645 -0.6736  0.2537 -0.6685
 3359SOL    HW121536   1.802   3.344   3.649  1.0429  0.1362 -0.2002
 3359SOL    HW221537   1.762   3.226   3.732  0.8703  0.8105  0.0981
 3360SOL     OW21538   2.604   1.025   7.030  0.3968 -0.1814 -0.4326
 3360SOL    HW121539   2.700   1.021   7.034  0.4021  0.1318 -0.2331
 3360SOL    HW221540   2.578   0.968   7.103 -1.1047  0.4720 -0.4679
 3361SOL     OW21541   4.384   2.654   7.757  0.0320 -0.0609 -0.4204
 3361SOL    HW121542   4.469   2.619   7.785  0.0119 -1.6172 -2.2801
 3361SOL    HW221543   4.392   2.664   7.662  0.9468 -1.6205 -0.5261
 3362SOL     OW21544   1.140   0.430   5.322 -0.0966  0.1555  0.4126
 3362SOL    HW121545   1.106   0.347   5.288 -1.1365  0.4054  0.8279
 3362SOL    HW221546   1.224   0.412   5.364 -0.8436 -1.3248  1.2723
 3363SOL     OW21547   3.106   2.318   9.745 -0.3513 -0.4279  0.0369
 3363SOL    HW121548   3.079   2.340   9.656  2.7463  1.0618 -0.5116
 3363SOL    HW221549   3.134   2.404   9.775  0.1099 -0.6930  0.3594
 3364SOL     OW21550   0.809   0.378   5.312 -0.3816 -0.0886  0.0807
 3364SOL    HW121551   0.821   0.399   5.219  2.5834  1.2468  0.7632
 3364SOL    HW221552   0.729   0.326   5.306 -1.1092  0.8996  1.2702
 3365SOL     OW21553   0.429   3.443   2.501  0.2914  0.0497  0.4536
 3365SOL    HW121554   0.512   3.403   2.478  0.1314 -0.8612  1.4901
 3365SOL    HW221555   0.378   3.364   2.484  2.7207 -2.0403  2.9949
 3366SOL     OW21556   1.690   2.687   7.872 -0.3501 -0.1003 -0.1168
 3366SOL    HW121557   1.782   2.714   7.873 -0.6419  0.9212 -0.8041
 3366SOL    HW221558   1.674   2.658   7.962 -0.7381 -0.1239 -0.1947
 3367SOL     OW21559   3.472   2.791  15.201  0.0251 -0.2910  0.0501
 3367SOL    HW121560   3.431   2.821  15.282  4.1275  3.6833  0.6432
 3367SOL    HW221561   3.405   2.801  15.134 -1.9926 -0.3717  2.0833
 3368SOL     OW21562   4.119   4.560   2.285 -0.3297 -0.1501  0.5313
 3368SOL    HW121563   4.049   4.625   2.290 -1.3080 -1.1345 -0.0273
 3368SOL    HW221564   4.157   4.572   2.371  1.8453 -0.7523 -0.3538
 3369SOL     OW21565   3.520   1.640   8.301 -0.3483  0.2042 -0.0485
 3369SOL    HW121566   3.506   1.572   8.368  1.5028 -0.6409 -0.5144
 3369SOL    HW221567   3.502   1.589   8.222  1.8350 -0.5173 -0.0856
 3370SOL     OW21568   3.386   4.067   0.840 -0.5981  0.5913  0.0002
 3370SOL    HW121569   3.383   3.992   0.782 -0.3482  1.5648 -1.2633
 3370SOL    HW221570   3.471   4.108   0.826  0.7081 -2.1327 -0.0409
 3371SOL     OW21571   0.001   2.103  14.746  0.3899 -0.0412 -0.2220
 3371SOL    HW121572   4.675   2.024  14.716 -1.2765 -0.0034  2.1086
 3371SOL    HW221573   0.092   2.079  14.729  1.6066  2.5392  2.6946
 3372SOL     OW21574   2.775   1.758   8.022  0.2717  0.1718 -0.0723
 3372SOL    HW121575   2.739   1.804   8.098  3.0839  0.9650  0.7573
 3372SOL    HW221576   2.722   1.678   8.017  1.0811 -0.4450  1.3334
 3373SOL     OW21577   1.516   3.396   7.466 -0.5023  0.2547 -1.3309
 3373SOL    HW121578   1.556   3.483   7.456 -0.4919  0.4786  0.6826
 3373SOL    HW221579   1.579   3.340   7.420 -2.4247 -1.2351 -2.1234
 3374SOL     OW21580   3.248   2.877   4.822 -0.0559 -0.0024 -0.2763
 3374SOL    HW121581   3.288   2.877   4.735  1.3639 -1.0257  0.3769
 3374SOL    HW221582   3.164   2.839   4.793  0.7523 -2.1133  0.1285
 3375SOL     OW21583   0.314   2.616  13.246 -0.1227 -0.5306  0.0202
 3375SOL    HW121584   0.297   2.603  13.339 -0.9558  0.4240  0.0013
 3375SOL    HW221585   0.298   2.710  13.238 -0.5657 -0.5393  0.7790
 3376SOL     OW21586   0.944   4.098   2.339  0.1306 -0.5740  0.1669
 3376SOL    HW121587   0.875   4.032   2.333 -1.3740  1.1488 -1.5332
 3376SOL    HW221588   0.889   4.175   2.327 -0.9551 -1.5593 -1.1292
 3377SOL     OW21589   2.980   2.586  17.164  0.1854  0.3391  0.5382
 3377SOL    HW121590   2.999   2.630  17.246 -2.0842  1.7491  0.3219
 3377SOL    HW221591   3.060   2.540  17.140 -0.3913  0.2624 -1.2713
 3378SOL     OW21592   2.928   4.046  12.138 -0.2028 -0.4319  0.0595
 3378SOL    HW121593   3.014   4.089  12.144 -0.4742  0.0294  0.6756
 3378SOL    HW221594   2.944   3.960  12.177  3.7801  0.0798 -0.4274
 3379SOL     OW21595   2.006   3.112   8.357 -0.1552 -0.0063  0.2730
 3379SOL    HW121596   1.989   3.062   8.277  0.4558 -0.2626  0.3018
 3379SOL    HW221597   1.994   3.042   8.421 -2.4066  0.7427  0.6435
 3380SOL     OW21598   3.883   3.928   5.252  0.1588  0.0157  0.7812
 3380SOL    HW121599   3.956   3.940   5.192  1.3265 -1.7552  1.8438
 3380SOL    HW221600   3.899   3.838   5.279  2.5034  1.3671  3.9172
 3381SOL     OW21601   1.127   0.433   9.475 -0.7257 -0.0640  0.2030
 3381SOL    HW121602   1.163   0.488   9.545 -0.1011  1.8987 -1.6299
 3381SOL    HW221603   1.190   0.449   9.405 -0.4163 -2.6426 -0.1119
 3382SOL     OW21604   4.138   4.136   7.045 -0.1343 -0.7564 -0.7630
 3382SOL    HW121605   4.132   4.230   7.059  0.5391 -0.9443  0.8125
 3382SOL    HW221606   4.230   4.112   7.058  0.0474 -0.2083 -1.0446
 3383SOL     OW21607   4.125   0.719  10.759 -0.0180 -0.3190 -0.9726
 3383SOL    HW121608   4.199   0.696  10.813 -2.3488 -2.7509  1.1592
 3383SOL    HW221609   4.153   0.699  10.670 -0.4244 -2.0611 -0.7018
 3384SOL     OW21610   1.274   3.978  13.610  0.1963 -0.4251  0.0056
 3384SOL    HW121611   1.315   3.964  13.525  0.6781 -1.1330  0.3541
 3384SOL    HW221612   1.315   3.916  13.670 -1.0232  0.1562  1.4517
 3385SOL     OW21613   3.144   0.797   4.891 -0.8888  0.1085 -0.0149
 3385SOL    HW121614   3.054   0.769   4.906 -0.9697  1.1845  1.5189
 3385SOL    HW221615   3.184   0.733   4.832 -2.4236  0.2520 -1.1822
 3386SOL     OW21616   4.154   4.308   4.980 -0.3479 -0.2272 -0.4889
 3386SOL    HW121617   4.103   4.258   4.917 -0.7582 -0.5106  0.0589
 3386SOL    HW221618   4.091   4.295   5.052  1.3039  0.7325  1.1420
 3387SOL     OW21619   2.350   3.441   8.659 -0.1115  0.3811  0.2092
 3387SOL    HW121620   2.271   3.469   8.707 -0.0309  0.5905  0.2212
 3387SOL    HW221621   2.310   3.410   8.578 -1.8008  1.3796  0.6489
 3388SOL     OW21622   0.102   0.713   7.181 -0.0111 -0.1263 -0.0911
 3388SOL    HW121623   0.174   0.708   7.245  1.0296  2.6157 -1.0277
 3388SOL    HW221624   0.028   0.714   7.242  1.1152  0.6233  1.2784
 3389SOL     OW21625   1.733   3.072  11.236 -0.1374  0.5259  0.1753
 3389SOL    HW121626   1.793   3.011  11.279 -0.4289  0.9227  1.1419
 3389SOL    HW221627   1.649   3.059  11.280 -0.2651  0.6686 -0.0290
 3390SOL     OW21628   3.440   2.501  10.908 -0.4560  0.0809  0.1807
 3390SOL    HW121629   3.437   2.500  10.813 -0.5647 -0.7368  0.1965
 3390SOL    HW221630   3.360   2.553  10.910 -0.6281 -0.1408 -0.9948
 3391SOL     OW21631   3.688   4.321   5.950 -0.6511 -0.4854  0.3937
 3391SOL    HW121632   3.738   4.398   5.975  1.5292 -1.1032 -2.1082
 3391SOL    HW221633   3.740   4.277   5.883  0.8256  1.2133  0.4342
 3392SOL     OW21634   2.523   0.024   3.440 -0.1918 -0.6616 -0.0502
 3392SOL    HW121635   2.449   0.013   3.499 -0.5487  0.1431 -0.3410
 3392SOL    HW221636   2.495   4.704   3.356 -0.0399  0.1043 -0.4495
 3393SOL     OW21637   3.501   0.449   3.487 -0.0872 -0.4391 -0.0263
 3393SOL    HW121638   3.419   0.498   3.489  1.8806  2.9602 -4.0999
 3393SOL    HW221639   3.563   0.519   3.506  1.0313 -1.0736 -1.3781
 3394SOL     OW21640   2.322   3.686  12.601  0.6463  0.2907 -0.7541
 3394SOL    HW121641   2.402   3.732  12.626  0.1570  1.0867 -0.6618
 3394SOL    HW221642   2.281   3.668  12.685 -1.8254  0.9225 -1.8194
 3395SOL     OW21643   0.259   2.440  12.514  0.2182 -0.2567  0.1717
 3395SOL    HW121644   0.194   2.398  12.570  0.3328  0.5998  0.9398
 3395SOL    HW221645   0.292   2.367  12.462  0.1086  1.1104 -1.8224
 3396SOL     OW21646   4.284   1.507   2.853  0.3663  0.1480 -0.6025
 3396SOL    HW121647   4.328   1.438   2.902 -1.6542 -0.2458  0.6471
 3396SOL    HW221648   4.196   1.515   2.890  0.8209 -3.2818  1.2327
 3397SOL     OW21649   0.897   1.194  15.740 -0.1024 -0.4453 -0.2869
 3397SOL    HW121650   0.857   1.239  15.665 -1.8116  1.7608  1.9244
 3397SOL    HW221651   0.878   1.104  15.714 -0.0432 -0.1922 -1.2149
 3398SOL     OW21652   2.482   2.772   7.126  0.7978  0.3630  0.0634
 3398SOL    HW121653   2.422   2.819   7.184  0.6087 -0.5996  0.6472
 3398SOL    HW221654   2.430   2.743   7.051  2.1490 -1.5277 -0.1575
 3399SOL     OW21655   0.130   3.639   7.612 -0.7933  0.1969 -0.4743
 3399SOL    HW121656   0.146   3.559   7.662 -1.3166  0.1504 -0.3826
 3399SOL    HW221657   0.079   3.609   7.537 -1.9760 -2.0884  1.2170
 3400SOL     OW21658   3.809   1.858   3.382 -0.2245 -0.3632  0.2780
 3400SOL    HW121659   3.831   1.948   3.357  0.4477 -0.2113  1.4633
 3400SOL    HW221660   3.772   1.869   3.469 -1.8712  0.8749 -0.5798
 3401SOL     OW21661   0.359   0.039  12.034  0.8857  0.6405  0.3416
 3401SOL    HW121662   0.329   0.119  12.077 -0.8189 -0.2692  0.8380
 3401SOL    HW221663   0.310   0.041  11.952 -0.0400  0.9182  0.8903
 3402SOL     OW21664   4.671   3.879  12.225 -0.3162  0.0135  0.0514
 3402SOL    HW121665   4.648   3.929  12.146  2.8959  0.3653 -0.6486
 3402SOL    HW221666   4.707   3.946  12.282 -0.7119  0.2454  0.0280
 3403SOL     OW21667   4.147   4.476  14.620 -0.0509 -0.3957 -0.2453
 3403SOL    HW121668   4.104   4.422  14.686 -0.2403  0.6031  0.4439
 3403SOL    HW221669   4.193   4.536  14.679  1.1653 -3.0756  1.5426
 3404SOL     OW21670   3.169   0.488  10.234 -0.1134  0.1219 -0.1279
 3404SOL    HW121671   3.210   0.524  10.312 -1.8253  0.6371  0.5294
 3404SOL    HW221672   3.248   0.440  10.206 -0.5222  0.7665 -2.4427
 3405SOL     OW21673   0.586   3.318   1.073  0.3469 -0.3821  0.6752
 3405SOL    HW121674   0.649   3.269   1.126 -1.2288 -2.6821  0.4573
 3405SOL    HW221675   0.514   3.284   1.127  0.6221  1.2817  2.0779
 3406SOL     OW21676   1.064   0.487  15.420  0.3734 -0.3170 -0.7126
 3406SOL    HW121677   1.094   0.408  15.375  0.8365 -0.1015 -0.7768
 3406SOL    HW221678   1.042   0.455  15.508 -0.3135  2.4369  0.0984
 3407SOL     OW21679   4.665   0.306   5.302 -0.4419  0.1156 -0.4010
 3407SOL    HW121680   4.643   0.213   5.296 -1.5450  0.2990  0.7890
 3407SOL    HW221681   4.656   0.331   5.210  2.5851 -1.4201 -1.1113
 3408SOL     OW21682   4.137   2.048   7.559  0.0451 -0.1820  0.0122
 3408SOL    HW121683   4.168   2.009   7.476  1.4470  0.1717  0.3750
 3408SOL    HW221684   4.219   2.077   7.598 -0.9278  1.6296  0.7002
 3409SOL     OW21685   4.716   2.848   2.298  0.9269 -0.9496  0.1025
 3409SOL    HW121686   4.654   2.888   2.358 -0.1422 -0.0226 -1.5989
 3409SOL    HW221687   4.707   2.910   2.225  1.0705 -1.5844 -0.4582
 3410SOL     OW21688   0.575   2.631   8.625 -0.1584  0.6929  0.4544
 3410SOL    HW121689   0.589   2.689   8.550 -1.0166 -0.1161 -0.3306
 3410SOL    HW221690   0.666   2.608   8.639 -1.0009 -2.9173 -0.1102
 3411SOL     OW21691   1.752   3.100  14.153 -0.3175  0.6757  0.0924
 3411SOL    HW121692   1.741   3.195  14.146  0.0021  0.6276 -1.1295
 3411SOL    HW221693   1.689   3.079  14.221 -2.6044 -0.4480 -2.3658
 3412SOL     OW21694   2.223   2.758   6.308  0.2864  0.4395 -0.1156
 3412SOL    HW121695   2.262   2.787   6.226  1.1636 -0.6177 -0.0704
 3412SOL    HW221696   2.151   2.821   6.320 -0.3128 -0.6224  1.9372
 3413SOL     OW21697   3.110   2.930   6.967 -0.0416  0.5080  0.1234
 3413SOL    HW121698   3.110   3.024   6.951  0.0536  1.0693  3.4356
 3413SOL    HW221699   3.156   2.926   7.051 -0.5508  1.2919  0.4418
 3414SOL     OW21700   1.656   3.918  17.620 -0.4194 -0.1952  0.5062
 3414SOL    HW121701   1.680   4.004  17.584 -0.2274 -0.3611  0.2396
 3414SOL    HW221702   1.736   3.873  17.595  0.5224  1.2697  0.8671
 3415SOL     OW21703   4.359   3.238   1.416 -0.0420 -0.2109  0.2360
 3415SOL    HW121704   4.409   3.320   1.413 -0.6468  0.0951 -1.0864
 3415SOL    HW221705   4.392   3.220   1.505 -3.0560  0.9514  1.5878
 3416SOL     OW21706   1.785   4.129   6.734  0.0460 -0.1199  0.0587
 3416SOL    HW121707   1.699   4.171   6.721 -0.3283 -1.4912 -1.8531
 3416SOL    HW221708   1.770   4.081   6.815 -1.5864  0.2453 -0.0133
 3417SOL     OW21709   1.598   1.799   8.735  0.1980  0.0255 -0.1457
 3417SOL    HW121710   1.615   1.763   8.823  0.6806 -1.1970 -0.7327
 3417SOL    HW221711   1.527   1.737   8.716 -0.3188 -0.1698  2.3377
 3418SOL     OW21712   1.137   1.277   7.845  0.3616  0.1209  0.0672
 3418SOL    HW121713   1.113   1.269   7.938 -1.9467  1.9300 -0.3661
 3418SOL    HW221714   1.225   1.241   7.838  0.5584  1.0995 -2.4935
 3419SOL     OW21715   3.764   3.092   4.584 -0.0161  0.4110  0.0314
 3419SOL    HW121716   3.728   3.168   4.539  0.2655 -0.3351 -1.4472
 3419SOL    HW221717   3.687   3.052   4.623  0.1803 -0.8639 -0.8865
 3420SOL     OW21718   3.839   4.440   4.834 -0.3850  0.3915 -0.0288
 3420SOL    HW121719   3.848   4.512   4.896  0.5078 -1.5396  2.0746
 3420SOL    HW221720   3.748   4.450   4.806 -0.3011 -0.5034 -0.6426
 3421SOL     OW21721   0.135   3.848  11.495 -0.0494 -0.0320  0.2872
 3421SOL    HW121722   0.077   3.905  11.445 -0.8098 -0.3679  0.7807
 3421SOL    HW221723   0.142   3.906  11.570 -0.9596  0.3198  0.1000
 3422SOL     OW21724   0.301   1.815   5.491  0.5033  0.4640 -0.1926
 3422SOL    HW121725   0.226   1.867   5.461 -0.8227 -1.0954  0.4385
 3422SOL    HW221726   0.351   1.837   5.412 -1.9588  2.7037 -1.1275
 3423SOL     OW21727   0.775   1.662   8.971  0.8597 -0.2857  0.1664
 3423SOL    HW121728   0.699   1.697   9.018  0.6868 -1.4629  0.7671
 3423SOL    HW221729   0.751   1.572   8.950 -1.0507  0.0067  0.9894
 3424SOL     OW21730   3.904   3.018   4.009  0.4353  0.2562  0.1388
 3424SOL    HW121731   3.868   3.061   4.086 -0.1197  0.3678 -0.1879
 3424SOL    HW221732   3.885   2.926   4.026  0.8459  0.1173 -0.1380
 3425SOL     OW21733   3.591   3.790   0.134  0.0063 -0.3119 -0.1950
 3425SOL    HW121734   3.648   3.724   0.094 -0.3782 -1.3201  0.9353
 3425SOL    HW221735   3.577   3.858   0.068 -1.7498 -1.4989 -1.0587
 3426SOL     OW21736   1.824   0.663   2.921  0.0125 -0.1060  0.3057
 3426SOL    HW121737   1.808   0.598   2.853  0.7686 -0.6712  0.6596
 3426SOL    HW221738   1.848   0.740   2.869  0.4845 -1.2469 -1.1848
 3427SOL     OW21739   2.053   0.224   4.579  0.4072 -0.0535 -0.6008
 3427SOL    HW121740   2.109   0.160   4.535  3.4992  2.3290 -0.1683
 3427SOL    HW221741   2.068   0.297   4.518 -1.3203  0.2959 -0.5985
 3428SOL     OW21742   0.258   3.668   9.763 -0.4664 -0.5507  0.0863
 3428SOL    HW121743   0.229   3.674   9.854 -0.1167  0.0644  0.1567
 3428SOL    HW221744   0.351   3.648   9.765 -0.0050  1.3844 -1.6473
 3429SOL     OW21745   3.263   2.736  17.477  0.0747 -0.3623 -0.1782
 3429SOL    HW121746   3.295   2.788  17.404  0.4864 -0.1016  0.1902
 3429SOL    HW221747   3.320   2.757  17.551 -0.0514 -0.2654 -0.1064
 3430SOL     OW21748   0.290   2.498   7.692 -0.7664  0.1975 -0.1815
 3430SOL    HW121749   0.380   2.479   7.667 -1.1806 -1.6054 -0.3077
 3430SOL    HW221750   0.242   2.419   7.669 -0.2379 -0.3670  0.6771
 3431SOL     OW21751   1.609   1.633   6.699 -0.0942 -0.2529  0.6624
 3431SOL    HW121752   1.677   1.697   6.679  1.1421 -1.0749  2.1998
 3431SOL    HW221753   1.609   1.635   6.795 -1.5851  1.2356  0.6218
 3432SOL     OW21754   0.034   3.348   2.364  0.6011 -0.1195  0.5127
 3432SOL    HW121755   0.099   3.410   2.330 -0.6544  1.7096  1.4339
 3432SOL    HW221756   4.676   3.386   2.319  0.1151  0.1974  1.6137
 3433SOL     OW21757   0.130   4.658   3.586  0.1268  0.3696  0.1279
 3433SOL    HW121758   0.161   4.601   3.515 -0.3169 -0.1870  0.3774
 3433SOL    HW221759   0.206   4.673   3.642 -0.5887  0.0960  1.1848
 3434SOL     OW21760   1.542   0.453   0.635 -0.5920  0.6221  0.1632
 3434SOL    HW121761   1.624   0.413   0.662 -1.3369  0.2081  1.7960
 3434SOL    HW221762   1.576   0.532   0.592 -1.4461  0.6010 -0.5681
 3435SOL     OW21763   1.753   0.467   2.748  0.7231  0.5481  0.4177
 3435SOL    HW121764   1.769   0.377   2.774 -1.0001 -0.3984 -1.7953
 3435SOL    HW221765   1.753   0.474   2.652  1.7932 -0.8279  0.3207
 3436SOL     OW21766   0.809   4.340  17.336  0.3376  0.2624  0.8713
 3436SOL    HW121767   0.849   4.340  17.422  2.5160  1.6824 -0.1601
 3436SOL    HW221768   0.782   4.431  17.345 -2.5125 -0.5633  0.8317
 3437SOL     OW21769   3.728   1.885   6.682  1.0263 -0.7485 -0.0040
 3437SOL    HW121770   3.735   1.849   6.771  0.2506 -3.9450 -1.2240
 3437SOL    HW221771   3.757   1.975   6.696  3.9230 -1.5343 -0.8410
 3438SOL     OW21772   3.159   0.523  17.278  0.2097  0.2474 -0.3414
 3438SOL    HW121773   3.074   0.482  17.294 -0.7222  1.6388 -1.7298
 3438SOL    HW221774   3.206   0.460  17.225 -0.7374  0.7077 -1.7269
 3439SOL     OW21775   3.628   1.442   7.122 -0.3017 -0.3433 -0.2196
 3439SOL    HW121776   3.718   1.421   7.096  0.4188  1.4050  0.9142
 3439SOL    HW221777   3.641   1.500   7.197  2.2524 -1.2991  0.0944
 3440SOL     OW21778   0.636   3.488   7.464  0.1584  0.6309 -0.5510
 3440SOL    HW121779   0.577   3.415   7.484  1.3675 -0.6557 -1.6920
 3440SOL    HW221780   0.652   3.470   7.371 -0.4328 -0.4609 -0.4428
 3441SOL     OW21781   2.878   2.643  14.308 -0.1607  0.7193 -0.2456
 3441SOL    HW121782   2.891   2.644  14.213  1.1377 -2.4965 -0.1125
 3441SOL    HW221783   2.933   2.566  14.321 -0.0826  0.5861 -1.3595
 3442SOL     OW21784   2.219   2.619   2.571  0.5140 -0.0331 -0.3181
 3442SOL    HW121785   2.126   2.596   2.566  0.6623  0.0646 -3.4373
 3442SOL    HW221786   2.215   2.710   2.541 -0.0053  0.4449  1.1635
 3443SOL     OW21787   3.827   1.235  12.366 -0.1633 -0.0006  0.3300
 3443SOL    HW121788   3.833   1.199  12.277 -0.4408  0.1695  0.2453
 3443SOL    HW221789   3.879   1.170  12.414  0.0863  0.6632  0.9600
 3444SOL     OW21790   3.604   2.656  17.313  0.1195 -0.2152  0.5650
 3444SOL    HW121791   3.536   2.599  17.349 -0.3362 -0.6447 -0.9746
 3444SOL    HW221792   3.654   2.595  17.259  0.6820  1.2491 -0.5638
 3445SOL     OW21793   4.305   1.593   8.367 -0.3245  0.0597 -0.0124
 3445SOL    HW121794   4.235   1.615   8.305  0.6435 -0.1301 -1.1623
 3445SOL    HW221795   4.270   1.639   8.444 -0.8825 -1.3399  0.5856
 3446SOL     OW21796   4.233   2.641   1.742 -0.2514  0.0721  0.2022
 3446SOL    HW121797   4.168   2.611   1.678 -0.9263 -1.5464  1.6658
 3446SOL    HW221798   4.312   2.600   1.707 -0.2158 -0.8804  1.3959
 3447SOL     OW21799   4.401   4.085  17.373 -0.1391 -0.1549  0.2473
 3447SOL    HW121800   4.346   4.081  17.295  0.7151 -0.4785 -0.3292
 3447SOL    HW221801   4.450   4.003  17.374  1.6571  0.9307 -1.0226
 3448SOL     OW21802   0.676   2.967  10.486  0.2545  0.0529  0.0179
 3448SOL    HW121803   0.610   2.960  10.555 -1.5312  1.0643 -1.5789
 3448SOL    HW221804   0.633   2.919  10.416 -0.9871 -0.5804  1.2135
 3449SOL     OW21805   3.854   1.101  15.628  0.2513  0.4530  0.1624
 3449SOL    HW121806   3.950   1.096  15.630  0.4348  3.7049 -1.3804
 3449SOL    HW221807   3.835   1.021  15.578  0.0349  0.3579  0.3979
 3450SOL     OW21808   3.371   3.880  11.329  0.2215 -0.4956  0.4695
 3450SOL    HW121809   3.358   3.957  11.385  0.5193 -0.2589  0.2109
 3450SOL    HW221810   3.457   3.848  11.356  1.3826 -0.7388 -3.5344
 3451SOL     OW21811   1.612   2.163   0.829 -0.9530  0.0824 -0.0878
 3451SOL    HW121812   1.676   2.234   0.817 -1.2853  0.5788  1.0837
 3451SOL    HW221813   1.656   2.092   0.784 -1.5404 -0.2317 -0.1624
 3452SOL     OW21814   4.248   1.320   8.063 -0.0300 -0.5395  0.2664
 3452SOL    HW121815   4.158   1.341   8.038 -0.7869 -1.5436  2.1570
 3452SOL    HW221816   4.293   1.355   7.986 -2.1995  0.0057 -0.7439
 3453SOL     OW21817   4.548   3.915  17.625 -0.0148 -0.0787  0.2471
 3453SOL    HW121818   4.554   4.011  17.620 -2.2994  0.1409  2.1237
 3453SOL    HW221819   4.553   3.896   0.045 -1.5186 -3.2334 -0.3162
 3454SOL     OW21820   2.288   1.930   3.529  0.1910  0.3947 -0.0339
 3454SOL    HW121821   2.383   1.938   3.531  0.1490  0.7626  0.3495
 3454SOL    HW221822   2.264   1.890   3.445 -1.3563 -1.1090  1.1096
 3455SOL     OW21823   3.398   4.498   5.712 -0.3212  0.4478 -0.0805
 3455SOL    HW121824   3.340   4.479   5.638 -0.6736  1.0148  0.0506
 3455SOL    HW221825   3.385   4.592   5.724 -0.9682  0.1437  1.5765
 3456SOL     OW21826   3.214   1.706   5.683  0.2187 -0.0215  0.2932
 3456SOL    HW121827   3.251   1.678   5.767  2.3122 -1.0772 -0.9671
 3456SOL    HW221828   3.123   1.726   5.703  0.0142  0.4206 -1.0808
 3457SOL     OW21829   3.496   4.387  10.417 -0.0754 -0.0431 -0.1827
 3457SOL    HW121830   3.576   4.375  10.366  0.2259 -1.9286  0.7409
 3457SOL    HW221831   3.520   4.473  10.450 -1.7567  0.1166  0.6098
 3458SOL     OW21832   4.499   2.364   2.882  0.1749 -0.7182  0.4699
 3458SOL    HW121833   4.578   2.310   2.890  1.0755  0.3932 -0.7884
 3458SOL    HW221834   4.520   2.437   2.941 -0.9586  2.1375 -2.6169
 3459SOL     OW21835   0.599   0.034   6.095  0.0321  0.3160 -0.2367
 3459SOL    HW121836   0.600   0.098   6.167 -1.0039 -0.6791  0.6805
 3459SOL    HW221837   0.668   0.061   6.035  2.9174  1.7404  3.6915
 3460SOL     OW21838   0.398   2.175   2.366 -0.4278 -0.4394  0.2671
 3460SOL    HW121839   0.431   2.150   2.279  0.9068  0.3045  0.5613
 3460SOL    HW221840   0.389   2.266   2.339 -0.0066 -0.0151  1.5638
 3461SOL     OW21841   1.828   4.404   6.980  0.2370 -0.1790 -0.1203
 3461SOL    HW121842   1.755   4.345   6.997  1.3942 -0.9808  2.0970
 3461SOL    HW221843   1.886   4.343   6.935  1.8349 -0.1864  1.9390
 3462SOL     OW21844   4.115   0.312   5.301 -0.1392  0.7367  0.1118
 3462SOL    HW121845   4.049   0.353   5.246 -0.7429 -0.7001 -0.2286
 3462SOL    HW221846   4.108   0.363   5.382  0.1559 -0.4874  0.9219
 3463SOL     OW21847   1.982   2.441   5.734  0.3222 -0.2477 -0.2265
 3463SOL    HW121848   1.996   2.347   5.741  0.9739 -0.0065  1.7879
 3463SOL    HW221849   2.009   2.463   5.644  2.0533  2.0483  0.8633
 3464SOL     OW21850   0.189   4.690   2.326  0.3619  0.4869  0.1715
 3464SOL    HW121851   0.119   0.034   2.303  1.6172  2.1919  0.9432
 3464SOL    HW221852   0.169   4.663   2.415 -1.1037  1.6714  0.2000
 3465SOL     OW21853   3.520   3.871   4.626  0.2100 -0.8145 -0.2549
 3465SOL    HW121854   3.462   3.834   4.692 -0.1705  0.4830  0.1250
 3465SOL    HW221855   3.584   3.913   4.683 -0.9038 -1.0750  1.1825
 3466SOL     OW21856   3.937   2.871   6.119 -0.2543  0.2453 -0.2991
 3466SOL    HW121857   4.009   2.812   6.098 -2.4516 -2.3171 -0.6229
 3466SOL    HW221858   3.859   2.816   6.131  1.7246 -2.3289  0.6021
 3467SOL     OW21859   0.601   3.630   8.358 -0.2934 -0.5824 -0.0925
 3467SOL    HW121860   0.611   3.676   8.442  0.1865  1.0752 -1.0391
 3467SOL    HW221861   0.554   3.696   8.307  1.1867  0.8182  0.3438
 3468SOL     OW21862   0.289   1.093  16.882 -0.0990  0.0445 -0.6770
 3468SOL    HW121863   0.355   1.160  16.904 -0.1405 -0.1195 -0.0550
 3468SOL    HW221864   0.225   1.102  16.953 -0.5132 -1.7884 -0.8230
 3469SOL     OW21865   1.119   1.545   6.095  0.4481 -0.4045 -0.7963
 3469SOL    HW121866   1.192   1.497   6.135 -0.9961 -1.5114  0.5398
 3469SOL    HW221867   1.155   1.579   6.014  0.5413  0.6688 -0.3004
 3470SOL     OW21868   4.239   2.348  12.212  0.3134 -0.0438  0.0326
 3470SOL    HW121869   4.284   2.430  12.192 -0.4114  0.0677 -1.1392
 3470SOL    HW221870   4.152   2.380  12.235  1.1059  2.1184  0.0407
 3471SOL     OW21871   0.049   2.046   7.890 -0.9455  0.6551  0.6171
 3471SOL    HW121872   0.139   2.014   7.901 -1.6334 -1.7918 -0.8351
 3471SOL    HW221873   0.028   1.995   7.812  0.2016  0.2798  0.5556
 3472SOL     OW21874   1.594   3.323   1.129 -0.4038 -0.6557 -0.2052
 3472SOL    HW121875   1.614   3.338   1.037 -1.3676 -0.8021 -0.4428
 3472SOL    HW221876   1.660   3.258   1.155  1.2284  1.3104  0.5321
 3473SOL     OW21877   3.017   2.324   2.169  0.2229 -0.2593 -0.6483
 3473SOL    HW121878   3.097   2.347   2.123 -1.2521 -0.0262 -3.1254
 3473SOL    HW221879   3.001   2.236   2.135  2.9910 -1.1711  0.4686
 3474SOL     OW21880   4.616   2.518   2.057 -0.3990 -0.1656  0.2178
 3474SOL    HW121881   4.650   2.439   2.016 -0.5573 -0.5723  0.8716
 3474SOL    HW221882   4.527   2.493   2.081 -0.2894  1.1461  2.0777
 3475SOL     OW21883   1.688   0.729   3.502 -0.0448 -0.3928 -0.2341
 3475SOL    HW121884   1.597   0.705   3.483 -0.4298  0.5605  0.4655
 3475SOL    HW221885   1.718   0.714   3.412 -0.1035 -0.9340 -0.1627
 3476SOL     OW21886   3.017   2.599   8.982 -0.4032 -0.5609 -0.2702
 3476SOL    HW121887   3.036   2.554   8.899 -0.1310  0.3822 -0.7266
 3476SOL    HW221888   3.015   2.538   9.055  0.3726 -0.2707  0.0011
 3477SOL     OW21889   1.063   2.162   6.076 -0.5719  0.3028 -0.0971
 3477SOL    HW121890   1.005   2.237   6.066  0.1677  0.8706 -0.1950
 3477SOL    HW221891   1.014   2.103   6.133 -1.6716 -0.3492 -1.7304
 3478SOL     OW21892   1.123   2.009   1.893 -0.8244  0.0016  0.0625
 3478SOL    HW121893   1.031   2.035   1.901 -0.8534 -0.4215  1.1589
 3478SOL    HW221894   1.166   2.086   1.929 -1.4289  1.3013 -1.9574
 3479SOL     OW21895   0.657   1.349   5.169  0.0885  0.0226  0.0036
 3479SOL    HW121896   0.712   1.313   5.100 -0.2958  1.0287 -0.8265
 3479SOL    HW221897   0.589   1.282   5.180  0.0763 -0.2102 -1.5463
 3480SOL     OW21898   4.354   0.710   7.133 -0.4709 -0.1086  0.2545
 3480SOL    HW121899   4.427   0.695   7.192 -1.5258 -0.7201  1.4021
 3480SOL    HW221900   4.313   0.625   7.146  0.6655 -1.0627 -2.2954
 3481SOL     OW21901   3.968   4.065   6.309  0.9356  0.6578  0.0905
 3481SOL    HW121902   3.988   4.008   6.384  1.6962 -1.7151 -1.9092
 3481SOL    HW221903   3.977   4.153   6.345  0.5050  0.6577  0.1986
 3482SOL     OW21904   2.635   0.313   5.775 -0.1251 -0.3183  0.1419
 3482SOL    HW121905   2.547   0.309   5.736  0.5796  2.3667 -1.6798
 3482SOL    HW221906   2.694   0.309   5.700 -1.9258 -2.3146 -1.1728
 3483SOL     OW21907   1.112   2.700  13.961 -0.0602 -0.0524 -0.5107
 3483SOL    HW121908   1.097   2.638  13.890  0.4816 -2.7479  1.7593
 3483SOL    HW221909   1.156   2.774  13.918 -0.8897  0.4608 -0.4722
 3484SOL     OW21910   1.623   3.952   5.092 -0.3701  0.6485 -0.1592
 3484SOL    HW121911   1.530   3.973   5.095 -0.5350 -0.1391  0.3328
 3484SOL    HW221912   1.621   3.860   5.066  1.0239  0.7680 -0.7073
 3485SOL     OW21913   3.623   3.987   7.989 -0.2615 -0.0007 -0.3995
 3485SOL    HW121914   3.556   3.928   8.025  0.6836 -0.3927  0.7228
 3485SOL    HW221915   3.683   4.001   8.062 -0.6202 -0.8684  0.0552
 3486SOL     OW21916   1.861   4.404   0.382 -0.2595  0.7717 -0.0819
 3486SOL    HW121917   1.823   4.368   0.462  2.5719  0.2133  1.0348
 3486SOL    HW221918   1.928   4.338   0.363 -1.2780 -0.2005 -0.2970
 3487SOL     OW21919   3.687   3.412  10.781 -0.2256 -0.2585  0.0222
 3487SOL    HW121920   3.704   3.321  10.802 -1.4300 -0.6107 -0.5473
 3487SOL    HW221921   3.771   3.455  10.799 -0.7331  0.8652 -0.2402
 3488SOL     OW21922   1.436   1.279   0.183  0.1256  0.1514 -0.2369
 3488SOL    HW121923   1.437   1.191   0.147 -1.4833 -0.3308  0.9153
 3488SOL    HW221924   1.524   1.288   0.219  0.8544  0.0029 -1.9894
 3489SOL     OW21925   3.214   3.855   3.847  0.2195 -0.2632 -0.4316
 3489SOL    HW121926   3.285   3.861   3.911 -0.6139 -1.9517  0.6414
 3489SOL    HW221927   3.214   3.761   3.831  1.7051 -0.3157 -0.0958
 3490SOL     OW21928   1.022   3.216  16.540  0.5794  0.8155  0.4203
 3490SOL    HW121929   1.032   3.311  16.547  0.9193  0.8171 -0.0317
 3490SOL    HW221930   0.930   3.206  16.562  0.5825 -0.8848 -0.3021
 3491SOL     OW21931   1.672   3.786  15.998  0.0769 -0.8017  0.6986
 3491SOL    HW121932   1.719   3.868  15.984 -0.3559 -0.4096  1.5188
 3491SOL    HW221933   1.619   3.805  16.076  0.8238 -1.1707  1.3042
 3492SOL     OW21934   1.392   4.381   8.360  0.6414 -0.7932 -0.2193
 3492SOL    HW121935   1.372   4.345   8.446  2.5775 -1.1963  0.0547
 3492SOL    HW221936   1.479   4.344   8.345  0.7972 -0.4734 -0.1023
 3493SOL     OW21937   1.925   1.775   8.817  0.5050 -0.1141  0.4117
 3493SOL    HW121938   2.008   1.808   8.850  0.5872  0.4217 -0.3444
 3493SOL    HW221939   1.878   1.852   8.785 -0.8415 -0.4134  1.6718
 3494SOL     OW21940   2.101   3.570   6.706  0.0196  0.3768 -0.1884
 3494SOL    HW121941   2.052   3.651   6.719  0.9651  1.1087 -1.3376
 3494SOL    HW221942   2.184   3.590   6.749  0.1592  0.6095 -0.5763
 3495SOL     OW21943   2.524   3.437  17.486  0.1080 -0.0664  0.5252
 3495SOL    HW121944   2.611   3.407  17.460  0.4636  1.0895  0.3815
 3495SOL    HW221945   2.484   3.427  17.400  2.0882  0.7575 -0.5007
 3496SOL     OW21946   0.357   1.592  10.095 -0.5496  0.2710  0.6401
 3496SOL    HW121947   0.278   1.642  10.116 -1.0190 -0.7118  1.2155
 3496SOL    HW221948   0.389   1.638  10.018 -3.1738  0.3345 -0.4103
 3497SOL     OW21949   3.274   1.121   7.292  0.5164 -0.5146  0.3298
 3497SOL    HW121950   3.357   1.151   7.254  0.6853 -1.4621 -0.0453
 3497SOL    HW221951   3.205   1.184   7.271  1.0036 -0.0905 -0.0053
 3498SOL     OW21952   0.746   3.998   7.595 -0.2184 -0.0704 -0.1483
 3498SOL    HW121953   0.692   4.076   7.603 -1.8385 -1.2140  0.0490
 3498SOL    HW221954   0.710   3.941   7.663 -1.3044  0.1745 -0.5116
 3499SOL     OW21955   4.220   0.601  10.535 -0.4456  0.3915 -0.5724
 3499SOL    HW121956   4.311   0.613  10.561 -0.6019  1.3794 -0.4557
 3499SOL    HW221957   4.217   0.510  10.506  0.3566  0.1379  0.1405
 3500SOL     OW21958   3.167   3.171   3.534  0.4226  0.5939 -0.1581
 3500SOL    HW121959   3.235   3.103   3.534  0.5647  0.7355 -0.0910
 3500SOL    HW221960   3.213   3.246   3.572 -0.8232  1.0713  0.3881
 3501SOL     OW21961   3.364   3.763  15.431  0.0726  0.3337 -0.0747
 3501SOL    HW121962   3.433   3.713  15.473 -0.3692  0.2467  0.5606
 3501SOL    HW221963   3.372   3.736  15.340 -0.3014  1.9440 -0.5841
 3502SOL     OW21964   1.284   2.442   2.744 -0.0348  0.1476  0.0384
 3502SOL    HW121965   1.189   2.451   2.731  0.1568 -0.7120 -2.0179
 3502SOL    HW221966   1.292   2.414   2.835  0.4077 -0.4128 -0.1757
 3503SOL     OW21967   1.136   2.296   2.484 -0.3646  0.3153  0.6458
 3503SOL    HW121968   1.220   2.282   2.528 -0.2153  2.1982  0.9563
 3503SOL    HW221969   1.137   2.216   2.432 -1.3622  1.4220 -1.1061
 3504SOL     OW21970   4.535   4.445   4.365 -0.3246 -0.6826  0.1395
 3504SOL    HW121971   4.549   4.472   4.456 -1.9350  1.3014 -0.2126
 3504SOL    HW221972   4.544   4.350   4.360 -0.4409 -0.8193  2.3651
 3505SOL     OW21973   4.337   4.654  15.137  0.2084 -0.3936  0.4465
 3505SOL    HW121974   4.401   4.658  15.066 -0.7499  2.3134 -0.2731
 3505SOL    HW221975   4.377   4.710  15.204 -1.4350  0.1413  0.9668
 3506SOL     OW21976   2.961   4.179   0.741 -0.0648  0.4404  0.7574
 3506SOL    HW121977   2.925   4.266   0.720  0.2588  0.9020  2.1192
 3506SOL    HW221978   3.045   4.202   0.701  0.4277 -1.0531  0.9354
 3507SOL     OW21979   2.130   0.379   2.824 -0.4191  0.2775 -0.5683
 3507SOL    HW121980   2.184   0.324   2.881 -1.5245 -0.6604 -0.4117
 3507SOL    HW221981   2.087   0.312   2.770 -0.0054 -0.2784 -0.2118
 3508SOL     OW21982   4.707   0.186   7.562  0.0553 -0.3078 -0.1859
 3508SOL    HW121983   0.031   0.099   7.564  2.8581  1.0043 -1.0434
 3508SOL    HW221984   4.633   0.178   7.621  1.6597 -1.2081  1.7208
 3509SOL     OW21985   2.724   2.084   8.346 -0.1417 -0.2052  0.1512
 3509SOL    HW121986   2.686   2.037   8.272 -1.4579 -0.3306  0.9138
 3509SOL    HW221987   2.649   2.131   8.382 -0.6968  1.2612 -2.8837
 3510SOL     OW21988   3.274   4.453   7.763  0.3460 -0.0845 -0.4483
 3510SOL    HW121989   3.269   4.382   7.828 -0.8462 -0.3288 -0.7928
 3510SOL    HW221990   3.184   4.485   7.769  1.0096  1.2263  2.3872
 3511SOL     OW21991   1.168   2.952   7.371 -0.2408  0.0116  0.3454
 3511SOL    HW121992   1.106   2.898   7.322  0.2959 -0.6992  0.4512
 3511SOL    HW221993   1.250   2.921   7.333 -0.6056 -0.7852  0.2016
 3512SOL     OW21994   0.342   2.139   8.166 -0.4114  0.9671 -0.0176
 3512SOL    HW121995   0.414   2.152   8.228 -1.0676 -0.0374  0.9585
 3512SOL    HW221996   0.334   2.044   8.157  0.4890  0.9596 -0.7606
 3513SOL     OW21997   0.407   2.731   5.007 -0.0841 -0.6674 -0.0317
 3513SOL    HW121998   0.400   2.757   4.915 -1.1521 -0.7658  0.0226
 3513SOL    HW221999   0.487   2.679   4.997  0.8487  0.2266  2.7045
 3514SOL     OW22000   2.543   3.072   7.302 -0.2202 -0.3307  0.3953
 3514SOL    HW122001   2.544   3.082   7.397  2.7140  0.8562  0.2585
 3514SOL    HW222002   2.593   2.990   7.306  1.6521  0.8152  0.6659
 3515SOL     OW22003   0.938   2.194  13.270  0.0560 -0.3652 -0.3094
 3515SOL    HW122004   0.957   2.257  13.339  1.0724  1.3005 -2.1219
 3515SOL    HW222005   0.963   2.235  13.187  1.4438  1.1069  0.8474
 3516SOL     OW22006   1.219   3.019   5.287 -0.1978  0.0513  0.6397
 3516SOL    HW122007   1.224   3.110   5.259 -0.8515  0.1311  0.7766
 3516SOL    HW222008   1.309   2.990   5.272  0.4704  1.5911  1.7044
 3517SOL     OW22009   4.575   3.764  11.631  0.3649 -0.4055  0.2347
 3517SOL    HW122010   4.660   3.768  11.588 -0.4277  3.4703 -0.9814
 3517SOL    HW222011   4.590   3.720  11.715 -0.5963  0.3644  0.8113
 3518SOL     OW22012   2.885   2.942   7.795 -0.5365 -0.1118  0.0133
 3518SOL    HW122013   2.907   2.944   7.888 -0.8638 -0.8961  0.1103
 3518SOL    HW222014   2.946   2.876   7.761 -0.2292  1.0171 -1.6186
 3519SOL     OW22015   2.206   1.519   2.909  0.2010 -0.1160 -0.5751
 3519SOL    HW122016   2.209   1.607   2.946 -0.0466 -0.6930  0.8040
 3519SOL    HW222017   2.128   1.478   2.948  0.6740  0.9654  1.5150
 3520SOL     OW22018   0.465   2.262   2.691 -0.2139  0.2229 -0.5849
 3520SOL    HW122019   0.498   2.173   2.699  1.6406  1.0419  0.8483
 3520SOL    HW222020   0.452   2.271   2.597 -3.8720 -0.6903 -0.1915
 3521SOL     OW22021   2.290   2.248   1.296 -0.3834 -0.0207  0.3509
 3521SOL    HW122022   2.200   2.282   1.291 -0.3218  0.1711  0.5577
 3521SOL    HW222023   2.333   2.314   1.349  2.7718 -1.7757 -0.0435
 3522SOL     OW22024   4.068   2.253   1.398 -0.0602  0.5502 -0.6830
 3522SOL    HW122025   4.138   2.203   1.440 -1.3648  0.0528  0.9098
 3522SOL    HW222026   4.033   2.187   1.339 -1.0510  1.2452 -0.8674
 3523SOL     OW22027   1.051   0.094  16.358  0.4646  0.0383  0.6144
 3523SOL    HW122028   1.036   0.186  16.337 -0.0593  0.0751  1.1191
 3523SOL    HW222029   1.046   0.067  16.267  1.0451  1.0897  0.2664
 3524SOL     OW22030   1.005   3.007   2.482 -0.2696  0.0820 -0.1249
 3524SOL    HW122031   1.071   3.030   2.547  0.4804 -0.0058 -0.8431
 3524SOL    HW222032   0.976   2.928   2.526  0.0095  0.6726  1.1045
 3525SOL     OW22033   1.271   0.742  16.099 -0.0803 -0.0706  0.0227
 3525SOL    HW122034   1.241   0.717  16.012  1.6098 -0.3567 -0.4791
 3525SOL    HW222035   1.287   0.837  16.095 -1.1570  0.0786 -0.4633
 3526SOL     OW22036   1.624   2.215   5.698 -0.1345  0.0871 -0.0315
 3526SOL    HW122037   1.692   2.225   5.631  0.1700 -0.7156  0.1588
 3526SOL    HW222038   1.671   2.236   5.779 -0.0246  0.3535 -0.1653
 3527SOL     OW22039   1.132   1.927  15.824 -1.0000  0.1488 -1.0022
 3527SOL    HW122040   1.218   1.893  15.797  1.2529  3.3865  2.0651
 3527SOL    HW222041   1.070   1.870  15.780 -2.1186 -0.1626  1.0218
 3528SOL     OW22042   1.835   3.405   1.436 -0.2766 -0.5143  0.2942
 3528SOL    HW122043   1.760   3.461   1.416  0.6681  1.2965  1.8280
 3528SOL    HW222044   1.873   3.392   1.349  0.7926  0.2167  0.6522
 3529SOL     OW22045   0.694   0.803   6.207 -0.5479  0.0125 -0.9138
 3529SOL    HW122046   0.673   0.806   6.301 -0.4812 -0.9267 -0.8649
 3529SOL    HW222047   0.625   0.742   6.181 -2.5402  1.3894  1.0982
 3530SOL     OW22048   2.589   1.459   5.719  0.2185 -0.6734 -0.0539
 3530SOL    HW122049   2.666   1.457   5.775  1.1303  0.3706 -1.2476
 3530SOL    HW222050   2.528   1.512   5.770  0.0330 -0.1190 -0.8505
 3531SOL     OW22051   2.252   1.639  14.516 -0.0806 -0.1831  0.0532
 3531SOL    HW122052   2.347   1.626  14.507 -0.3566 -0.7495 -2.1911
 3531SOL    HW222053   2.234   1.550  14.545 -0.2214  0.3258  1.5289
 3532SOL     OW22054   4.401   3.851   6.299 -0.2417 -0.5449  0.1925
 3532SOL    HW122055   4.388   3.800   6.219 -0.8122  0.4623 -0.3597
 3532SOL    HW222056   4.410   3.941   6.267 -0.9456 -1.1310 -1.6149
 3533SOL     OW22057   0.604   0.765   9.195 -0.1217 -0.0296 -0.4159
 3533SOL    HW122058   0.651   0.744   9.276  0.0660 -0.2769 -0.5879
 3533SOL    HW222059   0.678   0.757   9.135  1.1261  1.2862  0.9510
 3534SOL     OW22060   0.706   0.410   2.935  0.4780  0.0719  0.1894
 3534SOL    HW122061   0.614   0.406   2.962  0.7007 -0.1570  0.9132
 3534SOL    HW222062   0.759   0.436   3.010  2.7164 -0.7201 -1.1338
 3535SOL     OW22063   1.834   2.168   2.067 -0.1386 -0.2563 -0.0805
 3535SOL    HW122064   1.772   2.151   1.996 -0.2072 -0.1187 -0.0550
 3535SOL    HW222065   1.861   2.081   2.095  0.6997  0.9876  2.9729
 3536SOL     OW22066   2.211   1.573   8.044  0.0486 -0.0796  0.2403
 3536SOL    HW122067   2.178   1.522   7.970  0.1994 -1.4521  1.1264
 3536SOL    HW222068   2.136   1.622   8.081  0.9193  1.2002  0.3030
 3537SOL     OW22069   4.706   2.978   7.180  0.2937  0.5211 -0.4246
 3537SOL    HW122070   0.053   3.049   7.184  0.7769  0.1372 -1.3802
 3537SOL    HW222071   0.035   2.909   7.133 -0.2211  0.1406 -0.3639
 3538SOL     OW22072   2.020   2.811   2.804 -0.0937  0.2722 -0.1478
 3538SOL    HW122073   1.994   2.767   2.723 -0.4069 -0.2950  0.2603
 3538SOL    HW222074   1.936   2.831   2.844  0.2404  0.9351  0.2133
 3539SOL     OW22075   1.446   4.349  13.892  0.2545 -0.1133 -0.5682
 3539SOL    HW122076   1.369   4.303  13.858 -0.4767  0.5297  0.2345
 3539SOL    HW222077   1.403   4.383  13.971 -0.8849 -2.3952 -0.1988
 3540SOL     OW22078   3.464   3.753   8.031  0.5323  0.0908  0.3755
 3540SOL    HW122079   3.547   3.732   8.074  0.4620  0.5620  0.7442
 3540SOL    HW222080   3.423   3.793   8.107  0.5533 -0.5099  0.7027
 3541SOL     OW22081   3.703   4.140  10.933 -0.0669 -0.5279 -0.3339
 3541SOL    HW122082   3.693   4.235  10.939  2.4854 -0.2754  0.2222
 3541SOL    HW222083   3.612   4.115  10.919 -0.5784  1.1433  0.0110
 3542SOL     OW22084   2.012   1.213   1.619  0.0298 -0.2159 -0.4715
 3542SOL    HW122085   1.994   1.203   1.525 -1.0352 -1.8678 -0.0948
 3542SOL    HW222086   2.086   1.155   1.636  1.2286  0.6166 -2.7854
 3543SOL     OW22087   4.094   3.577   5.742 -0.2241  0.1301 -0.2948
 3543SOL    HW122088   4.177   3.535   5.766 -1.4353 -1.7541  0.6197
 3543SOL    HW222089   4.039   3.501   5.726  1.2038 -1.1821  0.9675
 3544SOL     OW22090   3.419   0.463   5.317 -0.2224  0.2057  0.0810
 3544SOL    HW122091   3.397   0.460   5.224  0.9983  1.1647 -0.2430
 3544SOL    HW222092   3.514   0.468   5.306 -0.1157 -0.8007  0.5020
 3545SOL     OW22093   2.239   1.971   7.144  0.4139  0.1684  0.1254
 3545SOL    HW122094   2.324   1.934   7.166 -0.0323 -0.7489  0.2938
 3545SOL    HW222095   2.249   2.059   7.182 -0.5270 -0.1550  1.1241
 3546SOL     OW22096   1.603   3.811   7.434  0.5147  0.0377  0.0323
 3546SOL    HW122097   1.520   3.858   7.424  1.3789  1.2386 -1.5027
 3546SOL    HW222098   1.564   3.736   7.479  0.5027 -0.3466 -0.6236
 3547SOL     OW22099   3.391   0.831   3.955 -0.0471  0.2513 -0.1183
 3547SOL    HW122100   3.464   0.865   4.006 -0.3647  1.8067 -0.7016
 3547SOL    HW222101   3.428   0.760   3.903 -3.1524  0.0691 -2.0404
 3548SOL     OW22102   1.200   2.326   0.884  0.2675 -0.1535 -0.3253
 3548SOL    HW122103   1.288   2.332   0.920  0.7568  0.5352 -1.6445
 3548SOL    HW222104   1.218   2.258   0.819 -0.8561 -0.0089 -0.7875
 3549SOL     OW22105   3.771   0.531   6.676  0.2586  0.3461 -0.1302
 3549SOL    HW122106   3.852   0.492   6.709  0.3049 -0.6906 -1.4984
 3549SOL    HW222107   3.810   0.593   6.615 -1.4383  1.0409 -0.5007
 3550SOL     OW22108   0.305   2.617  16.487  0.6411 -0.2263  0.2410
 3550SOL    HW122109   0.389   2.654  16.460 -0.3752  1.7152 -0.2434
 3550SOL    HW222110   0.276   2.679  16.554 -1.6874  0.6022 -1.5443
 3551SOL     OW22111   3.800   2.653   9.378 -0.3177  0.5173 -0.1156
 3551SOL    HW122112   3.732   2.600   9.420 -1.2470  1.2800 -0.6495
 3551SOL    HW222113   3.878   2.602   9.402 -0.4004  0.3201 -0.2602
 3552SOL     OW22114   0.234   0.911   1.807  0.5823  0.0325 -0.5139
 3552SOL    HW122115   0.225   0.897   1.901 -0.5467  0.2767 -0.5868
 3552SOL    HW222116   0.299   0.843   1.789  0.4608 -0.7606  2.0426
 3553SOL     OW22117   2.744   3.196   6.096 -0.3424  0.1660 -0.2553
 3553SOL    HW122118   2.674   3.256   6.071 -3.3490 -2.2564  2.5084
 3553SOL    HW222119   2.718   3.117   6.049  1.2579 -0.8285  0.5050
 3554SOL     OW22120   3.045   3.782   4.894  0.0812  0.3769  0.2201
 3554SOL    HW122121   3.018   3.870   4.867 -3.1781 -0.4519  0.7524
 3554SOL    HW222122   2.971   3.725   4.874 -0.4401  0.9015  0.6729
 3555SOL     OW22123   1.381   4.122   7.641 -0.2717 -0.1717 -0.4699
 3555SOL    HW122124   1.400   4.058   7.573 -0.6806 -1.3868  0.5730
 3555SOL    HW222125   1.438   4.193   7.613 -2.7533  1.7885 -0.5797
 3556SOL     OW22126   0.846   2.010   4.374  0.4783  0.5026  0.0141
 3556SOL    HW122127   0.802   2.069   4.313  2.6672  1.4061 -0.6866
 3556SOL    HW222128   0.921   1.971   4.327  0.1353  1.0512 -1.0023
 3557SOL     OW22129   3.773   2.385  16.783  0.3190  0.2232 -0.5048
 3557SOL    HW122130   3.754   2.369  16.876 -1.2704  1.4810 -0.6069
 3557SOL    HW222131   3.776   2.298  16.744  0.3248 -0.4535  1.0112
 3558SOL     OW22132   1.393   2.937   2.590 -0.3352  0.0762 -0.0676
 3558SOL    HW122133   1.403   3.026   2.555 -0.3904 -0.0297 -0.3541
 3558SOL    HW222134   1.486   2.919   2.606 -0.3451 -1.1412 -1.3678
 3559SOL     OW22135   4.162   1.707  14.205 -0.8458 -0.0455 -0.6471
 3559SOL    HW122136   4.181   1.727  14.113 -0.8590  0.0386 -0.6318
 3559SOL    HW222137   4.108   1.629  14.198  0.0679 -0.6477 -1.0718
 3560SOL     OW22138   4.062   3.892  11.641  0.3187  0.4350 -0.6273
 3560SOL    HW122139   4.077   3.968  11.698 -2.0511 -0.2111  0.8400
 3560SOL    HW222140   3.996   3.913  11.575  0.7789  0.6927 -1.0082
 3561SOL     OW22141   0.297   2.261   4.861  0.0806  0.0072 -0.6224
 3561SOL    HW122142   0.347   2.237   4.783 -0.9720 -0.1309 -1.2491
 3561SOL    HW222143   0.295   2.351   4.827  0.1163  0.1251 -0.3129
 3562SOL     OW22144   1.933   0.501   9.344 -0.2380 -0.4167 -0.5465
 3562SOL    HW122145   1.929   0.509   9.439 -0.8938 -0.8858 -0.5338
 3562SOL    HW222146   1.921   0.588   9.307 -0.2661 -0.9152 -1.7211
 3563SOL     OW22147   2.565   0.262   2.067 -0.3949 -0.7539  0.1216
 3563SOL    HW122148   2.486   0.277   2.015  0.5165  0.3823 -0.9290
 3563SOL    HW222149   2.627   0.332   2.047 -3.7305  1.7135 -1.5157
 3564SOL     OW22150   0.534   4.344  14.868 -0.0597 -0.3486 -0.0972
 3564SOL    HW122151   0.603   4.396  14.910 -1.2106  1.6072 -0.6041
 3564SOL    HW222152   0.577   4.337  14.783 -0.3481 -1.5314 -0.1437
 3565SOL     OW22153   4.370   4.093   4.770  0.5347  0.4572  0.4141
 3565SOL    HW122154   4.399   4.139   4.848 -1.0045  1.1574  0.5756
 3565SOL    HW222155   4.440   4.130   4.716 -0.0955 -0.5157 -1.0868
 3566SOL     OW22156   3.564   3.425   2.118  0.4151 -0.2183 -0.1273
 3566SOL    HW122157   3.502   3.412   2.190  0.9001 -1.4432  0.0651
 3566SOL    HW222158   3.628   3.356   2.135  1.5183  1.0719  0.9174
 3567SOL     OW22159   4.625   4.443   3.455  0.6207  0.2408  0.1973
 3567SOL    HW122160   4.607   4.398   3.373 -1.0198  2.3747 -0.6210
 3567SOL    HW222161   4.713   4.467   3.425 -0.3479  2.1270 -1.1166
 3568SOL     OW22162   0.133   0.826   2.963 -0.0379  0.1106  0.5428
 3568SOL    HW122163   0.098   0.914   2.952 -0.0608 -0.2058 -1.7817
 3568SOL    HW222164   0.211   0.837   3.017 -0.8133 -1.5798  2.0247
 3569SOL     OW22165   3.117   2.298   7.070  0.1781 -0.0884  0.3347
 3569SOL    HW122166   3.111   2.274   6.978  1.0185  1.9445 -0.2429
 3569SOL    HW222167   3.025   2.303   7.095 -0.3416 -3.0823 -0.9527
 3570SOL     OW22168   0.120   3.233   7.222  0.0230 -0.1881  0.1719
 3570SOL    HW122169   0.145   3.218   7.131 -2.0933 -1.5936 -0.1916
 3570SOL    HW222170   0.088   3.323   7.225  2.3548  0.6893 -1.1353
 3571SOL     OW22171   3.263   2.313   8.238  0.3553 -0.3384  0.0289
 3571SOL    HW122172   3.298   2.394   8.201 -2.0976  0.3794 -0.7361
 3571SOL    HW222173   3.241   2.261   8.160  0.1499 -0.5514  0.2264
 3572SOL     OW22174   1.404   2.113   5.477 -0.1871 -0.9808 -0.2814
 3572SOL    HW122175   1.482   2.059   5.489  0.6235  0.4642  0.9396
 3572SOL    HW222176   1.355   2.068   5.408 -0.1347 -0.2472 -0.7973
 3573SOL     OW22177   4.271   2.340   5.499  0.6408  0.2289  0.3479
 3573SOL    HW122178   4.267   2.412   5.436 -4.5034  0.7614  1.3365
 3573SOL    HW222179   4.362   2.347   5.529 -0.0278 -0.6471  2.5634
 3574SOL     OW22180   4.505   4.363   0.950  0.2268  0.0732 -0.5680
 3574SOL    HW122181   4.593   4.399   0.958 -0.0854  0.1010  2.7629
 3574SOL    HW222182   4.520   4.275   0.984 -2.1729 -0.5930 -1.1977
 3575SOL     OW22183   0.925   2.611   9.207 -0.4114  0.5641  0.0898
 3575SOL    HW122184   0.927   2.581   9.298 -0.3273 -2.4048 -0.8903
 3575SOL    HW222185   1.000   2.671   9.207 -0.7530  1.0095  1.5177
 3576SOL     OW22186   3.981   0.770  14.757 -0.2182  0.2220  0.3260
 3576SOL    HW122187   4.053   0.793  14.817  0.2952  1.5917 -0.8216
 3576SOL    HW222188   3.910   0.824  14.792 -0.3284 -0.6300  1.4316
 3577SOL     OW22189   0.999   3.334   6.654 -0.9795 -0.4172 -0.4411
 3577SOL    HW122190   1.030   3.376   6.735 -0.0302  1.1670 -1.6230
 3577SOL    HW222191   1.019   3.409   6.598 -1.3751  1.2133  1.5976
 3578SOL     OW22192   2.110   2.233   9.230 -0.3948  0.2517  0.0278
 3578SOL    HW122193   2.091   2.294   9.301 -1.4001 -1.2271  1.0515
 3578SOL    HW222194   2.049   2.163   9.255 -0.1421  1.4516  4.0387
 3579SOL     OW22195   1.144   3.502   5.552  0.5566 -0.5239  0.1888
 3579SOL    HW122196   1.127   3.594   5.532  1.0168 -0.4767  0.0079
 3579SOL    HW222197   1.089   3.462   5.485 -0.0036 -0.4554  0.6090
 3580SOL     OW22198   3.484   3.355  11.610 -0.1722 -0.4005  0.2763
 3580SOL    HW122199   3.557   3.310  11.567 -2.3073 -3.1423 -0.4609
 3580SOL    HW222200   3.439   3.283  11.655 -2.0472  0.4873 -0.1858
 3581SOL     OW22201   1.650   1.708   9.332  0.5132 -0.0511 -0.0410
 3581SOL    HW122202   1.624   1.746   9.416  0.2388 -0.3078 -0.0084
 3581SOL    HW222203   1.592   1.757   9.273  0.9036 -3.3451 -3.1357
 3582SOL     OW22204   2.250   3.670   7.976  0.2163  0.3124 -0.4602
 3582SOL    HW122205   2.199   3.639   7.901 -1.3097  0.5888  0.4658
 3582SOL    HW222206   2.341   3.646   7.958 -0.3338 -1.0115 -1.5179
 3583SOL     OW22207   1.489   1.028   6.336  0.1403  0.2475  0.2794
 3583SOL    HW122208   1.504   0.938   6.308  0.5911  0.7201 -1.0172
 3583SOL    HW222209   1.407   1.042   6.288  1.4710  1.7078 -1.5811
 3584SOL     OW22210   0.583   3.111   7.366 -0.1114  0.5778  0.0276
 3584SOL    HW122211   0.615   3.127   7.277  0.2538  0.9900  0.2309
 3584SOL    HW222212   0.528   3.038   7.339  0.1838 -0.5222  2.4515
 3585SOL     OW22213   3.775   2.976  13.552  0.0257 -0.0756  0.3897
 3585SOL    HW122214   3.780   2.930  13.469 -0.1386 -2.0804  1.4915
 3585SOL    HW222215   3.714   2.923  13.603  0.2060 -1.2772 -0.6590
 3586SOL     OW22216   4.219   2.626  11.683 -0.1843  0.3490 -0.1518
 3586SOL    HW122217   4.193   2.631  11.775  0.5184  0.5422  0.0354
 3586SOL    HW222218   4.311   2.647  11.697  0.8186 -2.2796 -2.7777
 3587SOL     OW22219   0.290   2.619   5.247  0.0202  0.3931 -0.0433
 3587SOL    HW122220   0.325   2.668   5.173 -2.3617  0.3659 -1.1813
 3587SOL    HW222221   0.254   2.686   5.306  0.5846 -0.8167  1.6643
 3588SOL     OW22222   1.817   3.373  11.165  0.0398  0.1504 -0.2542
 3588SOL    HW122223   1.798   3.411  11.250  0.9912 -0.7855  0.3750
 3588SOL    HW222224   1.849   3.452  11.121  0.7486  0.7826  1.4211
 3589SOL     OW22225   4.507   1.542   1.272  0.3334  0.9655  0.3737
 3589SOL    HW122226   4.491   1.620   1.219  1.3197 -0.3265 -1.8042
 3589SOL    HW222227   4.571   1.499   1.216  0.2624  0.8127  0.4102
 3590SOL     OW22228   2.630   3.399   5.568 -0.1806 -0.0952 -0.0475
 3590SOL    HW122229   2.637   3.492   5.588  0.8438 -0.6648  2.2722
 3590SOL    HW222230   2.701   3.392   5.505 -0.7579  1.1968 -0.8384
 3591SOL     OW22231   4.406   4.488  17.424 -0.0395 -0.0964  0.2435
 3591SOL    HW122232   4.372   4.429  17.491 -0.8613 -0.0064 -0.0994
 3591SOL    HW222233   4.479   4.524  17.474  0.7601 -1.3091 -0.0473
 3592SOL     OW22234   2.527   3.307   8.431  0.2080  0.6118 -0.1571
 3592SOL    HW122235   2.483   3.249   8.493  0.5047 -2.0075 -2.3972
 3592SOL    HW222236   2.607   3.334   8.476  0.9377 -0.0666 -1.0495
 3593SOL     OW22237   4.023   1.123   7.318  0.1173  0.1534 -0.0712
 3593SOL    HW122238   4.092   1.061   7.343 -0.1706 -0.3803 -0.6099
 3593SOL    HW222239   4.014   1.112   7.223 -0.0657  0.3782 -0.0808
 3594SOL     OW22240   4.396   2.105   6.205 -0.2815  0.1751  0.7785
 3594SOL    HW122241   4.431   2.132   6.120 -1.5072 -0.9878 -0.1008
 3594SOL    HW222242   4.438   2.159   6.272  1.8244 -0.9784  0.3751
 3595SOL     OW22243   0.479   1.922   2.870  0.3303 -0.5105 -0.6401
 3595SOL    HW122244   0.517   1.963   2.792  1.2601 -0.3403 -0.1093
 3595SOL    HW222245   0.511   1.832   2.856 -0.6620 -1.3023  2.1697
 3596SOL     OW22246   0.466   2.988   7.795  0.3426  0.0115  0.4235
 3596SOL    HW122247   0.514   2.937   7.729 -1.3895 -1.0263 -0.0693
 3596SOL    HW222248   0.504   2.955   7.876 -2.5288 -2.7320  0.6683
 3597SOL     OW22249   2.778   2.161   9.307  0.6174 -0.4774  0.3138
 3597SOL    HW122250   2.863   2.126   9.280 -0.0388 -1.1872 -0.8240
 3597SOL    HW222251   2.749   2.112   9.383 -0.8468  1.3511  0.9483
 3598SOL     OW22252   1.103   1.340  16.768 -0.8760  0.6521  0.0885
 3598SOL    HW122253   1.059   1.263  16.804  0.9816 -1.0461 -1.2831
 3598SOL    HW222254   1.048   1.367  16.695 -2.1462 -2.3336 -0.0693
 3599SOL     OW22255   3.757   2.702   9.767 -0.0150  0.9892 -0.3849
 3599SOL    HW122256   3.850   2.681   9.760 -0.4390 -1.1616  0.4487
 3599SOL    HW222257   3.715   2.617   9.774  0.5195  0.6191 -1.7219
 3600SOL     OW22258   2.608   1.963   7.476 -0.0638  0.4129 -0.0447
 3600SOL    HW122259   2.531   1.933   7.523 -0.9075  2.4614 -0.1160
 3600SOL    HW222260   2.629   2.036   7.534 -0.4178 -0.4478  1.1627
 3601SOL     OW22261   0.051   0.871   7.722 -0.3650 -0.5029 -0.0367
 3601SOL    HW122262   0.046   0.789   7.673 -0.1892 -0.4048 -0.2159
 3601SOL    HW222263   0.064   0.935   7.652 -0.6231 -0.9462 -0.4966
 3602SOL     OW22264   3.695   1.312   4.934 -0.4510 -0.7105 -0.0146
 3602SOL    HW122265   3.780   1.350   4.958  0.1005 -1.0575 -1.4220
 3602SOL    HW222266   3.700   1.233   4.989  1.5509 -0.5395  0.0652
 3603SOL     OW22267   4.525   0.575   5.992 -0.2457 -0.4536  0.4054
 3603SOL    HW122268   4.500   0.488   5.961  0.5803  0.5514 -3.0121
 3603SOL    HW222269   4.443   0.602   6.032 -0.2140  0.5650 -0.2194
 3604SOL     OW22270   3.536   1.765   6.105 -0.1892 -0.7209  0.0954
 3604SOL    HW122271   3.568   1.795   6.190  1.0408  0.3363 -0.7559
 3604SOL    HW222272   3.567   1.675   6.094 -0.0531 -0.9435  2.3539
 3605SOL     OW22273   2.240   0.991   0.421 -0.1815 -0.3990 -0.1112
 3605SOL    HW122274   2.270   1.022   0.507 -1.6288  4.3494 -1.3457
 3605SOL    HW222275   2.323   0.983   0.374 -0.6195 -1.6209 -0.6900
 3606SOL     OW22276   2.279   1.100   7.753  0.6296 -0.4088  0.1122
 3606SOL    HW122277   2.374   1.104   7.757  0.6415 -0.3989 -0.1752
 3606SOL    HW222278   2.258   1.072   7.842 -0.2256 -0.4027 -0.0890
 3607SOL     OW22279   0.524   1.928  10.601  0.4175  0.1421 -0.0134
 3607SOL    HW122280   0.444   1.971  10.573 -0.4050 -1.8972 -0.8383
 3607SOL    HW222281   0.540   1.983  10.677 -1.3313  2.5511 -1.4321
 3608SOL     OW22282   1.166   0.096   9.162 -0.2313  0.3542 -0.0442
 3608SOL    HW122283   1.214   0.168   9.203  1.2927 -0.7525  0.0714
 3608SOL    HW222284   1.168   0.041   9.240  1.6072 -1.0434 -1.0949
 3609SOL     OW22285   0.763   0.693   9.404 -0.1873  0.0031  0.3093
 3609SOL    HW122286   0.831   0.733   9.458 -1.1539  1.2295  0.6002
 3609SOL    HW222287   0.812   0.612   9.390  1.8403  1.1543  0.7924
 3610SOL     OW22288   0.045   0.524  13.866  0.2936  0.5832 -0.1992
 3610SOL    HW122289   0.131   0.485  13.881  0.2962 -0.3002 -2.5390
 3610SOL    HW222290   0.047   0.501  13.773 -2.0386 -0.7067  0.0643
 3611SOL     OW22291   4.027   1.965  13.845 -0.4223 -0.1181  0.2443
 3611SOL    HW122292   4.088   1.900  13.881 -0.1821 -0.8410 -1.4610
 3611SOL    HW222293   3.949   1.909  13.840 -1.0716  0.8892 -0.9736
 3612SOL     OW22294   4.237   2.704  11.959  0.1682  0.5566  0.3364
 3612SOL    HW122295   4.289   2.685  12.037  1.3133 -3.1141 -1.3611
 3612SOL    HW222296   4.149   2.704  11.997  0.1829  0.0489  0.3617
 3613SOL     OW22297   1.452   2.401  14.614 -0.0175  0.4378  0.0605
 3613SOL    HW122298   1.521   2.343  14.583 -0.8180  0.5841 -2.0139
 3613SOL    HW222299   1.395   2.408  14.537  2.6895 -0.6057 -2.0182
 3614SOL     OW22300   2.571   4.481   0.585 -0.2862  0.4409 -0.1422
 3614SOL    HW122301   2.505   4.527   0.533  0.0218 -1.5161 -2.2938
 3614SOL    HW222302   2.510   4.446   0.650  1.0920  0.2476  1.0306
 3615SOL     OW22303   3.000   3.365   1.221  0.0852  0.6263 -0.0687
 3615SOL    HW122304   3.024   3.396   1.134 -1.7335 -0.0626 -0.8256
 3615SOL    HW222305   2.905   3.356   1.210  0.6506  2.0852 -6.0306
 3616SOL     OW22306   0.373   2.522   2.299 -0.0189 -0.2916  0.3663
 3616SOL    HW122307   0.322   2.602   2.309 -2.4128 -2.0197  2.2566
 3616SOL    HW222308   0.344   2.488   2.214 -0.4662 -0.9830  0.7912
 3617SOL     OW22309   0.323   4.559   2.808 -0.7933  0.4099 -0.6280
 3617SOL    HW122310   0.259   4.489   2.814  1.7387 -2.0318 -1.9924
 3617SOL    HW222311   0.378   4.540   2.885  0.8885  0.7796 -1.7263
 3618SOL     OW22312   3.231   2.375   4.506 -0.8099  0.3003 -0.3551
 3618SOL    HW122313   3.237   2.354   4.413  1.7953 -0.6773  0.0170
 3618SOL    HW222314   3.153   2.329   4.537 -2.5862  4.1425  0.8669
 3619SOL     OW22315   1.629   1.220   0.754 -0.2969  0.4170 -0.4619
 3619SOL    HW122316   1.721   1.245   0.768 -0.1373 -0.3622 -0.1311
 3619SOL    HW222317   1.644   1.128   0.735  3.4300  0.6643  1.1771
 3620SOL     OW22318   4.096   0.312   3.774  0.0357  0.9586 -0.4012
 3620SOL    HW122319   4.014   0.322   3.726 -0.6707 -2.0841  0.1239
 3620SOL    HW222320   4.140   0.397   3.770  1.2630  0.3333 -0.4395
 3621SOL     OW22321   0.206   1.686   2.509 -0.4755 -0.2282  0.2824
 3621SOL    HW122322   0.182   1.743   2.436  0.6557  0.8006  0.7120
 3621SOL    HW222323   0.285   1.726   2.546 -0.3375  0.0418 -0.2915
 3622SOL     OW22324   1.807   1.801   2.750 -0.0773 -0.9116 -0.7348
 3622SOL    HW122325   1.796   1.707   2.736  0.9764 -1.0854 -0.4269
 3622SOL    HW222326   1.895   1.802   2.789  0.4410 -1.3054 -1.8750
 3623SOL     OW22327   4.304   3.581   5.403 -0.9049 -0.2857 -0.4559
 3623SOL    HW122328   4.227   3.525   5.398 -0.7484 -0.6586  1.1463
 3623SOL    HW222329   4.351   3.550   5.481 -1.4606  0.5827  0.2281
 3624SOL     OW22330   3.184   1.501   4.249 -0.4738  0.6532  0.0771
 3624SOL    HW122331   3.158   1.418   4.288  4.2594  0.4098  2.6932
 3624SOL    HW222332   3.103   1.551   4.244  0.2927  1.7934 -0.9036
 3625SOL     OW22333   2.550   2.456   7.739  0.4310  0.2930 -0.5012
 3625SOL    HW122334   2.601   2.491   7.811 -1.0928  1.0472  0.2167
 3625SOL    HW222335   2.574   2.363   7.736  0.0794  0.1880 -0.0795
 3626SOL     OW22336   3.363   2.458   6.351  0.1250  0.5517  0.6970
 3626SOL    HW122337   3.310   2.420   6.421 -0.1375 -1.7225 -0.7622
 3626SOL    HW222338   3.300   2.518   6.309  0.9203 -0.1343 -1.4274
 3627SOL     OW22339   3.008   2.858   0.207  0.5289 -0.1601  0.1325
 3627SOL    HW122340   3.017   2.899   0.293 -2.4971  1.5936 -0.4121
 3627SOL    HW222341   3.016   2.768   0.240  1.3561  0.1653  0.8070
 3628SOL     OW22342   2.742   2.795   1.769  0.2454 -0.0385 -0.5663
 3628SOL    HW122343   2.816   2.802   1.830 -0.0996 -0.2130 -0.1300
 3628SOL    HW222344   2.681   2.860   1.804 -0.5389 -1.0065 -0.1607
 3629SOL     OW22345   2.513   0.318   9.188 -0.2837 -0.4681  0.4681
 3629SOL    HW122346   2.490   0.329   9.280 -1.3551 -0.4084  0.1997
 3629SOL    HW222347   2.598   0.279   9.207  0.3043  1.6603  2.1646
 3630SOL     OW22348   1.191   2.762  15.634  0.0465 -0.3204  0.6222
 3630SOL    HW122349   1.274   2.769  15.586 -0.3868 -0.0576 -0.1062
 3630SOL    HW222350   1.221   2.821  15.702 -0.6624 -0.7050  1.2615
 3631SOL     OW22351   1.796   2.737   4.204 -0.1835  0.1451  0.6511
 3631SOL    HW122352   1.708   2.770   4.219 -0.6809 -1.1266  0.5535
 3631SOL    HW222353   1.788   2.660   4.259  1.5728  0.8916  1.9383
 3632SOL     OW22354   0.087   2.670   5.782 -0.2722 -0.0274 -0.2959
 3632SOL    HW122355   0.097   2.630   5.695 -0.6939  0.8046 -0.7258
 3632SOL    HW222356   0.058   2.757   5.755  1.9839  0.8157  0.0038
 3633SOL     OW22357   0.325   0.163   5.758 -0.0515  0.2310  0.8992
 3633SOL    HW122358   0.330   0.071   5.731  2.6204  0.6092  0.1364
 3633SOL    HW222359   0.230   0.176   5.758 -0.1433 -0.3833 -1.4359
 3634SOL     OW22360   4.237   3.691   1.980  0.4273  0.5518  0.0853
 3634SOL    HW122361   4.150   3.700   1.942 -0.1020 -1.4030  0.8526
 3634SOL    HW222362   4.215   3.682   2.072  0.3549  2.1438  0.2258
 3635SOL     OW22363   2.283   3.345   9.573  0.3709 -0.8905  0.5865
 3635SOL    HW122364   2.241   3.384   9.649  0.4391  0.2725  0.0258
 3635SOL    HW222365   2.313   3.418   9.520  0.3732 -1.7829 -0.6460
 3636SOL     OW22366   4.173   2.698   6.409 -0.3086  0.1049 -0.2429
 3636SOL    HW122367   4.082   2.727   6.421 -0.6250 -0.4920 -1.2821
 3636SOL    HW222368   4.194   2.647   6.487 -1.0069 -0.3765 -0.3627
 3637SOL     OW22369   1.332   4.597   2.281  0.0621 -0.2623  0.0164
 3637SOL    HW122370   1.329   4.512   2.324  0.2749  1.3459  3.1810
 3637SOL    HW222371   1.405   4.590   2.219  1.0981  0.4724  1.1573
 3638SOL     OW22372   2.770   0.873   3.901 -0.2670 -0.7378 -0.3894
 3638SOL    HW122373   2.801   0.954   3.861  1.4845 -1.6352 -0.8627
 3638SOL    HW222374   2.775   0.816   3.824 -0.5052  0.3873 -1.2397
 3639SOL     OW22375   3.740   4.001   2.931 -0.8652  0.5350 -0.0481
 3639SOL    HW122376   3.661   4.032   2.976 -1.3923  1.2460 -1.4655
 3639SOL    HW222377   3.810   4.036   2.986 -0.1153 -0.1752 -0.5699
 3640SOL     OW22378   3.819   3.318   7.243 -0.4735 -0.1800  0.2434
 3640SOL    HW122379   3.771   3.248   7.287  0.4938  0.3629  2.1546
 3640SOL    HW222380   3.850   3.270   7.165 -1.2007  1.3535 -0.9837
 3641SOL     OW22381   1.388   0.090   4.826 -0.1960  0.3173 -0.4057
 3641SOL    HW122382   1.307   0.050   4.859  0.1632  1.5628  2.0417
 3641SOL    HW222383   1.420   0.008   4.790 -0.7350  1.0346 -2.4890
 3642SOL     OW22384   3.275   4.132   6.676 -0.4124  0.1250 -0.3278
 3642SOL    HW122385   3.231   4.050   6.652  0.7740  0.0915 -2.3582
 3642SOL    HW222386   3.202   4.194   6.671 -0.1365  0.4942  0.2211
 3643SOL     OW22387   2.278   3.479   3.216 -0.1633 -0.2191  0.3453
 3643SOL    HW122388   2.294   3.404   3.159  1.3998 -0.3032  0.8977
 3643SOL    HW222389   2.357   3.465   3.268 -0.8458 -1.4089  1.0609
 3644SOL     OW22390   1.122   1.344  17.088 -0.4170 -0.1202  0.1538
 3644SOL    HW122391   1.096   1.278  17.152  0.0526 -0.2765  0.1836
 3644SOL    HW222392   1.042   1.391  17.064 -0.9074 -1.5505 -1.0404
 3645SOL     OW22393   3.248   1.010   5.858  0.1206 -0.0582 -0.5193
 3645SOL    HW122394   3.332   0.990   5.900 -1.6984 -1.4184  2.4699
 3645SOL    HW222395   3.284   1.029   5.772 -0.8502  0.2092 -0.8597
 3646SOL     OW22396   3.105   3.945   7.523  0.3503  0.3878 -0.1204
 3646SOL    HW122397   3.044   3.983   7.460 -0.3404 -0.6530 -0.0758
 3646SOL    HW222398   3.188   3.951   7.476  0.6023  0.0412  0.2785
 3647SOL     OW22399   3.111   0.488   4.832  0.0519 -0.1944 -0.0323
 3647SOL    HW122400   3.197   0.506   4.795 -1.1334  1.0999 -2.1898
 3647SOL    HW222401   3.069   0.476   4.746 -0.7025  3.0112 -0.1484
 3648SOL     OW22402   1.441   1.915   5.865  0.1013 -0.2340  0.2212
 3648SOL    HW122403   1.389   1.884   5.790  0.6231 -1.3586  0.3341
 3648SOL    HW222404   1.394   1.997   5.881 -2.5230 -1.1098 -2.9965
 3649SOL     OW22405   4.035   2.573   8.129 -0.2763 -0.5582 -0.4970
 3649SOL    HW122406   3.996   2.549   8.213 -0.0754 -0.6214 -0.4208
 3649SOL    HW222407   3.968   2.635   8.102 -0.3836 -0.3613  0.2211
 3650SOL     OW22408   0.503   0.696  13.534  0.1868  0.6416 -0.4386
 3650SOL    HW122409   0.560   0.701  13.458  0.6510 -1.3547 -0.2435
 3650SOL    HW222410   0.562   0.676  13.607  1.0510  0.2857 -1.2313
 3651SOL     OW22411   4.553   4.207   8.917  0.9908 -0.1663  0.0031
 3651SOL    HW122412   4.617   4.230   8.984 -0.1228  0.7747  0.7435
 3651SOL    HW222413   4.472   4.248   8.947  0.0480 -1.4809 -0.7526
 3652SOL     OW22414   2.993   3.960   3.989 -0.1840 -0.1623 -0.1498
 3652SOL    HW122415   3.059   3.953   3.920  0.4638  0.3296  0.4259
 3652SOL    HW222416   3.050   4.003   4.052 -1.9399  1.5107  0.2911
 3653SOL     OW22417   2.406   0.126   7.459 -0.3577 -0.1872 -0.4642
 3653SOL    HW122418   2.311   0.129   7.458 -0.4161 -2.2287 -0.7480
 3653SOL    HW222419   2.427   0.052   7.402 -0.8014  0.0887 -0.9802
 3654SOL     OW22420   3.423   2.588   3.273 -0.0990  0.3016  0.1521
 3654SOL    HW122421   3.440   2.621   3.361 -0.0673  1.0798 -0.1520
 3654SOL    HW222422   3.381   2.665   3.234 -1.0382  0.7600  2.0560
 3655SOL     OW22423   4.673   1.234   2.709 -0.1593 -0.5263 -0.2398
 3655SOL    HW122424   0.030   1.267   2.658  0.0681 -1.6834 -0.6456
 3655SOL    HW222425   4.605   1.261   2.647 -0.9072 -1.6818  0.0796
 3656SOL     OW22426   0.543   3.686   9.720 -0.0783 -0.7591 -0.2591
 3656SOL    HW122427   0.610   3.629   9.681  0.9746  1.5531 -1.8006
 3656SOL    HW222428   0.557   3.764   9.667 -0.3201 -0.6313 -0.1300
 3657SOL     OW22429   4.217   4.363   2.857  0.6054 -0.4531  0.2839
 3657SOL    HW122430   4.146   4.321   2.906  0.1287  1.4597  1.2011
 3657SOL    HW222431   4.276   4.391   2.927  1.6511  0.9308 -1.1625
 3658SOL     OW22432   4.556   3.008   2.125  0.1884 -0.1045  0.4027
 3658SOL    HW122433   4.551   3.078   2.060 -0.2627 -0.3033  0.2200
 3658SOL    HW222434   4.467   3.024   2.156 -0.2242  0.5080 -1.0841
 3659SOL     OW22435   2.956   1.168   5.088  0.6118  0.3120  0.4402
 3659SOL    HW122436   2.890   1.226   5.126  0.7082 -0.4264  1.7528
 3659SOL    HW222437   2.909   1.153   5.005  0.3878  2.9672  0.0922
 3660SOL     OW22438   4.101   1.454   1.037 -0.0839 -0.7862  0.0153
 3660SOL    HW122439   4.184   1.444   0.990 -0.2561  2.2681 -0.9546
 3660SOL    HW222440   4.051   1.384   0.997 -0.1029 -1.1718  0.7082
 3661SOL     OW22441   2.269   3.876   4.073 -0.0785 -0.3435 -0.6289
 3661SOL    HW122442   2.192   3.823   4.051  1.0404 -2.6161  0.9573
 3661SOL    HW222443   2.339   3.816   4.051 -0.5807 -0.4297 -2.0000
 3662SOL     OW22444   2.611   3.770  12.070  0.3316  0.1468 -0.3188
 3662SOL    HW122445   2.642   3.843  12.017  3.6339 -0.4970  0.7191
 3662SOL    HW222446   2.521   3.797  12.090  0.3662 -1.4113  1.9924
 3663SOL     OW22447   3.028   0.474   0.178  0.4470  0.6123 -0.1506
 3663SOL    HW122448   3.001   0.510   0.094 -1.0970 -2.1867 -0.8455
 3663SOL    HW222449   2.988   0.545   0.228 -1.8669  0.2644 -1.5319
 3664SOL     OW22450   3.461   4.563   3.340 -0.4619  0.0497  0.0917
 3664SOL    HW122451   3.491   4.547   3.430 -2.1503 -1.2475  0.4503
 3664SOL    HW222452   3.543   4.560   3.292 -0.3405 -0.6220  0.3415
 3665SOL     OW22453   4.452   3.887  10.320 -0.5137 -0.6314 -0.7482
 3665SOL    HW122454   4.465   3.819  10.255  1.2622 -0.6121 -0.4137
 3665SOL    HW222455   4.522   3.857  10.377 -0.3278 -0.2658 -0.7811
 3666SOL     OW22456   2.143   4.274   2.808  0.0776 -0.0763 -0.2071
 3666SOL    HW122457   2.200   4.217   2.757 -1.3873 -0.6612 -1.1965
 3666SOL    HW222458   2.178   4.257   2.895 -0.3871  3.7814  0.7372
 3667SOL     OW22459   3.563   0.614   6.990  0.5203 -0.0643  0.5593
 3667SOL    HW122460   3.633   0.675   6.967  1.7249 -1.2697  1.0077
 3667SOL    HW222461   3.492   0.677   6.982  0.5031 -0.2336 -0.5852
 3668SOL     OW22462   4.701   0.876   6.578  0.3130 -0.2188  0.5459
 3668SOL    HW122463   0.055   0.834   6.626  0.4865  0.2407  0.6958
 3668SOL    HW222464   4.686   0.802   6.520 -0.3226  2.5292 -2.7905
 3669SOL     OW22465   0.004   0.258  11.006  0.4554  0.0587 -0.0813
 3669SOL    HW122466   4.632   0.225  10.996  0.6790 -0.3957 -0.5704
 3669SOL    HW222467   0.054   0.180  10.981 -0.3873 -0.8052  0.9140
 3670SOL     OW22468   1.055   0.106   5.763  0.4996  0.5919  0.2085
 3670SOL    HW122469   1.066   0.107   5.668  1.3256  0.7772  0.3023
 3670SOL    HW222470   1.087   0.194   5.783  1.0185  0.8513 -1.7397
 3671SOL     OW22471   4.185   2.011   5.884 -0.3570 -0.0291 -0.3086
 3671SOL    HW122472   4.277   2.022   5.861 -0.7067  0.7591 -1.3540
 3671SOL    HW222473   4.162   1.928   5.842 -2.3923 -0.1208  0.9800
 3672SOL     OW22474   3.277   3.299   7.842  0.1692 -0.0142  0.1489
 3672SOL    HW122475   3.354   3.349   7.870 -0.7250  1.9458 -0.9149
 3672SOL    HW222476   3.223   3.300   7.922  0.0261  2.5262  0.0306
 3673SOL     OW22477   1.437   2.393   0.261  0.6159 -0.3725  0.2445
 3673SOL    HW122478   1.511   2.351   0.305  1.2639 -0.0859 -0.5686
 3673SOL    HW222479   1.424   2.329   0.191 -0.9688 -0.6887  0.8142
 3674SOL     OW22480   0.440   0.258  11.725 -0.6753  0.5579  0.2069
 3674SOL    HW122481   0.456   0.333  11.783  0.6273 -0.2587  0.9167
 3674SOL    HW222482   0.532   0.233  11.715 -1.2061 -1.1556 -0.4283
 3675SOL     OW22483   2.175   0.827   9.402  0.1221 -0.4570  0.0104
 3675SOL    HW122484   2.081   0.819   9.421 -0.2082  1.4276 -0.7850
 3675SOL    HW222485   2.216   0.847   9.486  1.6771 -0.0906 -0.8389
 3676SOL     OW22486   1.112   0.030   6.876  0.3363 -0.5817  0.1351
 3676SOL    HW122487   1.094   4.697   6.798 -0.5867 -0.1579  0.0766
 3676SOL    HW222488   1.128   4.672   6.933 -1.3889 -0.0381  1.3481
 3677SOL     OW22489   2.130   1.379   1.407 -0.5375  0.0405 -0.4625
 3677SOL    HW122490   2.056   1.439   1.417 -0.0603  0.6767 -0.7553
 3677SOL    HW222491   2.167   1.390   1.495 -0.3632 -0.1583 -0.5093
 3678SOL     OW22492   1.411   1.753   4.308 -0.0214  0.1139 -0.4132
 3678SOL    HW122493   1.337   1.815   4.313 -0.1761 -0.1477  0.4778
 3678SOL    HW222494   1.443   1.763   4.398 -2.6878  1.0565  0.4657
 3679SOL     OW22495   1.684   1.906  13.650 -0.2809 -0.1545 -0.5366
 3679SOL    HW122496   1.626   1.886  13.723  1.2032  3.5601  1.6399
 3679SOL    HW222497   1.684   1.822  13.604  0.3622 -0.9817  0.9555
 3680SOL     OW22498   2.712   2.652   7.818 -0.0318 -0.1613 -0.3392
 3680SOL    HW122499   2.647   2.722   7.813  0.8429  0.8151  2.0727
 3680SOL    HW222500   2.773   2.696   7.878  0.8256 -3.0171  0.8584
 3681SOL     OW22501   3.329   2.425   7.189 -0.8769 -0.3546  0.5923
 3681SOL    HW122502   3.261   2.365   7.160  0.8640 -1.9317 -0.2508
 3681SOL    HW222503   3.330   2.495   7.123 -0.4600 -1.0028 -0.0905
 3682SOL     OW22504   2.853   2.769   6.589  0.5800  0.1575 -0.4528
 3682SOL    HW122505   2.854   2.831   6.662 -1.3039  1.1216 -1.2477
 3682SOL    HW222506   2.874   2.686   6.631  0.2728  0.5322  0.4368
 3683SOL     OW22507   1.616   2.593  14.283 -0.4740  0.4717 -0.2469
 3683SOL    HW122508   1.534   2.581  14.233 -0.6801  0.8724 -0.0082
 3683SOL    HW222509   1.663   2.511  14.271 -0.0535  0.8271 -1.0686
 3684SOL     OW22510   3.935   2.838  17.259  0.0791 -0.0314  0.0476
 3684SOL    HW122511   3.974   2.911  17.211 -0.6140 -0.4622 -1.1754
 3684SOL    HW222512   3.896   2.782  17.192  1.0048  2.3227 -2.4600
 3685SOL     OW22513   2.372   1.635   6.544  0.0117 -0.5925  0.5861
 3685SOL    HW122514   2.291   1.599   6.580 -0.5599  0.7263  0.6244
 3685SOL    HW222515   2.391   1.568   6.478  1.4509 -0.9526  1.3685
 3686SOL     OW22516   4.440   2.152   2.121 -0.2541  0.4373 -0.7236
 3686SOL    HW122517   4.479   2.209   2.186  2.7561 -0.9362 -1.3049
 3686SOL    HW222518   4.362   2.125   2.170 -1.1349  0.7830 -1.9185
 3687SOL     OW22519   0.977   4.001   7.297 -0.2970 -0.2268  0.5080
 3687SOL    HW122520   0.988   4.041   7.211 -0.3512 -0.1066  0.5570
 3687SOL    HW222521   0.965   3.911   7.268  0.6092  0.1211 -0.9220
 3688SOL     OW22522   4.526   0.064  11.017 -0.0414 -0.0492  0.6008
 3688SOL    HW122523   4.477   0.040  10.938  2.0244 -0.5087 -0.5430
 3688SOL    HW222524   4.515   4.702  11.070  1.6831  1.5686  3.3351
 3689SOL     OW22525   3.334   1.754   1.248  0.2212 -0.0216 -0.2126
 3689SOL    HW122526   3.367   1.794   1.328  1.2778 -1.5977  0.1347
 3689SOL    HW222527   3.412   1.745   1.193  0.1872 -1.4254 -0.0239
 3690SOL     OW22528   0.863   0.414   6.934 -0.4389  0.3308  0.8067
 3690SOL    HW122529   0.894   0.341   6.988 -0.1137 -0.0428  0.1197
 3690SOL    HW222530   0.922   0.486   6.958  1.4618 -0.6329 -1.0275
 3691SOL     OW22531   3.074   4.694   2.614  0.1951  0.3314 -0.3792
 3691SOL    HW122532   3.166   4.687   2.588  0.6642  0.8013  1.1300
 3691SOL    HW222533   3.051   4.601   2.614  3.2453 -0.4210 -0.8655
 3692SOL     OW22534   2.276   2.997   5.114  0.2413  0.0676 -0.0631
 3692SOL    HW122535   2.200   3.004   5.171  1.1195 -0.0103  1.1132
 3692SOL    HW222536   2.323   2.919   5.144 -0.3695  0.1123  1.0160
 3693SOL     OW22537   3.308   0.875   7.539 -0.6538  0.4144 -0.0438
 3693SOL    HW122538   3.348   0.858   7.453 -0.1241 -1.3960  0.5684
 3693SOL    HW222539   3.331   0.801   7.594 -1.4746  1.2010  1.3463
 3694SOL     OW22540   3.033   4.288   2.773 -0.2764 -0.6617  0.4729
 3694SOL    HW122541   3.121   4.252   2.779 -0.4298 -1.0091  0.6339
 3694SOL    HW222542   3.035   4.330   2.687 -1.0215 -1.5412  0.0266
 3695SOL     OW22543   0.486   0.464   3.832  0.2072 -1.2038 -0.3823
 3695SOL    HW122544   0.531   0.389   3.872  1.1255  0.4405  1.6179
 3695SOL    HW222545   0.420   0.487   3.896  0.3596 -0.0728 -0.6374
 3696SOL     OW22546   1.667   1.610   3.905  0.3112 -0.1966 -0.2332
 3696SOL    HW122547   1.682   1.516   3.898 -1.7926 -0.5728  0.2844
 3696SOL    HW222548   1.647   1.633   3.996  0.8469 -1.4465  0.2089
 3697SOL     OW22549   2.818   3.460   3.858  0.2826  0.0171  0.3254
 3697SOL    HW122550   2.874   3.493   3.789 -0.2589 -1.0835 -0.6264
 3697SOL    HW222551   2.826   3.530   3.923  0.9470  0.9748 -0.7902
 3698SOL     OW22552   3.970   2.750   4.222 -0.0266  0.1200 -0.3856
 3698SOL    HW122553   3.882   2.786   4.231  0.2965  0.8029 -0.0590
 3698SOL    HW222554   3.954   2.659   4.248  1.4856 -0.6014 -1.9509
 3699SOL     OW22555   3.292   3.838  11.042  0.2489  0.0742 -0.0413
 3699SOL    HW122556   3.362   3.898  11.020  1.4584 -1.1259  0.5132
 3699SOL    HW222557   3.240   3.835  10.962 -2.9014 -0.9434  2.0303
 3700SOL     OW22558   1.417   4.086   6.221 -0.1444  0.0035  0.1219
 3700SOL    HW122559   1.471   4.008   6.209 -0.9683 -0.7289  1.1509
 3700SOL    HW222560   1.482   4.147   6.255  1.5357 -0.4677 -2.2649
 3701SOL     OW22561   0.051   0.100   5.023 -0.2381  0.0326 -0.3461
 3701SOL    HW122562   4.690   0.137   4.982 -0.3882 -1.0291 -1.0067
 3701SOL    HW222563   0.098   0.083   4.941  0.6712 -2.4627  0.7089
 3702SOL     OW22564   3.817   4.650   1.671 -0.1147 -0.3385 -0.4098
 3702SOL    HW122565   3.813   0.028   1.672  1.0378 -0.2964  0.3480
 3702SOL    HW222566   3.887   4.645   1.606  0.0380  1.3332 -0.3704
 3703SOL     OW22567   3.813   4.712   0.216 -0.1424 -0.1280  0.2898
 3703SOL    HW122568   3.872   0.052   0.168 -1.2080  0.8313  0.1310
 3703SOL    HW222569   3.825   0.027   0.306  0.1930 -0.7243  0.4586
 3704SOL     OW22570   1.672   1.713  16.274 -0.0979 -0.5051 -0.2861
 3704SOL    HW122571   1.767   1.716  16.259 -0.3458 -1.3846 -1.9979
 3704SOL    HW222572   1.650   1.776  16.206 -1.7687 -0.8112 -0.0300
 3705SOL     OW22573   4.543   2.267   6.409  0.0827 -0.9382  0.8727
 3705SOL    HW122574   4.519   2.215   6.487 -2.8721 -1.7854 -0.5777
 3705SOL    HW222575   4.593   2.208   6.353  0.9493  1.2223 -0.6025
 3706SOL     OW22576   2.452   3.493   2.045  0.1730 -0.4366  0.1973
 3706SOL    HW122577   2.546   3.493   2.025  0.6162 -1.9583  2.2488
 3706SOL    HW222578   2.426   3.428   1.981  3.8078  1.1758 -2.9067
 3707SOL     OW22579   2.906   1.615   5.920  0.3129  0.2460 -0.3380
 3707SOL    HW122580   2.970   1.625   5.991  1.3919  0.0405 -1.2950
 3707SOL    HW222581   2.832   1.659   5.962 -1.4722 -1.8025 -1.3724
 3708SOL     OW22582   3.973   4.301  11.435  1.0228 -0.4102 -0.1098
 3708SOL    HW122583   3.937   4.247  11.505 -0.5527  1.5722  0.6024
 3708SOL    HW222584   3.995   4.380  11.484 -0.4547  0.7563 -1.3291
 3709SOL     OW22585   1.086   1.118   0.375  0.2331 -0.3169  0.7231
 3709SOL    HW122586   1.066   1.159   0.291  1.0888 -1.5742 -0.0967
 3709SOL    HW222587   1.000   1.104   0.415  0.5488 -0.5528  1.3207
 3710SOL     OW22588   3.177   2.838   9.522  0.2061 -0.3779  0.2523
 3710SOL    HW122589   3.091   2.810   9.492  0.2868 -1.4510  1.0654
 3710SOL    HW222590   3.206   2.768   9.580  0.1869 -0.8032 -0.2476
 3711SOL     OW22591   0.543   0.320   3.334 -0.2747 -0.5493 -0.5512
 3711SOL    HW122592   0.503   0.392   3.382 -2.4784 -2.0118 -0.1917
 3711SOL    HW222593   0.470   0.258   3.334 -0.6407 -0.1284  1.4576
 3712SOL     OW22594   3.740   0.070   4.112  0.1127 -0.7294  0.3994
 3712SOL    HW122595   3.738   4.696   4.140 -1.5632 -0.3355  1.5741
 3712SOL    HW222596   3.818   0.089   4.165  0.2323  0.4498 -0.1815
 3713SOL     OW22597   2.417   0.199  14.438 -0.2455 -0.1791  0.1615
 3713SOL    HW122598   2.374   0.163  14.516 -2.1663  1.3712 -0.1817
 3713SOL    HW222599   2.383   0.136  14.374 -2.4210  2.4739 -1.2811
 3714SOL     OW22600   1.141   2.948   4.891 -0.1441  0.0530  0.1374
 3714SOL    HW122601   1.206   3.010   4.859 -0.0082  0.5198  1.3189
 3714SOL    HW222602   1.198   2.887   4.937 -0.5266 -0.1688  0.3234
 3715SOL     OW22603   1.213   0.198  17.107  0.4279 -0.0155  0.3787
 3715SOL    HW122604   1.127   0.238  17.097  0.1267 -0.6688  0.3836
 3715SOL    HW222605   1.263   0.238  17.035  0.6136 -0.8370  0.0543
 3716SOL     OW22606   3.475   0.468   1.494 -0.0023  0.1603  0.2221
 3716SOL    HW122607   3.381   0.468   1.513 -0.1096 -0.5336 -0.3050
 3716SOL    HW222608   3.473   0.393   1.435  0.9622  0.8356 -0.6825
 3717SOL     OW22609   1.778   0.105   4.366  0.3609  0.1953 -0.1586
 3717SOL    HW122610   1.777   0.063   4.453  0.9357 -3.6095 -1.9694
 3717SOL    HW222611   1.699   0.075   4.321 -0.9137 -0.1923  2.3327
 3718SOL     OW22612   4.169   3.583   4.160 -0.7005 -0.1281 -0.1403
 3718SOL    HW122613   4.081   3.591   4.197 -0.8471  1.6020 -0.8822
 3718SOL    HW222614   4.157   3.612   4.070  1.5300  2.3391  0.3393
 3719SOL     OW22615   4.108   3.938   4.793  0.1376  0.4583  0.2680
 3719SOL    HW122616   4.094   3.991   4.715 -2.0144  0.5133  0.6798
 3719SOL    HW222617   4.203   3.936   4.806  0.4067  1.8624 -1.5709
 3720SOL     OW22618   3.632   2.715   4.490 -0.4485 -0.5060  0.1295
 3720SOL    HW122619   3.553   2.675   4.456 -0.0633 -0.2121 -1.0974
 3720SOL    HW222620   3.669   2.745   4.407 -0.3889  0.7609  0.6022
 3721SOL     OW22621   0.551   1.456  10.651  0.5850 -0.3043 -1.2680
 3721SOL    HW122622   0.504   1.407  10.718  1.6317 -1.4549 -1.3731
 3721SOL    HW222623   0.636   1.474  10.692 -0.2240  0.1178  0.2403
 3722SOL     OW22624   0.520   3.249   4.357  0.0957 -0.3900  0.9284
 3722SOL    HW122625   0.579   3.297   4.300 -0.9185  0.4021  0.5406
 3722SOL    HW222626   0.577   3.179   4.387  0.6154 -0.7023 -0.8145
 3723SOL     OW22627   4.488   2.459   6.227 -0.0805  0.3993 -0.3002
 3723SOL    HW122628   4.475   2.528   6.292  3.8242 -0.0867  0.9790
 3723SOL    HW222629   4.518   2.391   6.287 -0.7619  2.0091  1.8813
 3724SOL     OW22630   3.987   2.029   2.028 -0.7917 -0.3343  0.3504
 3724SOL    HW122631   4.073   2.073   2.030  0.0750 -1.9589 -1.0471
 3724SOL    HW222632   4.011   1.936   2.034 -0.3157 -0.0716  2.6483
 3725SOL     OW22633   3.444   1.581   2.916  0.2013 -0.0505  0.2811
 3725SOL    HW122634   3.479   1.518   2.854 -1.4699 -1.2609  0.5472
 3725SOL    HW222635   3.508   1.652   2.919  1.3157 -1.1204  1.5605
 3726SOL     OW22636   1.456   3.254   1.928 -0.2213  0.5090 -0.0582
 3726SOL    HW122637   1.443   3.159   1.931 -2.1421  0.7185 -1.5640
 3726SOL    HW222638   1.507   3.262   1.847  2.3582 -1.6393  1.3699
 3727SOL     OW22639   2.617   3.045   2.251 -0.1531  0.0728 -0.3394
 3727SOL    HW122640   2.678   3.094   2.306  1.0783  1.4155 -2.8975
 3727SOL    HW222641   2.631   2.961   2.295  0.4201 -0.6386 -1.8894
 3728SOL     OW22642   0.063   3.038   0.511 -0.0039 -0.0947 -0.3831
 3728SOL    HW122643   0.000   2.967   0.527 -1.5596  0.9303 -1.9691
 3728SOL    HW222644   0.115   3.039   0.592  0.1336 -0.1831 -0.4704
 3729SOL     OW22645   0.018   3.152   6.239  0.5722  0.2486  0.0561
 3729SOL    HW122646   0.108   3.154   6.208  0.9371  1.0879  1.1724
 3729SOL    HW222647   4.689   3.153   6.155  0.6915 -0.4998 -0.0126
 3730SOL     OW22648   0.188   3.568   2.814  0.3510 -1.0307 -0.5888
 3730SOL    HW122649   0.227   3.595   2.730 -0.2828  1.1835 -0.1780
 3730SOL    HW222650   0.217   3.477   2.810  1.6381 -0.6410  0.2320
 3731SOL     OW22651   1.592   0.343  16.316  0.0128 -0.0686  0.6759
 3731SOL    HW122652   1.586   0.418  16.257  1.4179 -0.8161 -0.4359
 3731SOL    HW222653   1.685   0.347  16.340  0.3711  0.4618 -0.7831
 3732SOL     OW22654   3.706   2.301   2.534 -0.2126  0.5266 -0.0930
 3732SOL    HW122655   3.674   2.287   2.446 -0.5871  0.0684  0.1209
 3732SOL    HW222656   3.683   2.389   2.566 -0.4743  0.9383 -1.4196
 3733SOL     OW22657   1.006   0.520   3.987 -0.7329 -0.1116 -0.3311
 3733SOL    HW122658   1.100   0.511   3.974 -0.5587  0.7259  0.3602
 3733SOL    HW222659   0.988   0.468   4.065  0.1758 -0.8467 -0.6117
 3734SOL     OW22660   0.885   2.704  14.459 -0.1647 -0.4752  0.2033
 3734SOL    HW122661   0.952   2.650  14.501 -0.4382 -0.5558  0.5414
 3734SOL    HW222662   0.839   2.635  14.412 -0.8636 -0.8080  1.3828
 3735SOL     OW22663   4.251   0.663   6.648  0.0018 -0.8773 -0.6391
 3735SOL    HW122664   4.306   0.717   6.590  1.7790 -3.0200 -0.9629
 3735SOL    HW222665   4.301   0.680   6.728  0.6087 -2.7474 -0.6296
 3736SOL     OW22666   1.700   0.198   7.080  0.2210 -0.0199  0.2126
 3736SOL    HW122667   1.781   0.171   7.037 -0.8062 -2.5554 -0.1541
 3736SOL    HW222668   1.691   0.283   7.037 -0.1562 -1.0420 -1.7265
 3737SOL     OW22669   0.721   4.206   5.103 -0.0113 -0.2412  0.0167
 3737SOL    HW122670   0.735   4.135   5.165 -2.5428 -0.3889  0.4185
 3737SOL    HW222671   0.776   4.276   5.136  0.4046 -0.6462  0.1774
 3738SOL     OW22672   3.535   4.239   7.244 -0.7396  0.0739  0.1001
 3738SOL    HW122673   3.610   4.193   7.282 -0.4595  0.8983  0.5478
 3738SOL    HW222674   3.484   4.265   7.320 -1.6791 -3.2864  0.6380
 3739SOL     OW22675   4.114   3.599   3.862  0.3096 -0.2876  0.1275
 3739SOL    HW122676   4.110   3.685   3.903  0.3072 -0.1137 -0.2383
 3739SOL    HW222677   4.052   3.616   3.791  1.1523 -0.2563 -0.5971
 3740SOL     OW22678   2.136   2.492  11.446  0.0455  0.1525  0.3007
 3740SOL    HW122679   2.212   2.539  11.479  0.2320 -0.3472  0.5849
 3740SOL    HW222680   2.117   2.421  11.508  0.3316  1.1174  1.4896
 3741SOL     OW22681   1.853   3.955   3.082  0.1557  0.0886 -0.2820
 3741SOL    HW122682   1.945   3.969   3.058  0.6052 -0.1856  1.3072
 3741SOL    HW222683   1.816   4.025   3.028 -0.6794 -0.4275 -0.3706
 3742SOL     OW22684   4.460   3.093   1.202  0.5745  0.5028 -0.4929
 3742SOL    HW122685   4.450   3.086   1.297 -4.6615 -0.6623 -1.1221
 3742SOL    HW222686   4.383   3.146   1.181 -2.1456 -3.2200 -0.0826
 3743SOL     OW22687   4.150   0.522  15.771  0.5730 -0.3424  0.1875
 3743SOL    HW122688   4.125   0.566  15.852  3.2926  1.9623 -0.1926
 3743SOL    HW222689   4.164   0.606  15.728  1.9386 -0.0566  1.2000
 3744SOL     OW22690   1.602   0.153   8.651  0.6693 -0.6816 -0.1235
 3744SOL    HW122691   1.633   0.236   8.687  0.5936  0.6397 -3.1062
 3744SOL    HW222692   1.656   0.150   8.571 -0.0463  3.5295 -0.7715
 3745SOL     OW22693   2.202   0.364   9.605 -0.0267 -0.2429  0.1015
 3745SOL    HW122694   2.232   0.351   9.695 -2.5580  1.7239  1.2077
 3745SOL    HW222695   2.120   0.407   9.628 -0.2109 -1.3497  1.4902
 3746SOL     OW22696   0.942   2.444  15.057  0.3088 -0.0896 -0.3793
 3746SOL    HW122697   0.883   2.493  15.115  0.6353  0.6886 -0.6939
 3746SOL    HW222698   0.893   2.442  14.974 -0.9950 -0.6591  0.4062
 3747SOL     OW22699   1.176   3.333  10.796 -0.2799 -0.1900 -0.0078
 3747SOL    HW122700   1.092   3.372  10.820  0.5722  0.0838  2.4735
 3747SOL    HW222701   1.155   3.277  10.722  0.9286 -0.5527 -0.0732
 3748SOL     OW22702   2.715   0.908  14.317 -0.2291 -0.1695 -0.1594
 3748SOL    HW122703   2.717   0.928  14.223 -1.4918 -0.5528 -0.2683
 3748SOL    HW222704   2.679   0.988  14.353  1.7183 -0.0084  1.4268
 3749SOL     OW22705   0.387   4.128  16.643 -0.0655 -0.3824  0.1218
 3749SOL    HW122706   0.415   4.038  16.628  0.2736  0.0959 -2.0639
 3749SOL    HW222707   0.308   4.117  16.697 -0.3426 -2.0488 -0.6237
 3750SOL     OW22708   0.021   2.070  11.020 -0.1706 -0.2705 -1.0107
 3750SOL    HW122709   4.669   2.128  11.050  0.1763 -1.1649  1.5619
 3750SOL    HW222710   0.075   2.073  11.100  1.6616  1.1721 -2.2877
 3751SOL     OW22711   4.393   1.506   7.392 -0.0098 -0.4246 -0.2051
 3751SOL    HW122712   4.390   1.414   7.419 -0.7047 -0.8926 -1.9401
 3751SOL    HW222713   4.364   1.498   7.302  0.7751 -0.9961 -0.4063
 3752SOL     OW22714   0.290   4.167   2.028  0.1833  0.3752  0.4230
 3752SOL    HW122715   0.217   4.229   2.030 -0.1929 -0.0717  0.4549
 3752SOL    HW222716   0.244   4.085   2.045  1.1314 -0.2992 -0.2890
 3753SOL     OW22717   2.754   1.818  14.136 -0.4275 -0.4711  0.2489
 3753SOL    HW122718   2.787   1.833  14.225  3.8662 -0.9162 -1.2634
 3753SOL    HW222719   2.691   1.890  14.139  1.0279  0.7563  1.2095
 3754SOL     OW22720   4.364   3.057   5.912  0.0124 -0.3172  0.3007
 3754SOL    HW122721   4.456   3.083   5.911 -0.5052  1.4795  0.3537
 3754SOL    HW222722   4.384   2.970   5.876  2.9329 -0.1393  1.4944
 3755SOL     OW22723   4.326   3.782   6.066  0.2161  0.0910  0.3853
 3755SOL    HW122724   4.327   3.688   6.045  1.7275  0.1881  0.0081
 3755SOL    HW222725   4.241   3.816   6.039  0.8546  0.8798 -0.6772
 3756SOL     OW22726   2.506   1.680   9.074 -0.3021 -0.7026  0.3834
 3756SOL    HW122727   2.529   1.706   9.164 -1.8411  0.3653  0.4650
 3756SOL    HW222728   2.483   1.768   9.044 -0.2184 -1.1197 -0.8868
 3757SOL     OW22729   0.421   2.181  14.805 -0.4209  0.6058  0.1378
 3757SOL    HW122730   0.498   2.197  14.860 -0.5448  0.2566  0.4172
 3757SOL    HW222731   0.355   2.201  14.871  1.6843  0.6018  2.2341
 3758SOL     OW22732   0.585   2.225  14.998 -0.4218 -0.3167 -0.1615
 3758SOL    HW122733   0.634   2.307  14.994  1.4747 -1.4588 -0.7634
 3758SOL    HW222734   0.655   2.164  14.974  0.0605 -0.5004  1.7000
 3759SOL     OW22735   2.190   2.788   0.666  0.1749  0.5902 -0.2900
 3759SOL    HW122736   2.148   2.838   0.736 -1.4634 -2.7891  1.1173
 3759SOL    HW222737   2.129   2.810   0.595  0.8077  1.9880 -0.3994
 3760SOL     OW22738   2.763   3.583   0.629 -0.1309 -0.1637 -0.0624
 3760SOL    HW122739   2.815   3.603   0.551 -0.7243  0.2560 -0.3449
 3760SOL    HW222740   2.685   3.633   0.605 -1.2388 -1.6705  0.3706
 3761SOL     OW22741   3.458   3.971   9.383  0.0363 -0.1633 -0.8811
 3761SOL    HW122742   3.481   4.022   9.305  0.5689  1.3415  0.2555
 3761SOL    HW222743   3.469   4.042   9.445 -0.3575 -0.0613 -0.9309
 3762SOL     OW22744   0.541   2.239   8.380 -0.0258 -0.3471  0.1510
 3762SOL    HW122745   0.613   2.226   8.441 -0.8818 -0.4643  1.1506
 3762SOL    HW222746   0.497   2.304   8.436 -0.8081 -0.7951  0.0628
 3763SOL     OW22747   3.653   0.964   6.567  0.1156  0.7867 -0.1354
 3763SOL    HW122748   3.607   0.886   6.534  1.5592 -0.6922  1.3507
 3763SOL    HW222749   3.695   0.980   6.482  0.6282 -0.5667 -0.1376
 3764SOL     OW22750   2.151   1.001  17.329  0.2436  0.4210 -0.3044
 3764SOL    HW122751   2.150   0.981  17.423 -0.5100 -2.4635 -0.9307
 3764SOL    HW222752   2.243   1.028  17.327  0.2433  0.1469 -2.9222
 3765SOL     OW22753   1.223   1.514   2.688 -0.4504  0.1432  0.1431
 3765SOL    HW122754   1.222   1.607   2.712  1.5461  0.5621 -1.3817
 3765SOL    HW222755   1.276   1.521   2.608  0.4582 -0.6604  0.6646
 3766SOL     OW22756   2.911   1.980   4.881  0.1123 -0.1889  0.0433
 3766SOL    HW122757   2.951   2.010   4.962 -0.1908 -1.9893  0.8573
 3766SOL    HW222758   2.929   1.886   4.883 -0.7908 -0.3895 -1.2928
 3767SOL     OW22759   4.403   4.073  14.199  0.1341  0.0387  0.1744
 3767SOL    HW122760   4.353   4.153  14.186  0.8406  0.3396 -0.7032
 3767SOL    HW222761   4.482   4.112  14.237 -0.1792  0.0930  0.7683
 3768SOL     OW22762   0.045   2.291   4.681  0.3290  0.1164  0.2054
 3768SOL    HW122763   0.013   2.205   4.653  0.6853 -0.0914  0.4367
 3768SOL    HW222764   4.704   2.301   4.756 -1.1958 -3.1372 -0.5669
 3769SOL     OW22765   3.743   1.570  16.290 -0.2452  0.1540  0.9967
 3769SOL    HW122766   3.800   1.558  16.366  0.8187  0.9556  0.3396
 3769SOL    HW222767   3.660   1.576  16.337 -1.2081  0.8787 -0.8050
 3770SOL     OW22768   1.780   4.152  11.260  0.1940  0.3286  0.5674
 3770SOL    HW122769   1.874   4.137  11.252 -0.2461 -1.5800 -0.9956
 3770SOL    HW222770   1.781   4.246  11.277  0.0180  0.3982  0.1808
 3771SOL     OW22771   1.613   3.652   9.781 -0.2047  0.3764  0.4905
 3771SOL    HW122772   1.580   3.590   9.716  2.9340  0.0136 -0.7530
 3771SOL    HW222773   1.702   3.615   9.783 -0.0496  0.6215 -1.6402
 3772SOL     OW22774   0.611   4.089  14.941 -0.4855  0.5849  0.1639
 3772SOL    HW122775   0.569   4.041  15.013 -0.4923 -2.1000 -1.6132
 3772SOL    HW222776   0.564   4.172  14.946  0.6201  1.3185 -1.7959
 3773SOL     OW22777   2.912   1.309   7.497 -0.1357 -0.1032 -0.4577
 3773SOL    HW122778   2.872   1.236   7.544  0.2924 -0.8137 -1.1917
 3773SOL    HW222779   2.974   1.343   7.561 -1.7306  2.6757 -0.3784
 3774SOL     OW22780   2.598   1.996   0.473 -0.5668 -0.4135 -0.9284
 3774SOL    HW122781   2.589   1.907   0.439 -0.7587 -0.3717 -0.9902
 3774SOL    HW222782   2.576   1.981   0.565  1.9677 -1.1462 -0.4484
 3775SOL     OW22783   4.330   0.371   5.081  0.1640  0.4336  0.3102
 3775SOL    HW122784   4.270   0.347   5.152 -0.4032 -0.1094 -0.3548
 3775SOL    HW222785   4.401   0.413   5.129  0.1061  1.0098 -0.1005
 3776SOL     OW22786   4.621   2.277   7.842 -0.0618  0.1104 -0.0585
 3776SOL    HW122787   4.665   2.192   7.857  0.7877  0.4490 -0.6018
 3776SOL    HW222788   4.622   2.326   7.924  0.7914 -1.6493  0.9871
 3777SOL     OW22789   0.339   0.782   5.070 -0.8278  0.2845  0.3180
 3777SOL    HW122790   0.307   0.774   4.980  0.5309  0.2731 -0.1604
 3777SOL    HW222791   0.343   0.690   5.098  1.0798  0.2120 -0.2348
 3778SOL     OW22792   3.789   4.336  16.121 -0.5097 -0.0371 -0.6932
 3778SOL    HW122793   3.735   4.411  16.096  0.0985  0.1802 -1.3612
 3778SOL    HW222794   3.840   4.364  16.196  0.5589 -4.4613  0.2064
 3779SOL     OW22795   3.559   0.873  17.466 -0.3611  0.3855 -0.2802
 3779SOL    HW122796   3.559   0.871  17.370  0.6525  1.7563 -0.3161
 3779SOL    HW222797   3.503   0.802  17.495  1.9069 -1.8495 -1.4147
 3780SOL     OW22798   1.486   3.637  11.162 -0.2908 -0.1719  0.2044
 3780SOL    HW122799   1.419   3.684  11.211  0.2571  2.3003 -1.4565
 3780SOL    HW222800   1.558   3.697  11.144 -1.2224  0.9163  0.1209
 3781SOL     OW22801   4.260   3.194  11.199  0.3648 -0.2291  0.0271
 3781SOL    HW122802   4.221   3.262  11.255  1.7432  0.3979  0.2269
 3781SOL    HW222803   4.223   3.210  11.113  1.1065 -0.3305 -0.3093
 3782SOL     OW22804   0.832   2.895   2.694  0.5962 -0.1987 -0.0392
 3782SOL    HW122805   0.784   2.843   2.759  0.1071 -0.0602 -0.2867
 3782SOL    HW222806   0.791   2.981   2.692 -0.6229 -0.7394  1.2020
 3783SOL     OW22807   0.512   4.038   5.045 -0.0167 -0.4933  0.4069
 3783SOL    HW122808   0.583   4.100   5.058 -0.9334  0.4597  0.8583
 3783SOL    HW222809   0.550   3.969   5.099 -0.6606  0.6742  2.3700
 3784SOL     OW22810   3.607   3.878   3.280  0.3252  0.2156  0.3132
 3784SOL    HW122811   3.574   3.932   3.207 -2.4139 -0.6358  0.9191
 3784SOL    HW222812   3.657   3.953   3.314 -0.7265 -0.3069  2.9966
 3785SOL     OW22813   2.799   3.878   7.456 -0.5196  0.7603  0.0823
 3785SOL    HW122814   2.872   3.826   7.421  0.1475  1.6655  0.1492
 3785SOL    HW222815   2.810   3.863   7.550  2.9576  2.3072 -0.0789
 3786SOL     OW22816   3.848   4.186  14.033 -0.4005  0.2033  0.3706
 3786SOL    HW122817   3.935   4.146  14.030 -1.5718 -2.3269 -0.0976
 3786SOL    HW222818   3.797   4.119  14.080  0.5423  0.0701  1.2138
 3787SOL     OW22819   0.451   0.637   6.617 -0.1606  0.0502  0.7848
 3787SOL    HW122820   0.415   0.595   6.695 -1.3012  0.7043  0.6091
 3787SOL    HW222821   0.378   0.688   6.583 -0.9619  0.0457  2.5264
 3788SOL     OW22822   1.194   3.054   6.952 -0.1146 -0.2756 -0.1961
 3788SOL    HW122823   1.112   3.060   7.000  0.5367  0.3757  0.8315
 3788SOL    HW222824   1.255   3.044   7.026 -1.8818  0.0654  1.2913
 3789SOL     OW22825   3.574   1.324  11.190 -0.2100  0.0194  0.6611
 3789SOL    HW122826   3.649   1.361  11.143  0.3167 -3.1140 -0.9827
 3789SOL    HW222827   3.540   1.262  11.125 -1.6320 -0.2595  1.6743
 3790SOL     OW22828   3.968   0.257   4.026  0.0577 -0.5666 -0.1305
 3790SOL    HW122829   3.919   0.238   3.946  0.2089  1.3948 -0.7070
 3790SOL    HW222830   4.054   0.287   3.995 -0.6009 -0.0836 -1.4906
 3791SOL     OW22831   1.061   0.178  16.760 -0.4875 -0.2152 -0.4612
 3791SOL    HW122832   1.114   0.252  16.790  1.1781 -2.2048  1.5162
 3791SOL    HW222833   1.126   0.126  16.713 -0.9172 -2.0281  0.9269
 3792SOL     OW22834   2.375   4.170   6.050 -0.5878  0.2450  0.6291
 3792SOL    HW122835   2.383   4.127   5.965  1.0827 -1.0012  1.4147
 3792SOL    HW222836   2.414   4.112   6.116  0.7573  0.2567 -0.1575
 3793SOL     OW22837   2.575   4.410   5.888  0.2305 -0.4006 -0.0343
 3793SOL    HW122838   2.528   4.402   5.971  0.1895 -0.3891 -0.0565
 3793SOL    HW222839   2.539   4.490   5.851  1.0779 -0.3553 -0.7711
 3794SOL     OW22840   3.604   1.199   3.087 -0.3054  0.0488  0.1402
 3794SOL    HW122841   3.530   1.138   3.076 -1.0191  0.7927  0.8950
 3794SOL    HW222842   3.671   1.192   3.019 -2.8275 -1.7530 -2.2151
 3795SOL     OW22843   3.146   4.490   3.548 -0.4929  0.1942  0.3741
 3795SOL    HW122844   3.186   4.421   3.602 -0.0118  0.8471  0.8449
 3795SOL    HW222845   3.080   4.523   3.609  0.7334  0.3939  1.6039
 3796SOL     OW22846   2.596   0.297   3.507 -0.2443  0.0279 -0.0062
 3796SOL    HW122847   2.523   0.341   3.462  0.7359 -0.2745 -1.9058
 3796SOL    HW222848   2.569   0.207   3.488 -3.1412  0.6684  1.0268
 3797SOL     OW22849   3.662   0.221   5.689 -0.3079  0.0064 -0.3788
 3797SOL    HW122850   3.684   0.167   5.765  0.4329  3.0248  1.5233
 3797SOL    HW222851   3.588   0.271   5.723  0.2169 -0.7196  1.8405
 3798SOL     OW22852   2.402   1.050   6.823  0.4802  0.2481 -0.2047
 3798SOL    HW122853   2.468   1.045   6.892 -0.6152  0.9200  0.8867
 3798SOL    HW222854   2.452   1.028   6.744 -0.2292 -1.7334 -0.0903
 3799SOL     OW22855   4.448   4.145   6.294  0.2136  0.5389  0.7710
 3799SOL    HW122856   4.490   4.231   6.304  1.4730 -0.0373  0.3315
 3799SOL    HW222857   4.383   4.144   6.224  2.8393 -1.6702 -1.5807
 3800SOL     OW22858   0.824   2.847   5.682 -0.2710 -0.1620 -0.1815
 3800SOL    HW122859   0.832   2.800   5.765  0.9437  0.8140  0.2470
 3800SOL    HW222860   0.855   2.785   5.615  1.3613  1.0630 -0.5625
 3801SOL     OW22861   1.253   0.309  12.227 -0.7103 -0.3147  0.0284
 3801SOL    HW122862   1.276   0.216  12.232 -0.1155 -0.1230  1.0285
 3801SOL    HW222863   1.337   0.355  12.228  0.2481 -2.0243 -1.0378
 3802SOL     OW22864   3.490   0.079   7.496 -0.7791  0.0834  0.0017
 3802SOL    HW122865   3.416   0.070   7.437 -1.3424 -1.0182  0.8848
 3802SOL    HW222866   3.550   0.093   7.423  1.1873 -0.6518  1.4742
 3803SOL     OW22867   0.333   4.620  15.146 -0.0094  0.1041  0.5468
 3803SOL    HW122868   0.291   4.534  15.151 -1.1083  0.5398 -1.2212
 3803SOL    HW222869   0.332   4.650  15.237 -0.5755 -0.0227  0.5827
 3804SOL     OW22870   4.474   0.260   6.351  0.0900 -0.9230 -0.0648
 3804SOL    HW122871   4.455   0.328   6.415  0.1637  2.1832 -3.3293
 3804SOL    HW222872   4.461   0.306   6.268 -1.0015 -2.0545 -0.5313
 3805SOL     OW22873   4.040   2.222   3.957 -0.2290 -0.1684 -0.1819
 3805SOL    HW122874   4.112   2.239   4.018  0.1060 -2.1430 -0.0325
 3805SOL    HW222875   4.047   2.126   3.954  0.7305 -0.1775  2.3060
 3806SOL     OW22876   3.944   1.206   7.980 -0.0246 -0.4057  0.2914
 3806SOL    HW122877   3.998   1.141   8.025 -1.1346 -1.1349  0.5760
 3806SOL    HW222878   3.935   1.173   7.890 -3.1681 -1.8046  1.0883
 3807SOL     OW22879   2.873   2.940   6.806 -0.5507 -0.3814 -0.1302
 3807SOL    HW122880   2.828   2.954   6.889  0.4527  1.2485  0.1213
 3807SOL    HW222881   2.967   2.942   6.822 -0.9360  0.3355  1.9802
 3808SOL     OW22882   0.430   0.050   1.204  0.3587  0.1628  0.0380
 3808SOL    HW122883   0.462   0.130   1.246 -1.5661  0.5470  0.7487
 3808SOL    HW222884   0.341   0.077   1.183  0.8607  1.1459 -0.8397
 3809SOL     OW22885   3.097   3.399   2.738 -0.1751  0.4315 -0.0669
 3809SOL    HW122886   3.082   3.439   2.653 -1.3186  0.3660  0.0966
 3809SOL    HW222887   3.024   3.337   2.732 -0.8760  1.4249 -1.8427
 3810SOL     OW22888   2.697   0.912   6.244 -0.6845  0.0571 -0.0649
 3810SOL    HW122889   2.644   0.843   6.284  0.2057 -0.0802  0.9074
 3810SOL    HW222890   2.720   0.878   6.158 -0.4444  1.0509 -0.3884
 3811SOL     OW22891   3.413   3.816  14.372  0.1664  0.4307 -0.6570
 3811SOL    HW122892   3.383   3.827  14.462  0.1950 -0.8790 -0.4817
 3811SOL    HW222893   3.491   3.762  14.377 -1.1420 -1.2438  1.6850
 3812SOL     OW22894   2.976   3.431   6.840  0.4575 -0.7153 -0.0349
 3812SOL    HW122895   2.891   3.387   6.830 -0.2979  1.2249 -2.1108
 3812SOL    HW222896   2.973   3.476   6.756  0.4138  0.0056  0.3556
 3813SOL     OW22897   1.397   4.025   1.040 -0.2170  0.2038  0.2635
 3813SOL    HW122898   1.425   3.979   0.961 -1.1276  0.9448 -0.4880
 3813SOL    HW222899   1.396   3.953   1.103  1.5683  1.3214  1.5597
 3814SOL     OW22900   3.015   0.554   8.347 -0.3680 -0.2221 -0.5749
 3814SOL    HW122901   2.980   0.639   8.374 -1.1637 -1.9524  3.8695
 3814SOL    HW222902   3.016   0.568   8.252 -0.1261 -0.9494 -0.6767
 3815SOL     OW22903   0.408   3.782   9.392 -0.7121 -0.5238  0.7430
 3815SOL    HW122904   0.318   3.811   9.378  0.0299  1.5874  0.4716
 3815SOL    HW222905   0.395   3.687   9.395 -0.1788 -0.5726  1.6624
 3816SOL     OW22906   4.138   2.760   5.718 -0.6332  0.2848  0.1099
 3816SOL    HW122907   4.202   2.819   5.678  0.5371 -0.6975  0.5444
 3816SOL    HW222908   4.156   2.780   5.810  0.4716 -0.8982  0.1543
 3817SOL     OW22909   1.859   4.339   2.351 -0.2922 -0.0714  0.8508
 3817SOL    HW122910   1.843   4.409   2.288  2.2915  1.0420  1.4542
 3817SOL    HW222911   1.932   4.371   2.404 -1.6055  1.4648  1.7444
 3818SOL     OW22912   1.917   2.689   9.293 -0.4813 -0.0467 -0.2264
 3818SOL    HW122913   1.966   2.665   9.214  0.7145  1.6795 -0.0078
 3818SOL    HW222914   1.985   2.728   9.347 -1.6898 -0.5842  1.6864
 3819SOL     OW22915   2.658   3.733  15.224 -0.5556 -0.5685  0.5196
 3819SOL    HW122916   2.712   3.712  15.301  1.5375  2.5539 -0.0629
 3819SOL    HW222917   2.604   3.798  15.270 -0.6279 -1.1041  1.1955
 3820SOL     OW22918   3.724   3.149  10.836 -0.1795 -0.2584  0.4020
 3820SOL    HW122919   3.773   3.091  10.894  0.9398  0.3947  0.0875
 3820SOL    HW222920   3.640   3.104  10.825 -0.7860  0.6349  1.3310
 3821SOL     OW22921   3.591   3.155   7.358  0.4272 -0.3245 -0.4268
 3821SOL    HW122922   3.601   3.107   7.276 -0.4506 -0.8649 -0.2147
 3821SOL    HW222923   3.544   3.088   7.408  1.0656  0.3249  1.0426
 3822SOL     OW22924   2.488   3.491   6.590 -0.3739 -0.9943  0.2399
 3822SOL    HW122925   2.420   3.424   6.586 -1.9558  0.7570 -2.3454
 3822SOL    HW222926   2.450   3.528   6.670 -1.9508  0.8564 -1.3564
 3823SOL     OW22927   4.341   2.124  14.829 -1.1299 -0.3665 -0.0084
 3823SOL    HW122928   4.324   2.032  14.810 -2.4578 -0.3108  0.9500
 3823SOL    HW222929   4.332   2.161  14.741  1.1877 -0.1920 -0.1815
 3824SOL     OW22930   3.875   3.769  11.031  0.3828 -0.4573 -0.0987
 3824SOL    HW122931   3.829   3.845  11.067  1.4888 -0.1030  0.5550
 3824SOL    HW222932   3.961   3.809  11.022  0.0215 -0.2016 -2.5457
 3825SOL     OW22933   2.792   3.044  12.162 -0.2320 -0.3424 -0.2604
 3825SOL    HW122934   2.797   3.046  12.067 -0.8747  1.0878 -0.2533
 3825SOL    HW222935   2.881   3.015  12.183  0.1038  1.2581  0.5076
 3826SOL     OW22936   1.856   2.833  10.815 -0.3190 -0.4589 -0.5532
 3826SOL    HW122937   1.860   2.766  10.746  0.8071  0.2841 -1.2140
 3826SOL    HW222938   1.781   2.882  10.780  0.5180  1.2896  0.1103
 3827SOL     OW22939   1.017   2.307   2.107 -0.2386 -0.0079 -0.7676
 3827SOL    HW122940   1.090   2.293   2.048 -0.3603 -1.4762 -0.5638
 3827SOL    HW222941   0.945   2.254   2.074 -0.1695 -0.8407  0.4268
 3828SOL     OW22942   0.805   2.145   1.621  0.1264 -0.0737  0.5231
 3828SOL    HW122943   0.719   2.173   1.654 -1.4225 -2.5830 -1.4254
 3828SOL    HW222944   0.842   2.225   1.585  0.1460  0.5155  1.8365
 3829SOL     OW22945   1.778   1.270   5.424  0.1461  0.1269 -0.5282
 3829SOL    HW122946   1.804   1.193   5.475  2.4227 -0.2751 -2.2992
 3829SOL    HW222947   1.686   1.259   5.398  0.6669 -1.1942 -1.8130
 3830SOL     OW22948   1.771   1.352   4.794  0.4271 -0.1700  0.4389
 3830SOL    HW122949   1.750   1.424   4.853  1.7665  1.8116 -1.5394
 3830SOL    HW222950   1.866   1.355   4.800  0.5905  1.2530 -3.2152
 3831SOL     OW22951   2.721   4.533   3.757 -0.1624  0.3017  1.0141
 3831SOL    HW122952   2.695   4.610   3.806  0.4960  0.5313  0.9974
 3831SOL    HW222953   2.713   4.565   3.667 -2.5649 -0.3974  0.9751
 3832SOL     OW22954   1.781   3.998  15.297 -0.0641  0.0553 -0.4711
 3832SOL    HW122955   1.740   4.031  15.218  1.2339 -0.2600 -1.2769
 3832SOL    HW222956   1.811   3.913  15.262  0.3715  0.5586 -1.3144
 3833SOL     OW22957   0.458   3.692  10.491  0.2864 -0.0570  0.0314
 3833SOL    HW122958   0.440   3.682  10.585  0.1017 -3.0988 -0.3356
 3833SOL    HW222959   0.494   3.607  10.465 -0.3612 -0.6105  0.9341
 3834SOL     OW22960   2.517   3.150   7.582 -0.4099 -0.2345 -0.2523
 3834SOL    HW122961   2.580   3.196   7.637  0.5989 -0.9513 -0.7980
 3834SOL    HW222962   2.439   3.204   7.599  0.2193  1.0168 -1.3277
 3835SOL     OW22963   2.024   0.794   7.429  0.2347 -0.4220  0.0430
 3835SOL    HW122964   1.988   0.734   7.495 -0.4904  0.5979  0.5687
 3835SOL    HW222965   2.054   0.873   7.474 -1.6174  0.3757 -0.1226
 3836SOL     OW22966   0.367   0.828   0.653  0.2910 -0.3062  0.1950
 3836SOL    HW122967   0.302   0.865   0.593 -1.8093 -0.4767  2.3434
 3836SOL    HW222968   0.400   0.903   0.703  1.2334 -1.6715  1.6276
 3837SOL     OW22969   3.243   3.369   4.035  0.0321  0.4513 -0.4008
 3837SOL    HW122970   3.185   3.322   4.094  1.3857 -0.0451  0.5503
 3837SOL    HW222971   3.328   3.333   4.061 -0.7461 -1.0099  0.1456
 3838SOL     OW22972   1.582   0.386   5.017 -0.1148 -0.7530 -0.0296
 3838SOL    HW122973   1.558   0.370   5.108  0.3899 -1.2966  0.0051
 3838SOL    HW222974   1.500   0.423   4.982  0.2968  0.9905  0.8259
 3839SOL     OW22975   4.625   2.345   6.713  0.1901  0.1260  0.2977
 3839SOL    HW122976   4.556   2.366   6.650  0.6229 -0.1596 -0.2624
 3839SOL    HW222977   4.707   2.378   6.676  0.1138  0.3587  0.3329
 3840SOL     OW22978   0.360   1.359   8.626 -0.1796  0.1401 -0.4885
 3840SOL    HW122979   0.348   1.420   8.699  0.4399 -1.0140  0.5669
 3840SOL    HW222980   0.373   1.429   8.563 -1.7014  0.4587 -0.4292
 3841SOL     OW22981   1.246   2.620  12.065 -0.6845 -0.3619  0.0636
 3841SOL    HW122982   1.184   2.647  11.998 -1.7024  0.5296  1.3775
 3841SOL    HW222983   1.275   2.706  12.095  1.9472 -0.5095 -2.0104
 3842SOL     OW22984   0.069   4.309   2.188 -0.9294  0.0872  0.6167
 3842SOL    HW122985   0.153   4.332   2.228 -0.1058 -2.4985  0.3482
 3842SOL    HW222986   0.029   4.272   2.267  2.3753 -1.3380  1.6158
 3843SOL     OW22987   0.128   3.930  10.016  0.1443  0.2234  0.5010
 3843SOL    HW122988   0.122   3.835  10.006 -2.3745  0.5845 -1.5679
 3843SOL    HW222989   0.100   3.962   9.930  1.9808 -1.7932 -0.8260
 3844SOL     OW22990   0.128   0.482   4.874  0.0150 -0.0738 -0.2495
 3844SOL    HW122991   0.183   0.557   4.850 -0.4380  0.1795 -0.4826
 3844SOL    HW222992   0.070   0.488   4.798  0.0601  0.1649 -0.2666
 3845SOL     OW22993   1.104   0.927   4.708 -0.7909 -0.4552  0.0527
 3845SOL    HW122994   1.123   0.839   4.676  0.3860 -1.4668  3.5788
 3845SOL    HW222995   1.085   0.906   4.799 -0.1312 -1.0025  0.0610
 3846SOL     OW22996   1.413   3.936  12.267 -0.2442  0.3556  0.1961
 3846SOL    HW122997   1.495   3.933  12.218 -0.1987  2.8661  0.0923
 3846SOL    HW222998   1.384   4.019  12.229  2.3581  0.2485 -1.9804
 3847SOL     OW22999   2.989   1.002   3.338  0.2541  0.0292 -0.0195
 3847SOL    HW123000   3.001   1.035   3.249 -0.2328  0.3369  0.0241
 3847SOL    HW223001   2.938   0.922   3.328  0.2742  0.1487 -1.0743
 3848SOL     OW23002   2.689   0.970  15.360 -0.6084  0.5413  0.0125
 3848SOL    HW123003   2.729   0.885  15.380 -2.5069  0.4162  3.3627
 3848SOL    HW223004   2.640   0.985  15.442  0.7079  1.4915  0.6155
 3849SOL     OW23005   0.637   0.555   2.115 -0.3366 -0.0180  0.4147
 3849SOL    HW123006   0.724   0.525   2.089 -0.2686  0.2433  0.3392
 3849SOL    HW223007   0.586   0.474   2.109 -2.5103  1.5203 -1.9523
 3850SOL     OW23008   1.572   0.042   3.575  0.3706  0.5231 -0.0068
 3850SOL    HW123009   1.477   0.042   3.588  0.3837  1.4405  0.1334
 3850SOL    HW223010   1.576   0.027   3.481  2.3814  1.2591 -0.0580
 3851SOL     OW23011   3.625   1.273   0.738  0.3962 -0.5145 -0.3520
 3851SOL    HW123012   3.720   1.287   0.738  0.2428  0.4741  2.3019
 3851SOL    HW223013   3.605   1.281   0.831 -0.6655 -2.5039 -0.4175
 3852SOL     OW23014   1.105   1.679  12.316  0.4195 -0.2525 -0.4072
 3852SOL    HW123015   1.178   1.718  12.268 -1.0845  0.8173 -1.8034
 3852SOL    HW223016   1.057   1.646  12.240  0.0481 -0.1058 -0.2366
 3853SOL     OW23017   3.764   3.280  11.694 -0.2103  0.1271 -0.3138
 3853SOL    HW123018   3.785   3.373  11.701 -0.5050  0.2646 -1.2366
 3853SOL    HW223019   3.826   3.248  11.628  0.0004  0.6437 -0.3623
 3854SOL     OW23020   3.849   3.908   2.652 -0.1181  0.1143 -0.5622
 3854SOL    HW123021   3.850   3.974   2.582  1.1285 -0.7122 -1.3291
 3854SOL    HW223022   3.773   3.931   2.705  0.5227 -0.4644  0.5851
 3855SOL     OW23023   3.349   1.479   7.366  0.0532  0.0399  0.2647
 3855SOL    HW123024   3.320   1.554   7.314  1.4668  0.7221  0.4549
 3855SOL    HW223025   3.371   1.405   7.308 -0.9077 -0.6415  0.7764
 3856SOL     OW23026   0.586   1.761   6.164  0.3385 -0.1971  0.2590
 3856SOL    HW123027   0.656   1.798   6.110 -0.6828  1.8400  0.3039
 3856SOL    HW223028   0.625   1.696   6.222 -1.1318 -1.0791  0.2449
 3857SOL     OW23029   1.960   1.937   2.165  0.1558 -0.0563 -0.2844
 3857SOL    HW123030   1.996   1.852   2.188 -2.7773 -1.7760 -2.0418
 3857SOL    HW223031   2.036   1.990   2.188  1.4999 -1.8744 -0.5870
 3858SOL     OW23032   1.134   0.713   4.501  0.3742 -0.0485 -0.7632
 3858SOL    HW123033   1.165   0.644   4.559  0.2652  0.1769 -0.4367
 3858SOL    HW223034   1.165   0.675   4.419  1.9375 -1.6646  0.5803
 3859SOL     OW23035   1.035   0.890   5.383  0.9121 -0.6775  0.3078
 3859SOL    HW123036   1.020   0.871   5.475  1.7431 -1.3288  0.3095
 3859SOL    HW223037   1.131   0.888   5.385  0.9904  2.2624 -0.9691
 3860SOL     OW23038   0.720   0.881   7.397 -0.7832 -0.4252 -0.0201
 3860SOL    HW123039   0.651   0.924   7.347 -0.3720  1.7801  1.3384
 3860SOL    HW223040   0.677   0.801   7.428  0.2056 -0.1570  2.0273
 3861SOL     OW23041   2.568   1.020   4.151  0.2603 -0.1534 -0.0931
 3861SOL    HW123042   2.559   1.012   4.056 -2.1668  1.0379  0.0341
 3861SOL    HW223043   2.487   1.062   4.182 -0.0059 -0.7942  0.0723
 3862SOL     OW23044   2.348   0.091   4.276  0.1979 -0.4146 -0.5882
 3862SOL    HW123045   2.289   0.040   4.332 -0.9490 -0.1341 -1.5499
 3862SOL    HW223046   2.335   0.174   4.322  2.7147 -0.3551  0.0369
 3863SOL     OW23047   1.809   1.471   6.255 -0.4873  0.0776  0.6978
 3863SOL    HW123048   1.769   1.538   6.311 -1.1287  1.7973 -1.8215
 3863SOL    HW223049   1.838   1.415   6.328 -0.5173 -2.1882 -1.0535
 3864SOL     OW23050   2.449   1.480   6.349  0.4616 -0.2308 -1.1402
 3864SOL    HW123051   2.543   1.468   6.363  0.2165 -1.3634 -0.4716
 3864SOL    HW223052   2.434   1.405   6.292 -1.5119 -1.1635  0.5753
 3865SOL     OW23053   2.130   1.185   9.441  0.1910  0.3206 -0.3330
 3865SOL    HW123054   2.219   1.160   9.417  0.2121 -0.2082  0.2862
 3865SOL    HW223055   2.112   1.119   9.507 -0.2051  1.0572  0.3023
 3866SOL     OW23056   4.698   3.928   6.065  0.6635 -0.3858 -0.5213
 3866SOL    HW123057   0.001   3.836   6.082 -1.5427 -0.5682  1.0784
 3866SOL    HW223058   0.062   3.970   6.036  0.3865  0.5534  0.0369
 3867SOL     OW23059   2.864   3.699  13.425  0.3638 -0.2436 -0.2668
 3867SOL    HW123060   2.917   3.686  13.346 -0.8558  0.3238 -1.1676
 3867SOL    HW223061   2.874   3.607  13.452  2.7562  0.4831  1.2898
 3868SOL     OW23062   0.194   0.168  10.445 -0.2773  0.1046  0.2005
 3868SOL    HW123063   0.186   0.262  10.428 -1.4213  0.0281  0.2943
 3868SOL    HW223064   0.217   0.156  10.537 -1.9216 -0.3064  0.5695
 3869SOL     OW23065   3.407   3.547   0.233 -0.0400  0.0140  0.2697
 3869SOL    HW123066   3.441   3.633   0.211 -2.2964  0.3993 -1.7828
 3869SOL    HW223067   3.314   3.551   0.207  0.5576 -1.3491 -2.1720
 3870SOL     OW23068   3.442   0.319  14.214 -0.6042 -0.2955  0.1642
 3870SOL    HW123069   3.462   0.336  14.306  0.8965 -0.2479 -0.1701
 3870SOL    HW223070   3.480   0.392  14.165  0.4357 -0.5938  0.5289
 3871SOL     OW23071   3.360   3.421   6.992 -0.6826 -0.2169  0.3559
 3871SOL    HW123072   3.349   3.326   6.985 -1.7873 -0.0863  0.3716
 3871SOL    HW223073   3.436   3.431   6.934 -1.6347  1.1072 -0.6622
 3872SOL     OW23074   0.485   0.696   8.111 -0.1479 -0.0525 -0.7088
 3872SOL    HW123075   0.464   0.633   8.181  0.2978 -3.7172 -3.8578
 3872SOL    HW223076   0.537   0.763   8.155  1.3910 -1.5501 -0.2179
 3873SOL     OW23077   0.642   2.618  12.779  0.1163 -0.1979  0.1288
 3873SOL    HW123078   0.600   2.553  12.834  0.5243 -0.2107  0.4313
 3873SOL    HW223079   0.682   2.672  12.847 -0.1351 -1.9330  1.6395
 3874SOL     OW23080   2.496   0.510   2.356  0.8183 -0.2872  0.0211
 3874SOL    HW123081   2.409   0.504   2.397  1.2183  0.9824  1.0701
 3874SOL    HW223082   2.466   0.524   2.267  1.1356 -0.5496 -0.1275
 3875SOL     OW23083   3.020   4.513   7.782 -0.0422  0.3329 -0.4668
 3875SOL    HW123084   3.009   4.594   7.734  0.0096  1.2430  1.0629
 3875SOL    HW223085   2.951   4.458   7.745  0.1196  1.3909 -2.3404
 3876SOL     OW23086   1.176   0.967   4.439 -0.5217 -0.1250 -0.3918
 3876SOL    HW123087   1.178   0.998   4.529  2.9809  0.5462 -0.6847
 3876SOL    HW223088   1.161   0.874   4.459  0.2242 -0.1269  0.1513
 3877SOL     OW23089   1.635   2.931   5.028  0.3375 -0.2127 -0.0847
 3877SOL    HW123090   1.711   2.961   5.078 -1.0392 -0.6070  2.2024
 3877SOL    HW223091   1.668   2.845   4.999 -0.5096 -0.5105 -0.1511
 3878SOL     OW23092   2.860   3.250   5.529  0.0249 -0.0440  0.5330
 3878SOL    HW123093   2.865   3.331   5.479  1.9321  0.3707  1.3806
 3878SOL    HW223094   2.872   3.290   5.616 -3.0338 -0.7208  1.2654
 3879SOL     OW23095   0.265   4.325  13.520 -0.1138 -0.1704 -0.9116
 3879SOL    HW123096   0.257   4.347  13.613 -1.8199  0.5861 -1.2156
 3879SOL    HW223097   0.175   4.354  13.500 -1.2852 -1.7817  1.9650
 3880SOL     OW23098   0.261   0.841   3.409 -0.3785 -0.5135  0.5497
 3880SOL    HW123099   0.181   0.815   3.363  0.3168 -3.5131  1.0848
 3880SOL    HW223100   0.233   0.851   3.500 -0.9671 -1.1814  0.4384
 3881SOL     OW23101   1.007   2.492  14.602 -0.5273  0.1972  0.2085
 3881SOL    HW123102   1.043   2.434  14.670  0.8449  0.8536  0.0548
 3881SOL    HW223103   1.001   2.433  14.526 -1.0503 -0.7191  0.9564
 3882SOL     OW23104   0.774   3.191   2.842 -0.0098  0.6126  0.2416
 3882SOL    HW123105   0.761   3.182   2.936 -2.5795  0.1895 -0.1556
 3882SOL    HW223106   0.733   3.275   2.820 -1.3236 -0.0805  0.0242
 3883SOL     OW23107   0.496   2.856  17.565 -0.2032 -0.5319 -0.1094
 3883SOL    HW123108   0.550   2.836  17.489  0.8653  1.3779  0.1483
 3883SOL    HW223109   0.416   2.892  17.526 -0.3270 -0.0954  0.5508
 3884SOL     OW23110   1.582   0.308   5.290 -0.0261 -0.9440  0.2737
 3884SOL    HW123111   1.675   0.320   5.312  0.2393  1.0884 -1.9104
 3884SOL    HW223112   1.569   0.220   5.325  1.3184 -0.9212  0.8286
 3885SOL     OW23113   0.317   1.780   8.705  0.0664 -0.3496  0.2534
 3885SOL    HW123114   0.279   1.844   8.645  0.4633  0.5646  0.9915
 3885SOL    HW223115   0.244   1.762   8.765 -0.4602  0.3638 -0.1755
 3886SOL     OW23116   1.490   0.152   2.455 -0.1478 -0.6077 -0.4295
 3886SOL    HW123117   1.428   0.148   2.382  1.3529  1.6950 -1.8258
 3886SOL    HW223118   1.566   0.107   2.416  1.0027 -0.3867  1.5626
 3887SOL     OW23119   2.828   1.273  15.192  0.4356  0.3673 -0.1954
 3887SOL    HW123120   2.762   1.217  15.151 -0.0275  0.6234  0.2030
 3887SOL    HW223121   2.913   1.232  15.180  1.1138  2.2895 -1.9792
 3888SOL     OW23122   3.547   1.378   2.719 -0.0014  0.4911  0.8120
 3888SOL    HW123123   3.613   1.416   2.661 -0.9305  0.1595 -0.4744
 3888SOL    HW223124   3.516   1.307   2.662  0.1216 -0.2159  1.6435
 3889SOL     OW23125   3.583   0.551   0.863  0.1784  0.0989 -0.3041
 3889SOL    HW123126   3.544   0.498   0.933  2.7045  0.8690  1.6865
 3889SOL    HW223127   3.556   0.497   0.788  0.8761 -2.5302  1.3508
 3890SOL     OW23128   1.941   1.838  16.716 -0.3051 -0.4633  0.0717
 3890SOL    HW123129   1.901   1.891  16.648 -0.7828  0.5094  1.1212
 3890SOL    HW223130   1.951   1.757  16.665 -0.2505  0.6776 -1.7207
 3891SOL     OW23131   1.046   3.355   4.442 -0.6324  0.0252  0.0340
 3891SOL    HW123132   1.050   3.410   4.364  1.4811  0.6129  0.5334
 3891SOL    HW223133   1.122   3.301   4.420 -1.4629 -0.7296 -0.9700
 3892SOL     OW23134   4.638   0.451   1.031 -0.4784  0.0915  0.0676
 3892SOL    HW123135   4.605   0.508   0.962 -0.2887  1.7325  1.3245
 3892SOL    HW223136   4.664   0.371   0.986 -0.2550 -0.0691  0.4829
 3893SOL     OW23137   3.517   1.886   3.318 -0.2961  0.3441 -0.0903
 3893SOL    HW123138   3.606   1.853   3.305  1.3904  3.5778  3.2359
 3893SOL    HW223139   3.525   1.971   3.275 -1.1547  0.0301 -0.8751
 3894SOL     OW23140   1.504   2.869   8.118  0.4191 -0.0654 -0.0567
 3894SOL    HW123141   1.568   2.935   8.093  0.3873  0.9071  2.4009
 3894SOL    HW223142   1.433   2.882   8.055 -0.2924 -3.2786  0.0726
 3895SOL     OW23143   1.034   4.157   3.083  0.3257 -0.1783  0.2097
 3895SOL    HW123144   1.002   4.247   3.076  0.4911 -0.1351  0.0143
 3895SOL    HW223145   0.950   4.116   3.063 -0.1760  1.7703 -1.6756
 3896SOL     OW23146   2.099   4.145   4.828  0.0628  0.4554  0.3264
 3896SOL    HW123147   2.149   4.226   4.838  1.1377 -0.1752  0.1197
 3896SOL    HW223148   2.045   4.144   4.907  2.0760 -1.3322  1.6821
 3897SOL     OW23149   2.455   2.836   8.360  0.5481  0.3729  0.2497
 3897SOL    HW123150   2.415   2.841   8.273 -0.9665 -0.3487  0.9149
 3897SOL    HW223151   2.426   2.749   8.389 -1.6126  1.5264  1.5013
 3898SOL     OW23152   2.645   0.826   7.245  0.2571  0.0105 -0.5199
 3898SOL    HW123153   2.659   0.756   7.309 -0.9745 -1.6123 -2.0090
 3898SOL    HW223154   2.718   0.884   7.266 -1.7215  1.9099  1.0394
 3899SOL     OW23155   4.423   4.406  11.709 -0.0320 -0.3942  0.3033
 3899SOL    HW123156   4.328   4.412  11.718 -0.0970 -4.0981  2.3716
 3899SOL    HW223157   4.441   4.417  11.616 -0.9532 -2.4712 -0.1255
 3900SOL     OW23158   2.311   2.724  14.074 -0.3381 -0.0973  0.1860
 3900SOL    HW123159   2.228   2.772  14.069 -0.2227  0.2155  1.1817
 3900SOL    HW223160   2.291   2.671  14.152  1.8652  0.6625  1.2654
 3901SOL     OW23161   0.170   0.621   3.865  0.4348 -0.4651  0.0113
 3901SOL    HW123162   0.218   0.565   3.925  0.0753 -1.3653 -0.5369
 3901SOL    HW223163   0.106   0.665   3.921  0.8441 -1.1437  0.9961
 3902SOL     OW23164   1.207   1.877   1.442  0.5150 -0.1379  0.2348
 3902SOL    HW123165   1.185   1.947   1.503 -0.8233 -1.6151  1.4371
 3902SOL    HW223166   1.260   1.928   1.380  2.3049  0.5132  2.2966
 3903SOL     OW23167   0.521   1.021   9.311 -0.2066 -0.1739  0.6254
 3903SOL    HW123168   0.534   0.929   9.288 -0.8614 -0.2980  0.7612
 3903SOL    HW223169   0.601   1.056   9.272  0.4781 -2.3678  0.0633
 3904SOL     OW23170   3.188   1.654  15.169 -0.1666  0.1087 -0.1900
 3904SOL    HW123171   3.216   1.614  15.087  1.2962 -1.1835  0.9597
 3904SOL    HW223172   3.102   1.697  15.158 -0.4238 -0.1223  0.9238
 3905SOL     OW23173   3.996   4.224   8.906 -0.2426 -0.3062 -0.0448
 3905SOL    HW123174   4.026   4.286   8.840  0.5361 -2.5623 -1.8311
 3905SOL    HW223175   4.062   4.155   8.903 -2.2750 -2.2773  0.4639
 3906SOL     OW23176   3.161   1.310  16.797  0.1589 -0.0134 -0.1738
 3906SOL    HW123177   3.254   1.293  16.810  0.1145 -0.7869 -0.8839
 3906SOL    HW223178   3.140   1.353  16.881  0.1308 -1.5045  0.5886
 3907SOL     OW23179   2.597   3.343   6.854 -0.2759  0.2872 -0.3668
 3907SOL    HW123180   2.664   3.348   6.786 -2.0209  0.4561 -2.0453
 3907SOL    HW223181   2.642   3.296   6.925 -0.4167 -0.6934 -0.9274
 3908SOL     OW23182   4.238   3.946   3.121 -0.1653  0.2553  0.5652
 3908SOL    HW123183   4.299   3.994   3.178  0.4978  0.2675 -0.1611
 3908SOL    HW223184   4.275   3.859   3.130  1.0918  0.8501  1.2162
 3909SOL     OW23185   1.949   2.798   3.614  0.0243  0.4179  0.4590
 3909SOL    HW123186   2.019   2.732   3.614  1.1097  1.5656  1.7387
 3909SOL    HW223187   1.995   2.873   3.578  1.7661 -1.5310 -1.4269
 3910SOL     OW23188   4.614   3.499   2.811 -0.4107 -0.0985 -0.3135
 3910SOL    HW123189   4.692   3.506   2.865 -1.0753  1.0589  0.4948
 3910SOL    HW223190   4.544   3.479   2.874  0.1336  0.2217  0.3926
 3911SOL     OW23191   1.539   2.719   6.752 -0.6410  0.1856  0.3568
 3911SOL    HW123192   1.561   2.812   6.755 -0.9225  0.1940  2.2177
 3911SOL    HW223193   1.457   2.733   6.705  1.4769 -0.3037 -3.4069
 3912SOL     OW23194   0.708   3.086   1.474  0.4166 -0.2246 -0.1348
 3912SOL    HW123195   0.786   3.064   1.525  0.4857  2.3853  0.8782
 3912SOL    HW223196   0.723   3.180   1.461  0.4294 -0.0462  1.1380
 3913SOL     OW23197   3.057   0.362  13.256  0.2514  0.0765 -0.0799
 3913SOL    HW123198   2.994   0.300  13.220  1.0903 -1.4435  1.0608
 3913SOL    HW223199   3.020   0.402  13.335  1.9749 -3.4082  2.4815
 3914SOL     OW23200   1.089   3.401   2.017  0.5759  0.3938 -0.0842
 3914SOL    HW123201   0.994   3.409   2.030  0.5315  2.4618 -1.6646
 3914SOL    HW223202   1.086   3.322   1.963  0.4366  0.1329  0.3122
 3915SOL     OW23203   0.793   0.191   2.397  0.1856  0.4717 -0.3701
 3915SOL    HW123204   0.847   0.158   2.326  0.4565  1.3574 -0.5688
 3915SOL    HW223205   0.798   0.286   2.387  0.2953  0.1056 -3.7205
 3916SOL     OW23206   1.731   4.181   5.929  0.0393  0.0191 -0.1843
 3916SOL    HW123207   1.657   4.241   5.944  0.1303  0.4045 -1.3070
 3916SOL    HW223208   1.785   4.211   6.003  0.8876 -0.6898 -0.5244
 3917SOL     OW23209   2.593   1.676   3.625 -0.4001  0.0121  0.3316
 3917SOL    HW123210   2.616   1.643   3.538  0.4734 -0.6377  0.8074
 3917SOL    HW223211   2.584   1.597   3.678  1.4032  0.2055  0.9205
 3918SOL     OW23212   0.166   3.454   4.658  0.1783 -0.3699 -0.2355
 3918SOL    HW123213   0.219   3.425   4.584  1.3328  0.4803  0.2487
 3918SOL    HW223214   0.230   3.467   4.728 -1.7237  0.4125  1.3517
 3919SOL     OW23215   1.091   2.152   6.784  0.2138 -0.2453  0.7029
 3919SOL    HW123216   1.092   2.190   6.871  0.0664 -3.5731  2.1516
 3919SOL    HW223217   1.174   2.183   6.749 -0.8656  0.1964 -1.4721
 3920SOL     OW23218   1.257   1.786   9.155 -0.0330 -0.0431 -0.5384
 3920SOL    HW123219   1.346   1.815   9.135 -0.1776 -0.0541 -1.2070
 3920SOL    HW223220   1.207   1.854   9.110 -0.5281  0.8033  1.2886
 3921SOL     OW23221   1.332   2.783   7.235 -0.6051 -0.2904  0.2983
 3921SOL    HW123222   1.411   2.742   7.267 -0.3917  2.0671  2.8315
 3921SOL    HW223223   1.319   2.767   7.142 -2.1161 -1.4843  0.7080
 3922SOL     OW23224   4.108   3.903  17.143 -0.4894 -0.9303 -0.8224
 3922SOL    HW123225   4.103   3.969  17.212 -1.3267 -0.7374 -1.0721
 3922SOL    HW223226   4.189   3.940  17.109  0.4445  1.9704  4.5754
 3923SOL     OW23227   1.823   0.881   2.728  0.2412  0.0984 -0.1489
 3923SOL    HW123228   1.846   0.973   2.732  1.4740 -0.2135 -0.1532
 3923SOL    HW223229   1.734   0.894   2.695 -0.4280 -1.5293  1.0270
 3924SOL     OW23230   2.322   3.489   5.590 -0.4365  0.0978  0.3469
 3924SOL    HW123231   2.397   3.439   5.557  0.8958  1.9493  0.5834
 3924SOL    HW223232   2.270   3.416   5.623 -0.8723 -0.7009 -2.1901
 3925SOL     OW23233   3.452   0.580  17.594  0.0065 -0.4446 -0.1593
 3925SOL    HW123234   3.423   0.501  17.639  2.8670 -0.8833  0.8655
 3925SOL    HW223235   3.414   0.570  17.506 -0.0312  2.9505 -0.5210
 3926SOL     OW23236   2.142   4.479  14.327 -0.8529 -0.0389 -0.1491
 3926SOL    HW123237   2.123   4.459  14.235 -0.2122  1.0895 -0.5198
 3926SOL    HW223238   2.167   4.391  14.357 -1.9271 -0.1447  0.4479
 3927SOL     OW23239   0.631   3.228   7.087  0.3111  0.0701 -0.3912
 3927SOL    HW123240   0.544   3.223   7.047  0.3833 -1.9473 -0.2682
 3927SOL    HW223241   0.669   3.162   7.030  0.0238 -0.2950 -0.1594
 3928SOL     OW23242   2.614   4.341  13.013 -0.4299 -0.5756 -0.0188
 3928SOL    HW123243   2.654   4.269  12.964  2.3631 -0.3054  1.8723
 3928SOL    HW223244   2.533   4.296  13.034  0.3892 -1.1390  1.9345
 3929SOL     OW23245   2.275   3.516   0.454  0.0433  0.2285 -0.0870
 3929SOL    HW123246   2.197   3.562   0.483 -0.0747 -1.1651  1.7818
 3929SOL    HW223247   2.296   3.566   0.375 -2.2411 -1.0387 -1.4844
 3930SOL     OW23248   2.805   1.339   5.218  0.6874 -0.3836  0.4562
 3930SOL    HW123249   2.814   1.308   5.308  3.7393 -0.0137  0.2996
 3930SOL    HW223250   2.710   1.334   5.207  0.6342 -0.6821  1.0664
 3931SOL     OW23251   1.040   4.168   4.393 -0.2141 -0.4513  0.6536
 3931SOL    HW123252   1.076   4.086   4.358 -0.0228  0.9589 -2.4874
 3931SOL    HW223253   1.113   4.197   4.448 -0.1336  1.0694 -0.2710
 3932SOL     OW23254   0.965   1.692   6.946  0.5955 -0.4330  0.3216
 3932SOL    HW123255   0.897   1.751   6.976  1.3935 -0.9578  3.0956
 3932SOL    HW223256   1.013   1.741   6.879  0.8045 -0.6967  0.2741
 3933SOL     OW23257   0.292   2.011   2.564  0.3001  0.7109  0.1452
 3933SOL    HW123258   0.363   1.948   2.582  0.4125  1.4183  2.0853
 3933SOL    HW223259   0.335   2.057   2.491  1.1863 -3.4429 -1.9670
 3934SOL     OW23260   4.630   1.011   1.949  0.3638  0.4511  1.2037
 3934SOL    HW123261   4.695   0.956   1.992 -1.9988 -3.5305 -0.3084
 3934SOL    HW223262   4.550   0.989   1.997  1.2364  2.5728  3.6252
 3935SOL     OW23263   3.600   4.187   2.308 -0.0951  0.0069 -0.0552
 3935SOL    HW123264   3.665   4.122   2.281  2.1833  2.0840  0.4255
 3935SOL    HW223265   3.547   4.197   2.229 -3.4228  1.6596  2.3909
 3936SOL     OW23266   4.054   1.588   6.620  0.0293 -0.0714  0.1942
 3936SOL    HW123267   4.114   1.545   6.559 -0.2401  0.8385 -0.7010
 3936SOL    HW223268   4.011   1.645   6.556  0.6753  0.8487  0.5944
 3937SOL     OW23269   0.967   4.583   2.127 -0.2937 -0.4816  0.2678
 3937SOL    HW123270   0.872   4.569   2.117 -0.5589  2.0732 -0.9022
 3937SOL    HW223271   0.991   4.492   2.146 -1.3108 -1.0166 -0.9458
 3938SOL     OW23272   1.537   0.551   4.758  0.7001 -0.6981  0.2539
 3938SOL    HW123273   1.596   0.617   4.795 -1.2452  0.7944  0.7429
 3938SOL    HW223274   1.588   0.524   4.682 -0.3558 -2.6305  0.2370
 3939SOL     OW23275   0.521   4.495  16.002  0.5116  0.0043  0.0189
 3939SOL    HW123276   0.495   4.587  15.995 -0.3287 -0.2880 -0.6711
 3939SOL    HW223277   0.551   4.478  15.912  1.0584  1.7451 -0.1387
 3940SOL     OW23278   2.945   1.437   0.753  0.0908  0.0534  0.0010
 3940SOL    HW123279   2.978   1.506   0.695  2.8993 -0.9632  0.3777
 3940SOL    HW223280   3.008   1.444   0.824  0.2315 -1.5539  0.0231
 3941SOL     OW23281   4.302   2.853   6.212 -0.2496  0.7341 -0.4391
 3941SOL    HW123282   4.385   2.874   6.254  0.4901 -0.3798 -1.3549
 3941SOL    HW223283   4.267   2.802   6.284 -0.7186  2.9920  0.9528
 3942SOL     OW23284   2.735   0.700   1.229  0.0622 -0.1699  0.6518
 3942SOL    HW123285   2.789   0.686   1.151  1.2265  2.5309  0.9793
 3942SOL    HW223286   2.699   0.613   1.247  0.5004 -0.7377 -1.2480
 3943SOL     OW23287   2.569   0.594   9.020  0.1784  0.0566  0.4833
 3943SOL    HW123288   2.518   0.518   9.048  1.2318 -1.5065 -1.8068
 3943SOL    HW223289   2.641   0.597   9.083  0.8567  1.0177 -0.3385
 3944SOL     OW23290   3.836   1.309  11.089 -0.5270  0.0954  0.7536
 3944SOL    HW123291   3.918   1.353  11.065 -0.3340 -2.1148 -2.5278
 3944SOL    HW223292   3.818   1.269  11.004 -1.5196 -1.5322  1.7227
 3945SOL     OW23293   0.351   2.994   4.858 -0.4880 -0.7533  0.1010
 3945SOL    HW123294   0.386   3.050   4.789  0.1581  0.7496  1.6546
 3945SOL    HW223295   0.426   2.976   4.914 -1.5497 -1.2595  1.3708
 3946SOL     OW23296   0.863   0.022  10.180 -0.2249  0.1220 -0.3197
 3946SOL    HW123297   0.919   0.062  10.114  0.9389 -2.5143 -0.9150
 3946SOL    HW223298   0.888   0.056  10.266 -0.6367  3.4927 -1.5359
 3947SOL     OW23299   4.108   3.310   3.614  0.5691 -0.7508 -0.0836
 3947SOL    HW123300   4.203   3.315   3.600  0.6556  0.7229  1.0525
 3947SOL    HW223301   4.096   3.274   3.702 -1.3788 -0.0039 -0.0394
 3948SOL     OW23302   2.804   2.296   3.506 -0.3936 -0.3829  0.4242
 3948SOL    HW123303   2.731   2.343   3.467 -1.3681 -0.1084  2.5314
 3948SOL    HW223304   2.782   2.306   3.599 -1.8365 -0.3257  0.0718
 3949SOL     OW23305   1.271   3.963   8.522 -0.2955 -0.1500 -0.4609
 3949SOL    HW123306   1.219   4.038   8.493 -1.1945 -0.2623  0.8572
 3949SOL    HW223307   1.230   3.896   8.468 -1.1546 -0.2278  0.2724
 3950SOL     OW23308   0.205   4.077   5.998 -0.2081  0.0242  0.3980
 3950SOL    HW123309   0.192   4.143   5.930 -1.7939  2.1262  2.7082
 3950SOL    HW223310   0.228   4.143   6.064  1.8385 -1.2153  0.9064
 3951SOL     OW23311   2.100   0.297   4.953 -0.7563 -0.2563  0.0933
 3951SOL    HW123312   2.066   0.374   4.909 -2.3300 -0.9152  0.1542
 3951SOL    HW223313   2.111   0.337   5.039  2.7228  0.0963 -0.5303
 3952SOL     OW23314   0.378   2.893  13.215 -0.6244  0.1669  0.3020
 3952SOL    HW123315   0.353   2.979  13.248 -2.5367 -0.0427 -0.6192
 3952SOL    HW223316   0.457   2.930  13.175 -1.2476  2.1278  0.9167
 3953SOL     OW23317   4.351   3.734  13.117  0.7486 -0.1409 -0.2658
 3953SOL    HW123318   4.316   3.801  13.175 -1.2603 -0.6677 -0.8750
 3953SOL    HW223319   4.426   3.701  13.168  0.0168 -1.9212 -0.3544
 3954SOL     OW23320   0.722   1.222   4.917  0.8513 -0.7247  0.1343
 3954SOL    HW123321   0.798   1.230   4.860 -0.8687  1.7457 -1.7892
 3954SOL    HW223322   0.656   1.277   4.875 -0.4766 -1.7556  0.8659
 3955SOL     OW23323   3.539   1.973   2.202  0.0429  0.2442  0.3289
 3955SOL    HW123324   3.616   2.030   2.210 -2.0974  3.3123 -1.4094
 3955SOL    HW223325   3.558   1.936   2.116  0.2227  1.2308 -0.0568
 3956SOL     OW23326   2.754   1.278   0.545 -0.2291  0.1306  0.2747
 3956SOL    HW123327   2.809   1.303   0.471  1.1399 -0.6231  1.0500
 3956SOL    HW223328   2.780   1.187   0.556  0.1411  0.1430 -0.5034
 3957SOL     OW23329   4.110   0.451   1.890  0.5588  0.6082  0.0385
 3957SOL    HW123330   4.088   0.537   1.853 -1.1124 -0.3438 -1.2048
 3957SOL    HW223331   4.055   0.456   1.968 -0.9430  0.7101 -0.9989
 3958SOL     OW23332   3.247   0.267   3.352  0.7504  0.2983 -1.0105
 3958SOL    HW123333   3.320   0.264   3.290  2.6809  3.9984  1.1028
 3958SOL    HW223334   3.254   0.187   3.404  1.5988  0.4727 -0.8594
 3959SOL     OW23335   1.276   3.253   6.239 -0.4283 -0.7729  0.7277
 3959SOL    HW123336   1.259   3.179   6.181  0.6806 -0.7452  0.3731
 3959SOL    HW223337   1.291   3.208   6.322 -0.9150 -0.0803  1.1880
 3960SOL     OW23338   2.721   4.014   4.037  0.1745 -0.6257 -0.7954
 3960SOL    HW123339   2.702   4.089   3.981  0.8437  2.8960  3.7072
 3960SOL    HW223340   2.813   4.004   4.014  0.5191  1.8749 -0.5017
 3961SOL     OW23341   0.430   1.557   8.838  0.2607  0.3729  0.1825
 3961SOL    HW123342   0.368   1.580   8.906  0.8443  3.4017 -0.3091
 3961SOL    HW223343   0.422   1.630   8.777  2.4969 -0.5248 -1.1925
 3962SOL     OW23344   2.067   3.774   1.781 -0.4985  0.1691 -0.3290
 3962SOL    HW123345   2.075   3.757   1.687 -0.9104 -2.5461  0.1170
 3962SOL    HW223346   2.129   3.709   1.813 -3.2873 -3.0024 -1.3439
 3963SOL     OW23347   3.941   1.429   4.953  0.4211  0.1626 -0.4564
 3963SOL    HW123348   4.001   1.441   4.880  2.1220 -2.2142  0.5601
 3963SOL    HW223349   3.942   1.517   4.991  0.2392 -0.0913  0.1371
 3964SOL     OW23350   2.213   0.336  13.982  0.2439  0.2834 -0.1268
 3964SOL    HW123351   2.272   0.396  14.027 -0.3955 -0.8358  2.1901
 3964SOL    HW223352   2.169   0.289  14.053 -0.1195  1.6349  0.5522
 3965SOL     OW23353   2.664   0.246   4.372 -0.1214 -0.1125  0.1916
 3965SOL    HW123354   2.735   0.188   4.342 -0.6124  0.3808 -1.9522
 3965SOL    HW223355   2.625   0.188   4.437  1.3018 -0.5089  0.6899
 3966SOL     OW23356   0.387   3.008   3.584  0.0429  0.1554 -0.3372
 3966SOL    HW123357   0.473   3.050   3.586  0.6945 -1.3894  3.0414
 3966SOL    HW223358   0.355   3.033   3.670  0.4080 -1.2158  0.1938
 3967SOL     OW23359   2.250   4.366   4.299 -0.4184  0.6497 -0.1613
 3967SOL    HW123360   2.175   4.425   4.293 -1.6379 -0.9467 -0.3671
 3967SOL    HW223361   2.271   4.359   4.206  3.1620  3.0653  0.4712
 3968SOL     OW23362   2.923   1.933   1.427 -0.0285 -0.1532  0.2545
 3968SOL    HW123363   2.987   1.914   1.358  0.3625  0.6825  0.3931
 3968SOL    HW223364   2.854   1.874   1.395 -0.4135 -0.2448  1.2592
 3969SOL     OW23365   4.166   0.879   4.108  0.2917 -0.4060 -0.4568
 3969SOL    HW123366   4.197   0.969   4.100 -0.6555 -0.0442 -0.0254
 3969SOL    HW223367   4.097   0.882   4.042  1.2472 -1.2445 -1.4853
 3970SOL     OW23368   1.966   0.058   4.197 -0.2826  0.5966 -0.4527
 3970SOL    HW123369   1.980   0.144   4.159  2.3647  0.7985  0.9969
 3970SOL    HW223370   1.901   0.079   4.264  0.3758  0.7544  0.1411
 3971SOL     OW23371   4.069   4.220  16.099  0.2594 -0.1265  0.3675
 3971SOL    HW123372   4.040   4.130  16.088  0.4673 -0.1377 -0.0774
 3971SOL    HW223373   3.987   4.267  16.114 -0.7040 -1.6267 -0.1589
 3972SOL     OW23374   1.790   4.072   3.840  0.2307 -0.2118 -0.3914
 3972SOL    HW123375   1.700   4.050   3.865 -0.5613  1.1815 -2.0321
 3972SOL    HW223376   1.787   4.166   3.860  1.7529 -0.4237  0.8237
 3973SOL     OW23377   3.886   1.803   5.503  0.2520 -0.2755 -0.5156
 3973SOL    HW123378   3.896   1.897   5.490  1.4172 -0.4593 -0.9816
 3973SOL    HW223379   3.910   1.805   5.596 -1.3964 -2.8819 -0.0459
 3974SOL     OW23380   2.491   0.377   6.371 -0.1279  0.0486  0.6399
 3974SOL    HW123381   2.524   0.466   6.387 -0.6160  0.4727 -0.6865
 3974SOL    HW223382   2.401   0.395   6.399  0.1844  2.5526  0.0762
 3975SOL     OW23383   1.980   3.690   8.367  0.4938  0.1371  0.2384
 3975SOL    HW123384   1.989   3.596   8.382  3.1933  1.2409  5.4548
 3975SOL    HW223385   1.890   3.693   8.335  1.0573 -1.0428 -1.4498
 3976SOL     OW23386   0.963   2.655   3.956 -0.0218  0.3158 -0.3564
 3976SOL    HW123387   0.969   2.728   3.894 -0.4844  0.5792 -0.0897
 3976SOL    HW223388   1.054   2.626   3.945  0.2509  1.0451 -0.0500
 3977SOL     OW23389   0.924   4.062  17.586  0.2183 -0.9031  0.4818
 3977SOL    HW123390   0.840   4.045  17.629  0.4514  0.4184  1.4390
 3977SOL    HW223391   0.912   4.034  17.495 -1.0279  0.9582  0.0867
 3978SOL     OW23392   2.435   0.500  10.613  0.1525  0.5795  0.5785
 3978SOL    HW123393   2.425   0.524  10.705  4.2793  2.8359  0.4710
 3978SOL    HW223394   2.384   0.419  10.605  0.4103  0.7691 -2.9282
 3979SOL     OW23395   1.887   3.628  16.495  0.2384 -0.4625 -0.2259
 3979SOL    HW123396   1.878   3.722  16.481  1.0391 -0.4791 -0.8062
 3979SOL    HW223397   1.928   3.599  16.414 -2.7704 -0.0481 -1.9066
 3980SOL     OW23398   3.263   1.154   6.292  0.2103  0.5224 -0.3225
 3980SOL    HW123399   3.282   1.230   6.236 -1.8014  0.5120 -1.0141
 3980SOL    HW223400   3.195   1.115   6.236 -0.6068  0.7512  0.5224
 3981SOL     OW23401   1.095   1.852   3.706 -0.1676  0.0426 -0.1922
 3981SOL    HW123402   1.139   1.782   3.658  1.6951 -0.3008  1.9968
 3981SOL    HW223403   1.064   1.810   3.787  0.1731 -2.0075 -1.1257
 3982SOL     OW23404   1.989   4.685  17.104  0.0164 -0.0396  0.0514
 3982SOL    HW123405   2.072   4.658  17.143 -0.7314 -1.2521  0.8160
 3982SOL    HW223406   1.975   0.049  17.152  1.1350  0.2958 -0.1944
 3983SOL     OW23407   3.802   0.204   6.612  0.0866  0.8217  0.3290
 3983SOL    HW123408   3.828   0.263   6.541 -0.2454 -2.0115 -2.1788
 3983SOL    HW223409   3.774   0.261   6.683 -1.5802  0.4457 -0.0043
 3984SOL     OW23410   0.649   4.243   7.313 -0.1341  0.2715  0.2297
 3984SOL    HW123411   0.718   4.256   7.377  0.5503  2.1584 -0.9080
 3984SOL    HW223412   0.659   4.147   7.312 -0.2028  0.2450  2.3557
 3985SOL     OW23413   2.848   1.339  10.720  0.3828  0.1945 -0.4561
 3985SOL    HW123414   2.807   1.315  10.803 -0.7832  3.0189 -0.2321
 3985SOL    HW223415   2.838   1.433  10.734  0.5930  0.4423 -2.0189
 3986SOL     OW23416   1.184   0.186   7.541 -0.2592 -0.0268  0.1115
 3986SOL    HW123417   1.206   0.177   7.448  0.0963 -1.4270  0.3210
 3986SOL    HW223418   1.168   0.280   7.547  2.4881  0.3992  0.4908
 3987SOL     OW23419   1.555   0.823   6.185  0.0292  0.3147  0.6404
 3987SOL    HW123420   1.511   0.792   6.106  1.9919 -0.9784  0.0796
 3987SOL    HW223421   1.613   0.890   6.150 -1.8100  1.2055 -0.7206
 3988SOL     OW23422   3.199   0.616  16.989 -0.1178  0.4970  0.6482
 3988SOL    HW123423   3.137   0.663  16.933 -0.4910 -0.3092  0.3832
 3988SOL    HW223424   3.138   0.563  17.040 -0.0168  0.3727  0.6391
 3989SOL     OW23425   1.238   3.658   3.043  0.8019 -0.2231  0.4400
 3989SOL    HW123426   1.201   3.616   3.120 -0.3147 -0.8890 -0.4641
 3989SOL    HW223427   1.169   3.631   2.982  1.4623 -1.8202  0.4036
 3990SOL     OW23428   3.621   0.323   4.108 -0.0248 -0.0875  0.5677
 3990SOL    HW123429   3.666   0.239   4.109  0.4726  0.1568 -1.2779
 3990SOL    HW223430   3.536   0.282   4.087 -0.2950  0.2654  0.9827
 3991SOL     OW23431   3.386   1.838   5.868  0.4754 -0.5952  0.0430
 3991SOL    HW123432   3.434   1.920   5.855 -0.2130 -0.0887  0.6794
 3991SOL    HW223433   3.441   1.793   5.933  1.1913 -0.3389 -0.3870
 3992SOL     OW23434   4.116   4.452   4.697  0.5703 -0.3779 -0.2609
 3992SOL    HW123435   4.208   4.438   4.676  0.5908  1.4494 -1.3954
 3992SOL    HW223436   4.117   4.446   4.793 -0.3423  2.6317 -0.0579
 3993SOL     OW23437   3.942   4.298   2.360  0.2276  0.0897 -0.2924
 3993SOL    HW123438   4.018   4.355   2.349 -0.4264  0.7659 -1.3068
 3993SOL    HW223439   3.904   4.298   2.273  1.1748 -2.9181 -0.6926
 3994SOL     OW23440   1.965   2.192   4.537 -0.3271 -0.0025 -0.1170
 3994SOL    HW123441   1.946   2.189   4.444  0.6442  1.2481 -0.3457
 3994SOL    HW223442   2.020   2.115   4.552 -0.1398  0.3204  0.8771
 3995SOL     OW23443   2.832   3.021  11.894 -0.4822  0.0539  0.0993
 3995SOL    HW123444   2.808   3.077  11.820 -0.0342  0.7973  0.5159
 3995SOL    HW223445   2.927   3.036  11.894 -0.3972 -0.4724 -0.1143
 3996SOL     OW23446   2.836   3.061   6.468  0.5506  0.0512 -0.2347
 3996SOL    HW123447   2.924   3.095   6.455  0.2705  0.6523 -0.5373
 3996SOL    HW223448   2.853   2.978   6.513  2.3525  0.1127 -0.8200
 3997SOL     OW23449   0.929   1.142   3.752 -0.2485 -0.3809  0.8836
 3997SOL    HW123450   0.876   1.083   3.805 -1.6961 -1.6376 -1.9717
 3997SOL    HW223451   0.900   1.225   3.792 -0.6112 -1.1870  2.3036
 3998SOL     OW23452   2.286   4.607   2.843 -0.2391 -0.1416 -0.2096
 3998SOL    HW123453   2.336   4.682   2.810 -1.3265  0.0254 -1.4606
 3998SOL    HW223454   2.303   4.542   2.774  0.1818  1.5760 -1.7414
 3999SOL     OW23455   1.633   1.164  12.156  0.0218 -0.6055  0.1706
 3999SOL    HW123456   1.685   1.090  12.126  1.7786  0.3641  0.8301
 3999SOL    HW223457   1.692   1.238  12.145  1.0190 -1.3569  0.4301
 4000SOL     OW23458   4.153   1.220   7.717 -0.9641 -0.0522  0.3306
 4000SOL    HW123459   4.068   1.177   7.703 -2.0363  1.2924  2.6500
 4000SOL    HW223460   4.227   1.159   7.715  1.2939  2.7902 -1.2950
 4001SOL     OW23461   3.472   3.969  13.989  0.7053  0.4351 -0.0708
 4001SOL    HW123462   3.503   4.058  13.980  1.1921  0.2920  0.1757
 4001SOL    HW223463   3.378   3.987  13.984  0.9179  1.6393  0.2552
 4002SOL     OW23464   2.271   4.260   6.790  0.0939 -0.1875  0.7398
 4002SOL    HW123465   2.320   4.328   6.743  0.4521  0.1104  1.5559
 4002SOL    HW223466   2.300   4.174   6.760 -2.1192 -0.5060 -0.5501
 4003SOL     OW23467   0.738   4.631  15.803 -0.3895  0.1594  0.3543
 4003SOL    HW123468   0.783   4.547  15.802 -1.3617 -0.3714  0.5203
 4003SOL    HW223469   0.679   4.615  15.728  0.3522 -4.4865  0.7558
 4004SOL     OW23470   3.351   3.317   4.371  0.0584  0.5735  0.0482
 4004SOL    HW123471   3.262   3.339   4.342  0.0140  1.1386  0.5933
 4004SOL    HW223472   3.386   3.279   4.291 -1.2310  3.5431 -1.8972
 4005SOL     OW23473   2.819   1.686   5.238 -0.3039 -0.3804 -0.7448
 4005SOL    HW123474   2.906   1.655   5.210  0.7299  3.1293 -1.3835
 4005SOL    HW223475   2.793   1.643   5.319  0.7555  0.0025 -0.2023
 4006SOL     OW23476   0.215   0.365   5.373  0.1294  0.2855 -0.1195
 4006SOL    HW123477   0.125   0.344   5.348 -0.4302  2.3434  0.1717
 4006SOL    HW223478   0.256   0.281   5.394  1.3353  1.2129  1.2175
 4007SOL     OW23479   0.857   4.561   5.726  0.0406  0.6100 -0.4688
 4007SOL    HW123480   0.905   4.629   5.774  1.7002 -0.4918 -0.5836
 4007SOL    HW223481   0.773   4.579   5.766 -0.1653 -0.5710 -0.3865
 4008SOL     OW23482   3.874   3.105   9.057 -0.2721 -0.1108  0.2520
 4008SOL    HW123483   3.949   3.159   9.032 -1.3328  0.7306 -1.0291
 4008SOL    HW223484   3.911   3.019   9.078  2.7618  0.8368 -1.2101
 4009SOL     OW23485   2.206   4.588   6.004 -0.0234  0.1889  0.5541
 4009SOL    HW123486   2.174   4.638   5.929  1.1163 -3.0008 -2.0533
 4009SOL    HW223487   2.219   4.503   5.962  0.0974  0.5511 -0.1389
 4010SOL     OW23488   3.686   1.079   5.094 -0.2906 -0.4726 -0.5095
 4010SOL    HW123489   3.620   1.092   5.162  0.3308 -1.0356  0.2065
 4010SOL    HW223490   3.656   0.996   5.057 -1.8247 -0.2579  0.2461
 4011SOL     OW23491   2.818   1.129   7.845  0.4610  0.0291  0.3013
 4011SOL    HW123492   2.804   1.146   7.938  0.6439 -0.1044  0.3516
 4011SOL    HW223493   2.913   1.132   7.845  0.4319  0.9925  2.1867
 4012SOL     OW23494   0.890   4.500   5.456  0.3829 -0.0923 -0.3081
 4012SOL    HW123495   0.878   4.509   5.551  0.1431 -1.4785 -0.2170
 4012SOL    HW223496   0.862   4.584   5.420 -0.6181 -0.9102 -1.4475
 4013SOL     OW23497   0.125   1.477  10.220 -0.2185 -0.1558 -0.3652
 4013SOL    HW123498   0.219   1.493  10.217  0.0285 -1.7537 -1.4069
 4013SOL    HW223499   0.103   1.500  10.310  1.8490 -0.3319  0.1886
 4014SOL     OW23500   0.550   0.195   5.430  0.1918 -0.4852  0.1852
 4014SOL    HW123501   0.457   0.185   5.447  0.4528 -2.4357  0.4922
 4014SOL    HW223502   0.588   0.253   5.496  0.7172 -0.8904  0.2419
 4015SOL     OW23503   2.809   1.214  14.042 -0.0999  0.2541  0.3640
 4015SOL    HW123504   2.803   1.124  14.008 -2.3266 -1.0215  4.2130
 4015SOL    HW223505   2.724   1.244  14.012 -0.8476 -0.9142  1.3087
 4016SOL     OW23506   1.171   1.599   7.114  0.1005 -0.3170 -0.4118
 4016SOL    HW123507   1.118   1.648   7.050  1.1265  2.4694  0.8684
 4016SOL    HW223508   1.102   1.551   7.160 -0.9571  0.7546 -0.8748
 4017SOL     OW23509   2.508   3.091   3.323  0.2262 -0.5860  0.7809
 4017SOL    HW123510   2.492   3.062   3.233 -0.8949 -0.2841  0.8882
 4017SOL    HW223511   2.593   3.051   3.343  0.2577 -0.5120  0.7962
 4018SOL     OW23512   0.661   4.363  16.499  0.4549 -0.1819  1.5239
 4018SOL    HW123513   0.694   4.412  16.575 -0.8428  1.3448  1.0985
 4018SOL    HW223514   0.567   4.378  16.494  0.5526  0.9292  3.1995
 4019SOL     OW23515   2.325   0.967   3.452  0.2986  0.2849  0.3165
 4019SOL    HW123516   2.286   0.926   3.529  0.6899 -0.5094  0.0956
 4019SOL    HW223517   2.414   0.974   3.486 -0.7518 -1.1461  3.3392
 4020SOL     OW23518   3.774   0.194  15.389 -0.2657 -0.1677 -0.9398
 4020SOL    HW123519   3.771   0.146  15.306  0.9205 -1.4092 -0.2706
 4020SOL    HW223520   3.865   0.176  15.412 -0.9018 -3.1423 -0.7582
 4021SOL     OW23521   3.206   2.107  12.372  0.0460 -0.0564  0.5017
 4021SOL    HW123522   3.139   2.059  12.322 -1.6232  1.3805  1.3570
 4021SOL    HW223523   3.212   2.049  12.448 -2.2489 -1.4004 -0.3412
 4022SOL     OW23524   3.593   1.454   8.484  0.3500  0.2873 -0.5704
 4022SOL    HW123525   3.683   1.432   8.458 -0.6029 -0.7777 -2.9950
 4022SOL    HW223526   3.597   1.461   8.579 -0.8655 -2.2594 -0.3334
 4023SOL     OW23527   4.080   1.219   1.765 -0.2241 -0.6902 -0.3883
 4023SOL    HW123528   4.171   1.188   1.765 -0.3508 -1.0556 -0.0882
 4023SOL    HW223529   4.053   1.213   1.857  1.6433  0.6231  0.2524
 4024SOL     OW23530   0.182   4.451   6.126 -0.3019 -0.0203  0.1124
 4024SOL    HW123531   0.194   4.370   6.176  0.4212  0.9398  1.4862
 4024SOL    HW223532   0.092   4.483   6.132 -0.2148  0.1024  0.6853
 4025SOL     OW23533   1.724   2.560   0.373  0.5667 -0.2060  0.2387
 4025SOL    HW123534   1.684   2.583   0.289  0.3130  0.2559  0.4812
 4025SOL    HW223535   1.721   2.466   0.359 -0.2485 -0.2886  0.9743
 4026SOL     OW23536   0.112   2.577   5.533  0.1425  0.4086  0.3990
 4026SOL    HW123537   0.047   2.573   5.463 -0.3794  4.1222  0.6741
 4026SOL    HW223538   0.162   2.650   5.496 -0.2904  1.2717  1.5506
 4027SOL     OW23539   4.487   4.280  16.896 -0.0281  0.5217 -0.4886
 4027SOL    HW123540   4.533   4.201  16.922 -0.8621  0.9633  2.2798
 4027SOL    HW223541   4.513   4.348  16.958  1.9703 -0.8708  0.1820
 4028SOL     OW23542   2.691   0.430   7.364  0.2855  0.0929  0.0428
 4028SOL    HW123543   2.632   0.502   7.386 -2.1800 -2.3992  1.5451
 4028SOL    HW223544   2.686   0.383   7.447 -0.6267 -1.7333 -1.0202
 4029SOL     OW23545   2.880   4.111   1.052  0.0127 -0.1295 -0.5467
 4029SOL    HW123546   2.857   4.045   1.117  0.6647 -0.0971 -0.2922
 4029SOL    HW223547   2.971   4.090   1.033  0.4351  0.6677  0.5799
 4030SOL     OW23548   0.031   2.330   6.068  0.3056 -0.2830  0.3772
 4030SOL    HW123549   4.663   2.370   6.051 -0.6022 -2.3922 -0.0431
 4030SOL    HW223550   0.078   2.348   5.986 -1.6583 -1.7309 -1.0701
 4031SOL     OW23551   1.980   3.250   7.423 -0.0387  0.1436 -0.0806
 4031SOL    HW123552   1.962   3.317   7.489  1.6827  1.1391 -0.6141
 4031SOL    HW223553   1.984   3.172   7.479  0.3716  1.6280  1.9335
 4032SOL     OW23554   1.285   1.515   7.795  0.4660  0.1716  1.1958
 4032SOL    HW123555   1.209   1.458   7.797  0.9385 -0.4180  2.1596
 4032SOL    HW223556   1.329   1.511   7.880 -0.0111  1.6643  1.5021
 4033SOL     OW23557   0.212   0.587   4.473 -0.2820  0.2103 -0.4663
 4033SOL    HW123558   0.245   0.676   4.484 -0.0426  0.0155  0.3318
 4033SOL    HW223559   0.174   0.620   4.391 -2.2580 -1.2767 -0.1253
 4034SOL     OW23560   3.870   2.877   8.402 -0.1241  0.2875 -0.0151
 4034SOL    HW123561   3.927   2.854   8.330 -0.0316  1.4924 -0.3261
 4034SOL    HW223562   3.784   2.835   8.391  1.0245 -1.7853 -0.9329
 4035SOL     OW23563   0.978   2.665   3.226  0.0280  0.3039  0.1040
 4035SOL    HW123564   0.975   2.740   3.286 -2.4540 -0.2305  0.6347
 4035SOL    HW223565   1.029   2.702   3.154 -2.0178  0.4504 -1.2650
 4036SOL     OW23566   0.581   1.653   9.531  0.1867 -0.2465  0.5372
 4036SOL    HW123567   0.529   1.581   9.494 -0.9273  1.3951 -1.1069
 4036SOL    HW223568   0.639   1.608   9.592  1.2981  1.4625  0.7352
 4037SOL     OW23569   3.877   2.013   8.716 -0.1101  0.1141  0.4880
 4037SOL    HW123570   3.898   2.102   8.689  0.4301 -0.5150 -1.1781
 4037SOL    HW223571   3.825   2.034   8.794 -1.1967 -0.4498 -0.0799
 4038SOL     OW23572   4.484   2.827   7.248  0.4882  0.4764  0.2349
 4038SOL    HW123573   4.412   2.883   7.278  1.0274  1.0937  0.3908
 4038SOL    HW223574   4.556   2.885   7.219  0.2195  1.2781  1.1900
 4039SOL     OW23575   0.176   2.676   2.914  0.1328  0.1427 -0.4029
 4039SOL    HW123576   0.193   2.603   2.854  0.5934  1.2830 -1.6501
 4039SOL    HW223577   0.260   2.719   2.903  0.2931 -0.1295 -0.2431
 4040SOL     OW23578   1.073   0.276  11.979  0.0314  0.0027 -0.2854
 4040SOL    HW123579   1.136   0.226  11.927  0.1190 -1.1080  0.9032
 4040SOL    HW223580   1.124   0.301  12.057  0.4135 -1.2211 -0.1501
 4041SOL     OW23581   1.425   0.761   2.174  0.1021  0.6713  0.8331
 4041SOL    HW123582   1.412   0.842   2.124 -0.2252 -0.4620 -0.9124
 4041SOL    HW223583   1.476   0.802   2.244  3.8756 -1.7080 -0.5383
 4042SOL     OW23584   4.254   2.041   5.495  0.0858 -0.1338  0.3819
 4042SOL    HW123585   4.259   2.128   5.535 -0.7989  0.5381 -0.9693
 4042SOL    HW223586   4.182   2.054   5.432 -0.8026  0.7940  1.5871
 4043SOL     OW23587   0.758   0.346   5.942 -0.1540  0.1790 -0.0538
 4043SOL    HW123588   0.708   0.392   6.009  0.2767 -1.0291  1.0827
 4043SOL    HW223589   0.822   0.417   5.932  1.9577 -1.6224  0.8174
 4044SOL     OW23590   0.060   4.191   7.787  0.7379  0.4597 -0.5017
 4044SOL    HW123591   0.090   4.100   7.786 -2.4548 -0.6192 -0.3893
 4044SOL    HW223592   0.137   4.237   7.753  1.5378  0.9816  1.9936
 4045SOL     OW23593   2.180   2.364   4.881 -0.5783  0.2799  0.7563
 4045SOL    HW123594   2.102   2.397   4.834  2.2685  2.3724 -2.5355
 4045SOL    HW223595   2.231   2.343   4.803 -1.5701  1.6610 -0.2752
 4046SOL     OW23596   3.009   3.923  14.363  0.0499  0.5837  0.1430
 4046SOL    HW123597   2.937   3.872  14.399  1.8577 -1.9673  0.1417
 4046SOL    HW223598   2.992   4.015  14.384  0.1511  0.7603 -0.5291
 4047SOL     OW23599   2.836   2.180   5.185 -0.9147  0.7172 -0.3904
 4047SOL    HW123600   2.834   2.106   5.246  3.3404  0.9735 -0.0059
 4047SOL    HW223601   2.924   2.170   5.149 -0.8150 -1.4303  0.4215
 4048SOL     OW23602   3.990   1.741   2.919  0.0319  0.0343  0.0330
 4048SOL    HW123603   4.077   1.758   2.955  0.1698 -1.2975  0.3269
 4048SOL    HW223604   3.945   1.822   2.942  1.2724  0.3196  1.4572
 4049SOL     OW23605   1.023   0.368   4.944  0.2082 -0.3290 -0.3517
 4049SOL    HW123606   0.941   0.364   4.994  0.8677  2.3507  0.9051
 4049SOL    HW223607   1.024   0.288   4.890  2.8520 -0.4945 -0.0507
 4050SOL     OW23608   0.523   2.060   7.493  0.4611 -0.1578 -0.3645
 4050SOL    HW123609   0.436   2.021   7.508  0.6704 -0.2163  0.7565
 4050SOL    HW223610   0.543   2.103   7.576  0.5939 -1.0716  0.0790
 4051SOL     OW23611   3.566   0.744   5.494  0.0488  0.1706 -0.1665
 4051SOL    HW123612   3.474   0.767   5.480  0.8237  4.9631  2.3971
 4051SOL    HW223613   3.589   0.672   5.436 -0.1991  0.0512 -0.1169
 4052SOL     OW23614   1.028   2.545  13.757 -0.3201 -0.2995 -0.2331
 4052SOL    HW123615   1.095   2.515  13.696  0.3742 -0.4269  0.5919
 4052SOL    HW223616   0.972   2.468  13.772  0.2735 -0.6936 -0.0370
 4053SOL     OW23617   3.589   1.573  16.507 -0.0706  0.3351  0.2480
 4053SOL    HW123618   3.662   1.530  16.552 -0.5548  0.3550  1.0501
 4053SOL    HW223619   3.579   1.650  16.563  0.2820  0.0300  0.7363
 4054SOL     OW23620   1.977   1.490  14.687 -0.5353  0.1467 -0.1634
 4054SOL    HW123621   1.973   1.401  14.650  1.0106 -0.7285  1.7483
 4054SOL    HW223622   1.885   1.512  14.701 -1.2692 -2.9408 -0.0195
 4055SOL     OW23623   4.600   2.739  12.211 -0.2682 -0.2276  0.8487
 4055SOL    HW123624   4.695   2.722  12.209 -0.5958 -1.4293 -3.4496
 4055SOL    HW223625   4.598   2.755  12.306  1.1008 -1.1680  1.0485
 4056SOL     OW23626   2.790   4.025   8.705  0.6548 -0.1496 -0.2780
 4056SOL    HW123627   2.722   4.053   8.766  1.0157  0.3809 -0.1187
 4056SOL    HW223628   2.747   3.942   8.686 -1.0111  0.2693  1.6756
 4057SOL     OW23629   3.019   4.196  12.657 -0.0224  0.3788 -0.1677
 4057SOL    HW123630   3.000   4.158  12.570 -0.7061 -0.3184  0.2768
 4057SOL    HW223631   3.000   4.117  12.707  0.1067 -0.2996 -1.1761
 4058SOL     OW23632   1.527   4.356   5.965  0.4658 -0.1863  0.4199
 4058SOL    HW123633   1.552   4.431   6.019 -0.4752  0.5350 -0.1518
 4058SOL    HW223634   1.455   4.390   5.912  1.3070 -0.2062 -0.7405
 4059SOL     OW23635   2.193   0.273   6.847  0.3514  0.5746 -0.6390
 4059SOL    HW123636   2.232   0.230   6.771  2.4768  1.0697  0.1767
 4059SOL    HW223637   2.177   0.361   6.812 -1.6332  1.1319  1.6576
 4060SOL     OW23638   1.211   1.353   0.017 -0.9292 -0.4203 -0.3672
 4060SOL    HW123639   1.247   1.395  17.612  0.7983 -1.2609 -0.0103
 4060SOL    HW223640   1.280   1.300   0.056 -0.7873 -1.2906 -1.8265
 4061SOL     OW23641   1.726   1.814   2.274  0.5023 -0.5059 -0.5026
 4061SOL    HW123642   1.643   1.849   2.242 -0.3614 -1.3538  0.8208
 4061SOL    HW223643   1.791   1.874   2.236  0.1785  1.8888  2.7003
 4062SOL     OW23644   0.359   2.445   7.186 -0.1635  0.0829 -0.2043
 4062SOL    HW123645   0.325   2.475   7.102 -2.5615  0.0311  0.7441
 4062SOL    HW223646   0.283   2.393   7.210  0.5088 -0.9931 -0.4388
 4063SOL     OW23647   0.735   2.974   8.264 -0.1736 -0.1057 -0.1249
 4063SOL    HW123648   0.825   2.957   8.291 -0.2039 -1.3906 -0.8366
 4063SOL    HW223649   0.730   3.065   8.293  3.3667  0.2932 -0.7831
 4064SOL     OW23650   2.586   2.029   3.556  0.1326 -0.2704 -0.1724
 4064SOL    HW123651   2.551   1.986   3.634 -2.7403  1.7638 -0.3512
 4064SOL    HW223652   2.639   2.094   3.601 -1.1793 -0.1615  1.2083
 4065SOL     OW23653   4.366   3.867   3.468 -0.4959  0.2447 -0.3715
 4065SOL    HW123654   4.396   3.954   3.444  0.5958 -0.7320 -2.6179
 4065SOL    HW223655   4.446   3.820   3.492 -1.6840 -0.6948  1.7610
 4066SOL     OW23656   1.694   1.052   9.783 -0.3011 -0.0293  0.8728
 4066SOL    HW123657   1.724   0.980   9.839  1.4369  0.5374  0.6763
 4066SOL    HW223658   1.694   1.118   9.852  2.7534 -2.7518  3.4757
 4067SOL     OW23659   2.822   2.559  15.911 -0.3157  0.4287 -0.7788
 4067SOL    HW123660   2.856   2.542  15.823 -1.6478 -0.5907 -1.0859
 4067SOL    HW223661   2.871   2.638  15.937  0.5027 -0.6845  1.1008
 4068SOL     OW23662   3.491   2.742   1.562 -0.8239  0.3302  0.3837
 4068SOL    HW123663   3.554   2.789   1.507 -0.7470  1.7564  1.6884
 4068SOL    HW223664   3.504   2.792   1.643  0.0325  1.7632 -0.6376
 4069SOL     OW23665   2.369   4.248  12.417  0.2104 -0.3440  0.6211
 4069SOL    HW123666   2.365   4.343  12.402  1.4338 -0.3589  0.2686
 4069SOL    HW223667   2.300   4.236  12.483  0.1004 -2.6571  0.0812
 4070SOL     OW23668   3.229   3.814   9.443 -0.6633  0.2032 -0.7228
 4070SOL    HW123669   3.281   3.889   9.413  0.5186 -0.8738 -1.3954
 4070SOL    HW223670   3.199   3.845   9.529  0.4905  2.7089 -1.2081
 4071SOL     OW23671   4.624   3.325   7.569 -0.1405  0.0306  0.6434
 4071SOL    HW123672   4.573   3.297   7.646 -0.0763 -1.5649  0.1016
 4071SOL    HW223673   4.596   3.256   7.509  0.3321  1.1243 -0.8242
 4072SOL     OW23674   0.964   2.722   8.585  0.1461  0.2362 -0.2361
 4072SOL    HW123675   0.907   2.666   8.533  0.2352 -2.2361  2.3095
 4072SOL    HW223676   1.052   2.694   8.561  0.6505  0.8769  0.8811
 4073SOL     OW23677   0.796   0.296   0.387 -0.0139 -0.1669  0.3474
 4073SOL    HW123678   0.766   0.241   0.459  0.6681 -0.2751  0.5436
 4073SOL    HW223679   0.891   0.297   0.385  0.0356 -0.2215  2.5185
 4074SOL     OW23680   4.589   4.589  14.651  0.3084  0.2338  0.6653
 4074SOL    HW123681   4.649   4.637  14.594  0.7574 -1.3838 -0.2145
 4074SOL    HW223682   4.558   4.520  14.592  2.1281  0.2614 -0.3212
 4075SOL     OW23683   2.616   2.013   4.472 -0.1786  0.8302  0.1211
 4075SOL    HW123684   2.637   2.024   4.565  1.4113  0.0291 -0.1364
 4075SOL    HW223685   2.541   2.072   4.463 -0.9996 -0.1707  0.4436
 4076SOL     OW23686   3.387   0.709   4.223 -0.0971 -0.0853 -0.7205
 4076SOL    HW123687   3.363   0.619   4.244 -2.1237  0.2803 -1.4486
 4076SOL    HW223688   3.424   0.691   4.137 -0.0010  0.1484 -0.7276
 4077SOL     OW23689   2.796   2.513   5.838  0.3967 -0.9319  0.0608
 4077SOL    HW123690   2.717   2.470   5.873  0.5557 -0.7061  0.7097
 4077SOL    HW223691   2.846   2.450   5.788  1.8653 -0.1900  0.6075
 4078SOL     OW23692   0.640   3.007  15.788  0.0537 -0.3623 -0.0511
 4078SOL    HW123693   0.651   2.916  15.759  0.0002 -0.5513  0.5178
 4078SOL    HW223694   0.629   3.044  15.700  2.4330 -2.1290 -1.1060
 4079SOL     OW23695   3.862   2.107   7.540 -0.1753 -0.6247  0.4385
 4079SOL    HW123696   3.957   2.110   7.547 -0.0415 -1.0683 -1.1568
 4079SOL    HW223697   3.843   2.196   7.570 -1.5515 -0.8845  0.3274
 4080SOL     OW23698   4.011   0.818   2.095 -0.2045  0.0970  0.1121
 4080SOL    HW123699   3.990   0.783   2.181  3.3498  0.3185  1.0544
 4080SOL    HW223700   4.102   0.792   2.083 -0.1864  0.9006 -1.5082
 4081SOL     OW23701   1.273   0.380   4.562 -0.1735  0.2454 -0.3972
 4081SOL    HW123702   1.308   0.312   4.504  1.4356 -1.0331  2.0520
 4081SOL    HW223703   1.322   0.458   4.538  0.4500 -0.1390 -0.4031
 4082SOL     OW23704   4.390   3.870   5.349 -0.2517  0.4341  0.1665
 4082SOL    HW123705   4.453   3.799   5.362  0.9904  1.1271 -2.0550
 4082SOL    HW223706   4.318   3.822   5.389 -0.2608 -1.0878 -1.7143
 4083SOL     OW23707   2.640   0.785   3.059 -0.2973  0.1389 -0.1069
 4083SOL    HW123708   2.639   0.877   3.085 -1.7480  0.4661 -1.3519
 4083SOL    HW223709   2.629   0.739   3.143  1.4838  0.3459  0.2577
 4084SOL     OW23710   0.963   0.117   2.193 -0.1217 -0.4034 -0.4821
 4084SOL    HW123711   0.911   0.140   2.116 -0.0389  0.5232 -0.2538
 4084SOL    HW223712   0.994   0.029   2.171  0.8585 -0.3647  0.7306
 4085SOL     OW23713   3.928   4.086   5.469 -0.5412  0.2985 -0.1576
 4085SOL    HW123714   3.879   4.152   5.419  1.6761  2.8551  1.0555
 4085SOL    HW223715   3.921   4.018   5.401 -0.1523  0.5940 -0.4960
 4086SOL     OW23716   3.843   2.545   3.449  0.5751 -0.2812  0.1485
 4086SOL    HW123717   3.901   2.562   3.374 -0.1731 -0.1049 -0.3949
 4086SOL    HW223718   3.868   2.456   3.475 -0.5333 -0.5977  0.1478
 4087SOL     OW23719   3.101   2.513   8.080  0.4461 -0.3628 -0.0263
 4087SOL    HW123720   3.030   2.496   8.143  0.8902 -2.0480  0.0269
 4087SOL    HW223721   3.099   2.441   8.017  2.9499  0.4980 -1.0708
 4088SOL     OW23722   1.954   3.459   3.135 -0.6227 -0.2717  0.4754
 4088SOL    HW123723   1.994   3.535   3.092  2.5249 -1.4577  1.3601
 4088SOL    HW223724   1.881   3.506   3.177 -1.7253  0.8743 -2.6811
 4089SOL     OW23725   3.184   3.822   7.221  0.1522 -0.1159 -0.1566
 4089SOL    HW123726   3.246   3.894   7.232  0.6539 -0.7220  1.0506
 4089SOL    HW223727   3.242   3.752   7.192 -0.0475 -0.6659  0.7532
 4090SOL     OW23728   0.152   4.384   6.916  0.0655 -0.0163 -0.1215
 4090SOL    HW123729   0.185   4.294   6.913  1.1787  0.3852  0.2947
 4090SOL    HW223730   0.159   4.412   7.007  3.3983  0.3934 -0.5048
 4091SOL     OW23731   1.519   0.188   2.976  0.1516  0.0251  0.1597
 4091SOL    HW123732   1.507   0.108   3.026  3.7519  0.0232  1.0199
 4091SOL    HW223733   1.541   0.140   2.896 -0.7213 -0.0360 -0.0438
 4092SOL     OW23734   3.222   2.881  16.067 -0.3058 -0.4654 -0.2026
 4092SOL    HW123735   3.267   2.876  16.152  0.9565 -1.9835 -0.9609
 4092SOL    HW223736   3.162   2.952  16.092 -0.2014 -0.8040  1.0317
 4093SOL     OW23737   3.561   0.984   2.741  0.1450 -0.3342  0.1033
 4093SOL    HW123738   3.575   0.932   2.662  2.3797  0.2916  0.1067
 4093SOL    HW223739   3.550   0.913   2.805  1.7627  2.1326  3.1200
 4094SOL     OW23740   2.316   4.063   9.481 -0.2623  0.0409 -0.1738
 4094SOL    HW123741   2.384   4.085   9.417  0.5472 -1.4962  0.1686
 4094SOL    HW223742   2.344   4.100   9.565  1.1534  1.1865 -1.1557
 4095SOL     OW23743   3.848   1.097  13.621  0.1268  0.6505 -0.3699
 4095SOL    HW123744   3.906   1.021  13.626 -0.2787  0.4289  0.9611
 4095SOL    HW223745   3.858   1.120  13.528  1.3784 -0.1577 -0.4336
 4096SOL     OW23746   2.231   1.944   5.634  0.7297 -0.0785 -0.7353
 4096SOL    HW123747   2.168   2.004   5.675  2.5525  0.2624  1.5808
 4096SOL    HW223748   2.272   1.907   5.713  0.2342 -1.7236 -1.2539
 4097SOL     OW23749   3.662   2.362   5.427 -0.5767 -0.2164 -0.4185
 4097SOL    HW123750   3.747   2.334   5.460  0.1309  0.1635 -1.9327
 4097SOL    HW223751   3.682   2.328   5.340  1.6296  1.3182 -0.4937
 4098SOL     OW23752   2.908   1.345  16.500 -0.0150  0.3905  0.1994
 4098SOL    HW123753   2.959   1.265  16.488 -0.5688 -0.4960  3.7576
 4098SOL    HW223754   2.967   1.408  16.540 -0.2072  0.9872 -0.4717
 4099SOL     OW23755   3.318   2.431   5.728  0.4370  0.1438 -0.4572
 4099SOL    HW123756   3.230   2.394   5.724  1.1605 -1.5058 -1.0210
 4099SOL    HW223757   3.349   2.424   5.638  0.9005 -2.2316 -0.1225
 4100SOL     OW23758   4.454   0.621  17.641  0.2534 -0.0269 -0.7758
 4100SOL    HW123759   4.484   0.559  17.575 -0.6058 -0.3033 -0.9037
 4100SOL    HW223760   4.432   0.559   0.037  1.3972  0.4319  0.0012
 4101SOL     OW23761   0.471   1.211  10.091  0.2227 -0.4980  0.2339
 4101SOL    HW123762   0.479   1.265  10.012  1.6686 -1.3801 -0.2239
 4101SOL    HW223763   0.464   1.278  10.159 -1.2523 -0.6843  0.2597
 4102SOL     OW23764   0.951   0.961   8.736 -0.1794  0.1803  0.0067
 4102SOL    HW123765   0.860   0.969   8.707  0.1979 -1.1799 -1.5314
 4102SOL    HW223766   0.982   0.896   8.673 -2.5409 -1.3718  0.4410
 4103SOL     OW23767   1.048   0.976   6.808  0.3046 -0.0393  0.3411
 4103SOL    HW123768   0.993   0.929   6.745  1.6049 -1.2764  0.1290
 4103SOL    HW223769   1.132   0.930   6.801 -0.3391 -1.4169  1.5263
 4104SOL     OW23770   3.471   3.063   5.281 -0.4334  0.2990 -0.2366
 4104SOL    HW123771   3.386   3.025   5.263  0.3130 -0.9469 -1.0669
 4104SOL    HW223772   3.527   2.986   5.290  0.4563  0.8071 -1.2999
 4105SOL     OW23773   4.248   4.105  16.606 -0.0950  0.3433 -0.5710
 4105SOL    HW123774   4.218   4.033  16.662  0.0050 -0.6581 -1.8048
 4105SOL    HW223775   4.168   4.157  16.606 -0.6798 -0.5490 -0.0204
 4106SOL     OW23776   3.007   3.269   9.345 -0.1053 -0.1476 -0.0994
 4106SOL    HW123777   3.048   3.190   9.309  1.5001  0.1593  1.0522
 4106SOL    HW223778   2.935   3.280   9.283 -0.9512 -0.6503  0.8007
 4107SOL     OW23779   0.592   0.106   1.859 -0.1571  0.7167 -0.1426
 4107SOL    HW123780   0.594   0.139   1.770 -2.4881 -2.1607 -1.2615
 4107SOL    HW223781   0.585   0.013   1.838 -0.9471 -0.1612  3.8997
 4108SOL     OW23782   4.446   1.007   4.884 -0.4865 -0.0940  0.2782
 4108SOL    HW123783   4.427   1.098   4.908  0.1458 -0.0030  0.4386
 4108SOL    HW223784   4.368   0.986   4.833 -1.0922  1.5354  0.5204
 4109SOL     OW23785   2.000   0.036  14.957  0.1376  0.0471  0.2667
 4109SOL    HW123786   2.070   0.101  14.966  0.8789 -1.0185  2.3244
 4109SOL    HW223787   2.034   4.708  14.881  0.8767  1.2476 -0.1195
 4110SOL     OW23788   3.230   2.622   4.208  0.1335  0.1266 -0.1316
 4110SOL    HW123789   3.280   2.652   4.132 -1.0876 -0.3884 -1.1352
 4110SOL    HW223790   3.254   2.529   4.209  1.0383  0.3750  1.5596
 4111SOL     OW23791   2.421   4.046   6.702 -0.4400 -0.6955  0.0847
 4111SOL    HW123792   2.433   4.084   6.615 -0.6698 -0.1529  0.2894
 4111SOL    HW223793   2.475   3.968   6.698  0.4451 -0.0114 -1.2521
 4112SOL     OW23794   1.169   0.076  10.343  0.0320  0.1178 -0.1583
 4112SOL    HW123795   1.223   0.130  10.400  1.5165  0.5440 -1.9660
 4112SOL    HW223796   1.086   0.123  10.341 -0.5382 -0.9461 -1.4800
 4113SOL     OW23797   2.712   4.435  10.687  0.2988 -0.3396 -0.0016
 4113SOL    HW123798   2.744   4.464  10.772  1.2248 -0.4300 -0.3194
 4113SOL    HW223799   2.792   4.436  10.634  0.9653 -0.9887  1.0044
 4114SOL     OW23800   2.567   1.804   2.337 -0.1580 -0.1907  0.3054
 4114SOL    HW123801   2.599   1.873   2.396  1.0508 -1.0488  0.6455
 4114SOL    HW223802   2.564   1.855   2.257  2.4460  0.2167  0.4722
 4115SOL     OW23803   4.557   4.432   0.152  0.2119  0.1047  0.1223
 4115SOL    HW123804   4.552   4.411   0.245  2.7251 -0.2386  0.1669
 4115SOL    HW223805   4.519   4.520   0.141 -0.2592  0.1103  1.7529
 4116SOL     OW23806   3.687   0.698   6.076  0.9106 -0.0773  0.4532
 4116SOL    HW123807   3.766   0.644   6.074  0.7357 -0.3812  1.6853
 4116SOL    HW223808   3.640   0.657   6.148 -0.8659 -2.1043 -1.8440
 4117SOL     OW23809   2.228   1.268   4.628 -0.1567 -0.1476  0.5589
 4117SOL    HW123810   2.213   1.273   4.534  2.3882 -2.2793  0.0165
 4117SOL    HW223811   2.302   1.329   4.629 -0.2224 -0.0487 -0.7916
 4118SOL     OW23812   2.999   0.796   2.199 -0.1429 -0.1995 -0.1787
 4118SOL    HW123813   3.045   0.877   2.177 -1.0761  1.5740  4.3771
 4118SOL    HW223814   2.991   0.803   2.294  0.3222  1.4522 -0.2479
 4119SOL     OW23815   3.742   1.444   1.276  0.4384  0.0619 -0.9242
 4119SOL    HW123816   3.770   1.357   1.304 -0.5806 -0.0054 -0.1398
 4119SOL    HW223817   3.647   1.442   1.289  0.8302 -1.1222  1.7361
 4120SOL     OW23818   2.619   4.709   7.617  0.4187  0.1581 -0.9021
 4120SOL    HW123819   2.618   4.638   7.552  1.5643  0.3253 -1.1105
 4120SOL    HW223820   2.547   0.046   7.584  1.8430  1.0658 -2.5112
 4121SOL     OW23821   4.442   2.270   8.863 -0.1557 -0.1590  0.4235
 4121SOL    HW123822   4.365   2.318   8.832  0.7687  1.7799  1.1749
 4121SOL    HW223823   4.408   2.215   8.934 -0.6101 -1.2330 -0.6237
 4122SOL     OW23824   2.526   0.756  15.188 -0.5486  0.5594  0.2876
 4122SOL    HW123825   2.514   0.849  15.170 -2.0557  0.0215 -1.4857
 4122SOL    HW223826   2.598   0.758  15.251  0.2766  0.2931 -0.6390
 4123SOL     OW23827   2.901   1.153  11.957  0.1320  0.0821  0.3862
 4123SOL    HW123828   2.884   1.068  11.917  1.1946 -0.5444  1.2516
 4123SOL    HW223829   2.997   1.157  11.953  0.0208  0.1151 -2.2618
 4124SOL     OW23830   1.391   2.385   7.358 -0.3743  0.2690  0.0649
 4124SOL    HW123831   1.325   2.318   7.376  0.5946 -0.2883  1.5606
 4124SOL    HW223832   1.355   2.462   7.402 -0.8834  0.0680 -0.0063
 4125SOL     OW23833   3.256   2.553  15.221  0.2695  0.3055  0.0458
 4125SOL    HW123834   3.334   2.529  15.270  2.5785  1.3428 -3.1378
 4125SOL    HW223835   3.277   2.626  15.162  0.0823  0.8667  0.6650
 4126SOL     OW23836   3.962   1.324   1.529  0.6981 -0.7183  0.0678
 4126SOL    HW123837   4.015   1.307   1.607  0.5542 -1.0737  0.0875
 4126SOL    HW223838   3.875   1.302   1.562  0.5974 -1.4376 -0.6858
 4127SOL     OW23839   1.877   3.749   5.717 -0.5153  0.2393 -0.5075
 4127SOL    HW123840   1.805   3.687   5.725  0.5542 -1.0163 -0.5443
 4127SOL    HW223841   1.949   3.685   5.721  2.3299  3.5349  1.2989
 4128SOL     OW23842   0.016   3.988   7.391  0.1039 -0.3828  0.6346
 4128SOL    HW123843   0.067   3.928   7.337  0.3876  0.3011  0.1473
 4128SOL    HW223844   0.071   4.065   7.380 -1.1845  0.1894 -1.7292
 4129SOL     OW23845   1.595   0.976   0.264 -0.1313 -0.4347  0.0820
 4129SOL    HW123846   1.627   0.912   0.201  1.8741 -0.0968  0.7654
 4129SOL    HW223847   1.504   0.990   0.237 -0.7081 -0.4693  1.9742
 4130SOL     OW23848   0.006   0.947   9.091 -0.4565  0.2289 -0.2229
 4130SOL    HW123849   0.030   0.858   9.117  1.8415  0.4174 -1.7468
 4130SOL    HW223850   0.094   0.985   9.096  0.2118 -1.1825 -1.3627
 4131SOL     OW23851   4.469   3.769  10.771  0.3873  0.4201  0.7551
 4131SOL    HW123852   4.397   3.832  10.770  0.0925  0.0652 -0.1480
 4131SOL    HW223853   4.527   3.798  10.701 -0.6772  1.3739  0.2683
 4132SOL     OW23854   2.835   1.733   7.680 -0.3055  0.1545 -0.2280
 4132SOL    HW123855   2.803   1.665   7.621  0.7793 -0.6581  0.1098
 4132SOL    HW223856   2.772   1.720   7.750  1.1282  0.6340  1.1489
 4133SOL     OW23857   4.544   3.906   7.876  0.0730  0.1814 -0.2423
 4133SOL    HW123858   4.514   3.996   7.864 -0.8425  0.1128  1.5258
 4133SOL    HW223859   4.539   3.865   7.790  2.7223  1.2151 -0.9018
 4134SOL     OW23860   3.197   2.591   2.253 -0.3518 -0.2720  0.3591
 4134SOL    HW123861   3.150   2.534   2.315 -0.2324 -1.5768 -0.7497
 4134SOL    HW223862   3.236   2.533   2.188 -1.0734  0.1044 -0.3965
 4135SOL     OW23863   4.385   4.414   4.663  0.1418  0.0037  0.9152
 4135SOL    HW123864   4.472   4.417   4.624  1.0150 -0.5560  2.8106
 4135SOL    HW223865   4.421   4.391   4.749  1.7846  1.1283  0.5284
 4136SOL     OW23866   4.498   0.500   7.590  0.0398 -0.4096  0.0884
 4136SOL    HW123867   4.569   0.446   7.624 -0.9447  0.1341  3.0471
 4136SOL    HW223868   4.436   0.477   7.660 -2.4915  1.4891 -1.5134
 4137SOL     OW23869   0.095   3.970  16.818 -0.5814 -0.0766  0.1892
 4137SOL    HW123870   0.103   3.913  16.741 -0.3459 -0.2924  0.3748
 4137SOL    HW223871   0.140   3.908  16.874 -1.0114  0.0418  0.6604
 4138SOL     OW23872   2.131   3.461   6.007  0.7643  0.7632 -0.3102
 4138SOL    HW123873   2.198   3.529   6.001 -0.1635  1.6110 -1.0584
 4138SOL    HW223874   2.180   3.385   5.975  0.1984 -1.5073  4.2575
 4139SOL     OW23875   0.357   3.852   1.737  0.0869 -0.2680 -0.1894
 4139SOL    HW123876   0.307   3.904   1.800 -0.0964 -1.5241  0.7116
 4139SOL    HW223877   0.428   3.816   1.789  0.8468  1.3555 -0.1002
 4140SOL     OW23878   0.561   0.460   0.252  0.2138  0.3570 -0.3677
 4140SOL    HW123879   0.558   0.369   0.222 -0.7864  1.0926 -2.4946
 4140SOL    HW223880   0.468   0.473   0.271  0.4344  0.9663  0.2891
 4141SOL     OW23881   0.142   4.696  15.916  0.0077  0.1916 -0.2444
 4141SOL    HW123882   0.214   4.633  15.920 -0.6087 -0.6793 -2.6198
 4141SOL    HW223883   0.081   4.671  15.985 -0.0453 -1.0265 -0.7337
 4142SOL     OW23884   0.867   1.916  15.085  0.3843  0.2300 -0.2288
 4142SOL    HW123885   0.792   1.858  15.074  0.8906 -0.5485  0.4708
 4142SOL    HW223886   0.839   1.983  15.022  1.0590  0.8037  0.0723
 4143SOL     OW23887   1.246   4.518   3.737 -0.1245 -0.7058 -0.4888
 4143SOL    HW123888   1.319   4.456   3.737  0.5977  0.1738  1.8390
 4143SOL    HW223889   1.253   4.548   3.646  0.6278 -0.8786 -0.4856
 4144SOL     OW23890   3.910   1.343  13.176 -0.4176  0.0214  0.3778
 4144SOL    HW123891   3.978   1.370  13.115  1.7973 -0.2327  2.7553
 4144SOL    HW223892   3.843   1.399  13.136  0.4986 -0.6795 -2.1325
 4145SOL     OW23893   3.861   1.284   3.567 -0.1449  0.5637 -0.1822
 4145SOL    HW123894   3.882   1.200   3.526 -2.8325 -1.0007  1.6732
 4145SOL    HW223895   3.790   1.321   3.515  0.8882  0.9328 -1.3367
 4146SOL     OW23896   0.055   2.215   8.230 -0.4517 -0.2308 -0.0211
 4146SOL    HW123897   0.091   2.278   8.292 -1.5678  0.3642  0.0221
 4146SOL    HW223898   0.137   2.182   8.192  0.4232  1.4141  0.4496
 4147SOL     OW23899   3.364   1.046   5.509 -0.4984 -0.1639 -0.3263
 4147SOL    HW123900   3.399   1.049   5.419  0.0306  0.5662 -0.1016
 4147SOL    HW223901   3.303   0.973   5.504 -0.8026 -0.0558  2.2298
 4148SOL     OW23902   2.033   3.671   0.471  0.2162  0.1678  0.2434
 4148SOL    HW123903   2.020   3.730   0.397 -1.3513  0.5639  0.8299
 4148SOL    HW223904   2.046   3.738   0.538  4.3360  0.3680 -0.7659
 4149SOL     OW23905   3.870   0.570   8.003 -0.2139 -0.3812  0.1220
 4149SOL    HW123906   3.825   0.655   7.998 -2.2521 -1.3219  2.2531
 4149SOL    HW223907   3.930   0.580   7.930  0.2473  0.6944  0.6430
 4150SOL     OW23908   2.965   3.406   0.694  0.0047  0.3834 -0.4887
 4150SOL    HW123909   2.989   3.427   0.784  0.2425 -1.4307 -0.1442
 4150SOL    HW223910   2.879   3.446   0.678 -0.6588 -1.0116 -0.4291
 4151SOL     OW23911   4.273   1.319   8.347  0.3905  0.4052 -0.4495
 4151SOL    HW123912   4.250   1.339   8.257  0.3753 -0.9231 -0.7430
 4151SOL    HW223913   4.286   1.403   8.391  0.1531  1.1241 -1.7770
 4152SOL     OW23914   4.668   4.268  14.029  0.2266  0.7477 -0.5461
 4152SOL    HW123915   4.709   4.309  14.106  1.2643 -0.2058 -0.5997
 4152SOL    HW223916   4.666   4.178  14.062  0.1760 -0.5241 -4.0827
 4153SOL     OW23917   2.774   3.749  17.264 -0.0896  0.0202 -0.0047
 4153SOL    HW123918   2.764   3.704  17.180 -1.0591 -1.0168  0.6696
 4153SOL    HW223919   2.740   3.834  17.239 -2.6552 -1.0148 -0.0761
 4154SOL     OW23920   3.726   2.011   4.148 -0.8132  0.3153  0.8457
 4154SOL    HW123921   3.770   2.080   4.197 -1.0927  0.1581  1.3102
 4154SOL    HW223922   3.757   1.926   4.178  0.3043  0.7517  0.9203
 4155SOL     OW23923   2.083   4.080   2.376  0.6939  0.6056  0.1847
 4155SOL    HW123924   2.174   4.066   2.348  1.3752  2.7601  1.3702
 4155SOL    HW223925   2.076   4.173   2.356  1.3422  1.2097  2.8520
 4156SOL     OW23926   3.849   3.861   1.711 -0.4902 -0.0040  0.0944
 4156SOL    HW123927   3.897   3.944   1.710  1.4944 -1.1492 -0.6711
 4156SOL    HW223928   3.780   3.876   1.775  0.6725 -1.3338  1.6687
 4157SOL     OW23929   2.044   3.519   2.475  0.0906 -0.1960  0.3174
 4157SOL    HW123930   2.068   3.593   2.420 -1.2094  0.0363  0.0769
 4157SOL    HW223931   2.084   3.446   2.427  0.1896 -1.0015  1.6161
 4158SOL     OW23932   3.692   0.367   0.523 -0.4776  0.4190  0.2348
 4158SOL    HW123933   3.703   0.460   0.502  1.0898 -0.0077 -0.8302
 4158SOL    HW223934   3.618   0.338   0.469  1.1502  0.1346 -1.8404
 4159SOL     OW23935   0.333   1.485  12.223 -0.5692  0.6135  0.3125
 4159SOL    HW123936   0.356   1.461  12.133  1.2346 -1.0936  1.2239
 4159SOL    HW223937   0.246   1.525  12.230 -2.3826 -3.4084  0.6611
 4160SOL     OW23938   1.595   3.575   7.063  0.4984  0.5669 -0.1122
 4160SOL    HW123939   1.668   3.583   7.124 -0.4315 -0.5532  1.1278
 4160SOL    HW223940   1.625   3.495   7.020 -0.2118  0.4386 -0.3791
 4161SOL     OW23941   4.662   1.970   2.186  0.0996 -0.3366 -0.0689
 4161SOL    HW123942   0.001   1.990   2.111 -2.2413  1.7446 -1.2653
 4161SOL    HW223943   4.579   2.005   2.155  0.9699  1.7990  0.0614
 4162SOL     OW23944   2.752   1.653   4.668  0.6161  0.2309  0.1515
 4162SOL    HW123945   2.662   1.665   4.698  0.6865  2.0398 -0.3244
 4162SOL    HW223946   2.760   1.695   4.582  0.4552 -0.7642 -0.3406
 4163SOL     OW23947   3.976   3.924   6.981  0.0823  0.7072  0.2354
 4163SOL    HW123948   3.910   3.953   7.044 -0.9563  2.8330 -1.8627
 4163SOL    HW223949   4.032   4.001   6.973 -0.4111  0.9950 -0.3565
 4164SOL     OW23950   3.926   0.761   4.325  0.7991  0.2100 -0.4706
 4164SOL    HW123951   3.832   0.761   4.342  1.1083 -0.9693  1.2428
 4164SOL    HW223952   3.940   0.856   4.317  1.8567  0.0946 -0.0382
 4165SOL     OW23953   4.194   0.430   6.315 -0.2246  0.0144 -0.3456
 4165SOL    HW123954   4.279   0.437   6.358  0.2981 -0.9287 -1.2463
 4165SOL    HW223955   4.173   0.523   6.304 -0.2557 -0.0988 -1.2146
 4166SOL     OW23956   3.303   3.668   3.588 -0.7561  0.4342 -0.4782
 4166SOL    HW123957   3.208   3.681   3.589 -0.9782 -1.7895  5.1644
 4166SOL    HW223958   3.319   3.752   3.544  0.3649  1.1381  1.2649
 4167SOL     OW23959   1.894   0.903   8.063  0.1190 -0.3353  0.2598
 4167SOL    HW123960   1.938   0.908   8.148 -0.7834 -1.0094  0.7644
 4167SOL    HW223961   1.805   0.898   8.098 -0.0004 -1.0062 -0.1400
 4168SOL     OW23962   1.480   0.533  16.149 -0.0139 -0.1349 -0.4290
 4168SOL    HW123963   1.400   0.575  16.182  0.0526 -0.0533 -0.3720
 4168SOL    HW223964   1.514   0.603  16.095  0.2106  1.5369  1.8635
 4169SOL     OW23965   0.098   3.613   8.236  0.0124  1.1175 -0.3464
 4169SOL    HW123966   0.164   3.585   8.173 -0.7985 -0.7225 -0.3952
 4169SOL    HW223967   0.152   3.621   8.315 -2.0204 -1.6649  1.3371
 4170SOL     OW23968   0.010   3.676   2.431  0.3932 -0.4709  0.3873
 4170SOL    HW123969   0.080   3.640   2.486  0.4977  2.0296  1.8873
 4170SOL    HW223970   0.041   3.766   2.418 -1.2108 -0.4335 -2.9796
 4171SOL     OW23971   1.310   3.594   2.646 -0.0454  0.4504 -0.4092
 4171SOL    HW123972   1.240   3.596   2.581  0.3795  1.2674 -0.8437
 4171SOL    HW223973   1.295   3.504   2.675 -0.1579  0.4189 -0.5662
 4172SOL     OW23974   3.173   0.891   6.121 -0.3950  0.0654 -0.2554
 4172SOL    HW123975   3.124   0.814   6.092 -1.8967  1.2763 -0.9200
 4172SOL    HW223976   3.206   0.927   6.038 -2.1368 -1.0205 -1.4208
 4173SOL     OW23977   2.322   2.974  12.328  0.0121 -0.4607  0.0054
 4173SOL    HW123978   2.335   2.929  12.412 -0.2994 -0.5637 -0.0018
 4173SOL    HW223979   2.329   3.066  12.352  1.8800 -0.9707  1.4418
 4174SOL     OW23980   1.483   0.277  16.034 -0.4044  0.0197 -0.6390
 4174SOL    HW123981   1.482   0.367  16.066 -0.4220  0.3067 -1.4603
 4174SOL    HW223982   1.400   0.250  16.072 -1.2531 -1.0516 -3.2699
 4175SOL     OW23983   2.054   3.584   5.528 -0.2034 -0.7357 -0.0641
 4175SOL    HW123984   2.032   3.555   5.616  0.5279 -1.8068 -0.2311
 4175SOL    HW223985   2.148   3.577   5.545 -0.3293 -1.2615  0.4038
 4176SOL     OW23986   1.763   1.086   6.706  0.1415 -0.2865 -0.1728
 4176SOL    HW123987   1.773   1.172   6.747 -0.9762  0.2746 -1.0702
 4176SOL    HW223988   1.726   1.032   6.775  0.4342  2.1911  1.9437
 4177SOL     OW23989   1.999   1.868   0.620  0.6676  0.4231  0.0369
 4177SOL    HW123990   2.019   1.788   0.668 -2.2104 -1.2879 -1.5737
 4177SOL    HW223991   2.079   1.920   0.630  1.4784 -1.2255  1.8978
 4178SOL     OW23992   3.042   4.384   4.676  0.2009 -0.0018 -0.5477
 4178SOL    HW123993   2.991   4.324   4.621 -1.5312  0.3206  0.7112
 4178SOL    HW223994   3.057   4.457   4.616 -1.3070 -0.2347 -1.2158
 4179SOL     OW23995   1.740   3.561   7.303  0.1318  0.2985 -0.2726
 4179SOL    HW123996   1.816   3.532   7.354  1.0019  1.0298 -1.1441
 4179SOL    HW223997   1.717   3.648   7.335 -0.1048 -0.3753  1.3797
 4180SOL     OW23998   4.446   1.688   7.908 -0.9766 -0.0284 -0.3055
 4180SOL    HW123999   4.381   1.754   7.935 -0.0626  1.1272 -0.9138
 4180SOL    HW224000   4.389   1.621   7.869 -0.4024  0.2267 -1.5642
 4181SOL     OW24001   2.219   2.174   7.372  0.3864  0.1358 -0.1868
 4181SOL    HW124002   2.154   2.201   7.436 -0.8457 -1.9722 -0.5409
 4181SOL    HW224003   2.273   2.132   7.439  0.8145 -0.7427 -1.0678
 4182SOL     OW24004   3.987   1.482  13.457 -0.2246  0.0305  0.1842
 4182SOL    HW124005   3.921   1.476  13.526  0.6596 -0.6424  0.9690
 4182SOL    HW224006   3.958   1.410  13.400 -0.0351 -0.6588  0.9535
 4183SOL     OW24007   4.059   0.670  17.512 -0.0173 -0.1754 -0.1118
 4183SOL    HW124008   3.971   0.680  17.549  0.0177  3.7362 -1.0981
 4183SOL    HW224009   4.058   0.580  17.478  2.4977  0.3053 -1.4583
 4184SOL     OW24010   1.118   3.030   6.404 -0.6330 -0.0341 -0.5432
 4184SOL    HW124011   1.041   3.051   6.457 -0.1867  1.2997 -0.4280
 4184SOL    HW224012   1.186   3.054   6.466 -0.5160 -2.3111  0.1962
 4185SOL     OW24013   4.691   0.298  16.154 -0.4915  0.3560 -0.0099
 4185SOL    HW124014   0.017   0.255  16.081 -1.9358 -2.4930  0.8293
 4185SOL    HW224015   4.612   0.331  16.110 -0.7706 -1.4780 -0.8639
 4186SOL     OW24016   4.481   4.678   8.300  0.6036 -0.0619 -0.3118
 4186SOL    HW124017   4.428   4.671   8.379  0.3382 -2.0422 -0.6697
 4186SOL    HW224018   4.482   4.588   8.266  1.1611  0.0846 -0.6902
 4187SOL     OW24019   3.919   3.315   3.423 -0.4044  0.5525  0.2506
 4187SOL    HW124020   3.973   3.336   3.499  0.3952 -0.2486 -0.0921
 4187SOL    HW224021   3.828   3.323   3.452 -0.2538  0.8308  0.6511
 4188SOL     OW24022   0.219   2.286   4.355 -0.0683  0.3272 -0.5065
 4188SOL    HW124023   0.249   2.268   4.266  1.2549  1.9855 -0.3887
 4188SOL    HW224024   0.199   2.379   4.347 -1.3147  0.1801  0.9232
 4189SOL     OW24025   3.815   3.660   8.537 -0.3500 -0.2133 -0.1586
 4189SOL    HW124026   3.837   3.609   8.615  2.4885  0.8018 -0.3199
 4189SOL    HW224027   3.898   3.703   8.518 -0.2571 -0.4045 -0.1813
 4190SOL     OW24028   4.384   3.055   4.535 -0.2284 -0.0989 -0.9832
 4190SOL    HW124029   4.409   3.147   4.526  1.1605 -0.7135 -3.2278
 4190SOL    HW224030   4.464   3.032   4.582 -0.5013  1.5930  0.3215
 4191SOL     OW24031   2.663   0.568  14.143 -1.0787  0.4470 -0.2371
 4191SOL    HW124032   2.754   0.585  14.119 -0.7842  2.0714  1.9571
 4191SOL    HW224033   2.683   0.512  14.218 -0.1333 -1.6912 -2.0891
 4192SOL     OW24034   1.653   1.537   6.009  0.0417 -0.4215 -0.0365
 4192SOL    HW124035   1.737   1.523   6.052 -0.2728 -2.7158 -0.1396
 4192SOL    HW224036   1.615   1.449   6.004 -1.0733  0.1354 -1.3340
 4193SOL     OW24037   0.562   4.591  11.827 -0.5537 -0.2480  0.1603
 4193SOL    HW124038   0.638   4.644  11.802  0.7167 -2.6313 -1.0252
 4193SOL    HW224039   0.570   4.584  11.922 -0.3390 -2.0394  0.0158
 4194SOL     OW24040   2.293   1.687   6.181  0.0742 -0.3512  0.5583
 4194SOL    HW124041   2.359   1.756   6.190 -1.3230  1.1869 -1.0819
 4194SOL    HW224042   2.331   1.621   6.238  3.9184 -0.3671 -1.9888
 4195SOL     OW24043   0.171   3.742   6.228  0.3687  0.4097 -0.7251
 4195SOL    HW124044   0.263   3.720   6.216  0.2774 -0.1447 -0.4236
 4195SOL    HW224045   0.161   3.759   6.322 -4.1239 -2.0887 -0.7228
 4196SOL     OW24046   3.043   4.306   4.077  0.7660  1.1365 -0.6224
 4196SOL    HW124047   2.980   4.257   4.024 -2.0080  0.3937  3.3453
 4196SOL    HW224048   3.011   4.397   4.075  0.9746  1.1820 -1.5920
 4197SOL     OW24049   3.338   2.964   6.077 -0.2023 -0.1632  0.2844
 4197SOL    HW124050   3.269   2.926   6.022  1.5240  0.5211 -2.3746
 4197SOL    HW224051   3.401   2.892   6.072  0.5573  0.4306  1.3235
 4198SOL     OW24052   0.627   0.592   0.919 -0.1955  0.0525 -0.1269
 4198SOL    HW124053   0.668   0.676   0.898  0.2426 -0.7414 -2.3996
 4198SOL    HW224054   0.535   0.608   0.937  0.0085  0.4666  0.5580
 4199SOL     OW24055   0.700   2.420  17.372 -1.0095  0.0976  0.0246
 4199SOL    HW124056   0.680   2.440  17.463 -0.2951 -2.3350  0.7083
 4199SOL    HW224057   0.790   2.454  17.374  0.0444 -2.6693 -1.4502
 4200SOL     OW24058   3.336   3.759   4.787 -0.7409 -0.0236 -0.1504
 4200SOL    HW124059   3.244   3.773   4.808 -0.3694  0.7232  0.9530
 4200SOL    HW224060   3.326   3.667   4.760  1.2749  0.4605 -2.6443
 4201SOL     OW24061   0.661   0.523   3.627  0.1192  0.0868  0.2284
 4201SOL    HW124062   0.601   0.515   3.702 -1.0435  0.2254 -0.6914
 4201SOL    HW224063   0.603   0.523   3.551  1.3572  1.3605 -0.7129
 4202SOL     OW24064   1.013   3.083  14.274  0.2813  0.1209 -0.3830
 4202SOL    HW124065   1.017   3.000  14.226 -1.0254 -1.9625  3.0779
 4202SOL    HW224066   0.947   3.065  14.341 -0.5602  0.6764 -1.0622
 4203SOL     OW24067   1.349   3.097   6.543  0.0109  0.2925  0.7493
 4203SOL    HW124068   1.427   3.147   6.519 -0.0621  0.4567  0.8474
 4203SOL    HW224069   1.326   3.128   6.631 -0.2178 -0.2963  0.8984
 4204SOL     OW24070   2.422   0.748   7.093  0.3149  0.0144 -0.3487
 4204SOL    HW124071   2.499   0.769   7.146 -0.5952  1.0762  0.5421
 4204SOL    HW224072   2.361   0.816   7.120  0.3616 -0.2335  0.3821
 4205SOL     OW24073   0.599   1.770   2.062 -0.8162  0.2306 -0.5175
 4205SOL    HW124074   0.597   1.699   1.997 -2.4938 -1.4139  1.3162
 4205SOL    HW224075   0.695   1.773   2.060 -0.6724 -3.2231  0.7417
 4206SOL     OW24076   4.642   1.549   1.537  0.2792 -0.3778 -0.5419
 4206SOL    HW124077   4.651   1.454   1.548  1.0313 -0.3775 -1.1078
 4206SOL    HW224078   4.650   1.561   1.442 -0.4610  0.8146 -0.4410
 4207SOL     OW24079   2.323   2.965   1.918 -0.2097 -0.3869  0.1554
 4207SOL    HW124080   2.260   2.894   1.933 -0.6056  0.3765  2.1786
 4207SOL    HW224081   2.274   3.040   1.951  1.7111  0.9385 -0.0160
 4208SOL     OW24082   0.169   2.177  16.027 -0.0212  0.0069  0.4777
 4208SOL    HW124083   0.233   2.106  16.029 -0.3415 -0.3448 -1.9221
 4208SOL    HW224084   0.223   2.250  16.057 -0.2098 -0.8519  2.8806
 4209SOL     OW24085   1.187   0.809   3.975  0.1499 -0.0160  0.2383
 4209SOL    HW124086   1.116   0.835   4.034  0.9653 -0.3215  1.3579
 4209SOL    HW224087   1.128   0.770   3.911  0.4194  2.2073 -1.3699
 4210SOL     OW24088   3.676   1.369   2.145  0.1338 -0.1542  0.0676
 4210SOL    HW124089   3.614   1.412   2.204  0.0911 -1.0417  0.6799
 4210SOL    HW224090   3.700   1.293   2.198 -1.4078 -0.4377  0.3530
 4211SOL     OW24091   2.825   0.988  15.034  0.4435 -0.1116  0.4005
 4211SOL    HW124092   2.807   1.045  14.959  0.0829 -2.6045 -1.4022
 4211SOL    HW224093   2.746   0.934  15.033 -0.7754  1.7237 -2.6722
 4212SOL     OW24094   1.119   3.885   8.258 -0.0274  0.1709 -0.1341
 4212SOL    HW124095   1.054   3.818   8.280 -1.1080  0.9675 -0.8563
 4212SOL    HW224096   1.164   3.839   8.187  0.8064  1.2403 -0.2924
 4213SOL     OW24097   2.485   3.728   4.036 -0.7201 -0.6411  0.0280
 4213SOL    HW124098   2.566   3.744   3.989 -0.5700 -0.4174  0.3609
 4213SOL    HW224099   2.515   3.668   4.105 -1.4643 -0.8893  0.1381
 4214SOL     OW24100   4.300   3.093   7.949  0.1320 -0.5618 -0.1030
 4214SOL    HW124101   4.338   3.013   7.913 -0.1953 -1.6890  2.0771
 4214SOL    HW224102   4.346   3.099   8.032 -0.5752 -2.2362  0.3938
 4215SOL     OW24103   0.137   0.602   5.521  0.0109  0.1325 -0.7210
 4215SOL    HW124104   0.081   0.556   5.583  2.0804  0.8930  1.7269
 4215SOL    HW224105   0.180   0.527   5.481  2.6229  0.6725  1.0532
 4216SOL     OW24106   3.761   3.476  14.253  0.4462 -0.1193 -0.8446
 4216SOL    HW124107   3.767   3.504  14.162 -0.3977 -0.6970 -1.0720
 4216SOL    HW224108   3.743   3.384  14.236 -2.8446  0.5925 -1.0846
 4217SOL     OW24109   1.799   2.831  15.180  0.4890  0.2548 -0.4650
 4217SOL    HW124110   1.891   2.840  15.155  0.8831 -1.3849  0.3860
 4217SOL    HW224111   1.758   2.881  15.110 -0.2724 -0.5690 -0.6011
 4218SOL     OW24112   2.410   1.420  16.282 -0.2952  0.1787  0.3400
 4218SOL    HW124113   2.494   1.378  16.298 -0.6111  0.5080  2.9538
 4218SOL    HW224114   2.353   1.354  16.321 -0.5723  0.2086 -0.0216
 4219SOL     OW24115   2.735   0.501  15.142 -0.3631 -0.3434 -0.9738
 4219SOL    HW124116   2.728   0.554  15.221  0.4838 -3.5241  1.2310
 4219SOL    HW224117   2.704   0.564  15.076 -0.3125  0.5765 -0.1312
 4220SOL     OW24118   1.799   2.548   3.601  0.1111  0.4875 -0.0035
 4220SOL    HW124119   1.845   2.622   3.642 -1.5691  0.3222  2.1399
 4220SOL    HW224120   1.800   2.483   3.671  0.9274  0.7134  0.1969
 4221SOL     OW24121   1.501   4.522   7.332  0.3113 -0.2352  0.5350
 4221SOL    HW124122   1.429   4.471   7.368 -1.0274  1.9158  0.9009
 4221SOL    HW224123   1.550   4.554   7.407 -1.3476  0.7908  1.1671
 4222SOL     OW24124   4.025   1.303   5.746  0.4144  0.1860  0.6258
 4222SOL    HW124125   3.952   1.286   5.687  1.4432 -0.3579 -0.5165
 4222SOL    HW224126   4.086   1.345   5.684 -0.4522 -0.7258 -0.8362
 4223SOL     OW24127   4.656   2.946  14.973 -0.2058 -0.1642 -0.3476
 4223SOL    HW124128   4.646   2.869  15.029 -0.3517  1.6705  2.1161
 4223SOL    HW224129   4.639   3.016  15.035  1.0745  0.4615 -0.7021
 4224SOL     OW24130   0.045   0.218  16.989 -0.5348  0.5729 -0.1787
 4224SOL    HW124131   0.112   0.222  17.057 -0.5950 -0.2366 -0.0713
 4224SOL    HW224132   0.093   0.189  16.911 -1.0272  1.1276 -0.6846
 4225SOL     OW24133   2.190   3.263   5.623  0.1378 -0.5768 -0.1907
 4225SOL    HW124134   2.114   3.268   5.565 -0.0658  0.3567  0.1680
 4225SOL    HW224135   2.222   3.175   5.601  1.6883 -0.6623  2.4810
 4226SOL     OW24136   1.799   2.140  17.076 -0.4537 -0.5123  0.0180
 4226SOL    HW124137   1.745   2.082  17.130 -2.8049  0.5133 -1.2245
 4226SOL    HW224138   1.858   2.081  17.029  0.9428 -0.0136  1.1497
 4227SOL     OW24139   1.661   3.112   8.113  0.6966  0.3112  0.8243
 4227SOL    HW124140   1.729   3.158   8.065  1.2196 -1.4674 -0.1591
 4227SOL    HW224141   1.679   3.128   8.205  1.7885 -0.9811  0.8444
 4228SOL     OW24142   1.447   3.413   9.105  0.2490 -0.3476  0.1098
 4228SOL    HW124143   1.455   3.492   9.052  2.9240 -0.8454 -0.2209
 4228SOL    HW224144   1.380   3.362   9.061  0.9436 -2.2029  1.2083
 4229SOL     OW24145   1.361   1.217   4.477  0.1186  0.1211 -0.1248
 4229SOL    HW124146   1.399   1.191   4.561  0.7997 -0.3467 -0.5818
 4229SOL    HW224147   1.344   1.311   4.488 -0.2207 -0.0079  0.4468
 4230SOL     OW24148   2.979   1.790   3.519 -0.3372 -0.0166  0.0731
 4230SOL    HW124149   2.919   1.863   3.512 -2.1090 -1.3064  1.6499
 4230SOL    HW224150   2.997   1.775   3.426  2.1123 -0.3207  0.5857
 4231SOL     OW24151   2.982   2.118   2.476 -0.7831 -0.2160  0.1947
 4231SOL    HW124152   2.966   2.133   2.569 -2.4735  0.2553 -0.1707
 4231SOL    HW224153   3.061   2.171   2.471  0.1231 -1.7415 -1.7888
 4232SOL     OW24154   1.453   2.807   5.533 -0.0181  0.0867  0.2408
 4232SOL    HW124155   1.490   2.838   5.451 -1.3922 -0.5400 -0.6156
 4232SOL    HW224156   1.525   2.828   5.593  0.6639 -1.4431 -0.0473
 4233SOL     OW24157   1.318   4.555   1.682 -0.0053  0.3740 -0.7276
 4233SOL    HW124158   1.412   4.555   1.664  0.0882 -0.3253 -0.2114
 4233SOL    HW224159   1.297   4.465   1.657 -0.6376 -0.0461  1.3119
 4234SOL     OW24160   2.775   4.173  12.862  0.0347  0.0237  0.5072
 4234SOL    HW124161   2.859   4.129  12.850  0.3226  0.8743 -0.5919
 4234SOL    HW224162   2.717   4.100  12.842 -1.1330  0.9650  0.4611
 4235SOL     OW24163   2.271   2.753   4.837 -0.7199 -0.0695  0.1404
 4235SOL    HW124164   2.246   2.683   4.897 -1.8338  0.0856 -0.1366
 4235SOL    HW224165   2.319   2.716   4.763 -2.0341  0.4757 -0.9730
 4236SOL     OW24166   0.669   1.442   8.901 -0.9328  0.1333  0.0743
 4236SOL    HW124167   0.576   1.454   8.882 -1.4161 -2.1690  1.0063
 4236SOL    HW224168   0.695   1.377   8.836  1.5199  0.5999  0.5875
 4237SOL     OW24169   3.393   0.673  12.021  0.4549  0.0897  0.0599
 4237SOL    HW124170   3.357   0.598  11.973 -0.3578  0.2661  0.3909
 4237SOL    HW224171   3.385   0.645  12.113  0.0985 -0.4252 -0.1243
 4238SOL     OW24172   4.186   0.300   5.834 -0.3120  0.0280 -0.6802
 4238SOL    HW124173   4.212   0.343   5.752 -1.3376  0.7312 -0.6295
 4238SOL    HW224174   4.157   0.214   5.804 -0.3964  0.2379 -1.2062
 4239SOL     OW24175   4.149   1.118   6.523  0.1150 -0.1594 -0.3658
 4239SOL    HW124176   4.177   1.165   6.602 -0.0559  0.5132 -0.7023
 4239SOL    HW224177   4.056   1.141   6.515 -0.3527 -1.7941  0.4763
 4240SOL     OW24178   1.252   3.978   1.713  0.0941  0.1263  0.5947
 4240SOL    HW124179   1.172   3.927   1.698  0.7379  0.0079 -2.5943
 4240SOL    HW224180   1.297   3.983   1.628  0.3891  0.6172  0.7860
 4241SOL     OW24181   0.085   2.975  11.952 -0.1940 -0.2660  0.1518
 4241SOL    HW124182   0.010   2.916  11.963 -0.7412  0.1593 -1.3130
 4241SOL    HW224183   0.138   2.952  12.028 -2.6161  0.6797  2.1274
 4242SOL     OW24184   3.248   3.875  10.784  0.2303  0.4007 -0.1020
 4242SOL    HW124185   3.252   3.858  10.690 -0.0915 -0.8509  0.1157
 4242SOL    HW224186   3.192   3.801  10.803 -0.1294  0.4380 -1.0472
 4243SOL     OW24187   2.983   1.600  15.426 -0.5999 -0.0241  0.0527
 4243SOL    HW124188   2.991   1.695  15.422  3.9243 -0.5082 -2.6733
 4243SOL    HW224189   3.025   1.587  15.511 -2.4357 -0.9706  0.8169
 4244SOL     OW24190   3.827   2.088  16.754  0.0484  0.4692  0.1334
 4244SOL    HW124191   3.845   2.033  16.677 -3.1859  0.3132 -0.5152
 4244SOL    HW224192   3.915   2.098  16.791  1.1061 -0.6276 -2.0748
 4245SOL     OW24193   0.501   2.449   5.587  0.1059  0.9224  0.0902
 4245SOL    HW124194   0.492   2.528   5.641  1.5299 -0.3296  2.1587
 4245SOL    HW224195   0.434   2.458   5.520  0.2546  4.2375  0.3840
 4246SOL     OW24196   3.402   3.789  15.167  0.5165  0.3085  0.1004
 4246SOL    HW124197   3.413   3.715  15.107  1.1486 -0.5266  1.2334
 4246SOL    HW224198   3.491   3.824  15.162  0.9387 -0.8679 -0.6750
 4247SOL     OW24199   2.176   2.421   3.314 -0.2785 -0.1888 -0.0002
 4247SOL    HW124200   2.155   2.393   3.225  2.0688 -1.3771 -0.1769
 4247SOL    HW224201   2.094   2.462   3.344 -0.6209 -0.2521 -0.8461
 4248SOL     OW24202   0.094   0.285  11.988  0.9140 -0.2617  0.4052
 4248SOL    HW124203   0.143   0.218  11.939  3.6948 -0.1490  3.0352
 4248SOL    HW224204   0.004   0.256  11.977  1.2781 -1.8512  1.6471
 4249SOL     OW24205   0.332   4.027   4.811  0.2057 -0.1602  0.1120
 4249SOL    HW124206   0.264   3.995   4.871  0.9933 -0.4338  0.8623
 4249SOL    HW224207   0.397   4.033   4.881 -0.5214  1.2039  0.6789
 4250SOL     OW24208   0.570   0.238   3.956  0.1028  0.3563 -0.4174
 4250SOL    HW124209   0.501   0.174   3.973 -0.8044  1.4645 -0.0028
 4250SOL    HW224210   0.641   0.182   3.923 -0.0841 -0.1061 -0.0332
 4251SOL     OW24211   0.699   0.512   2.691 -0.3262  0.6871  0.1937
 4251SOL    HW124212   0.678   0.469   2.774 -0.9806 -1.1257 -0.9013
 4251SOL    HW224213   0.618   0.496   2.643 -0.7219  1.0686  0.7270
 4252SOL     OW24214   1.764   3.064   6.286  0.1124  0.1318  0.7053
 4252SOL    HW124215   1.778   3.157   6.270  2.4654 -0.5157 -0.9090
 4252SOL    HW224216   1.798   3.056   6.375  0.4007 -2.5547  0.3518
 4253SOL     OW24217   4.281   2.812  17.293  0.3018  0.1810 -0.0688
 4253SOL    HW124218   4.239   2.752  17.231  0.6094  3.3173 -3.3108
 4253SOL    HW224219   4.371   2.808  17.260  0.3499  0.4372  0.0330
 4254SOL     OW24220   2.979   0.685   6.076  0.0220  0.0053 -0.2133
 4254SOL    HW124221   2.908   0.747   6.060  1.0521  1.0967 -0.5736
 4254SOL    HW224222   2.921   0.611   6.057  1.5662 -1.3444  0.3105
 4255SOL     OW24223   1.032   1.417   4.640  0.1888 -0.2613  0.2434
 4255SOL    HW124224   1.019   1.326   4.614 -2.1134 -0.0076  0.5557
 4255SOL    HW224225   1.012   1.413   4.733 -2.6193  1.0377 -0.3043
 4256SOL     OW24226   0.906   0.441  11.452 -0.1017 -0.6842 -0.1871
 4256SOL    HW124227   0.997   0.430  11.427  0.1277 -0.1261  0.3750
 4256SOL    HW224228   0.885   0.524  11.409  1.4744  0.4504  1.2164
 4257SOL     OW24229   0.460   0.878   0.242  0.1262  0.4411 -0.0303
 4257SOL    HW124230   0.542   0.928   0.244  0.1257  0.3831  1.6571
 4257SOL    HW224231   0.478   0.826   0.164  0.3398  1.0876 -0.4070
 4258SOL     OW24232   3.636   0.001   8.268 -0.0208  0.7935  0.5301
 4258SOL    HW124233   3.725   4.715   8.303 -0.2665  1.5042  1.2361
 4258SOL    HW224234   3.582   4.672   8.332 -0.8418  0.9419 -0.0616
 4259SOL     OW24235   3.234   4.644   8.285 -0.1565 -0.0562 -0.2295
 4259SOL    HW124236   3.289   4.565   8.285  4.2153  2.9703 -1.3718
 4259SOL    HW224237   3.274   4.700   8.218  0.5960  0.0275  0.2962
 4260SOL     OW24238   2.504   2.669   2.535  0.1697 -0.2886  0.6893
 4260SOL    HW124239   2.503   2.667   2.630 -1.2001  0.9142  0.7018
 4260SOL    HW224240   2.412   2.646   2.520  0.0826  1.3670 -1.2744
 4261SOL     OW24241   1.266   4.217   3.460  0.4596  0.1520  0.8358
 4261SOL    HW124242   1.205   4.281   3.422  1.8609  2.1189  1.9171
 4261SOL    HW224243   1.319   4.185   3.387 -2.6657  1.5764 -2.0671
 4262SOL     OW24244   1.121   4.420   4.677  0.1838  0.6144 -0.4069
 4262SOL    HW124245   1.132   4.474   4.755  0.0924 -1.0754  0.7861
 4262SOL    HW224246   1.025   4.422   4.679  0.1865  1.7255 -1.5541
 4263SOL     OW24247   1.280   3.662  10.923  0.5454  0.2872 -0.4053
 4263SOL    HW124248   1.341   3.735  10.908  1.9293 -1.0092 -1.0407
 4263SOL    HW224249   1.333   3.585  10.943  0.0260 -0.6980 -2.8113
 4264SOL     OW24250   3.781   0.457   7.542 -0.2449 -0.2010  0.4031
 4264SOL    HW124251   3.728   0.484   7.466  1.0698 -1.5913 -0.9935
 4264SOL    HW224252   3.743   0.373   7.565  1.9802 -1.0240  0.9832
 4265SOL     OW24253   2.492   0.444   7.783 -0.2772 -0.5417  0.3492
 4265SOL    HW124254   2.439   0.445   7.862 -0.9650 -0.3882 -0.1155
 4265SOL    HW224255   2.495   0.539   7.768  2.5038 -0.4582  1.3575
 4266SOL     OW24256   1.046   2.015   2.677 -0.0594 -0.4675 -0.2844
 4266SOL    HW124257   1.081   1.974   2.597 -1.8771  0.1912 -1.4143
 4266SOL    HW224258   1.128   2.019   2.727  0.0596  0.1400 -0.5146
 4267SOL     OW24259   0.778   4.102  16.586  0.2337  0.2277  0.2430
 4267SOL    HW124260   0.699   4.141  16.548  1.9012  0.6848 -2.7502
 4267SOL    HW224261   0.741   4.059  16.664 -1.3840  0.7118 -0.2580
 4268SOL     OW24262   1.827   4.249   5.685 -0.1758 -0.2847 -0.0282
 4268SOL    HW124263   1.789   4.216   5.767  0.4774  0.2959  0.5103
 4268SOL    HW224264   1.866   4.174   5.642  0.2342 -0.0898  0.0006
 4269SOL     OW24265   2.851   0.855   4.833 -0.3832  0.0117  0.1680
 4269SOL    HW124266   2.855   0.951   4.832  0.2200 -0.0211 -0.2364
 4269SOL    HW224267   2.889   0.835   4.748 -0.2897 -1.3703  0.5401
 4270SOL     OW24268   3.219   1.780   7.952  0.6699 -0.2289 -0.0896
 4270SOL    HW124269   3.238   1.813   7.864 -1.2435  1.7817  0.2657
 4270SOL    HW224270   3.298   1.726   7.961  2.1053  1.7494 -0.6698
 4271SOL     OW24271   0.541   4.194   3.719 -0.0989 -0.2456 -0.5373
 4271SOL    HW124272   0.486   4.116   3.724 -0.3793 -0.1041 -1.4034
 4271SOL    HW224273   0.615   4.160   3.667 -0.9325  1.0430 -2.5844
 4272SOL     OW24274   4.093   0.053   1.201 -0.4705 -0.5276 -0.1459
 4272SOL    HW124275   4.065   0.064   1.292 -0.2532  2.4538 -0.4552
 4272SOL    HW224276   4.169   4.712   1.206 -0.3654 -0.3665  0.1477
 4273SOL     OW24277   2.347   0.748   5.920 -0.1597 -0.5458  0.0556
 4273SOL    HW124278   2.390   0.830   5.943  0.4695 -1.0207  0.6099
 4273SOL    HW224279   2.396   0.684   5.972  1.2569 -0.2984 -0.9906
 4274SOL     OW24280   4.682   0.242   3.226  0.2666  0.2645 -0.7156
 4274SOL    HW124281   4.639   0.161   3.197 -1.5414  0.8409  0.3326
 4274SOL    HW224282   0.010   0.260   3.144  4.1653 -0.0498  1.3957
 4275SOL     OW24283   1.182   3.967   6.882 -0.0950 -0.4429  0.3446
 4275SOL    HW124284   1.267   3.927   6.864  0.6674  1.2828  0.1057
 4275SOL    HW224285   1.122   3.893   6.871  0.1103 -0.1759 -2.5804
 4276SOL     OW24286   3.217   4.041   4.171  0.3472 -0.2961 -0.1549
 4276SOL    HW124287   3.240   4.006   4.258 -0.9688  0.8018  0.6283
 4276SOL    HW224288   3.274   4.116   4.156  1.1894 -0.6497  1.2333
 4277SOL     OW24289   4.626   1.698   3.321  0.5818 -0.1347 -0.6750
 4277SOL    HW124290   0.001   1.696   3.349  0.3550  1.9117  0.2680
 4277SOL    HW224291   4.587   1.761   3.383 -1.5956 -3.9657  1.8162
 4278SOL     OW24292   3.998   0.943   1.637 -0.0028  0.4011  0.3829
 4278SOL    HW124293   3.964   1.031   1.650  0.7652  1.0640 -1.9658
 4278SOL    HW224294   3.920   0.897   1.605  0.6503  0.4613 -1.3390
 4279SOL     OW24295   4.377   3.062   7.361 -0.2036  0.1292 -0.1741
 4279SOL    HW124296   4.466   3.065   7.395 -1.2484 -2.4021  2.7837
 4279SOL    HW224297   4.375   3.083   7.267 -0.0815  0.5960 -0.0721
 4280SOL     OW24298   1.974   2.351  12.452  0.8151  0.1670 -0.2457
 4280SOL    HW124299   2.044   2.407  12.485 -0.2310  1.0485  0.4918
 4280SOL    HW224300   1.925   2.332  12.532 -1.2672  0.7079 -1.3835
 4281SOL     OW24301   4.194   1.226   3.348  0.4400  0.0289  0.1724
 4281SOL    HW124302   4.161   1.196   3.433 -2.5466 -1.0836 -1.4009
 4281SOL    HW224303   4.266   1.274   3.389  0.1419  0.9772 -0.4162
 4282SOL     OW24304   1.397   0.068   8.954 -0.1645  0.2101  0.3447
 4282SOL    HW124305   1.482   0.064   8.997 -0.4674  2.7307  1.2026
 4282SOL    HW224306   1.334   0.068   9.026 -2.4021  1.6355 -1.5986
 4283SOL     OW24307   2.132   1.932   2.547  0.1775 -0.0565 -0.0349
 4283SOL    HW124308   2.160   1.841   2.557 -1.2160 -0.6179 -1.2670
 4283SOL    HW224309   2.162   1.972   2.628  1.7644 -0.0178 -0.6326
 4284SOL     OW24310   3.651   1.778   6.925  0.1530 -0.0231  0.6675
 4284SOL    HW124311   3.664   1.841   6.996 -1.0475 -0.4003  1.2165
 4284SOL    HW224312   3.727   1.721   6.940  0.2912 -0.1142 -0.3699
 4285SOL     OW24313   0.696   2.042   8.821 -0.1511  0.0724  0.0921
 4285SOL    HW124314   0.687   2.050   8.916  0.1471  3.3973 -0.1663
 4285SOL    HW224315   0.771   1.985   8.801  1.0353  0.5594  3.2240
 4286SOL     OW24316   2.357   0.290   5.698  0.4404  0.4780 -0.4009
 4286SOL    HW124317   2.291   0.299   5.767  0.1332 -0.1970 -0.6154
 4286SOL    HW224318   2.373   0.382   5.674 -2.2283  0.8836 -0.6259
 4287SOL     OW24319   3.151   3.078  10.109 -0.4697 -0.4559 -0.2784
 4287SOL    HW124320   3.229   3.114  10.151 -0.8585  1.3788 -1.1294
 4287SOL    HW224321   3.191   3.065  10.023  2.2878  1.1410  0.7716
 4288SOL     OW24322   1.559   0.245   5.851  0.2110 -0.2967 -0.7722
 4288SOL    HW124323   1.645   0.221   5.886  0.7768  0.7944 -1.4282
 4288SOL    HW224324   1.583   0.306   5.781  0.8825 -1.1933 -1.3351
 4289SOL     OW24325   4.094   3.272   8.254 -0.0761 -0.3152  0.2903
 4289SOL    HW124326   4.178   3.294   8.295 -0.6850 -0.5263  1.6653
 4289SOL    HW224327   4.114   3.303   8.166  1.5805 -1.3618  0.2976
 4290SOL     OW24328   1.636   1.497   4.283  0.2349  0.1909 -0.4079
 4290SOL    HW124329   1.567   1.432   4.299 -0.0130  0.4467 -0.4491
 4290SOL    HW224330   1.652   1.520   4.375  1.1712 -0.2054 -0.4717
 4291SOL     OW24331   2.371   4.474   6.612 -0.4169  0.4710 -0.6247
 4291SOL    HW124332   2.386   4.454   6.519  1.3237 -1.5378  0.0696
 4291SOL    HW224333   2.401   4.564   6.616 -2.0540  0.9650  0.5552
 4292SOL     OW24334   3.068   4.000   5.468 -0.3585  0.5539 -0.4872
 4292SOL    HW124335   3.135   3.937   5.493 -0.4546  0.6763  0.0908
 4292SOL    HW224336   2.991   3.958   5.506  0.4529  0.7438  1.3758
 4293SOL     OW24337   4.216   4.168  11.250  0.2413 -0.1589  0.0000
 4293SOL    HW124338   4.258   4.121  11.177  0.2998  0.4685 -0.3707
 4293SOL    HW224339   4.127   4.134  11.240  0.8647 -1.6769 -0.4428
 4294SOL     OW24340   4.069   3.376  10.758 -0.1662 -0.0476 -0.6626
 4294SOL    HW124341   4.137   3.431  10.720  1.0353 -1.5416 -0.6817
 4294SOL    HW224342   4.007   3.443  10.788  0.2158  0.1649 -0.3378
 4295SOL     OW24343   2.262   2.269   2.510 -0.0552 -0.1324  0.9047
 4295SOL    HW124344   2.293   2.250   2.598 -0.8970 -1.5214  0.8907
 4295SOL    HW224345   2.292   2.197   2.454  0.1967  0.6379  0.0413
 4296SOL     OW24346   1.964   0.903   8.334 -0.1645  0.1923  0.0634
 4296SOL    HW124347   2.033   0.966   8.358 -0.7583  0.5680  0.7872
 4296SOL    HW224348   1.914   0.906   8.415  0.2180 -2.5907  0.4119
 4297SOL     OW24349   3.002   3.619   5.417  0.7256 -0.2441  0.4247
 4297SOL    HW124350   3.055   3.620   5.337  0.4926 -1.5821  0.2597
 4297SOL    HW224351   3.065   3.584   5.480  0.2633 -0.8733  0.5337
 4298SOL     OW24352   3.966   2.687   1.596 -0.1886 -0.1245 -0.0827
 4298SOL    HW124353   3.912   2.701   1.674 -1.5332 -1.0766 -0.8405
 4298SOL    HW224354   3.940   2.761   1.541  2.1900  0.3028 -0.6223
 4299SOL     OW24355   3.315   2.585   5.951  0.2547  0.3855  0.3053
 4299SOL    HW124356   3.370   2.536   6.012 -0.7564 -2.4086 -1.0260
 4299SOL    HW224357   3.311   2.528   5.874 -0.2849  0.2278  0.4506
 4300SOL     OW24358   2.116   4.179   5.409 -0.8387  0.1927  0.1829
 4300SOL    HW124359   2.060   4.256   5.417  0.9371  1.5253 -0.2902
 4300SOL    HW224360   2.062   4.123   5.464  0.9206 -1.3534  0.3090
 4301SOL     OW24361   4.611   1.846   2.792  0.8044  0.0207  0.2605
 4301SOL    HW124362   4.604   1.817   2.883  1.2960  0.6855  0.5092
 4301SOL    HW224363   4.527   1.891   2.787 -1.6452 -4.2247  2.1605
 4302SOL     OW24364   3.382   1.723   2.270 -0.0577 -0.1010 -0.8236
 4302SOL    HW124365   3.450   1.786   2.246  0.4726 -0.5491 -0.4920
 4302SOL    HW224366   3.310   1.786   2.273  0.5800  0.6868 -1.8418
 4303SOL     OW24367   1.177   2.362  11.782  0.5079 -0.1967  0.3628
 4303SOL    HW124368   1.105   2.412  11.744 -0.4783 -1.0842  1.0818
 4303SOL    HW224369   1.146   2.274  11.761  0.2315 -0.8745  3.6873
 4304SOL     OW24370   0.288   2.255   6.363 -0.4081 -0.0361 -1.0072
 4304SOL    HW124371   0.222   2.186   6.354 -0.3086 -0.2114 -0.4238
 4304SOL    HW224372   0.363   2.207   6.326  0.8313 -0.0607  1.5356
 4305SOL     OW24373   3.832   0.327   6.365 -0.1509 -0.0273 -0.3306
 4305SOL    HW124374   3.842   0.400   6.304  0.1725  0.0473 -0.1850
 4305SOL    HW224375   3.898   0.269   6.327  0.0896 -0.8752  1.3785
 4306SOL     OW24376   1.760   1.036   7.723 -0.6445 -0.6274  0.1060
 4306SOL    HW124377   1.725   0.985   7.650 -0.0188 -2.6501  1.2088
 4306SOL    HW224378   1.689   1.041   7.786  0.3110  1.9072  0.9871
 4307SOL     OW24379   0.365   1.209  13.302  0.2175 -0.2029  0.3875
 4307SOL    HW124380   0.439   1.148  13.299 -1.1560 -1.8459 -0.2083
 4307SOL    HW224381   0.401   1.281  13.354  2.1762 -0.4659 -0.5946
 4308SOL     OW24382   0.883   0.694   3.086 -0.9283 -0.3529  0.4623
 4308SOL    HW124383   0.911   0.754   3.156 -0.4301  0.4146 -0.3934
 4308SOL    HW224384   0.829   0.633   3.137  0.9115 -2.7119 -0.3932
 4309SOL     OW24385   2.540   1.443   3.753 -0.7204 -0.0182 -0.0345
 4309SOL    HW124386   2.484   1.490   3.815 -1.9365 -1.3514 -0.1182
 4309SOL    HW224387   2.586   1.376   3.804  0.8652  1.1211  0.0607
 4310SOL     OW24388   0.951   0.451   8.048  0.1819 -0.4516  0.0473
 4310SOL    HW124389   0.879   0.435   7.988 -0.9076 -0.0955  1.2665
 4310SOL    HW224390   1.024   0.453   7.986 -1.6178  3.3659 -1.8960
 4311SOL     OW24391   1.303   3.428   4.946  0.1575  0.1953 -0.0439
 4311SOL    HW124392   1.231   3.489   4.962 -1.5311 -1.3454 -1.7563
 4311SOL    HW224393   1.383   3.475   4.924  2.1659 -3.0453  0.2949
 4312SOL     OW24394   2.094   1.840   7.567 -0.2313  0.1453 -0.2287
 4312SOL    HW124395   2.003   1.868   7.576 -0.1853  0.2898 -0.2206
 4312SOL    HW224396   2.077   1.752   7.603  0.3810  0.1646  0.1031
 4313SOL     OW24397   1.086   1.604   1.174  0.0115  0.2288  0.2576
 4313SOL    HW124398   1.011   1.658   1.148 -1.1971 -0.5855  2.0251
 4313SOL    HW224399   1.036   1.550   1.235 -0.5719  0.6117  0.1207
 4314SOL     OW24400   3.310   0.046   6.376 -0.4542 -0.3412  0.5534
 4314SOL    HW124401   3.242   0.105   6.409 -1.1049 -0.2357 -0.9362
 4314SOL    HW224402   3.371   0.042   6.449  0.6016  0.9025 -0.2581
 4315SOL     OW24403   3.704   1.554  13.183 -0.3265 -0.5809 -0.1723
 4315SOL    HW124404   3.614   1.564  13.154  0.3527  2.1263 -1.3699
 4315SOL    HW224405   3.701   1.480  13.243 -1.2767 -1.3700 -1.1932
 4316SOL     OW24406   2.866   3.209  17.241  0.0072 -0.3346  0.0581
 4316SOL    HW124407   2.918   3.184  17.165  0.0632 -1.2372  0.3960
 4316SOL    HW224408   2.859   3.120  17.274 -0.0076 -0.1090  0.6651
 4317SOL     OW24409   1.047   4.241   1.937  0.8147 -0.0409 -0.1099
 4317SOL    HW124410   1.094   4.246   1.854 -1.0852 -1.9755 -1.3039
 4317SOL    HW224411   1.039   4.333   1.965  0.7215 -0.3138  0.7662
 4318SOL     OW24412   0.831   0.640   1.769 -0.4189  0.1665  0.0851
 4318SOL    HW124413   0.886   0.713   1.740  0.6873 -0.6230  0.1783
 4318SOL    HW224414   0.888   0.568   1.739 -0.3719 -0.3456  1.4242
 4319SOL     OW24415   4.542   0.702  16.478  0.5542 -0.0226 -0.1166
 4319SOL    HW124416   4.618   0.666  16.431  0.4538 -0.5100  0.0927
 4319SOL    HW224417   4.504   0.626  16.522 -0.5995 -1.5202 -3.7010
 4320SOL     OW24418   2.216   3.045  12.811 -0.0867 -0.2146  0.1954
 4320SOL    HW124419   2.221   3.105  12.886  0.4984 -0.7466  0.5835
 4320SOL    HW224420   2.210   3.107  12.738 -0.4818  0.9869  1.2376
 4321SOL     OW24421   3.881   4.300  13.291 -0.2067 -0.1467 -0.1574
 4321SOL    HW124422   3.918   4.358  13.225 -1.0490  0.4713 -0.0953
 4321SOL    HW224423   3.791   4.327  13.309  0.7398  0.8591  3.0345
 4322SOL     OW24424   3.456   1.528  17.313 -0.2440  0.0858 -0.0742
 4322SOL    HW124425   3.435   1.492  17.399  0.6058  1.5162  0.7162
 4322SOL    HW224426   3.441   1.622  17.322  1.1251  0.0935  2.0663
 4323SOL     OW24427   2.415   3.065   8.563  0.2803 -0.0111  0.3468
 4323SOL    HW124428   2.468   3.021   8.630 -0.2176 -2.2053 -0.6775
 4323SOL    HW224429   2.419   2.997   8.495 -0.2098 -2.0256  2.3466
 4324SOL     OW24430   3.908   3.726  17.249  0.4615 -0.3603 -0.2319
 4324SOL    HW124431   3.978   3.662  17.262  0.4272 -0.3214  0.1388
 4324SOL    HW224432   3.949   3.785  17.186  1.1185 -1.7623 -1.1110
 4325SOL     OW24433   3.370   2.844   6.388 -0.2856  0.0247  0.4662
 4325SOL    HW124434   3.309   2.783   6.430 -1.0067  0.6150  0.2632
 4325SOL    HW224435   3.366   2.808   6.300 -0.8071  1.0664  0.0704
 4326SOL     OW24436   3.707   0.281   5.324 -0.1845  0.2665  0.0548
 4326SOL    HW124437   3.717   0.233   5.242  1.0892  1.9593 -0.7784
 4326SOL    HW224438   3.677   0.218   5.390  2.9047 -2.7046 -1.3430
 4327SOL     OW24439   3.748   3.387   9.355 -0.3717  0.0218  0.5879
 4327SOL    HW124440   3.836   3.400   9.317 -0.6023 -0.9894 -0.2960
 4327SOL    HW224441   3.761   3.404   9.448  0.6961 -0.1819  0.4814
 4328SOL     OW24442   1.352   0.571   5.551  0.1275 -0.1489 -0.3332
 4328SOL    HW124443   1.432   0.573   5.498  2.4861  0.2076  3.2730
 4328SOL    HW224444   1.321   0.480   5.547 -0.2702  0.0257 -1.3076
 4329SOL     OW24445   1.639   2.209  13.579 -0.1091  0.4855  0.2909
 4329SOL    HW124446   1.679   2.271  13.640 -0.7036 -0.2964  1.4741
 4329SOL    HW224447   1.647   2.126  13.627  1.4465  1.3361  1.5097
 4330SOL     OW24448   0.068   1.013   4.004 -0.2075  0.4836  0.1731
 4330SOL    HW124449   0.098   1.072   4.073  1.7376 -0.5786  0.2381
 4330SOL    HW224450   0.147   0.975   3.966 -0.4505  2.8640 -2.7329
 4331SOL     OW24451   3.704   0.444   2.169 -0.0271  0.3286 -0.1531
 4331SOL    HW124452   3.621   0.406   2.197 -1.0057  1.7164 -1.1819
 4331SOL    HW224453   3.689   0.471   2.078 -0.1981 -1.1552 -0.5711
 4332SOL     OW24454   4.419   2.538  15.001  0.3979 -0.2825  0.4888
 4332SOL    HW124455   4.456   2.475  15.062  1.8034 -0.8472 -0.9495
 4332SOL    HW224456   4.402   2.492  14.919 -2.9242  0.8334  0.5537
 4333SOL     OW24457   3.575   0.808   0.907  0.1902 -0.0109  0.2414
 4333SOL    HW124458   3.601   0.800   0.998 -0.3539  2.0430  0.5753
 4333SOL    HW224459   3.580   0.717   0.878 -2.9480  0.0030 -0.3770
 4334SOL     OW24460   0.213   1.656   7.245  0.2762 -0.6026  0.3488
 4334SOL    HW124461   0.211   1.576   7.297  2.8649 -1.5649 -1.0827
 4334SOL    HW224462   0.148   1.640   7.177 -0.9930 -1.3794  1.7549
 4335SOL     OW24463   4.150   3.219   4.162 -0.2589  0.4830  0.7023
 4335SOL    HW124464   4.096   3.293   4.191 -1.1294 -0.3997  1.3412
 4335SOL    HW224465   4.122   3.214   4.071  3.7357  0.3963 -0.5379
 4336SOL     OW24466   3.703   4.051  17.247 -0.2422  0.0634 -0.0635
 4336SOL    HW124467   3.732   3.973  17.293  0.0275  1.4309  2.0548
 4336SOL    HW224468   3.739   4.117  17.306 -0.8204 -2.7346  3.3956
 4337SOL     OW24469   2.233   1.945   0.732 -0.0615 -0.2841  0.2749
 4337SOL    HW124470   2.282   2.022   0.759 -0.4956  0.3678 -0.7987
 4337SOL    HW224471   2.308   1.885   0.732 -0.1078 -0.3316  1.5730
 4338SOL     OW24472   3.277   1.171   2.856  0.6452  0.1709 -0.9113
 4338SOL    HW124473   3.363   1.198   2.821  1.9867 -1.0536  1.4453
 4338SOL    HW224474   3.301   1.155   2.947  0.1612  2.3784 -0.3999
 4339SOL     OW24475   4.637   4.393   3.193  0.4414  0.4978 -0.7735
 4339SOL    HW124476   0.004   4.349   3.196 -0.3323 -0.7384  2.4678
 4339SOL    HW224477   4.589   4.347   3.124  0.6110 -0.8640  0.0129
 4340SOL     OW24478   4.244   1.968   9.520  0.0289  0.1828  0.2642
 4340SOL    HW124479   4.247   1.964   9.615  1.7964 -0.0453  0.1924
 4340SOL    HW224480   4.200   2.051   9.502  0.4920  0.8160  2.0967
 4341SOL     OW24481   2.931   2.804   9.154 -0.0863 -0.1774  0.0052
 4341SOL    HW124482   2.971   2.761   9.079  0.2812 -0.1902  0.2094
 4341SOL    HW224483   2.840   2.786   9.131 -0.0398 -0.3886 -0.0116
 4342SOL     OW24484   3.735   1.858  10.829 -0.1915 -0.4326 -0.6024
 4342SOL    HW124485   3.665   1.805  10.790 -0.8728 -0.3074  0.4501
 4342SOL    HW224486   3.681   1.935  10.848  0.1289 -0.1323 -0.9193
 4343SOL     OW24487   1.615   2.332  17.199 -0.0614 -0.6488 -0.1311
 4343SOL    HW124488   1.540   2.289  17.239 -1.5370  1.9886 -0.0806
 4343SOL    HW224489   1.625   2.286  17.115 -3.5286  1.0283 -1.4457
 4344SOL     OW24490   1.028   1.010   5.122 -0.6114  0.0858  0.0152
 4344SOL    HW124491   1.092   0.947   5.090  0.4759 -0.1001  2.5685
 4344SOL    HW224492   1.020   0.977   5.212  0.4563 -0.8786 -0.2502
 4345SOL     OW24493   0.189   1.706   4.871 -0.2104  0.2184 -0.4753
 4345SOL    HW124494   0.197   1.782   4.812 -0.8854  0.6960  0.0525
 4345SOL    HW224495   0.152   1.742   4.952 -1.3527  0.7774 -1.2480
 4346SOL     OW24496   3.317   0.362   0.053  0.4320 -0.2935 -0.1673
 4346SOL    HW124497   3.240   0.328   0.007 -1.2406  2.9359  0.1689
 4346SOL    HW224498   3.286   0.359   0.144 -0.4234 -0.8453 -0.4756
 4347SOL     OW24499   3.335   0.072   8.028  0.2940 -0.3672 -0.3091
 4347SOL    HW124500   3.291   0.041   7.949  1.1392 -0.5714 -0.6898
 4347SOL    HW224501   3.378   0.150   7.993 -3.9821  1.7157 -0.9087
 4348SOL     OW24502   2.292   4.332   7.078  0.3349  0.1439 -0.2788
 4348SOL    HW124503   2.297   4.316   6.984 -2.0093 -4.2285  0.3562
 4348SOL    HW224504   2.383   4.350   7.102 -0.4359 -0.1552  2.8623
 4349SOL     OW24505   0.492   3.421   8.223 -0.1770 -0.2177 -0.2272
 4349SOL    HW124506   0.545   3.490   8.265  0.5597  0.1275 -1.7509
 4349SOL    HW224507   0.566   3.365   8.200 -0.9829 -1.3314 -0.0510
 4350SOL     OW24508   3.508   3.059  11.486 -0.0258  0.0282 -0.2945
 4350SOL    HW124509   3.486   3.109  11.408  0.4638  1.5896  0.5721
 4350SOL    HW224510   3.574   2.997  11.455  0.5379 -0.1007  1.1325
 4351SOL     OW24511   2.425   0.589  17.514 -0.0910 -0.1081 -0.4319
 4351SOL    HW124512   2.476   0.509  17.501  0.0468  0.0409 -0.8298
 4351SOL    HW224513   2.432   0.590  17.609 -0.7030  3.8397 -0.4438
 4352SOL     OW24514   0.359   1.071   2.808  0.0795 -0.3709 -0.1784
 4352SOL    HW124515   0.303   1.055   2.733 -1.7328 -0.0154  1.1012
 4352SOL    HW224516   0.319   1.154   2.832 -0.0823 -0.1357 -1.2637
 4353SOL     OW24517   1.476   1.643  16.765  0.3151  0.0420  0.0923
 4353SOL    HW124518   1.412   1.595  16.818  0.6046 -2.3320 -1.7186
 4353SOL    HW224519   1.421   1.644  16.686  0.0634  1.2281  0.2728
 4354SOL     OW24520   3.109   1.329   6.619 -0.6370  0.2269 -0.6049
 4354SOL    HW124521   3.052   1.351   6.692 -0.0109 -0.8961  0.2237
 4354SOL    HW224522   3.152   1.414   6.608  0.2764 -0.2172 -0.4856
 4355SOL     OW24523   2.187   4.307   3.905 -0.4032 -0.7378  0.2378
 4355SOL    HW124524   2.221   4.257   3.831 -0.1264  0.8229 -0.6771
 4355SOL    HW224525   2.117   4.347   3.854  0.5395  0.4790 -0.1081
 4356SOL     OW24526   1.898   1.795   4.506 -0.0965  0.0460 -0.0582
 4356SOL    HW124527   1.919   1.867   4.565 -0.7398  0.6973 -0.6220
 4356SOL    HW224528   1.846   1.735   4.559 -0.6606  0.6891  0.0984
 4357SOL     OW24529   4.060   0.279   1.698 -0.5135  0.5261  0.5512
 4357SOL    HW124530   3.965   0.271   1.710 -0.3454  0.8475  2.1227
 4357SOL    HW224531   4.088   0.323   1.778  0.9289  0.1404  0.2479
 4358SOL     OW24532   2.621   1.941   2.115 -0.3476  0.5809 -0.1463
 4358SOL    HW124533   2.548   1.971   2.061  0.3878 -0.5329 -1.7648
 4358SOL    HW224534   2.647   2.028   2.145 -2.1593  0.6271  1.2357
 4359SOL     OW24535   0.261   4.367   8.496 -0.4594  0.2435  0.2378
 4359SOL    HW124536   0.289   4.366   8.588 -0.8401  0.4050  0.3537
 4359SOL    HW224537   0.251   4.273   8.483  1.1904  0.3065 -1.4430
 4360SOL     OW24538   3.003   1.775   4.521  1.0823  0.3980  0.2284
 4360SOL    HW124539   2.995   1.776   4.616  0.8401  1.4214  0.1970
 4360SOL    HW224540   3.085   1.730   4.500  1.5369  0.5708  1.6827
 4361SOL     OW24541   1.046   4.138   7.071  0.2379  0.7164  0.8451
 4361SOL    HW124542   1.066   4.107   6.982  2.9959 -0.8138  1.9969
 4361SOL    HW224543   1.024   4.230   7.056 -1.9301  0.0498  0.0359
 4362SOL     OW24544   1.732   4.179   9.211 -0.0539 -0.4895  0.1587
 4362SOL    HW124545   1.675   4.125   9.157  0.7184  0.8153 -1.9512
 4362SOL    HW224546   1.794   4.112   9.240 -0.2640 -0.5470  0.4782
 4363SOL     OW24547   4.033   2.650   0.761 -0.6442 -0.8583  0.1158
 4363SOL    HW124548   3.962   2.627   0.701 -0.8705 -0.3927  0.2016
 4363SOL    HW224549   4.036   2.566   0.806  1.6589 -2.0835 -2.2661
 4364SOL     OW24550   3.433   1.218   6.561  0.0754 -0.3744  0.3437
 4364SOL    HW124551   3.347   1.257   6.545  0.7290  1.3310  0.9205
 4364SOL    HW224552   3.416   1.125   6.571  2.3324 -0.6488  1.6030
 4365SOL     OW24553   4.711   4.363  13.513 -0.1685  0.0921 -0.2770
 4365SOL    HW124554   4.642   4.313  13.469 -1.5087 -0.0825  2.0066
 4365SOL    HW224555   0.011   4.303  13.586 -1.0988 -0.5274 -0.5688
 4366SOL     OW24556   4.626   4.689   3.132  0.2277  0.1521 -0.5789
 4366SOL    HW124557   4.573   4.635   3.190  0.8301 -0.8119 -0.9176
 4366SOL    HW224558   4.710   4.652   3.158 -1.4219 -1.5031  2.3985
 4367SOL     OW24559   1.588   0.953   2.321  0.3878  0.2109 -0.6941
 4367SOL    HW124560   1.655   0.957   2.253  0.3133  1.8614 -0.6641
 4367SOL    HW224561   1.595   1.047   2.335  1.1841 -0.0309  0.5641
 4368SOL     OW24562   1.886   2.433   7.266  0.1078  0.2517 -0.1192
 4368SOL    HW124563   1.819   2.416   7.333  0.3066 -1.7171 -0.4117
 4368SOL    HW224564   1.889   2.343   7.233 -0.2260 -0.3684  1.5629
 4369SOL     OW24565   0.120   1.072   4.993 -0.4185  0.2858  0.5100
 4369SOL    HW124566   0.081   1.137   5.052  0.6024  0.6483  0.7878
 4369SOL    HW224567   0.041   1.023   4.972  1.1723 -1.1609 -2.0806
 4370SOL     OW24568   3.141   3.281   7.601 -0.5405 -0.4040 -0.1921
 4370SOL    HW124569   3.189   3.343   7.655 -0.7718 -0.0373 -0.4013
 4370SOL    HW224570   3.187   3.200   7.624  0.1759  0.1450  0.2769
 4371SOL     OW24571   1.138   3.723   1.534 -0.1636 -0.9055 -0.2120
 4371SOL    HW124572   1.228   3.689   1.539  1.8058  4.4017  0.5345
 4371SOL    HW224573   1.092   3.644   1.504 -2.5038 -0.1590  1.3965
 4372SOL     OW24574   3.835   0.410  10.364  0.0382  0.1202 -0.0909
 4372SOL    HW124575   3.793   0.325  10.377 -2.0575  1.3753  1.2557
 4372SOL    HW224576   3.828   0.425  10.270  0.1298  2.8366  0.3428
 4373SOL     OW24577   1.944   1.767   4.215  0.1793  0.1809 -0.3249
 4373SOL    HW124578   1.858   1.747   4.252  0.7658  0.6897  1.3054
 4373SOL    HW224579   1.980   1.784   4.302  0.9672 -2.2957 -0.1722
 4374SOL     OW24580   2.168   2.147   1.643 -0.2222 -0.5625  0.0829
 4374SOL    HW124581   2.162   2.139   1.738  0.8236  0.6550  0.2580
 4374SOL    HW224582   2.196   2.239   1.643  0.3035 -0.7205  0.1129
 4375SOL     OW24583   3.321   1.236   8.728 -0.9292  0.0052 -0.2945
 4375SOL    HW124584   3.301   1.324   8.698 -0.9436 -1.0143 -3.2957
 4375SOL    HW224585   3.248   1.237   8.790 -3.2617 -0.3577 -3.0851
 4376SOL     OW24586   4.650   0.116   4.603  0.0125  0.3326  0.4082
 4376SOL    HW124587   4.642   0.061   4.525  3.9815 -0.5241  0.6199
 4376SOL    HW224588   4.705   0.065   4.662 -3.0526 -0.4965  2.5562
 4377SOL     OW24589   0.525   2.266   0.765  0.3766  0.6390  0.4026
 4377SOL    HW124590   0.436   2.231   0.754 -0.2581  2.3852  0.0979
 4377SOL    HW224591   0.574   2.205   0.821  0.2920  2.3055  2.2777
 4378SOL     OW24592   0.554   2.198   6.367  0.3269 -0.4880 -0.0729
 4378SOL    HW124593   0.608   2.145   6.424  0.3294 -1.6011 -1.1081
 4378SOL    HW224594   0.505   2.239   6.438 -3.8521 -0.5634 -2.9121
 4379SOL     OW24595   0.789   4.361  15.830 -0.4881 -0.0837  0.2010
 4379SOL    HW124596   0.826   4.328  15.748 -1.4683  0.2886 -0.3913
 4379SOL    HW224597   0.775   4.278  15.874 -0.2013 -0.4044 -0.3116
 4380SOL     OW24598   0.548   0.852  15.565  0.6707 -0.0427 -0.2060
 4380SOL    HW124599   0.510   0.848  15.477 -0.3357  0.2323  0.2152
 4380SOL    HW224600   0.516   0.935  15.602 -0.8490 -0.1531 -1.2817
 4381SOL     OW24601   2.146   4.028   9.205 -0.1985  0.4244  0.2316
 4381SOL    HW124602   2.100   3.983   9.277 -0.7926 -0.7059 -0.8605
 4381SOL    HW224603   2.132   4.118   9.236  3.5777  1.5555 -1.4835
 4382SOL     OW24604   4.660   4.242   3.802  0.7596 -0.4278  0.0244
 4382SOL    HW124605   0.033   4.273   3.790  0.3320 -0.1224 -2.3919
 4382SOL    HW224606   4.606   4.302   3.751  0.3352 -1.7626 -1.0776
 4383SOL     OW24607   1.148   0.716  10.079 -0.1235 -0.2578  0.3264
 4383SOL    HW124608   1.075   0.708  10.140  0.7902 -2.3385  1.1498
 4383SOL    HW224609   1.123   0.660  10.005  1.9079 -0.7265 -0.0068
 4384SOL     OW24610   1.679   4.538   0.250 -0.6433 -0.3071 -0.0440
 4384SOL    HW124611   1.741   4.494   0.309  1.1928  1.7548 -0.4159
 4384SOL    HW224612   1.616   4.574   0.312 -0.1079 -0.1218  0.3991
 4385SOL     OW24613   4.021   3.216   7.413 -0.1072 -0.1686 -0.1109
 4385SOL    HW124614   4.069   3.277   7.357 -0.1042 -0.8928 -0.8865
 4385SOL    HW224615   4.069   3.229   7.495  2.5725  1.1460 -1.8714
 4386SOL     OW24616   0.371   4.385   4.846 -0.1374 -1.2011  0.1602
 4386SOL    HW124617   0.282   4.359   4.870 -0.7776  2.6286  1.9988
 4386SOL    HW224618   0.392   4.447   4.915 -2.5115  1.2494 -1.3262
 4387SOL     OW24619   2.118   3.874   2.552  0.0030  0.1082  0.2273
 4387SOL    HW124620   2.208   3.841   2.542  0.3283  1.1833 -0.3622
 4387SOL    HW224621   2.112   3.941   2.484 -1.6131 -0.8398 -0.5547
 4388SOL     OW24622   2.100   2.430   3.834 -0.5473  0.1097 -0.2559
 4388SOL    HW124623   2.129   2.475   3.755  2.1833 -2.0474 -0.5118
 4388SOL    HW224624   2.083   2.506   3.889  0.4084  2.2555 -2.9623
 4389SOL     OW24625   1.770   0.204   8.244  0.2492  0.1398  1.2987
 4389SOL    HW124626   1.848   0.222   8.192 -1.3374  0.5773 -0.9192
 4389SOL    HW224627   1.781   0.110   8.259 -0.3827  0.2103  2.2563
 4390SOL     OW24628   1.934   2.514   3.350 -0.3254  0.4994  0.1415
 4390SOL    HW124629   1.939   2.583   3.284 -0.8979 -1.3969 -1.8619
 4390SOL    HW224630   1.921   2.565   3.431 -0.3107  0.7473 -0.0125
 4391SOL     OW24631   3.973   1.021   3.814  0.2520  0.0032 -0.4547
 4391SOL    HW124632   4.026   0.945   3.838 -2.2026 -0.7274  2.5702
 4391SOL    HW224633   3.893   0.985   3.776 -0.3920 -0.4451  1.3765
 4392SOL     OW24634   2.118   1.985   4.654 -0.1162  0.0707  0.2004
 4392SOL    HW124635   2.180   2.027   4.712  1.5614 -1.1481 -0.7001
 4392SOL    HW224636   2.179   1.927   4.608  0.1098 -0.4857  1.2089
 4393SOL     OW24637   2.515   2.654   6.828 -0.5959 -0.8486  0.1845
 4393SOL    HW124638   2.435   2.608   6.803 -0.5225 -1.7631  1.6201
 4393SOL    HW224639   2.525   2.717   6.757  0.6561  0.8835  1.8917
 4394SOL     OW24640   1.862   1.415   6.534  0.3229  0.2874 -0.1129
 4394SOL    HW124641   1.881   1.480   6.602  0.8484 -1.2752  1.2480
 4394SOL    HW224642   1.768   1.404   6.549  0.3517  2.4357  1.6302
 4395SOL     OW24643   2.516   2.368   2.038  0.2305 -0.3435  0.1196
 4395SOL    HW124644   2.518   2.451   1.990 -1.2597 -1.0766 -1.1973
 4395SOL    HW224645   2.602   2.361   2.079  0.6553  2.3024 -0.3035
 4396SOL     OW24646   3.924   3.184  17.419 -0.5402  0.2283 -0.0390
 4396SOL    HW124647   3.918   3.105  17.472  0.9796 -0.5368 -1.0174
 4396SOL    HW224648   3.919   3.256  17.482 -0.4680  2.3515 -2.4764
 4397SOL     OW24649   2.244   0.497   2.183 -0.2223  0.5326  0.6021
 4397SOL    HW124650   2.213   0.556   2.114  0.4745  1.7030  1.3041
 4397SOL    HW224651   2.197   0.529   2.260 -1.2190  0.1403  0.1618
 4398SOL     OW24652   3.599   3.666   5.276 -0.7069  0.1023 -0.4631
 4398SOL    HW124653   3.569   3.650   5.366 -1.0402  0.4823 -0.5049
 4398SOL    HW224654   3.615   3.760   5.290  0.8717 -0.2220 -0.1057
 4399SOL     OW24655   4.390   3.385  13.100  0.1604  0.1920 -0.5225
 4399SOL    HW124656   4.456   3.450  13.121  0.4795 -0.8352  1.6847
 4399SOL    HW224657   4.446   3.307  13.095  0.9163  0.5868  1.9325
 4400SOL     OW24658   2.540   1.393   5.276 -0.2112 -0.0999 -0.0112
 4400SOL    HW124659   2.458   1.347   5.293 -0.0454 -0.7912 -1.1182
 4400SOL    HW224660   2.513   1.484   5.289 -2.2531 -0.7461  0.2561
 4401SOL     OW24661   2.790   0.080   6.962  0.2066 -0.6267  0.1724
 4401SOL    HW124662   2.883   0.060   6.948  0.0964 -1.7498  1.0666
 4401SOL    HW224663   2.786   0.145   7.032 -1.3930 -0.6337  0.0834
 4402SOL     OW24664   1.796   2.710   0.718  0.6544  0.2125 -0.0346
 4402SOL    HW124665   1.851   2.787   0.727  2.4656 -0.9631 -1.0339
 4402SOL    HW224666   1.837   2.661   0.646 -1.8281 -1.7622 -0.1339
 4403SOL     OW24667   2.491   1.837   7.220  0.3220 -0.6186  0.1027
 4403SOL    HW124668   2.559   1.889   7.178  1.7394  0.1049  3.2476
 4403SOL    HW224669   2.523   1.840   7.310 -0.6208  0.5533  0.4003
 4404SOL     OW24670   4.622   0.559   6.872  0.2548  0.1175  0.3726
 4404SOL    HW124671   4.682   0.543   6.945 -0.9089 -0.1782  1.2703
 4404SOL    HW224672   4.663   0.518   6.795 -1.1741 -3.8485  1.7071
 4405SOL     OW24673   1.085   0.667   8.857 -0.0933  0.6861  0.1351
 4405SOL    HW124674   1.127   0.752   8.843 -1.0714  1.1739  0.2185
 4405SOL    HW224675   1.153   0.611   8.819  0.0986  1.5246 -0.7527
 4406SOL     OW24676   1.937   1.689   0.410 -0.1799  0.9636 -0.0579
 4406SOL    HW124677   1.952   1.761   0.471  0.8997  2.0603 -1.6157
 4406SOL    HW224678   2.001   1.623   0.438 -0.1089 -0.1541 -2.8332
 4407SOL     OW24679   0.562   1.984   9.068  0.6682  0.0455 -0.0442
 4407SOL    HW124680   0.559   1.918   9.137  1.5623  1.8389  1.6934
 4407SOL    HW224681   0.580   2.070   9.105  1.6194  0.4148 -1.3655
 4408SOL     OW24682   0.791   4.194   6.597 -0.0237 -0.5655 -0.0710
 4408SOL    HW124683   0.837   4.268   6.557 -0.8542 -0.5118 -0.8956
 4408SOL    HW224684   0.855   4.158   6.659  0.1437 -0.5432 -0.2305
 4409SOL     OW24685   0.935   3.520   7.438 -0.3146  0.2341 -0.3567
 4409SOL    HW124686   0.852   3.476   7.457  0.3810 -1.0950 -0.3195
 4409SOL    HW224687   0.997   3.447   7.446  0.3205  0.8544  0.3407
 4410SOL     OW24688   0.534   2.536   8.890  0.3850 -0.3976 -0.3596
 4410SOL    HW124689   0.509   2.613   8.838  1.2678 -1.0160 -1.7041
 4410SOL    HW224690   0.610   2.512   8.837 -0.2682 -2.1433 -0.4968
 4411SOL     OW24691   0.821   2.542   7.157 -0.2503  0.1696  0.3769
 4411SOL    HW124692   0.833   2.543   7.062  2.2987  1.0572  0.7132
 4411SOL    HW224693   0.769   2.622   7.165  1.9093  1.4347  1.5079
 4412SOL     OW24694   4.671   0.477   5.698  0.3248  0.2775 -0.4415
 4412SOL    HW124695   4.577   0.483   5.686  0.4200  1.3254 -0.6078
 4412SOL    HW224696   4.687   0.383   5.685  0.4623  0.1878  0.3731
 4413SOL     OW24697   0.146   2.844   1.543  0.2724 -0.1594  0.0594
 4413SOL    HW124698   0.237   2.844   1.514  1.1129 -0.9702  2.6845
 4413SOL    HW224699   0.114   2.790   1.471  1.4563  0.5380 -0.9920
 4414SOL     OW24700   0.039   2.036   5.840 -0.3382 -0.3082  0.2623
 4414SOL    HW124701   0.125   2.048   5.800 -0.3327 -3.8911 -0.8153
 4414SOL    HW224702   0.065   2.039   5.932 -1.5799  1.8497  0.5423
 4415SOL     OW24703   1.152   0.724   2.340 -0.3918 -0.0889 -0.2395
 4415SOL    HW124704   1.147   0.628   2.340  0.6813 -0.1386 -0.1362
 4415SOL    HW224705   1.233   0.741   2.292 -0.6617  2.3176  0.1840
 4416SOL     OW24706   2.321   0.164   4.897 -0.7565  0.2612 -0.5289
 4416SOL    HW124707   2.393   0.222   4.871  0.4143 -0.6163  0.8113
 4416SOL    HW224708   2.244   0.220   4.903 -0.7129  0.1600  0.8810
 4417SOL     OW24709   3.430   2.854   4.161  0.0953  0.3798 -0.0069
 4417SOL    HW124710   3.440   2.769   4.118 -1.4631  0.6915 -0.9990
 4417SOL    HW224711   3.402   2.903   4.083  2.4539  1.4458 -0.1900
 4418SOL     OW24712   3.605   0.682   3.581 -0.3604  0.0860  0.2047
 4418SOL    HW124713   3.699   0.696   3.589 -0.3721  1.2865 -1.7738
 4418SOL    HW224714   3.581   0.773   3.563 -4.6813 -1.2215 -0.6256
 4419SOL     OW24715   1.394   2.728   3.843 -0.7066  0.3602 -0.1006
 4419SOL    HW124716   1.457   2.781   3.794  0.1268 -0.7329 -0.2044
 4419SOL    HW224717   1.321   2.790   3.841 -1.1082 -0.0745  1.0803
 4420SOL     OW24718   2.959   2.771   5.558  0.3503 -0.5778  0.7510
 4420SOL    HW124719   2.926   2.859   5.577 -0.2615 -0.8527  0.9745
 4420SOL    HW224720   2.895   2.730   5.499  0.7846 -0.1718 -0.0038
 4421SOL     OW24721   0.367   1.849   9.381 -0.1254 -0.1397 -0.3657
 4421SOL    HW124722   0.450   1.805   9.367 -0.6040  0.4173 -4.9924
 4421SOL    HW224723   0.353   1.858   9.475  2.4280 -1.7497  0.1732
 4422SOL     OW24724   2.160   0.608  14.662 -0.1102 -0.4959  0.1439
 4422SOL    HW124725   2.237   0.655  14.693 -0.0986 -0.7182  0.4494
 4422SOL    HW224726   2.182   0.602  14.569 -0.1627 -0.2518  0.1148
 4423SOL     OW24727   1.644   0.415  15.858 -0.5644 -0.1858 -0.0132
 4423SOL    HW124728   1.599   0.498  15.840 -2.6284 -1.2300  0.3445
 4423SOL    HW224729   1.579   0.362  15.905  0.4863 -1.9138 -0.5132
 4424SOL     OW24730   4.613   0.437   2.332  0.5246  0.1052 -0.6630
 4424SOL    HW124731   4.633   0.449   2.239 -3.4403 -0.3953 -1.5713
 4424SOL    HW224732   4.701   0.450   2.369  0.6343 -0.4584 -0.7309
 4425SOL     OW24733   1.711   2.935  17.235 -0.0842 -0.2330  0.5179
 4425SOL    HW124734   1.711   2.980  17.319 -1.9885  1.7624 -0.5193
 4425SOL    HW224735   1.655   2.859  17.252  1.6037 -1.3525  0.9796
 4426SOL     OW24736   3.024   4.212   3.171  0.6784  0.3823 -0.1163
 4426SOL    HW124737   3.048   4.221   3.263 -1.0075  1.7000  0.1956
 4426SOL    HW224738   3.064   4.134   3.133  0.9529  1.4105 -1.9374
 4427SOL     OW24739   2.904   4.080   6.362 -0.4705 -0.5621 -0.0501
 4427SOL    HW124740   2.878   4.165   6.396  0.5952 -1.1224  2.2006
 4427SOL    HW224741   2.820   4.037   6.374 -0.7061 -0.6068 -1.8683
 4428SOL     OW24742   0.536   3.582  11.389  0.3508 -0.6364  0.2706
 4428SOL    HW124743   0.520   3.578  11.483  2.7547 -0.2913  0.6830
 4428SOL    HW224744   0.446   3.594  11.360 -0.0065 -1.7050  0.9454
 4429SOL     OW24745   1.129   2.759   3.035 -0.1782  0.3625 -0.0928
 4429SOL    HW124746   1.148   2.777   2.943 -0.3828  0.6317 -0.0844
 4429SOL    HW224747   1.202   2.807   3.073 -1.4999  0.8974  1.7825
 4430SOL     OW24748   3.098   0.826   1.929 -0.0710  0.3935  0.2739
 4430SOL    HW124749   3.043   0.806   2.005 -1.0121  1.3502 -0.1602
 4430SOL    HW224750   3.162   0.755   1.937 -2.6230 -1.9136  0.0036
 4431SOL     OW24751   2.318   1.260   4.068  0.0339  0.2082 -0.4342
 4431SOL    HW124752   2.248   1.288   4.009 -0.7935 -0.3317  0.2916
 4431SOL    HW224753   2.292   1.168   4.077  0.8609 -0.0063 -0.1999
 4432SOL     OW24754   4.168   3.731  16.677  0.1472  0.9662  0.2710
 4432SOL    HW124755   4.079   3.734  16.641  0.5409 -3.9304 -1.1084
 4432SOL    HW224756   4.161   3.816  16.720 -0.4911  0.8747  0.3485
 4433SOL     OW24757   2.759   0.582   5.888  1.0998 -0.0419 -0.1113
 4433SOL    HW124758   2.701   0.653   5.862 -1.6710 -2.5673 -0.8342
 4433SOL    HW224759   2.692   0.527   5.928  0.7691 -0.8300 -1.7189
 4434SOL     OW24760   1.910   0.338   1.565 -0.3291  0.2298  0.1579
 4434SOL    HW124761   1.945   0.272   1.625 -0.3317  0.9539  0.9604
 4434SOL    HW224762   1.830   0.358   1.612  0.4540  0.7922  1.2508
 4435SOL     OW24763   2.411   0.484  14.123 -0.5432 -0.2438  0.0056
 4435SOL    HW124764   2.494   0.524  14.101 -1.7216  1.4336 -1.3843
 4435SOL    HW224765   2.447   0.404  14.161  0.2763  0.2469  0.2603
 4436SOL     OW24766   3.538   2.356   9.332 -0.1636 -0.1559 -0.8138
 4436SOL    HW124767   3.448   2.325   9.337 -0.8646  1.7975 -1.4002
 4436SOL    HW224768   3.532   2.429   9.394 -1.5582 -0.1918 -0.9221
 4437SOL     OW24769   0.984   0.727  15.323 -0.2590 -0.8218 -0.0118
 4437SOL    HW124770   0.974   0.754  15.414  3.2238  1.1911 -0.2172
 4437SOL    HW224771   0.997   0.633  15.336 -2.8868 -1.0758  0.7326
 4438SOL     OW24772   0.842   1.152   5.579  0.1348 -0.1920 -0.2526
 4438SOL    HW124773   0.891   1.096   5.639  0.5608 -0.3712 -0.7657
 4438SOL    HW224774   0.800   1.088   5.521  0.7340 -0.4302 -0.4158
 4439SOL     OW24775   3.339   0.535   5.063  0.0391 -0.0171  0.4250
 4439SOL    HW124776   3.384   0.518   4.980 -0.9184 -0.1857 -0.0597
 4439SOL    HW224777   3.260   0.492   5.031  0.9870 -0.8698 -0.7586
 4440SOL     OW24778   4.369   1.007   9.125 -0.8877  0.1177 -0.5772
 4440SOL    HW124779   4.410   0.926   9.094 -1.1851 -0.9007  1.6998
 4440SOL    HW224780   4.446   1.046   9.166 -1.2187  1.1694 -0.9595
 4441SOL     OW24781   0.642   3.889   3.636 -0.0309 -0.3281 -0.1555
 4441SOL    HW124782   0.606   3.800   3.639 -1.6119  0.3884  2.6394
 4441SOL    HW224783   0.611   3.914   3.549 -0.7794  0.4195  0.3315
 4442SOL     OW24784   3.454   0.629  16.762 -0.0807  0.3980 -0.0798
 4442SOL    HW124785   3.450   0.611  16.668  0.5766 -0.9201  0.1372
 4442SOL    HW224786   3.406   0.554  16.797  2.3839 -0.5093  1.3527
 4443SOL     OW24787   4.254   4.304   3.260 -0.0490  0.1084 -0.0444
 4443SOL    HW124788   4.297   4.389   3.267  0.6119 -0.3628  1.6162
 4443SOL    HW224789   4.322   4.242   3.287  1.2262  2.3351  1.9087
 4444SOL     OW24790   0.652   2.619   4.926  0.1108 -0.1637  0.6477
 4444SOL    HW124791   0.618   2.549   4.870  0.5816 -0.3950  0.6492
 4444SOL    HW224792   0.711   2.650   4.858 -0.3441 -0.0282  0.3147
 4445SOL     OW24793   1.992   2.010  13.602 -0.2081  0.1397  0.0223
 4445SOL    HW124794   1.985   1.914  13.606 -1.4907  0.2132 -0.4766
 4445SOL    HW224795   1.901   2.038  13.607  0.1417  1.0702  1.0891
 4446SOL     OW24796   0.860   4.464   4.713  0.0581  0.5900 -0.4049
 4446SOL    HW124797   0.804   4.426   4.780  0.8241 -0.0580 -0.1375
 4446SOL    HW224798   0.798   4.536   4.695  0.1802  1.3764  2.3621
 4447SOL     OW24799   2.340   2.403   7.529 -0.3762 -0.5270 -0.1867
 4447SOL    HW124800   2.354   2.323   7.479 -2.8009 -1.1817  0.1778
 4447SOL    HW224801   2.418   2.398   7.584 -1.0876  1.8059  1.0227
 4448SOL     OW24802   0.134   2.926   6.701 -0.3522  0.0361 -0.8905
 4448SOL    HW124803   0.110   2.844   6.658 -0.3072 -0.3003 -0.2717
 4448SOL    HW224804   0.055   2.975   6.722 -0.9681 -1.2142 -0.2620
 4449SOL     OW24805   3.388   2.879  10.997  0.8687 -0.3704 -0.3474
 4449SOL    HW124806   3.322   2.944  11.018  2.1230  0.1395  1.9731
 4449SOL    HW224807   3.377   2.834  11.081  1.1541  2.8847  1.4567
 4450SOL     OW24808   0.305   0.477   2.031  0.6831  0.0845  0.7711
 4450SOL    HW124809   0.321   0.472   1.937  4.3185 -1.5486  1.4819
 4450SOL    HW224810   0.385   0.427   2.047 -1.1469 -3.3716 -0.8896
 4451SOL     OW24811   0.080   2.690   6.599  0.0293  0.3489  0.7554
 4451SOL    HW124812   0.137   2.641   6.540  0.7582  1.6549  0.3841
 4451SOL    HW224813   4.711   2.685   6.556  0.8121  1.2117 -0.9070
 4452SOL     OW24814   1.115   4.445   7.275  0.0602 -0.0404  0.0345
 4452SOL    HW124815   1.168   4.460   7.353 -1.7336 -1.2172  1.4944
 4452SOL    HW224816   1.033   4.413   7.313 -0.0923  0.9195  0.5194
 4453SOL     OW24817   1.281   2.722   0.426 -0.2154 -0.0591  0.2741
 4453SOL    HW124818   1.265   2.801   0.373  0.9497 -0.7993 -1.1995
 4453SOL    HW224819   1.369   2.746   0.456  0.0777 -2.4421  1.2552
 4454SOL     OW24820   3.652   2.932   4.913  0.0637  0.3952 -0.3562
 4454SOL    HW124821   3.735   2.979   4.905  0.7107 -0.8439 -0.9416
 4454SOL    HW224822   3.613   2.954   4.828  0.4797  0.4681 -0.5312
 4455SOL     OW24823   0.570   3.554  11.715  0.1774  0.3670 -0.0730
 4455SOL    HW124824   0.620   3.485  11.672  1.6234  2.3330 -1.5372
 4455SOL    HW224825   0.633   3.620  11.742  0.3358  0.4354 -0.6034
 4456SOL     OW24826   4.219   0.368   4.145 -0.2207  0.4220  0.0223
 4456SOL    HW124827   4.311   0.385   4.128 -0.6801  2.4119 -0.4126
 4456SOL    HW224828   4.197   0.432   4.213 -0.7789 -0.6877  0.8875
 4457SOL     OW24829   0.040   4.640   5.565 -0.0887  0.6967  0.0125
 4457SOL    HW124830   4.677   4.656   5.515 -0.7290 -3.3331 -0.2660
 4457SOL    HW224831   0.064   4.566   5.510 -1.2850  1.5385 -1.6682
 4458SOL     OW24832   0.098   4.265  16.734 -0.3294 -0.0053  0.3228
 4458SOL    HW124833   0.087   4.190  16.793  0.5839 -1.2735 -1.1080
 4458SOL    HW224834   0.014   4.291  16.699  0.3873  1.5644 -0.2110
 4459SOL     OW24835   1.552   1.514  11.077 -0.4528  0.0588  0.3627
 4459SOL    HW124836   1.607   1.526  11.000  0.3556 -0.3225  0.8790
 4459SOL    HW224837   1.477   1.566  11.048 -0.8751 -0.6619  0.1600
 4460SOL     OW24838   1.979   4.353   8.219  0.1687  0.0890 -0.3528
 4460SOL    HW124839   1.973   4.343   8.124  2.9363 -1.9078 -0.3356
 4460SOL    HW224840   2.018   4.440   8.222  0.1838  0.0353  0.7236
 4461SOL     OW24841   4.011   3.443   1.171  0.3052  0.4468  0.0788
 4461SOL    HW124842   4.032   3.504   1.241  0.5842 -0.4224  0.7473
 4461SOL    HW224843   4.061   3.370   1.208 -0.9218  0.0487  0.9215
 4462SOL     OW24844   0.578   2.961  10.013  0.0842  0.1906 -0.3553
 4462SOL    HW124845   0.645   3.022  10.042 -0.7907  0.7114  0.5778
 4462SOL    HW224846   0.553   2.925  10.098  1.6375  3.1453  1.3375
 4463SOL     OW24847   2.534   0.419   3.771  0.0353 -0.3887  0.0020
 4463SOL    HW124848   2.573   0.392   3.688  0.0741 -0.6425  0.1044
 4463SOL    HW224849   2.441   0.434   3.754  0.3600 -0.3470 -1.7608
 4464SOL     OW24850   2.944   0.366  16.210  0.0272  0.3364  0.0741
 4464SOL    HW124851   2.932   0.442  16.152  0.5030  1.0825  0.9544
 4464SOL    HW224852   3.034   0.346  16.186  0.3038  0.5213  0.9611
 4465SOL     OW24853   2.354   0.008   3.690 -0.1238  0.1437 -0.3381
 4465SOL    HW124854   2.288   0.065   3.727  0.3612  0.8225 -0.5145
 4465SOL    HW224855   2.432   0.038   3.737 -2.1702  0.8057  2.5508
 4466SOL     OW24856   1.726   1.535   0.453 -0.2690  0.3161 -0.2184
 4466SOL    HW124857   1.692   1.563   0.538  1.5696  2.3650 -0.1488
 4466SOL    HW224858   1.804   1.590   0.447  1.0283 -1.2835  2.1117
 4467SOL     OW24859   0.466   4.475   2.123 -0.2116  0.0216  0.0735
 4467SOL    HW124860   0.404   4.452   2.193 -2.4266 -0.6369 -2.0804
 4467SOL    HW224861   0.436   4.431   2.043  3.5582 -2.1488 -0.1590
 4468SOL     OW24862   0.477   4.463   3.696 -0.6625 -0.3733 -0.7889
 4468SOL    HW124863   0.508   4.378   3.728  0.8484 -0.1663 -1.7362
 4468SOL    HW224864   0.527   4.505   3.766 -0.6083 -1.2207 -0.3130
 4469SOL     OW24865   4.349   2.735   9.952 -0.3815 -0.3101 -0.6069
 4469SOL    HW124866   4.283   2.750   9.884  1.4836  0.3006 -2.2915
 4469SOL    HW224867   4.433   2.769   9.923 -1.0631  3.5057  1.9423
 4470SOL     OW24868   2.545   3.353   4.484  0.1444  0.0260  0.0052
 4470SOL    HW124869   2.500   3.381   4.564 -1.0700 -1.1415 -0.2530
 4470SOL    HW224870   2.636   3.376   4.502  0.7503 -1.5370 -1.1256
 4471SOL     OW24871   1.443   4.393   7.626 -0.1859 -0.9095 -0.0489
 4471SOL    HW124872   1.466   4.406   7.718  2.0914 -0.8652 -0.6336
 4471SOL    HW224873   1.521   4.433   7.589  1.3947 -0.8003  3.3980
 4472SOL     OW24874   1.587   3.335   4.781 -0.1563 -0.2236 -0.2278
 4472SOL    HW124875   1.527   3.260   4.780  1.0782 -1.2250  0.0637
 4472SOL    HW224876   1.661   3.302   4.730 -1.9925  0.1331 -3.0834
 4473SOL     OW24877   3.404   1.556   6.670 -0.2024  0.2583  0.0690
 4473SOL    HW124878   3.375   1.625   6.730 -4.0872 -1.6861  0.4304
 4473SOL    HW224879   3.438   1.601   6.592 -0.0625  0.6935  0.3764
 4474SOL     OW24880   2.108   4.626   3.864  0.2217 -0.5911 -0.0124
 4474SOL    HW124881   2.141   4.710   3.831 -1.6990  0.2529  0.2308
 4474SOL    HW224882   2.090   4.580   3.782  0.2430 -0.8429  0.1246
 4475SOL     OW24883   4.445   4.407   6.575 -0.0741 -0.2008  1.1290
 4475SOL    HW124884   4.488   4.488   6.604  0.2842  0.0833 -0.2043
 4475SOL    HW224885   4.465   4.400   6.482 -0.0916 -0.5875  1.1544
 4476SOL     OW24886   0.834   0.225  11.882 -0.5464 -0.0532 -0.3145
 4476SOL    HW124887   0.924   0.236  11.911 -0.6707 -0.6130  0.2792
 4476SOL    HW224888   0.784   0.258  11.956  0.9818 -1.5807  1.3945
 4477SOL     OW24889   4.142   2.708   8.890  0.0648  0.4509 -0.2347
 4477SOL    HW124890   4.101   2.770   8.831 -1.8356  0.7851  1.4353
 4477SOL    HW224891   4.226   2.687   8.849 -0.0992  0.3047 -0.4963
 4478SOL     OW24892   1.834   1.222   5.865  0.6009 -0.0851  0.3074
 4478SOL    HW124893   1.869   1.142   5.905 -0.0851  0.1955  1.4970
 4478SOL    HW224894   1.772   1.249   5.933  0.2534 -0.1472  0.0122
 4479SOL     OW24895   1.540   0.326   3.600  0.0231  0.6825 -0.3691
 4479SOL    HW124896   1.489   0.353   3.523 -0.4304  0.2027 -0.2348
 4479SOL    HW224897   1.580   0.243   3.572 -1.3497  0.3874 -1.5098
 4480SOL     OW24898   0.424   2.228  14.535 -0.0934 -0.3458  0.0382
 4480SOL    HW124899   0.430   2.324  14.535 -1.1299 -0.2780 -0.3227
 4480SOL    HW224900   0.439   2.224  14.630 -2.4850  1.4499  0.5250
 4481SOL     OW24901   1.859   1.214   9.306 -0.5136  0.0552 -0.1392
 4481SOL    HW124902   1.813   1.212   9.390  1.6494 -0.2645  1.0367
 4481SOL    HW224903   1.951   1.210   9.332  0.1855 -0.7182 -2.7338
 4482SOL     OW24904   2.305   1.054   7.448 -0.2111  0.1036 -0.1050
 4482SOL    HW124905   2.255   1.049   7.529 -0.5727 -0.4667 -0.3613
 4482SOL    HW224906   2.261   1.133   7.418  1.8527  1.3511  0.1297
 4483SOL     OW24907   2.436   1.723  12.565  0.2885 -0.3036  0.3323
 4483SOL    HW124908   2.448   1.813  12.596 -0.2446  0.3427 -1.3374
 4483SOL    HW224909   2.433   1.674  12.648  1.3126  0.0812  0.5876
 4484SOL     OW24910   3.956   3.726   2.441 -0.1248 -0.1473  0.7361
 4484SOL    HW124911   3.925   3.758   2.525 -0.3632  1.6454 -0.0367
 4484SOL    HW224912   4.002   3.801   2.403  0.8598 -0.6956  0.8449
 4485SOL     OW24913   0.978   1.115   1.405  0.7955 -0.1446  0.5110
 4485SOL    HW124914   0.945   1.143   1.490  0.2034 -0.1525  0.2889
 4485SOL    HW224915   1.057   1.068   1.431  0.5273  0.2624  2.0530
 4486SOL     OW24916   1.346   3.663   8.915 -0.9707  0.5725  0.3359
 4486SOL    HW124917   1.363   3.699   9.002  0.9411  0.1430  0.1354
 4486SOL    HW224918   1.382   3.729   8.855  0.8175  0.5783  1.4176
 4487SOL     OW24919   3.499   2.171  14.024 -0.1394 -0.4026  0.4788
 4487SOL    HW124920   3.551   2.228  13.968 -0.9004  0.9488  1.1469
 4487SOL    HW224921   3.454   2.125  13.953 -3.8015  0.2268  2.4013
 4488SOL     OW24922   2.427   0.771   5.609 -0.4277 -0.0617  0.1770
 4488SOL    HW124923   2.400   0.809   5.525  2.6364  0.7252 -0.4548
 4488SOL    HW224924   2.356   0.792   5.669  0.2467  0.0413  0.9349
 4489SOL     OW24925   0.862   1.751   2.707 -0.7059  0.2347  0.0742
 4489SOL    HW124926   0.888   1.681   2.648  0.5969 -1.2774  2.4803
 4489SOL    HW224927   0.852   1.820   2.641 -1.5420 -1.0119 -1.1083
 4490SOL     OW24928   1.212   2.773   3.582  0.0107  0.7676 -0.7717
 4490SOL    HW124929   1.172   2.811   3.504 -1.8380 -0.5337 -0.4603
 4490SOL    HW224930   1.148   2.798   3.649  0.5564  2.2902 -0.8212
 4491SOL     OW24931   3.565   4.443   2.093  0.2301 -0.3416  0.3608
 4491SOL    HW124932   3.601   4.457   2.006 -2.3940 -0.3127 -0.7192
 4491SOL    HW224933   3.527   4.356   2.082 -1.2129  0.2750  0.4703
 4492SOL     OW24934   1.637   0.035   9.425 -0.5668 -0.3476 -0.1777
 4492SOL    HW124935   1.721   0.014   9.385 -0.9917 -1.0930 -0.6793
 4492SOL    HW224936   1.598   4.667   9.443  1.4186 -1.0378  0.7562
 4493SOL     OW24937   3.025   2.383   5.661  0.0165 -0.1098  0.7196
 4493SOL    HW124938   3.044   2.402   5.569  0.0269 -1.2180  0.5009
 4493SOL    HW224939   2.943   2.336   5.646  0.7369 -1.1495  0.1233
 4494SOL     OW24940   2.278   3.597   5.246  0.0756  0.4628 -0.0623
 4494SOL    HW124941   2.304   3.686   5.270  0.2415  0.0277  1.3326
 4494SOL    HW224942   2.200   3.571   5.295  0.4270  0.6522  0.5936
 4495SOL     OW24943   1.297   3.775  13.152  0.4479  0.4952 -0.3627
 4495SOL    HW124944   1.288   3.851  13.211 -3.1665 -0.3620  0.1930
 4495SOL    HW224945   1.393   3.779  13.154  0.4899  0.5384 -2.5291
 4496SOL     OW24946   1.004   4.699   8.993 -0.4910  0.7082 -0.4678
 4496SOL    HW124947   1.049   4.615   8.983  0.7198  1.2525  0.5452
 4496SOL    HW224948   1.058   0.023   9.060 -0.8959  0.2891  0.1246
 4497SOL     OW24949   2.619   4.341   4.273 -0.5302  0.2640  0.7159
 4497SOL    HW124950   2.551   4.341   4.340 -0.9401  2.6143  0.3020
 4497SOL    HW224951   2.641   4.249   4.261  1.1636  0.6316  0.9067
 4498SOL     OW24952   2.699   3.046  16.536  0.2618 -0.3539  0.3742
 4498SOL    HW124953   2.612   3.036  16.499  0.4398  0.6300 -0.2917
 4498SOL    HW224954   2.681   3.105  16.610  0.2699  0.4090 -0.2367
 4499SOL     OW24955   4.643   3.684  10.554  0.2325 -0.6788 -0.0778
 4499SOL    HW124956   4.713   3.640  10.602  0.6776 -2.3403 -2.2669
 4499SOL    HW224957   4.696   3.711  10.479 -1.0069 -0.6585 -0.9411
 4500SOL     OW24958   0.383   2.337   2.071  0.1718 -0.4295  0.6185
 4500SOL    HW124959   0.332   2.372   1.997 -0.6136  0.1310  1.4300
 4500SOL    HW224960   0.372   2.242   2.063  0.6679 -0.3601 -1.0308
 4501SOL     OW24961   1.474   1.380  10.007  0.3816  0.0994  0.0053
 4501SOL    HW124962   1.544   1.341   9.955  0.1317 -0.2635 -0.0587
 4501SOL    HW224963   1.487   1.337  10.092 -1.0962  1.3644  0.8768
 4502SOL     OW24964   2.145   2.882   7.947  0.1179 -0.0140  0.0897
 4502SOL    HW124965   2.081   2.816   7.920 -0.6632 -0.1381  2.2755
 4502SOL    HW224966   2.098   2.950   7.995  2.7716 -0.8907  3.9102
 4503SOL     OW24967   1.283   0.699  15.306  0.0862 -0.3026  0.4565
 4503SOL    HW124968   1.267   0.653  15.223  1.5146  2.7996 -1.5179
 4503SOL    HW224969   1.198   0.722  15.343  0.0740  2.1167 -1.0919
 4504SOL     OW24970   1.782   0.974   5.269 -0.2606 -0.1993  0.2338
 4504SOL    HW124971   1.855   0.990   5.209 -1.3897  0.0682 -1.0984
 4504SOL    HW224972   1.815   1.003   5.354 -0.9644 -1.7608  1.0428
 4505SOL     OW24973   3.064   1.383   8.130  0.4971  0.1957  0.1431
 4505SOL    HW124974   3.037   1.459   8.080  0.0552 -0.4607 -0.6145
 4505SOL    HW224975   2.998   1.393   8.198  2.7609  1.4177  2.1936
 4506SOL     OW24976   0.576   3.317  13.426 -0.0409  0.2598  0.0745
 4506SOL    HW124977   0.618   3.272  13.499  0.2913 -0.4192 -0.5366
 4506SOL    HW224978   0.645   3.320  13.360  0.4744 -3.1325  0.4929
 4507SOL     OW24979   4.236   4.217  16.912  0.2397 -0.2905 -0.1413
 4507SOL    HW124980   4.181   4.294  16.891  0.6515  0.5170  1.7574
 4507SOL    HW224981   4.327   4.242  16.900 -0.4933  2.0824 -0.8422
 4508SOL     OW24982   3.896   1.088   4.617 -0.2962 -0.6964 -0.0725
 4508SOL    HW124983   3.906   1.072   4.711  0.1459  1.4994  0.2465
 4508SOL    HW224984   3.828   1.155   4.621 -2.2787 -2.5667 -2.9176
 4509SOL     OW24985   0.146   4.288   5.804 -0.6610  0.0404  0.4570
 4509SOL    HW124986   0.055   4.309   5.824 -1.2674 -0.4814 -1.8743
 4509SOL    HW224987   0.146   4.340   5.724 -0.6177  2.2527  1.9063
 4510SOL     OW24988   1.810   2.459   2.246 -0.7970  0.0000 -0.3050
 4510SOL    HW124989   1.891   2.453   2.296 -0.5944 -1.6987 -0.8678
 4510SOL    HW224990   1.804   2.372   2.207 -1.2706  0.9908 -2.4334
 4511SOL     OW24991   4.642   0.795   7.357 -0.1206  0.0351  0.1075
 4511SOL    HW124992   4.679   0.764   7.440  0.2798  0.2402  0.0041
 4511SOL    HW224993   4.547   0.793   7.372 -0.2996 -0.0906 -1.0916
 4512SOL     OW24994   1.185   1.465   5.746  0.3649  0.4023 -0.2467
 4512SOL    HW124995   1.263   1.485   5.695  0.0769  1.3757 -0.3024
 4512SOL    HW224996   1.226   1.425   5.822  0.2860  0.3210 -0.2468
 4513SOL     OW24997   3.699   3.530   2.798 -0.2969  0.2198  0.2782
 4513SOL    HW124998   3.737   3.597   2.855 -0.7733  1.4171 -0.8189
 4513SOL    HW224999   3.780   3.502   2.756 -0.0387  0.6767  0.4652
 4514SOL     OW25000   1.742   0.617   7.363 -0.8914  0.0469  0.5596
 4514SOL    HW125001   1.750   0.704   7.403 -0.0770  1.0590 -1.7988
 4514SOL    HW225002   1.689   0.634   7.286 -0.4573 -1.5161 -0.0787
 4515SOL     OW25003   1.584   0.651   1.421 -0.4222  0.3318 -0.1792
 4515SOL    HW125004   1.666   0.601   1.421  0.5779  1.9623 -1.0475
 4515SOL    HW225005   1.602   0.713   1.492 -1.1039  0.8461 -0.4607
 4516SOL     OW25006   1.660   1.263   6.076  0.4590 -0.1781 -0.1413
 4516SOL    HW125007   1.643   1.171   6.099 -3.1296  0.2991 -0.8735
 4516SOL    HW225008   1.681   1.297   6.163 -0.6291 -1.6070  0.6873
 4517SOL     OW25009   3.909   3.164   2.910  0.5644 -0.1281 -0.6351
 4517SOL    HW125010   3.976   3.120   2.962  3.0965 -0.0487 -3.8532
 4517SOL    HW225011   3.878   3.239   2.961 -0.1665  0.3548 -1.7932
 4518SOL     OW25012   2.206   1.321   7.397  0.3902 -0.1712 -0.3721
 4518SOL    HW125013   2.120   1.334   7.437  0.9905  1.1368  0.5129
 4518SOL    HW225014   2.186   1.361   7.312  2.0686  0.6557 -0.3908
 4519SOL     OW25015   0.288   1.075   3.570 -0.3010  0.6411  0.1945
 4519SOL    HW125016   0.238   1.005   3.610 -1.8506  1.0796 -0.9996
 4519SOL    HW225017   0.375   1.047   3.599 -0.6659 -1.2972 -0.6192
 4520SOL     OW25018   3.969   1.555  16.957  0.8405 -0.1065  0.0869
 4520SOL    HW125019   3.937   1.639  16.926  0.5879 -1.0501 -2.2387
 4520SOL    HW225020   3.939   1.493  16.890  1.5480  0.7766 -1.0576
 4521SOL     OW25021   0.879   4.055   2.050  0.6721  0.2964  0.6799
 4521SOL    HW125022   0.909   4.136   2.009  2.1381 -0.7648 -0.3488
 4521SOL    HW225023   0.950   4.037   2.111 -0.1368  1.8412  2.0694
 4522SOL     OW25024   4.450   1.182   7.135 -0.3966 -0.2596 -0.2244
 4522SOL    HW125025   4.418   1.272   7.141 -1.9046 -0.8309  0.1286
 4522SOL    HW225026   4.421   1.138   7.215 -0.9913 -0.6843 -0.6788
 4523SOL     OW25027   0.316   0.180   0.657  0.0225  0.8812 -0.1395
 4523SOL    HW125028   0.346   0.269   0.674  0.3532  0.4940  1.2625
 4523SOL    HW225029   0.373   0.125   0.709 -0.3159  0.5919 -0.0705
 4524SOL     OW25030   0.637   2.146   5.395  0.8293  0.1430  0.4731
 4524SOL    HW125031   0.653   2.205   5.321 -2.5398  2.8096  1.8584
 4524SOL    HW225032   0.700   2.079   5.369  0.7824 -0.8596  2.9499
 4525SOL     OW25033   2.579   2.729   6.564 -0.3273  0.4312  0.2911
 4525SOL    HW125034   2.580   2.800   6.500 -0.3700 -1.6648 -2.0545
 4525SOL    HW225035   2.674   2.724   6.578 -0.2410 -3.2305 -1.5686
 4526SOL     OW25036   1.195   0.496  11.410 -0.1983  0.4123  0.0651
 4526SOL    HW125037   1.257   0.475  11.481 -1.0603  0.6768  0.8932
 4526SOL    HW225038   1.170   0.576  11.455 -1.7808 -0.2348  0.3349
 4527SOL     OW25039   1.209   0.448   2.360  0.1265  0.4633  0.4043
 4527SOL    HW125040   1.182   0.407   2.442 -2.1076 -1.4813 -1.3123
 4527SOL    HW225041   1.303   0.433   2.361  0.1102  0.3478  0.2337
 4528SOL     OW25042   4.144   2.325   8.715 -0.1408 -0.2297  0.1870
 4528SOL    HW125043   4.058   2.361   8.692 -0.0373 -0.0349  0.1067
 4528SOL    HW225044   4.130   2.296   8.805  3.9914 -1.9927  0.2740
 4529SOL     OW25045   4.142   3.085   7.692 -0.1358  0.3045  0.2102
 4529SOL    HW125046   4.127   3.151   7.760  0.5073  0.4970  0.1606
 4529SOL    HW225047   4.235   3.062   7.695 -0.3531 -0.5854  0.1136
 4530SOL     OW25048   3.909   3.208   6.999  0.0497  0.3229 -0.0699
 4530SOL    HW125049   3.862   3.145   6.945  0.4639  1.5303 -1.8381
 4530SOL    HW225050   4.001   3.200   6.974  0.3024  0.0193  0.9192
 4531SOL     OW25051   3.446   2.890   9.121  0.2542  0.3774 -0.2173
 4531SOL    HW125052   3.436   2.879   9.216 -0.8040  0.3921 -0.3292
 4531SOL    HW225053   3.504   2.966   9.117 -0.8202  1.1726 -0.6949
 4532SOL     OW25054   3.206   1.321   5.080  0.2734  0.2615  0.0236
 4532SOL    HW125055   3.276   1.278   5.031 -0.1035 -0.6323  0.2670
 4532SOL    HW225056   3.149   1.246   5.096  1.2224 -0.7508 -1.3437
 4533SOL     OW25057   3.288   1.657   1.873  0.4763 -0.2342 -0.0403
 4533SOL    HW125058   3.350   1.597   1.914 -0.9696 -1.3233  0.5787
 4533SOL    HW225059   3.347   1.717   1.827  0.9239 -2.0610 -1.8295
 4534SOL     OW25060   0.429   2.237   4.632  0.4939 -0.3511  0.2447
 4534SOL    HW125061   0.434   2.147   4.602 -2.7068  0.7490 -3.4571
 4534SOL    HW225062   0.427   2.293   4.554  0.1214 -1.7400 -0.7332
 4535SOL     OW25063   1.046   0.162   4.330 -0.1830 -0.6889  0.1853
 4535SOL    HW125064   0.964   0.143   4.285 -0.9633 -0.3529  1.4604
 4535SOL    HW225065   1.035   0.114   4.412  2.1030 -1.0043  0.2930
 4536SOL     OW25066   1.796   3.364  14.149  0.6472 -0.1301 -0.1730
 4536SOL    HW125067   1.871   3.416  14.120 -0.7414  0.6970 -2.3108
 4536SOL    HW225068   1.730   3.372  14.079 -1.4695 -1.4961  1.6772
 4537SOL     OW25069   3.485   0.801  16.488  0.3419 -0.3377 -0.0832
 4537SOL    HW125070   3.416   0.847  16.536  0.9670  0.7378 -0.2300
 4537SOL    HW225071   3.548   0.872  16.485 -0.7104  0.6923  2.8952
 4538SOL     OW25072   3.724   2.420   1.237 -0.2529 -0.0781 -0.8559
 4538SOL    HW125073   3.653   2.475   1.269 -0.4252 -0.0205 -1.3399
 4538SOL    HW225074   3.798   2.445   1.292 -0.6978  0.4399 -0.4978
 4539SOL     OW25075   1.487   1.774   2.108 -0.0558  0.0471  0.1369
 4539SOL    HW125076   1.421   1.766   2.040 -0.1216  2.3199 -0.0538
 4539SOL    HW225077   1.474   1.687   2.147  1.5972 -0.4581 -0.4274
 4540SOL     OW25078   0.125   2.177   2.302  0.0407  0.2107 -0.3188
 4540SOL    HW125079   0.198   2.130   2.343 -2.1516 -2.8566 -0.0312
 4540SOL    HW225080   0.050   2.125   2.330  2.5869 -3.2910  0.0217
 4541SOL     OW25081   3.204   4.027   1.930  0.0622  0.2440 -0.0620
 4541SOL    HW125082   3.132   3.965   1.942 -0.0531  0.5532  0.7900
 4541SOL    HW225083   3.175   4.058   1.844 -2.0566 -1.9232 -0.1242
 4542SOL     OW25084   3.841   2.862   7.452  0.6266  0.8487 -0.4854
 4542SOL    HW125085   3.919   2.882   7.400  0.6228 -0.0189 -0.8225
 4542SOL    HW225086   3.848   2.934   7.516  0.6757  0.9279 -0.5795
 4543SOL     OW25087   0.382   4.379  16.527 -0.8084 -0.6321 -0.2199
 4543SOL    HW125088   0.324   4.351  16.457 -0.3676  0.7495 -1.1206
 4543SOL    HW225089   0.388   4.298  16.578 -0.1969  0.2562  1.1206
 4544SOL     OW25090   4.467   3.150  17.316 -0.2974 -0.1353 -0.3948
 4544SOL    HW125091   4.510   3.226  17.355 -0.2082  0.5177 -1.7628
 4544SOL    HW225092   4.376   3.178  17.306 -0.4772 -0.0908  1.3775
 4545SOL     OW25093   3.465   2.475   9.943 -0.0097 -0.0542  0.8718
 4545SOL    HW125094   3.509   2.496  10.025 -3.6828 -0.0452  2.8648
 4545SOL    HW225095   3.397   2.413   9.970 -0.1556  0.1568  0.9945
 4546SOL     OW25096   4.049   2.253   5.183 -0.3426 -0.4605  0.0817
 4546SOL    HW125097   4.119   2.276   5.122  0.0380  1.1858  1.1355
 4546SOL    HW225098   3.990   2.327   5.195 -0.7612 -0.4494 -2.0788
 4547SOL     OW25099   0.809   2.453   7.475 -0.7335 -0.5189  1.0220
 4547SOL    HW125100   0.825   2.359   7.479 -0.0724 -0.5015 -1.2466
 4547SOL    HW225101   0.780   2.462   7.384 -0.0785  0.1732  0.8780
 4548SOL     OW25102   2.045   3.932   0.613  0.2155 -0.1035  0.1732
 4548SOL    HW125103   2.029   3.887   0.696 -1.4422 -0.8645 -0.5583
 4548SOL    HW225104   2.039   4.021   0.647  0.6524 -0.8283  2.1683
 4549SOL     OW25105   3.824   4.033   5.767 -0.1421  0.0384  0.3627
 4549SOL    HW125106   3.855   3.944   5.780  1.4561  0.5279 -0.1950
 4549SOL    HW225107   3.731   4.010   5.779 -0.1508  0.4790  1.1832
 4550SOL     OW25108   2.800   3.664   4.028  0.4461 -0.2376 -0.2045
 4550SOL    HW125109   2.839   3.730   3.970  0.4286 -0.1279 -0.0912
 4550SOL    HW225110   2.779   3.713   4.107  0.9172 -1.0171  0.4037
 4551SOL     OW25111   2.984   0.733   8.620 -0.1925 -0.2640  0.1386
 4551SOL    HW125112   3.001   0.642   8.643  0.1501 -0.0432  0.7570
 4551SOL    HW225113   3.070   0.768   8.643 -0.7156  1.4237 -0.4047
 4552SOL     OW25114   0.701   4.677   7.002  0.5772 -1.0496 -0.1694
 4552SOL    HW125115   0.662   4.716   6.924 -2.1299 -2.0715  0.6877
 4552SOL    HW225116   0.634   4.614   7.028 -0.5378  0.0697 -0.3517
 4553SOL     OW25117   3.052   3.828   8.272 -0.1193  0.0956 -1.0891
 4553SOL    HW125118   3.058   3.818   8.177  1.2945  1.2167 -1.1160
 4553SOL    HW225119   3.083   3.739   8.294 -3.2706 -0.2297  2.1123
 4554SOL     OW25120   1.155   4.151   7.787  0.2484 -0.1974 -1.1558
 4554SOL    HW125121   1.117   4.113   7.708  0.1888 -3.5973  0.4990
 4554SOL    HW225122   1.241   4.170   7.751  0.1711 -1.3253 -1.9205
 4555SOL     OW25123   2.846   4.388  15.184 -0.4159 -0.1393 -0.0216
 4555SOL    HW125124   2.772   4.448  15.197 -0.5143 -0.1642 -0.4691
 4555SOL    HW225125   2.817   4.299  15.200 -0.4790 -0.1521 -0.2053
 4556SOL     OW25126   0.735   3.753  16.552 -0.4906  0.3760 -0.0322
 4556SOL    HW125127   0.751   3.676  16.607  0.8984  0.2925 -0.5569
 4556SOL    HW225128   0.819   3.796  16.565 -0.3584  0.3001 -0.6412
 4557SOL     OW25129   1.899   2.974   2.044 -0.8172 -0.9027 -0.4108
 4557SOL    HW125130   1.814   2.939   2.016 -0.9651 -0.9513  0.1014
 4557SOL    HW225131   1.955   2.898   2.028 -1.3035 -1.5941  1.1613
 4558SOL     OW25132   0.533   3.611   9.102  0.1750  0.6845 -0.2825
 4558SOL    HW125133   0.541   3.575   9.190  1.1660 -3.3359 -2.0023
 4558SOL    HW225134   0.479   3.689   9.112 -2.3424 -0.8207 -2.1066
 4559SOL     OW25135   0.333   4.558   1.007 -0.0926 -0.5724 -0.3651
 4559SOL    HW125136   0.340   4.642   0.963 -1.2860 -0.4467 -0.3289
 4559SOL    HW225137   0.423   4.527   1.018 -0.4214 -0.7859  1.8742
 4560SOL     OW25138   1.857   2.374   0.054  0.0683 -0.1694  0.2059
 4560SOL    HW125139   1.910   2.324   0.116  2.6403  1.4476 -0.6680
 4560SOL    HW225140   1.882   2.340  17.641 -1.5940  0.7456 -0.6242
 4561SOL     OW25141   4.233   1.644   1.613  0.1178 -0.2990  0.0385
 4561SOL    HW125142   4.142   1.614   1.613 -0.0531  0.2054 -0.1760
 4561SOL    HW225143   4.280   1.580   1.560  1.0057  1.1672 -0.9463
 4562SOL     OW25144   2.373   1.224   3.340  0.2515  0.0453  0.0577
 4562SOL    HW125145   2.364   1.130   3.353 -1.2090  0.1146 -0.4977
 4562SOL    HW225146   2.468   1.232   3.350  0.3498  1.0706 -1.7264
 4563SOL     OW25147   3.557   2.271   3.766 -0.3708 -0.0891  0.6307
 4563SOL    HW125148   3.545   2.176   3.773 -0.2492 -0.1064  0.5923
 4563SOL    HW225149   3.624   2.279   3.833  0.8068  1.8443 -0.7789
 4564SOL     OW25150   3.823   3.301   3.141  0.8609 -0.0614 -0.8138
 4564SOL    HW125151   3.741   3.350   3.149  1.1148 -0.1482  2.1990
 4564SOL    HW225152   3.863   3.316   3.227 -0.2177  0.7357 -0.4566
 4565SOL     OW25153   1.729   2.546   6.690  0.4247 -0.0138  0.0300
 4565SOL    HW125154   1.660   2.612   6.689  1.4257  1.0129  0.1998
 4565SOL    HW225155   1.691   2.486   6.625  0.9080  1.4976 -1.6340
 4566SOL     OW25156   3.347   3.203   1.636 -0.4441 -0.1657 -0.5019
 4566SOL    HW125157   3.297   3.132   1.677  1.4640 -0.3835  1.4039
 4566SOL    HW225158   3.423   3.211   1.693  0.0312  1.1657 -1.3304
 4567SOL     OW25159   0.893   0.144   1.309  0.3397 -0.0461  0.4113
 4567SOL    HW125160   0.870   0.096   1.388 -0.0774 -1.1282 -0.3676
 4567SOL    HW225161   0.962   0.087   1.275 -0.0221 -0.6365  0.6703
 4568SOL     OW25162   2.117   2.428   6.237 -0.4460  0.9813  0.4259
 4568SOL    HW125163   2.168   2.351   6.265  0.5852  0.9755 -1.5046
 4568SOL    HW225164   2.031   2.403   6.271 -0.1830  0.2748  0.5858
 4569SOL     OW25165   4.611   4.208   9.997  0.1378  0.1305 -0.4141
 4569SOL    HW125166   4.567   4.148   9.936 -0.3967  1.5018 -1.3779
 4569SOL    HW225167   4.570   4.288   9.965  0.5590  1.0462  1.3762
 4570SOL     OW25168   2.285   3.261  17.115  0.2036  0.3140  0.3482
 4570SOL    HW125169   2.241   3.339  17.150 -2.0963 -0.2531 -1.2955
 4570SOL    HW225170   2.297   3.291  17.025  0.5172 -1.8353 -0.3196
 4571SOL     OW25171   0.859   3.994   8.402 -0.3332  0.7072  0.8536
 4571SOL    HW125172   0.778   3.980   8.353 -0.9124  1.7242  1.5113
 4571SOL    HW225173   0.920   3.932   8.363 -1.2149 -1.1989  2.5595
 4572SOL     OW25174   4.460   1.860  16.182 -0.0677 -0.1628  0.1392
 4572SOL    HW125175   4.455   1.956  16.184 -0.7937 -0.1811 -1.1854
 4572SOL    HW225176   4.369   1.831  16.182 -0.2380  0.3904 -1.6832
 4573SOL     OW25177   3.472   0.376   2.284  0.0344  0.4371  0.0524
 4573SOL    HW125178   3.393   0.429   2.274 -1.4742 -2.1735 -1.9641
 4573SOL    HW225179   3.433   0.289   2.280  0.5497  0.2315 -0.5552
 4574SOL     OW25180   1.521   1.045   1.304  0.3278 -0.2130 -0.0138
 4574SOL    HW125181   1.556   1.118   1.355  0.5004 -1.4910  1.7098
 4574SOL    HW225182   1.429   1.068   1.290  0.6047  0.8747 -0.0311
 4575SOL     OW25183   3.453   2.453  14.502 -0.3941 -0.4514  0.6531
 4575SOL    HW125184   3.506   2.383  14.464  1.1662  0.4688  1.1175
 4575SOL    HW225185   3.381   2.403  14.541 -0.8791  0.0744  0.4269
 4576SOL     OW25186   2.325   1.101   1.894 -0.0090  0.1404 -0.6504
 4576SOL    HW125187   2.413   1.130   1.869 -0.0017  1.0927  0.4716
 4576SOL    HW225188   2.289   1.079   1.809 -1.4372 -1.6919  0.4219
 4577SOL     OW25189   3.001   4.012   4.768  0.2058  0.2948  0.2401
 4577SOL    HW125190   3.068   4.016   4.699  0.4485  1.3749  0.5243
 4577SOL    HW225191   2.935   4.069   4.729 -0.5664 -1.8352 -1.5537
 4578SOL     OW25192   1.270   3.567  15.274 -0.1251 -0.0891  0.4411
 4578SOL    HW125193   1.275   3.657  15.241 -0.2584 -0.2349  0.0258
 4578SOL    HW225194   1.342   3.560  15.337 -0.2114  1.4113  0.7118
 4579SOL     OW25195   0.412   4.326   1.223 -0.0297  0.3565  0.3433
 4579SOL    HW125196   0.438   4.273   1.147  1.3124 -0.0800  1.1124
 4579SOL    HW225197   0.471   4.288   1.288 -0.7423  0.2814  0.9459
 4580SOL     OW25198   4.551   4.331   7.728 -0.3888  0.6184 -0.2042
 4580SOL    HW125199   4.568   4.407   7.784 -3.5063  0.7927  0.5146
 4580SOL    HW225200   4.609   4.265   7.767 -0.3179  1.0122  0.3658
 4581SOL     OW25201   1.234   1.318  12.854 -0.3996  0.0383 -0.1326
 4581SOL    HW125202   1.275   1.320  12.767  0.4173  1.4816  0.2954
 4581SOL    HW225203   1.144   1.301  12.829 -1.5526  1.1477  3.2550
 4582SOL     OW25204   3.058   1.065   6.530  0.7634  0.0303  0.1200
 4582SOL    HW125205   3.094   1.150   6.554 -0.4030  0.3548  0.7353
 4582SOL    HW225206   3.051   1.080   6.436  0.6831 -0.3279  0.0655
 4583SOL     OW25207   2.074   2.460   8.455  0.4037 -0.6429  0.1103
 4583SOL    HW125208   2.156   2.415   8.471 -0.0423 -1.8942 -1.0617
 4583SOL    HW225209   2.016   2.387   8.477 -1.6808  1.3361  1.2012
 4584SOL     OW25210   1.957   4.555   5.150 -0.3165 -0.3201 -0.5598
 4584SOL    HW125211   1.913   4.485   5.101 -3.1898  0.5882  0.7243
 4584SOL    HW225212   1.990   4.614   5.081 -1.2598  0.1059 -0.6432
 4585SOL     OW25213   3.810   2.073   5.574 -0.1656 -0.5727 -0.1655
 4585SOL    HW125214   3.881   2.136   5.556 -1.3451  0.0438 -2.6271
 4585SOL    HW225215   3.742   2.099   5.512 -0.7279 -0.7039  0.4010
 4586SOL     OW25216   3.004   3.968   2.834  0.2277 -0.0362 -0.0726
 4586SOL    HW125217   2.999   3.988   2.741  1.5600 -1.3826 -0.4372
 4586SOL    HW225218   3.025   3.876   2.818 -3.1651 -0.8133 -0.0204
 4587SOL     OW25219   3.691   2.543   2.666 -0.4336  0.2570  0.2573
 4587SOL    HW125220   3.753   2.594   2.718 -1.9792  2.1670  0.2274
 4587SOL    HW225221   3.662   2.475   2.727  0.0305  0.0780  0.2779
 4588SOL     OW25222   1.310   0.193   7.832 -0.4115 -0.1876 -0.4291
 4588SOL    HW125223   1.385   0.172   7.887  0.5244  0.4866 -1.4445
 4588SOL    HW225224   1.320   0.142   7.751  0.5844 -0.3933 -0.1742
 4589SOL     OW25225   1.586   0.926   2.616  0.0901 -0.2767 -0.2296
 4589SOL    HW125226   1.537   0.948   2.537 -1.5669  1.1475  1.1901
 4589SOL    HW225227   1.532   0.950   2.692 -0.7397 -0.7077 -0.6755
 4590SOL     OW25228   3.139   0.022   3.142  0.7619 -0.1199  0.0951
 4590SOL    HW125229   3.152   4.646   3.155  0.8825 -0.2442 -0.8762
 4590SOL    HW225230   3.118   0.029   3.049 -2.7794 -0.6958  0.8418
 4591SOL     OW25231   3.438   0.845   1.356  0.1669  0.0256 -0.8660
 4591SOL    HW125232   3.402   0.802   1.434  1.6557  1.4822  0.6286
 4591SOL    HW225233   3.364   0.901   1.337  1.3414  1.4016 -1.3626
 4592SOL     OW25234   3.792   4.527  13.842  0.0804 -0.1722 -0.2524
 4592SOL    HW125235   3.719   4.588  13.851 -0.6152 -1.0418  0.0492
 4592SOL    HW225236   3.834   4.570  13.768  2.2117 -1.3163  0.3184
 4593SOL     OW25237   1.330   2.294   8.906  0.0476  0.0527  0.5934
 4593SOL    HW125238   1.248   2.250   8.882 -1.7502  3.1414  0.9212
 4593SOL    HW225239   1.314   2.315   8.998 -0.1987 -0.5481  0.6841
 4594SOL     OW25240   3.199   1.520   0.674 -0.5576 -0.6164 -0.2063
 4594SOL    HW125241   3.198   1.507   0.769 -2.2701 -2.2752 -0.4617
 4594SOL    HW225242   3.281   1.479   0.647 -0.8901 -0.6475 -1.1741
 4595SOL     OW25243   2.905   0.696  12.175  0.2681 -0.4965  0.1992
 4595SOL    HW125244   2.855   0.623  12.211  1.0435 -1.0060  0.2682
 4595SOL    HW225245   2.879   0.693  12.083 -0.2873  1.3311  0.3088
 4596SOL     OW25246   3.193   0.777   0.493 -0.1702  0.6090 -0.9557
 4596SOL    HW125247   3.237   0.849   0.446  0.7203  1.4522  1.1530
 4596SOL    HW225248   3.103   0.808   0.481 -0.5010  0.2144  0.5807
 4597SOL     OW25249   1.037   3.497   5.979  0.2020 -0.0331 -0.1337
 4597SOL    HW125250   0.994   3.582   5.965  1.4914  0.2307 -2.7135
 4597SOL    HW225251   1.027   3.458   5.892 -1.3659 -0.9428  0.4663
 4598SOL     OW25252   1.866   0.709   9.185 -0.1416  0.2176  0.3840
 4598SOL    HW125253   1.857   0.681   9.094  2.0274 -0.4305  0.3806
 4598SOL    HW225254   1.854   0.804   9.190  0.3482  0.0625  4.0774
 4599SOL     OW25255   0.884   2.553   2.068  0.0483  0.3090  0.1796
 4599SOL    HW125256   0.789   2.541   2.080  0.4285 -3.7985 -0.8960
 4599SOL    HW225257   0.922   2.467   2.087 -0.4172  0.0314 -0.1302
 4600SOL     OW25258   1.799   0.119  14.618  0.3796 -0.7899 -0.5569
 4600SOL    HW125259   1.831   0.190  14.674 -0.4513  0.5158 -1.7424
 4600SOL    HW225260   1.840   0.126  14.531  1.6044 -1.7405 -0.0636
 4601SOL     OW25261   3.099   0.071   7.892 -0.2330  0.1212  0.3827
 4601SOL    HW125262   3.097   0.137   7.962  2.8159  2.2190 -1.4830
 4601SOL    HW225263   3.006   0.050   7.886 -0.4558  1.2518 -0.0172
 4602SOL     OW25264   2.620   3.188   2.837 -0.4610 -0.7847  0.1949
 4602SOL    HW125265   2.568   3.151   2.766  0.9043 -1.4070 -0.4720
 4602SOL    HW225266   2.566   3.258   2.873 -0.1696  0.0322 -0.9557
 4603SOL     OW25267   2.541   3.106  12.995  0.1785  0.4718 -0.3568
 4603SOL    HW125268   2.475   3.055  12.948 -1.3788  0.2257  2.0837
 4603SOL    HW225269   2.560   3.173  12.930  2.6327 -1.1253 -1.2881
 4604SOL     OW25270   2.285   3.264  12.529  0.1181  0.7620  0.0594
 4604SOL    HW125271   2.192   3.277  12.514  0.1251  2.6124  1.7093
 4604SOL    HW225272   2.293   3.275  12.623 -0.7938  0.1236  0.2054
 4605SOL     OW25273   0.310   1.085  16.628 -0.5655  0.2087  0.1654
 4605SOL    HW125274   0.246   1.018  16.603 -0.8044  0.4427  0.1489
 4605SOL    HW225275   0.289   1.111  16.717  0.4992 -3.2665  1.4279
 4606SOL     OW25276   4.612   2.897  12.460 -0.5301 -0.1120  0.5643
 4606SOL    HW125277   4.637   2.846  12.537 -0.5694  1.4798  1.6547
 4606SOL    HW225278   4.689   2.886  12.404 -1.3171 -1.5931 -0.2025
 4607SOL     OW25279   0.227   1.595   6.795  0.0610  0.0087 -0.0010
 4607SOL    HW125280   0.202   1.534   6.864 -0.6956 -1.0014 -1.1526
 4607SOL    HW225281   0.157   1.570   6.735  0.1935 -0.5259  0.0614
 4608SOL     OW25282   1.295   1.574   4.881  0.0348  0.4739  0.0087
 4608SOL    HW125283   1.355   1.510   4.919 -0.6334  0.8763  1.7597
 4608SOL    HW225284   1.318   1.660   4.916  1.3175  0.6327 -1.2483
 4609SOL     OW25285   3.962   0.105   3.303  0.1706 -0.2571 -0.3652
 4609SOL    HW125286   4.004   0.170   3.359 -1.1712 -2.3887  3.0920
 4609SOL    HW225287   3.913   0.151   3.234 -1.2620  0.5261  1.1777
 4610SOL     OW25288   0.576   1.466   4.172  0.1231  0.1446  0.0017
 4610SOL    HW125289   0.561   1.559   4.188 -1.3698 -0.3446  1.5622
 4610SOL    HW225290   0.652   1.465   4.114 -0.8864 -1.0615 -1.2880
 4611SOL     OW25291   2.525   3.351   7.794  0.0986  0.6585 -0.5667
 4611SOL    HW125292   2.460   3.419   7.813  0.3754  1.1523 -1.3814
 4611SOL    HW225293   2.597   3.413   7.779  0.1407  0.3376 -1.6826
 4612SOL     OW25294   3.074   2.641   6.953  0.0466  0.2974  0.4293
 4612SOL    HW125295   3.015   2.608   7.021  0.5036 -2.0109 -0.3019
 4612SOL    HW225296   3.068   2.735   6.967  1.9112  0.6562 -1.1911
 4613SOL     OW25297   1.897   0.554  14.153 -0.1362 -0.2054  0.5911
 4613SOL    HW125298   1.936   0.642  14.158 -1.1155  0.1356  2.2036
 4613SOL    HW225299   1.904   0.527  14.244 -0.4148  1.6695  1.1743
 4614SOL     OW25300   1.453   2.752   9.190 -0.1304  0.3382 -0.0268
 4614SOL    HW125301   1.532   2.706   9.161 -0.4364  1.7677 -3.2260
 4614SOL    HW225302   1.407   2.756   9.106  2.1019  2.3767 -1.1559
 4615SOL     OW25303   0.662   2.934  14.179 -0.5672  0.6318  0.0186
 4615SOL    HW125304   0.681   3.015  14.226 -1.1936  0.7497  0.0785
 4615SOL    HW225305   0.735   2.914  14.121 -0.7415  1.3920 -0.4747
 4616SOL     OW25306   3.827   1.438  10.327  0.5532  0.4825 -0.0236
 4616SOL    HW125307   3.794   1.526  10.346  1.6763  1.2025 -1.4102
 4616SOL    HW225308   3.810   1.388  10.406 -0.9473  0.8420 -0.1217
 4617SOL     OW25309   0.733   3.658   5.344 -0.6472  0.1501  0.2471
 4617SOL    HW125310   0.777   3.574   5.360 -0.9980 -0.1425 -0.2948
 4617SOL    HW225311   0.753   3.704   5.425  1.6406  2.1748 -1.4680
 4618SOL     OW25312   3.379   1.404  16.530 -0.4524 -0.2974  0.2657
 4618SOL    HW125313   3.462   1.448  16.511 -0.2935 -1.5624 -2.0229
 4618SOL    HW225314   3.412   1.323  16.569  1.8954  0.2549 -0.5513
 4619SOL     OW25315   4.134   4.033   7.325  0.0434  0.3360 -0.4915
 4619SOL    HW125316   4.135   4.042   7.229  1.2756  1.3594 -0.3891
 4619SOL    HW225317   4.047   3.996   7.336  0.4200  0.0504  1.4663
 4620SOL     OW25318   4.085   2.944   2.992 -0.2436 -0.2635 -0.1452
 4620SOL    HW125319   4.114   2.875   3.052  0.9300 -1.1617 -1.7557
 4620SOL    HW225320   4.122   2.918   2.907 -1.4514 -2.6577  0.0441
 4621SOL     OW25321   2.120   3.452  11.146 -0.3925 -0.0605  0.1947
 4621SOL    HW125322   2.055   3.452  11.076  0.4527 -0.4404 -0.5884
 4621SOL    HW225323   2.116   3.362  11.179 -1.0472  0.6353  1.9682
 4622SOL     OW25324   0.060   3.893   6.857 -0.4522 -0.1160 -0.3495
 4622SOL    HW125325   0.000   3.896   6.782 -1.1825 -0.7737  0.2132
 4622SOL    HW225326   0.120   3.820   6.839 -0.6542  0.2134 -2.4668
 4623SOL     OW25327   2.877   1.285   8.842 -0.0786 -0.8405  0.5180
 4623SOL    HW125328   2.876   1.204   8.892  2.1605 -0.2581  1.5189
 4623SOL    HW225329   2.970   1.305   8.847  0.2168 -1.8280 -1.0578
 4624SOL     OW25330   2.068   1.646  10.522  0.2380  0.4892 -0.3621
 4624SOL    HW125331   2.047   1.666  10.613 -0.5357  1.4494 -0.7506
 4624SOL    HW225332   2.035   1.556  10.520  0.2879  0.4046  3.2342
 4625SOL     OW25333   3.083   1.205   7.937  0.1785  0.0774 -0.4162
 4625SOL    HW125334   3.034   1.271   7.888 -1.4518 -1.3679 -0.7456
 4625SOL    HW225335   3.095   1.251   8.020  0.4423  0.8807 -0.9049
 4626SOL     OW25336   3.650   2.522  11.122  0.0518 -0.4005 -0.2707
 4626SOL    HW125337   3.575   2.471  11.091 -0.0504 -1.0882  1.0975
 4626SOL    HW225338   3.626   2.606  11.083 -1.4290 -0.6073  0.1831
 4627SOL     OW25339   3.065   3.275  12.818  0.0455  0.0067 -0.7410
 4627SOL    HW125340   3.047   3.199  12.762 -1.6798  1.4481 -2.1517
 4627SOL    HW225341   3.117   3.329  12.759 -2.0678  2.2371 -0.5618
 4628SOL     OW25342   0.817   2.171   7.506 -0.5366  0.1243  0.0378
 4628SOL    HW125343   0.866   2.098   7.545 -0.1382  0.5813  0.3858
 4628SOL    HW225344   0.726   2.141   7.502 -0.1725 -1.3225  2.0915
 4629SOL     OW25345   2.093   0.721   7.201  0.1010 -0.1271 -0.6448
 4629SOL    HW125346   2.061   0.749   7.287 -1.7982 -0.1566 -1.3341
 4629SOL    HW225347   2.160   0.787   7.184  1.1148 -0.9556  0.1457
 4630SOL     OW25348   2.441   4.607   5.751  0.0571 -0.6295 -0.0489
 4630SOL    HW125349   2.438   4.637   5.660  0.9643  0.9708  0.4494
 4630SOL    HW225350   2.366   4.648   5.794 -0.4239  1.0358 -2.4766
 4631SOL     OW25351   4.563   2.124   3.211  0.1481 -0.0084 -0.6221
 4631SOL    HW125352   4.589   2.032   3.202  1.4789  0.6498 -3.3305
 4631SOL    HW225353   4.578   2.152   3.121  0.9597 -2.3758 -1.2273
 4632SOL     OW25354   1.624   1.576   4.946 -0.2812 -0.2331  0.2464
 4632SOL    HW125355   1.693   1.589   5.010  0.7026 -3.3077 -0.1815
 4632SOL    HW225356   1.548   1.555   5.001  2.4484 -2.1438  3.2150
 4633SOL     OW25357   1.059   2.029   4.157 -0.1413 -0.9229 -0.3934
 4633SOL    HW125358   1.025   2.106   4.112 -0.6115 -1.5875 -1.1880
 4633SOL    HW225359   1.151   2.042   4.133 -0.1350  1.0147  0.6834
 4634SOL     OW25360   1.008   1.223   8.804  0.3304 -0.5309  0.6357
 4634SOL    HW125361   1.070   1.232   8.876  0.4749  1.2586  0.2746
 4634SOL    HW225362   1.006   1.127   8.800 -1.1918 -0.3914 -1.5804
 4635SOL     OW25363   0.517   4.297   6.059 -0.0124  0.4277 -0.3068
 4635SOL    HW125364   0.592   4.260   6.105 -0.4183  0.6737  0.5488
 4635SOL    HW225365   0.500   4.381   6.102  0.3864 -0.6298  1.9219
 4636SOL     OW25366   0.844   2.359  10.629  0.5857  0.6101  0.1875
 4636SOL    HW125367   0.922   2.412  10.648  1.7638 -1.4661  1.1265
 4636SOL    HW225368   0.843   2.313  10.713 -0.7627 -0.0949 -0.2182
 4637SOL     OW25369   3.468   4.225   9.548 -0.0772 -0.4239 -0.2341
 4637SOL    HW125370   3.463   4.289   9.478 -0.6953 -0.6034 -0.3509
 4637SOL    HW225371   3.488   4.284   9.621 -1.3123 -1.7752  1.2033
 4638SOL     OW25372   3.319   0.032   3.488  0.0402 -0.2583 -0.0487
 4638SOL    HW125373   3.364   4.715   3.410  0.4698 -0.2934  0.2130
 4638SOL    HW225374   3.360   4.696   3.557 -0.7569  0.5595  1.0559
 4639SOL     OW25375   4.471   0.222   3.880 -0.0172 -0.1899  0.1193
 4639SOL    HW125376   4.558   0.183   3.883 -0.1671 -0.5843 -0.6004
 4639SOL    HW225377   4.470   0.293   3.944  2.5254 -2.0408  2.1472
 4640SOL     OW25378   0.966   1.395   9.341 -0.1227  0.7146 -0.4112
 4640SOL    HW125379   1.028   1.437   9.401 -0.2757  1.0129 -0.4601
 4640SOL    HW225380   1.009   1.392   9.256 -1.6816 -1.4350 -1.1106
 4641SOL     OW25381   4.677   2.617   2.612 -0.0584 -0.4485 -0.4673
 4641SOL    HW125382   4.614   2.616   2.684 -0.4062 -2.2905 -0.8010
 4641SOL    HW225383   4.642   2.698   2.574  0.0693  0.2951  1.0005
 4642SOL     OW25384   1.872   4.534  10.216  0.2807 -0.8841 -0.0073
 4642SOL    HW125385   1.819   4.612  10.203  1.6911  0.5369  2.7076
 4642SOL    HW225386   1.931   4.554  10.289  1.4316  1.1030 -1.4927
 4643SOL     OW25387   1.183   3.526   8.149 -0.1018 -0.0253  0.1087
 4643SOL    HW125388   1.276   3.546   8.140 -0.2662  1.1163  0.9496
 4643SOL    HW225389   1.138   3.610   8.148  2.4679  1.3620  1.2265
 4644SOL     OW25390   3.768   2.800  14.802  0.1312  0.0993  0.6437
 4644SOL    HW125391   3.679   2.815  14.835  0.5392 -0.4133  2.0037
 4644SOL    HW225392   3.755   2.736  14.733 -0.7206  0.5926  0.3425
 4645SOL     OW25393   1.531   3.212   2.545  0.1261 -0.0397 -0.0082
 4645SOL    HW125394   1.564   3.266   2.616 -0.9835  2.9121 -1.7478
 4645SOL    HW225395   1.604   3.150   2.535  1.6227  1.8414 -0.5640
 4646SOL     OW25396   4.323   0.732   5.011  0.4021  0.1327 -0.0373
 4646SOL    HW125397   4.360   0.820   5.001  0.2690  0.1613 -0.2663
 4646SOL    HW225398   4.311   0.698   4.922 -4.1112 -2.5356  1.5908
 4647SOL     OW25399   3.609   1.915   5.368  0.2312 -0.0761 -0.3376
 4647SOL    HW125400   3.580   1.860   5.296  0.3206 -1.8662  1.0021
 4647SOL    HW225401   3.647   1.853   5.430  0.7084  0.9856  0.4361
 4648SOL     OW25402   2.234   4.219  14.670 -0.0300 -0.5826 -0.3787
 4648SOL    HW125403   2.303   4.279  14.700 -0.8399  0.6139 -0.9255
 4648SOL    HW225404   2.162   4.241  14.730  1.1554  0.0043  0.8432
 4649SOL     OW25405   2.942   2.582   2.645 -0.1882 -0.0236 -0.5164
 4649SOL    HW125406   2.932   2.535   2.561 -1.3462 -1.1419  0.2451
 4649SOL    HW225407   3.030   2.546   2.661  0.5083  2.8902  2.0787
 4650SOL     OW25408   0.111   1.587  13.112 -0.1455 -0.1241  0.6943
 4650SOL    HW125409   0.158   1.652  13.164  0.0959 -0.3472  0.7532
 4650SOL    HW225410   0.174   1.514  13.111 -0.7202 -0.5930 -1.2594
 4651SOL     OW25411   4.265   0.917   7.609 -0.0359  0.7203 -0.2743
 4651SOL    HW125412   4.213   0.869   7.545 -0.7496  3.5114 -1.7871
 4651SOL    HW225413   4.305   0.841   7.653 -0.9809 -1.1971 -2.7507
 4652SOL     OW25414   4.237   2.942   9.532 -0.2433 -0.1350 -0.3368
 4652SOL    HW125415   4.296   2.883   9.485 -0.1031 -0.2251 -0.0429
 4652SOL    HW225416   4.154   2.925   9.488 -0.0658  1.3943 -1.2737
 4653SOL     OW25417   0.515   3.529  17.416 -0.2202  0.5468  0.5332
 4653SOL    HW125418   0.465   3.467  17.363 -0.3011  1.4116 -0.3992
 4653SOL    HW225419   0.446   3.595  17.431 -1.9585 -0.6871 -2.1558
 4654SOL     OW25420   3.017   0.103   4.763  0.0774 -0.1259 -0.2501
 4654SOL    HW125421   3.098   0.093   4.812  0.5684  1.5150 -0.6939
 4654SOL    HW225422   2.959   0.056   4.822  0.4604 -0.9394 -0.5254
 4655SOL     OW25423   3.746   0.095   3.837  0.0576  0.0012  0.2946
 4655SOL    HW125424   3.651   0.099   3.824 -0.0203  0.1188  0.8895
 4655SOL    HW225425   3.750   0.062   3.926 -2.7514  0.6791  0.6857
 4656SOL     OW25426   0.038   1.772  17.072  0.0768  0.2966  0.0955
 4656SOL    HW125427   0.041   1.732  16.985 -2.4628 -0.5880  0.3949
 4656SOL    HW225428   0.091   1.849  17.054 -0.6912  0.1734 -2.6216
 4657SOL     OW25429   0.520   1.028   3.013 -0.2184 -0.5565  0.0627
 4657SOL    HW125430   0.461   1.046   2.939  0.1992 -0.4023 -0.2358
 4657SOL    HW225431   0.608   1.015   2.978 -0.3208  2.3426 -1.3306
 4658SOL     OW25432   1.700   0.309  14.995 -0.1926  0.5077 -0.4678
 4658SOL    HW125433   1.664   0.233  15.043 -0.0558  0.3575 -0.6058
 4658SOL    HW225434   1.657   0.377  15.047  0.3966 -0.7260  1.6581
 4659SOL     OW25435   3.147   1.857  15.538  0.3715  0.3024  0.2929
 4659SOL    HW125436   3.206   1.932  15.537  2.2218 -1.1275  1.2884
 4659SOL    HW225437   3.091   1.872  15.614  3.9663 -1.2587  3.2918
 4660SOL     OW25438   2.932   4.641   8.280 -0.2574 -0.5260 -0.4622
 4660SOL    HW125439   2.941   4.576   8.210 -1.8217  0.4394 -1.5619
 4660SOL    HW225440   3.026   4.657   8.290  0.0695 -3.6383  1.1417
 4661SOL     OW25441   4.178   1.614   5.880  0.7473 -0.3644  0.3991
 4661SOL    HW125442   4.228   1.653   5.808  0.1414  0.1295  0.2396
 4661SOL    HW225443   4.224   1.647   5.957  2.1932  1.3659 -1.1991
 4662SOL     OW25444   0.806   1.384   3.785 -0.3692 -0.3281 -0.4420
 4662SOL    HW125445   0.898   1.406   3.802 -0.5525  0.1731 -0.1141
 4662SOL    HW225446   0.769   1.436   3.856 -0.0043  1.2717 -1.4231
 4663SOL     OW25447   3.177   2.340  11.197 -0.0884  0.5769  0.1516
 4663SOL    HW125448   3.270   2.325  11.180  0.4423  2.0343  1.8126
 4663SOL    HW225449   3.141   2.270  11.141  1.1802 -1.0740  1.3989
 4664SOL     OW25450   0.372   2.719   4.732  0.5626 -0.4287 -0.1397
 4664SOL    HW125451   0.428   2.750   4.661  1.0414 -0.5243  0.1914
 4664SOL    HW225452   0.303   2.674   4.684 -0.6918  0.6960  0.5971
 4665SOL     OW25453   0.548   4.583  12.121  0.1239 -0.0397  0.0280
 4665SOL    HW125454   0.485   4.533  12.173 -0.2403 -1.1223 -1.4743
 4665SOL    HW225455   0.494   4.658  12.096 -1.3822 -0.8046  1.0033
 4666SOL     OW25456   2.634   2.054   9.554 -0.0877  0.5682 -0.5774
 4666SOL    HW125457   2.544   2.083   9.538  0.0327 -0.1829 -2.5943
 4666SOL    HW225458   2.636   2.040   9.649 -0.7616 -0.7501 -0.7618
 4667SOL     OW25459   4.265   1.841  13.956  0.0326  0.9515  0.1444
 4667SOL    HW125460   4.308   1.811  13.876 -2.6032  2.3680 -1.7797
 4667SOL    HW225461   4.333   1.905  13.976 -1.1196  1.5961  2.0260
 4668SOL     OW25462   0.562   2.247   1.778  0.0372 -0.7169  0.4490
 4668SOL    HW125463   0.547   2.341   1.789  0.7407 -0.8510  2.5223
 4668SOL    HW225464   0.485   2.214   1.732  0.2168 -1.4743  0.6906
 4669SOL     OW25465   3.801   0.116   6.160  0.1303  0.4046  0.1095
 4669SOL    HW125466   3.740   0.175   6.115 -1.0013 -1.8057 -1.2370
 4669SOL    HW225467   3.881   0.145   6.115 -1.3308  0.2001 -2.6472
 4670SOL     OW25468   2.845   4.686   0.339  0.2860 -0.5180  0.5816
 4670SOL    HW125469   2.753   4.699   0.316  1.0789  0.2181 -2.2826
 4670SOL    HW225470   2.848   4.604   0.388  1.0430 -0.9904 -0.2549
 4671SOL     OW25471   1.462   4.277   4.743 -0.7290  0.0075 -0.2195
 4671SOL    HW125472   1.490   4.196   4.785  0.3091 -1.2100 -3.2789
 4671SOL    HW225473   1.551   4.303   4.719 -0.8847 -0.3926 -1.2174
 4672SOL     OW25474   4.346   4.443   7.044 -0.2371  0.5637 -0.4415
 4672SOL    HW125475   4.289   4.504   7.089 -0.3102  0.5917 -0.5728
 4672SOL    HW225476   4.391   4.408   7.121 -0.1818  0.2157 -0.6328
 4673SOL     OW25477   3.352   4.590   6.150  0.0796 -0.4085  0.3357
 4673SOL    HW125478   3.380   4.502   6.126  1.6402  0.3566 -0.6528
 4673SOL    HW225479   3.415   4.611   6.220  3.8488  1.1088 -3.5009
 4674SOL     OW25480   0.303   3.657  10.722  0.3447 -0.3868  0.0989
 4674SOL    HW125481   0.260   3.665  10.806  3.6350 -0.4833  1.7912
 4674SOL    HW225482   0.239   3.599  10.681  0.7128 -0.7037 -0.0312
 4675SOL     OW25483   2.594   0.949   2.068  0.1712  0.2946  0.3722
 4675SOL    HW125484   2.639   0.871   2.100  0.4037 -1.1211 -3.3230
 4675SOL    HW225485   2.517   0.917   2.021 -0.1198 -0.4686  1.3667
 4676SOL     OW25486   1.269   0.882   4.996  0.3002  0.0861  0.0139
 4676SOL    HW125487   1.308   0.851   4.915  0.4787 -2.4511  1.0707
 4676SOL    HW225488   1.280   0.805   5.052  2.9445  0.7598  0.4279
 4677SOL     OW25489   2.851   3.126   3.704 -0.6960  0.4551 -0.2608
 4677SOL    HW125490   2.937   3.167   3.692 -1.0773  1.4495  0.4469
 4677SOL    HW225491   2.826   3.139   3.796 -2.7334 -3.6195 -0.1993
 4678SOL     OW25492   3.272   3.641   5.349  0.0927 -0.0832 -0.2193
 4678SOL    HW125493   3.275   3.736   5.351  0.6311 -0.1259  1.1347
 4678SOL    HW225494   3.313   3.626   5.264 -0.3893  1.0284 -0.6415
 4679SOL     OW25495   0.464   4.368   6.859  0.1579  0.7889 -0.0723
 4679SOL    HW125496   0.461   4.399   6.768 -0.5565 -0.0014 -0.3165
 4679SOL    HW225497   0.459   4.272   6.852 -1.5685  0.6955  2.7913
 4680SOL     OW25498   2.034   2.655   9.022  0.3111 -0.7196  0.2263
 4680SOL    HW125499   2.081   2.738   9.007  0.0974 -0.5765  0.3491
 4680SOL    HW225500   2.104   2.603   9.060  0.6866  0.4322  1.1290
 4681SOL     OW25501   4.129   0.866   1.343  0.1452 -0.2489  0.2894
 4681SOL    HW125502   4.168   0.788   1.304  1.7986 -1.0056  3.5192
 4681SOL    HW225503   4.149   0.934   1.279 -1.9980  0.7760  0.6911
 4682SOL     OW25504   3.591   3.069   7.997  0.0470 -0.0267  0.4535
 4682SOL    HW125505   3.598   3.021   7.914  1.6433 -0.6199  0.9227
 4682SOL    HW225506   3.682   3.090   8.017 -0.0307  0.1027  0.6673
 4683SOL     OW25507   0.124   0.535  14.128 -0.0617 -0.7624 -0.3766
 4683SOL    HW125508   0.191   0.467  14.130  0.6158 -0.1280 -1.8230
 4683SOL    HW225509   0.072   0.507  14.053  1.8416  0.8661 -2.2982
 4684SOL     OW25510   3.911   3.562   4.629 -0.2922  0.2761 -0.2626
 4684SOL    HW125511   3.995   3.518   4.641 -0.9873 -0.6320  1.3580
 4684SOL    HW225512   3.918   3.621   4.704  0.6236  1.7343 -1.5015
 4685SOL     OW25513   3.373   2.538  10.345  0.9188  0.2626  0.0361
 4685SOL    HW125514   3.447   2.529  10.285  2.4852  0.5914  1.9347
 4685SOL    HW225515   3.379   2.633  10.358  3.6564 -0.2331  2.2215
 4686SOL     OW25516   3.729   0.992   4.301  0.0339  0.1166 -0.0057
 4686SOL    HW125517   3.824   1.001   4.300  0.1788 -1.5279 -0.1059
 4686SOL    HW225518   3.723   0.917   4.359  0.3598 -0.4169 -0.6628
 4687SOL     OW25519   4.305   3.507   9.149 -0.5703  0.2244 -0.2960
 4687SOL    HW125520   4.395   3.512   9.117 -0.3526 -0.4268  0.1999
 4687SOL    HW225521   4.291   3.431   9.206  1.3485 -1.5766 -2.2131
 4688SOL     OW25522   2.148   1.864   8.561 -0.5690 -0.3447  0.5437
 4688SOL    HW125523   2.126   1.773   8.582  1.2818 -1.1241 -0.9031
 4688SOL    HW225524   2.204   1.885   8.635  1.2208  0.6069 -1.0832
 4689SOL     OW25525   3.047   3.160   2.192  0.8218  0.0168 -0.0871
 4689SOL    HW125526   3.009   3.248   2.193  0.6053 -0.1051  3.4623
 4689SOL    HW225527   3.050   3.144   2.287 -1.0218 -2.3579 -0.4282
 4690SOL     OW25528   4.680   3.858   8.152 -0.2509  0.0053  0.1090
 4690SOL    HW125529   0.020   3.786   8.179 -2.1220 -1.0930  1.1644
 4690SOL    HW225530   4.677   3.849   8.057  1.0461  2.1586 -0.1182
 4691SOL     OW25531   4.311   0.710   7.766 -0.6875  0.8529  0.3491
 4691SOL    HW125532   4.387   0.720   7.823 -0.1189 -1.7488  0.0425
 4691SOL    HW225533   4.288   0.617   7.777 -0.0874  0.7460  0.6851
 4692SOL     OW25534   2.957   2.547   4.106  0.2505 -0.6181 -0.3396
 4692SOL    HW125535   2.910   2.504   4.178 -1.0986 -0.0059 -0.8729
 4692SOL    HW225536   3.041   2.569   4.147 -1.4484  0.0603  2.8222
 4693SOL     OW25537   1.329   0.465  12.665 -0.1172 -0.1726 -0.3472
 4693SOL    HW125538   1.272   0.412  12.609  1.4455 -2.3942  0.2003
 4693SOL    HW225539   1.409   0.414  12.660  0.5782  0.8653  0.1598
 4694SOL     OW25540   4.307   4.073  10.971 -0.3064  0.7263 -0.2325
 4694SOL    HW125541   4.314   4.082  10.876  1.0120 -0.3239 -0.2298
 4694SOL    HW225542   4.244   4.001  10.972 -0.0519  0.4606 -2.2244
 4695SOL     OW25543   0.445   0.054   4.465  0.1038  0.0590 -0.2736
 4695SOL    HW125544   0.418   4.717   4.539  0.3669  0.1729 -0.0959
 4695SOL    HW225545   0.367   0.110   4.464 -0.8824 -1.3275 -1.1318
 4696SOL     OW25546   4.549   4.353   0.415 -0.5731  0.2294  0.5990
 4696SOL    HW125547   4.628   4.304   0.438 -0.7169  0.6123  1.8981
 4696SOL    HW225548   4.501   4.369   0.496 -1.7912  0.2039 -0.1119
 4697SOL     OW25549   1.424   0.014   7.543  0.8280 -0.1146  0.1460
 4697SOL    HW125550   1.412   0.087   7.482 -1.1101  0.2527  0.9795
 4697SOL    HW225551   1.491   0.049   7.602  2.2733  1.1053 -2.1798
 4698SOL     OW25552   3.965   3.336   4.344  0.0816 -0.5561 -0.1550
 4698SOL    HW125553   4.005   3.314   4.428  0.4603 -0.8963 -0.4248
 4698SOL    HW225554   3.916   3.415   4.367  0.7646  0.3151 -1.6605
 4699SOL     OW25555   2.541   1.517  14.233  0.4933 -0.1855 -0.1872
 4699SOL    HW125556   2.493   1.453  14.285  1.2918  0.7732  1.7438
 4699SOL    HW225557   2.495   1.595  14.265  2.3608 -0.4439  3.2105
 4700SOL     OW25558   2.820   2.180   3.168 -0.5529  0.4368  0.1052
 4700SOL    HW125559   2.826   2.098   3.119 -1.7009  1.0862 -1.1327
 4700SOL    HW225560   2.727   2.195   3.186 -1.4325 -3.2926 -1.3724
 4701SOL     OW25561   4.089   2.620   8.583  0.3306 -0.1095  0.3029
 4701SOL    HW125562   4.074   2.712   8.606 -0.6905 -0.6754  1.9406
 4701SOL    HW225563   4.171   2.606   8.630  0.1578  0.8002  0.8815
 4702SOL     OW25564   0.628   1.677   2.826 -0.3276 -0.0978 -0.2738
 4702SOL    HW125565   0.644   1.677   2.921 -0.8721  0.4680 -0.1851
 4702SOL    HW225566   0.710   1.716   2.797 -0.7872  0.6063 -0.6060
 4703SOL     OW25567   3.111   3.983   6.167  0.1181 -0.4394  0.0471
 4703SOL    HW125568   3.058   4.052   6.127 -3.7210 -1.6080  3.1419
 4703SOL    HW225569   3.061   3.972   6.248  0.7065 -2.5073  0.1177
 4704SOL     OW25570   2.169   4.546   7.195 -0.2365 -0.0601 -0.5995
 4704SOL    HW125571   2.190   4.469   7.142  1.1578  2.6066 -3.8845
 4704SOL    HW225572   2.125   4.599   7.128 -1.6138  0.8721  1.0498
 4705SOL     OW25573   2.709   1.372  14.663  0.0140  0.0923 -0.2377
 4705SOL    HW125574   2.716   1.292  14.715 -0.4872 -0.1308 -0.5073
 4705SOL    HW225575   2.800   1.390  14.640  0.5719 -2.4012 -0.0259
 4706SOL     OW25576   4.671   2.182   5.300 -0.4119  0.4735  0.2102
 4706SOL    HW125577   4.651   2.182   5.393  0.9406 -3.8575  0.5223
 4706SOL    HW225578   4.711   2.269   5.300  0.7447 -0.0482  1.7288
 4707SOL     OW25579   4.179   1.839  16.488 -0.4320 -0.5835  0.0345
 4707SOL    HW125580   4.252   1.858  16.429 -0.2757 -0.9367  0.1110
 4707SOL    HW225581   4.185   1.892  16.568  0.8784 -1.0099  0.2311
 4708SOL     OW25582   4.260   1.412   3.909  0.5314 -0.2758  0.3597
 4708SOL    HW125583   4.189   1.439   3.967  0.6621  2.6226 -0.8031
 4708SOL    HW225584   4.226   1.326   3.888  0.6797 -0.4498  0.8240
 4709SOL     OW25585   4.459   4.493   2.916  0.6068  0.0175 -0.0328
 4709SOL    HW125586   4.543   4.456   2.943  1.0048  0.4019 -0.7320
 4709SOL    HW225587   4.458   4.579   2.956 -0.4533  0.4935 -1.0776
 4710SOL     OW25588   0.540   3.502  10.824 -0.1720  0.0963  0.3967
 4710SOL    HW125589   0.543   3.501  10.920  1.6156 -0.9944  0.3441
 4710SOL    HW225590   0.454   3.534  10.798  0.4826  2.4487  1.1080
 4711SOL     OW25591   0.444   1.431  13.428 -0.5624  0.3495 -0.1313
 4711SOL    HW125592   0.519   1.469  13.383  0.7469 -1.2370  0.7337
 4711SOL    HW225593   0.406   1.506  13.474 -1.4399 -1.5194  2.1434
 4712SOL     OW25594   0.115   3.852   2.776  0.0872  0.7115  0.5094
 4712SOL    HW125595   0.143   3.761   2.769 -1.8524  0.0419  1.3929
 4712SOL    HW225596   0.026   3.840   2.810  0.0602  1.2905  0.6406
 4713SOL     OW25597   4.449   2.223   1.767 -0.5163  0.1878 -0.1180
 4713SOL    HW125598   4.505   2.234   1.844 -0.6802  2.3937 -0.3198
 4713SOL    HW225599   4.513   2.211   1.697 -0.3812  2.2368 -0.3615
 4714SOL     OW25600   4.475   1.179   8.229  0.4159 -0.2023 -0.3173
 4714SOL    HW125601   4.441   1.224   8.152  2.2380  1.8117  0.0660
 4714SOL    HW225602   4.420   1.217   8.297  0.3918  0.8320 -0.9221
 4715SOL     OW25603   3.599   0.088   5.475  0.6521 -0.2722  0.1439
 4715SOL    HW125604   3.507   0.074   5.455  0.9497 -2.6909  0.4416
 4715SOL    HW225605   3.593   0.142   5.553  0.2084 -1.7233  1.1122
 4716SOL     OW25606   3.644   0.824   0.290 -0.4738  0.2340  0.1860
 4716SOL    HW125607   3.628   0.814   0.384  1.3350 -0.7666  0.3872
 4716SOL    HW225608   3.605   0.744   0.254 -0.1791  0.2070 -0.0658
 4717SOL     OW25609   0.637   1.710   2.384 -0.6424  0.4496 -0.2249
 4717SOL    HW125610   0.578   1.737   2.314 -2.4157 -1.5248  0.4962
 4717SOL    HW225611   0.657   1.621   2.357 -0.6833  0.4790 -0.3500
 4718SOL     OW25612   1.578   0.996   8.442  0.2100  0.0996 -0.3442
 4718SOL    HW125613   1.522   1.058   8.395 -0.0026  0.9165  0.9669
 4718SOL    HW225614   1.518   0.983   8.516 -0.3216 -1.4474 -1.0513
 4719SOL     OW25615   3.073   2.192  10.645  0.0787 -0.4727 -0.1443
 4719SOL    HW125616   3.060   2.124  10.579 -1.4344  0.2579 -0.6135
 4719SOL    HW225617   3.016   2.169  10.719 -0.2201 -2.3580 -0.9623
 4720SOL     OW25618   2.577   0.276  14.233 -0.1126 -0.0649 -0.2164
 4720SOL    HW125619   2.524   0.242  14.304  0.1790  1.1377  0.5719
 4720SOL    HW225620   2.644   0.324  14.282  0.0277  0.1109 -0.5777
 4721SOL     OW25621   2.709   0.495   0.523  0.4352 -0.4989 -0.7896
 4721SOL    HW125622   2.644   0.437   0.563  0.4863 -0.3020 -0.4199
 4721SOL    HW225623   2.761   0.430   0.475  0.9360 -0.9494  0.3481
 4722SOL     OW25624   0.835   0.879   0.265 -0.0113  0.6505 -0.0035
 4722SOL    HW125625   0.793   0.917   0.343  1.5530 -1.7267  2.0051
 4722SOL    HW225626   0.767   0.912   0.206 -1.0231 -1.3904  0.0504
 4723SOL     OW25627   0.935   0.250  10.377 -0.1085 -0.1995 -0.4978
 4723SOL    HW125628   0.932   0.341  10.407  1.8646 -0.4250  0.3733
 4723SOL    HW225629   0.866   0.198  10.417  1.2816 -2.0493 -0.5103
 4724SOL     OW25630   4.477   0.550   6.373  0.1294  0.3961 -0.1321
 4724SOL    HW125631   4.559   0.546   6.323 -0.6882  0.9348 -1.5042
 4724SOL    HW225632   4.486   0.644   6.389 -4.0259  0.8303 -0.3720
 4725SOL     OW25633   3.727   0.368  16.985 -0.4238 -0.0086 -0.2492
 4725SOL    HW125634   3.775   0.450  16.970 -0.2664  0.0620  0.5908
 4725SOL    HW225635   3.785   0.332  17.053  0.2520 -1.5767 -1.6506
 4726SOL     OW25636   1.658   0.048   9.044 -0.4198 -0.1533 -0.1172
 4726SOL    HW125637   1.707   4.693   9.005  0.3743  1.0673 -1.3917
 4726SOL    HW225638   1.687   0.044   9.135  1.4630  0.1226 -0.7111
 4727SOL     OW25639   2.982   1.443   6.851  0.3171  0.3485 -0.1702
 4727SOL    HW125640   2.930   1.410   6.924  2.1465 -0.5956  0.6796
 4727SOL    HW225641   3.054   1.481   6.901  0.3603  1.5594 -1.1391
 4728SOL     OW25642   0.053   2.956   5.240  1.0354 -0.0044  0.3156
 4728SOL    HW125643   4.678   2.977   5.255  0.7713 -0.8655 -0.1133
 4728SOL    HW225644   0.084   3.020   5.175  0.8938  0.1836  0.4322
 4729SOL     OW25645   0.279   1.977   7.592  0.5203 -0.2764  0.0090
 4729SOL    HW125646   0.193   1.941   7.612 -0.4437  1.9246 -0.2136
 4729SOL    HW225647   0.309   1.927   7.516 -4.2651 -0.2907 -1.8275
 4730SOL     OW25648   3.009   1.607   7.979 -0.2240  0.2290  0.6458
 4730SOL    HW125649   2.940   1.665   8.012  0.3294  0.7095  0.9829
 4730SOL    HW225650   3.073   1.677   7.964  1.4426 -0.7611  3.1512
 4731SOL     OW25651   2.550   4.593  11.628 -0.3912 -0.2297  0.5660
 4731SOL    HW125652   2.481   4.612  11.692 -2.1014  1.5869 -1.8567
 4731SOL    HW225653   2.623   4.647  11.658  0.9735 -0.3771 -2.5386
 4732SOL     OW25654   3.299   0.944   5.054  0.0970  0.0266  0.3676
 4732SOL    HW125655   3.243   0.911   4.983  2.7195  1.0100 -2.1654
 4732SOL    HW225656   3.265   0.899   5.131  0.5381  1.2455  1.2803
 4733SOL     OW25657   3.406   3.510   8.315 -0.0864  0.2922  0.3415
 4733SOL    HW125658   3.483   3.479   8.267  0.4982 -0.5627  1.8302
 4733SOL    HW225659   3.454   3.553   8.386  0.2792  0.8680 -0.2554
 4734SOL     OW25660   1.595   2.737   2.047  0.1750  0.1920 -0.0240
 4734SOL    HW125661   1.617   2.646   2.028 -0.5044 -0.1857  0.9972
 4734SOL    HW225662   1.542   2.726   2.126 -0.2360  1.8858 -0.0490
 4735SOL     OW25663   4.468   3.137   7.071  0.4125  0.2101  0.4547
 4735SOL    HW125664   4.481   3.203   7.002  0.0153  0.2268  0.4009
 4735SOL    HW225665   4.555   3.097   7.071  1.1694  1.7810 -2.6204
 4736SOL     OW25666   3.332   1.707  15.392 -0.3366 -0.1295 -0.1647
 4736SOL    HW125667   3.262   1.699  15.327 -0.2748 -0.9368 -0.1353
 4736SOL    HW225668   3.284   1.742  15.468 -1.6375 -0.1830 -0.9631
 4737SOL     OW25669   2.160   2.631   3.585 -0.5223  0.0658 -0.6859
 4737SOL    HW125670   2.239   2.660   3.631 -0.1936 -0.2087 -1.0797
 4737SOL    HW225671   2.195   2.646   3.497 -0.0871  1.8932 -0.1998
 4738SOL     OW25672   1.229   3.297  14.302 -0.6158 -0.0427  0.3564
 4738SOL    HW125673   1.207   3.347  14.224  0.2272 -1.2754 -0.6579
 4738SOL    HW225674   1.149   3.247  14.321 -1.0941  0.7618  0.4431
 4739SOL     OW25675   0.941   2.123  17.417 -0.0475  0.3677 -0.0030
 4739SOL    HW125676   0.891   2.155  17.493 -2.0739 -2.9102  0.0704
 4739SOL    HW225677   0.868   2.113  17.355  1.1630  2.5213 -1.7644
 4740SOL     OW25678   2.211   1.809  16.212  0.1263 -0.3696  0.0365
 4740SOL    HW125679   2.227   1.787  16.120  2.9394 -0.4777  0.5440
 4740SOL    HW225680   2.196   1.720  16.246 -0.5819 -0.2590  0.0126
 4741SOL     OW25681   2.716   0.855  16.878  0.0112 -0.0188 -0.0132
 4741SOL    HW125682   2.671   0.781  16.919 -0.2736  0.7906  1.1442
 4741SOL    HW225683   2.690   0.846  16.786  1.7740 -1.8992 -0.3227
 4742SOL     OW25684   3.225   1.269   1.587 -0.6346 -0.1688  0.2745
 4742SOL    HW125685   3.186   1.350   1.620 -2.5542  0.3140 -3.1904
 4742SOL    HW225686   3.173   1.261   1.507 -1.4655 -1.8443  0.9800
 4743SOL     OW25687   3.660   1.710   1.216  0.1667  0.8292 -0.1531
 4743SOL    HW125688   3.683   1.695   1.124  0.9514  0.6491  0.0686
 4743SOL    HW225689   3.698   1.634   1.261 -1.9903 -0.4098 -0.4547
 4744SOL     OW25690   3.925   1.134  16.495 -0.1912  0.1819 -0.0628
 4744SOL    HW125691   3.999   1.181  16.533  0.7766 -1.6120  0.2755
 4744SOL    HW225692   3.945   1.149  16.402  0.7016 -0.4059  0.0350
 4745SOL     OW25693   2.088   0.601   0.481  0.0081  0.4454  0.8096
 4745SOL    HW125694   2.066   0.676   0.426  0.9807 -1.0273 -1.6186
 4745SOL    HW225695   2.006   0.552   0.478  0.9002 -0.8957 -2.0516
 4746SOL     OW25696   0.082   1.076   7.551  0.4348 -0.2850 -0.3045
 4746SOL    HW125697   0.164   1.121   7.574  0.0307  1.0037 -1.4099
 4746SOL    HW225698   0.088   1.081   7.455  0.1785 -1.5001 -0.3831
 4747SOL     OW25699   4.446   4.103   7.358 -0.0680  0.6578 -0.6021
 4747SOL    HW125700   4.531   4.097   7.402 -1.3416 -1.6116  1.5444
 4747SOL    HW225701   4.453   4.060   7.273  0.0426 -2.1005  0.7854
 4748SOL     OW25702   1.437   3.620   8.234  0.4444 -0.0577 -0.0756
 4748SOL    HW125703   1.442   3.687   8.303  0.5515  0.0199 -0.1577
 4748SOL    HW225704   1.501   3.551   8.252  0.2305  0.4577  2.7955
 4749SOL     OW25705   1.424   2.196   1.505  0.1838  0.1331 -0.1249
 4749SOL    HW125706   1.425   2.143   1.425 -0.4996  1.0699 -0.7492
 4749SOL    HW225707   1.331   2.218   1.511  0.6320  1.4766  1.7404
 4750SOL     OW25708   1.967   1.928   8.012 -0.0667 -0.0100  0.2755
 4750SOL    HW125709   1.956   2.018   8.042  1.4525  0.2103  0.1563
 4750SOL    HW225710   2.043   1.947   7.958  1.9486  1.4903  3.6172
 4751SOL     OW25711   3.030   0.397   3.792  0.2611 -0.0329 -0.0871
 4751SOL    HW125712   2.941   0.382   3.825  1.0116  0.2157  2.0179
 4751SOL    HW225713   3.071   0.445   3.864  0.0887 -1.5236  1.0144
 4752SOL     OW25714   4.107   1.156   2.087  0.0353  0.0010 -0.2215
 4752SOL    HW125715   4.049   1.225   2.054  1.0305 -0.4575 -2.9141
 4752SOL    HW225716   4.051   1.081   2.068 -0.5018  0.4135 -0.2674
 4753SOL     OW25717   2.313   0.100  10.908 -0.1036 -0.3536 -0.3116
 4753SOL    HW125718   2.344   0.039  10.975 -0.0969 -0.5233 -0.4701
 4753SOL    HW225719   2.339   0.179  10.955 -0.1359 -0.4012 -0.2116
 4754SOL     OW25720   1.072   1.551   2.261  0.0076  0.1669 -0.1202
 4754SOL    HW125721   0.999   1.503   2.222  0.0987  0.8209 -1.0992
 4754SOL    HW225722   1.148   1.499   2.236  1.0734  0.7229  1.9118
 4755SOL     OW25723   0.344   1.800   5.992  0.2342  0.4447 -0.4354
 4755SOL    HW125724   0.386   1.802   5.907  0.4268 -1.0563 -0.3778
 4755SOL    HW225725   0.423   1.794   6.046  0.1496  0.1139 -0.3475
 4756SOL     OW25726   2.813   1.953   5.376 -0.2342 -0.1412  0.2028
 4756SOL    HW125727   2.827   1.936   5.469  1.1026 -0.9107 -0.1327
 4756SOL    HW225728   2.815   1.865   5.340  0.5625 -0.4182  0.9338
 4757SOL     OW25729   0.227   3.447  16.007  0.2006  0.0778 -0.3340
 4757SOL    HW125730   0.215   3.504  16.082  0.7086  1.7260 -1.5012
 4757SOL    HW225731   0.313   3.460  15.967  0.4755  0.0843  0.2670
 4758SOL     OW25732   3.833   3.234  15.417  0.3300 -0.0144  0.0876
 4758SOL    HW125733   3.742   3.248  15.442  0.2546  0.8969 -0.6840
 4758SOL    HW225734   3.871   3.204  15.500  0.9908  1.8400  0.4648
 4759SOL     OW25735   1.195   4.351  10.780  0.4124 -0.2086  0.3417
 4759SOL    HW125736   1.187   4.291  10.706 -1.8294  1.6096 -0.8973
 4759SOL    HW225737   1.287   4.376  10.785  0.1756  0.5840  0.6039
 4760SOL     OW25738   2.236   2.516   1.905 -0.1273 -0.3719  0.7148
 4760SOL    HW125739   2.319   2.563   1.896  1.4723 -3.1701  0.5865
 4760SOL    HW225740   2.244   2.460   1.828  1.9192  2.8612 -1.4114
 4761SOL     OW25741   1.891   3.323   1.080  0.1627 -0.1216 -0.3881
 4761SOL    HW125742   1.827   3.382   1.041  1.4296  1.6113  0.1439
 4761SOL    HW225743   1.960   3.382   1.111  0.5295  1.0330 -3.4299
 4762SOL     OW25744   1.360   3.171   8.042  0.9691  0.1460 -0.2591
 4762SOL    HW125745   1.368   3.147   8.134 -1.2938 -0.6329 -0.2543
 4762SOL    HW225746   1.453   3.167   8.020  0.7603  0.8850 -1.2936
 4763SOL     OW25747   1.067   0.579   5.530 -0.8403 -0.1043  0.5129
 4763SOL    HW125748   1.158   0.607   5.544 -0.4321 -1.3130  0.2184
 4763SOL    HW225749   1.080   0.523   5.454  2.7002  0.0883  0.9825
 4764SOL     OW25750   1.382   4.060   5.911 -0.0254  0.7877  0.6484
 4764SOL    HW125751   1.419   3.979   5.946  1.9334  1.6312  0.5273
 4764SOL    HW225752   1.453   4.124   5.916 -1.5832  2.6410 -0.7745
 4765SOL     OW25753   3.634   1.124   9.318 -0.3684  0.1201 -0.0593
 4765SOL    HW125754   3.583   1.095   9.242 -1.3694  0.7921  0.3574
 4765SOL    HW225755   3.721   1.124   9.277  0.2371 -0.6653  1.2578
 4766SOL     OW25756   2.757   4.081  13.149  0.0103 -0.4401  0.1304
 4766SOL    HW125757   2.667   4.048  13.149 -0.3427  0.5391  0.9895
 4766SOL    HW225758   2.746   4.171  13.118  0.5366 -1.1519 -2.1233
 4767SOL     OW25759   0.961   1.547  12.983  0.4366  0.0515 -0.2539
 4767SOL    HW125760   1.000   1.504  12.907  2.7086  0.3800  0.7098
 4767SOL    HW225761   0.935   1.635  12.953 -0.5300 -0.3627 -0.6089
 4768SOL     OW25762   4.565   2.332   4.145  0.0423 -0.3255 -0.3666
 4768SOL    HW125763   4.602   2.419   4.133  0.2420 -0.3047  0.4161
 4768SOL    HW225764   4.534   2.300   4.060  1.5647 -2.7575 -0.0088
 4769SOL     OW25765   4.540   1.682   0.848  0.1367 -0.1055  0.3973
 4769SOL    HW125766   4.552   1.603   0.901 -1.6445 -0.1125  0.7921
 4769SOL    HW225767   4.557   1.645   0.762  0.6225 -3.3732  1.9060
 4770SOL     OW25768   3.550   3.824   6.600  0.3804 -0.0232 -0.0317
 4770SOL    HW125769   3.500   3.760   6.549  0.0957  0.6300 -0.5633
 4770SOL    HW225770   3.526   3.906   6.557 -1.7587 -0.1147  0.9869
 4771SOL     OW25771   0.092   3.092   2.762 -0.6521 -0.2057  0.1601
 4771SOL    HW125772   0.081   3.160   2.695 -1.3699  2.8955  3.4446
 4771SOL    HW225773   0.009   3.045   2.762 -0.7726  0.0076  0.9362
 4772SOL     OW25774   3.690   0.190   7.662  0.4640  0.2396 -0.0240
 4772SOL    HW125775   3.617   0.147   7.619  0.5674  0.3278 -0.2867
 4772SOL    HW225776   3.658   0.205   7.751  1.7601  1.3618  0.2613
 4773SOL     OW25777   4.058   1.104   7.015  0.3905  0.1206  0.0049
 4773SOL    HW125778   4.143   1.093   6.972 -0.2118  1.4029 -1.4851
 4773SOL    HW225779   4.010   1.032   6.975  0.5121 -0.3187  0.6495
 4774SOL     OW25780   1.465   1.961   2.321 -0.2327 -0.1611  0.0550
 4774SOL    HW125781   1.458   1.898   2.249  0.4332 -0.3240  0.1337
 4774SOL    HW225782   1.482   1.900   2.392  2.3159 -0.2604 -0.6387
 4775SOL     OW25783   3.402   1.038   8.588  0.1198  0.1798 -0.3536
 4775SOL    HW125784   3.375   1.111   8.643  0.5461  0.6964 -0.8251
 4775SOL    HW225785   3.498   1.048   8.590  0.0466  1.2626 -2.5126
 4776SOL     OW25786   0.596   3.860  10.866 -0.2937 -0.7871  0.5021
 4776SOL    HW125787   0.551   3.942  10.884  3.0141  1.2109 -0.3784
 4776SOL    HW225788   0.659   3.866  10.937  1.7189  0.7887 -1.4088
 4777SOL     OW25789   3.726   3.501   5.103 -0.2248  0.9667  0.2937
 4777SOL    HW125790   3.685   3.553   5.033 -1.0279  1.0450  0.8142
 4777SOL    HW225791   3.684   3.542   5.179  0.9243  1.1211  0.8424
 4778SOL     OW25792   1.772   2.597   6.194  0.5379 -0.2909  0.6215
 4778SOL    HW125793   1.834   2.603   6.121 -1.0720  0.2068 -0.7010
 4778SOL    HW225794   1.690   2.580   6.148  0.4308  0.8087  0.4069
 4779SOL     OW25795   4.070   0.824  15.391 -0.2453 -0.2845  0.1768
 4779SOL    HW125796   4.138   0.890  15.405 -1.3250  0.7372  0.6198
 4779SOL    HW225797   3.995   0.883  15.403 -1.0472 -1.1174 -0.7193
 4780SOL     OW25798   2.828   2.476   4.704  0.5285 -0.3229  0.3654
 4780SOL    HW125799   2.903   2.474   4.765 -1.1028  1.2007  2.4304
 4780SOL    HW225800   2.839   2.399   4.650 -0.4145  0.1412 -0.4830
 4781SOL     OW25801   0.197   3.573   6.806  0.7103 -0.3739 -0.4342
 4781SOL    HW125802   0.124   3.565   6.745  0.4697  0.4551 -0.2553
 4781SOL    HW225803   0.261   3.512   6.770  0.2189  0.3924 -2.5726
 4782SOL     OW25804   0.139   3.895   8.816 -0.7681 -0.4848  0.4302
 4782SOL    HW125805   0.173   3.816   8.775  0.1280  0.3345 -0.4033
 4782SOL    HW225806   0.044   3.887   8.816 -0.7890 -0.2373 -1.5433
 4783SOL     OW25807   4.079   0.875   5.062 -1.1391 -0.7941  0.4589
 4783SOL    HW125808   4.144   0.946   5.064 -2.7280  0.7472 -2.1255
 4783SOL    HW225809   4.138   0.805   5.034 -1.0236 -0.0906 -1.1082
 4784SOL     OW25810   0.796   0.500  16.656  0.2627  0.0596 -0.3585
 4784SOL    HW125811   0.718   0.530  16.609  1.2278 -2.0654 -3.3232
 4784SOL    HW225812   0.843   0.580  16.631  0.7736 -0.2132 -0.2681
 4785SOL     OW25813   1.286   1.811  12.188 -0.0904 -0.8701 -0.3542
 4785SOL    HW125814   1.336   1.890  12.211 -1.1855  0.3427 -2.1838
 4785SOL    HW225815   1.228   1.841  12.119  2.7220  1.5895 -1.6538
 4786SOL     OW25816   2.216   2.233   7.016 -0.3430 -0.0688  0.2558
 4786SOL    HW125817   2.192   2.294   7.085 -0.8955  0.6096 -0.5387
 4786SOL    HW225818   2.128   2.217   6.981 -0.1303  0.5899 -0.5871
 4787SOL     OW25819   3.865   2.680   2.464  0.1555  0.0807 -0.5393
 4787SOL    HW125820   3.918   2.600   2.465 -0.5939 -0.3986  0.6165
 4787SOL    HW225821   3.798   2.659   2.529  1.6261  2.3766  1.7791
 4788SOL     OW25822   1.929   1.690   3.659  0.1107 -0.6958  0.1721
 4788SOL    HW125823   1.843   1.694   3.618 -0.9133 -1.1907  2.2932
 4788SOL    HW225824   1.962   1.602   3.641 -0.8661 -1.4572  2.1088
 4789SOL     OW25825   2.304   3.292   6.619  1.1359 -0.2334 -0.4645
 4789SOL    HW125826   2.260   3.337   6.691 -0.5618  0.5200 -1.9564
 4789SOL    HW225827   2.254   3.211   6.607 -0.5174  0.5993  0.7725
 4790SOL     OW25828   4.561   2.906   9.338  0.2362 -0.3384  0.0887
 4790SOL    HW125829   4.617   2.858   9.400 -0.8309 -0.5941  0.8578
 4790SOL    HW225830   4.583   2.869   9.253 -3.8417 -2.3432 -0.1009
 4791SOL     OW25831   2.057   4.020  16.208  0.1607 -0.2099  0.3539
 4791SOL    HW125832   2.106   4.102  16.210  1.5884 -0.9940 -2.2956
 4791SOL    HW225833   2.075   3.998  16.116  1.5222  0.5394  0.4429
 4792SOL     OW25834   1.955   3.213  12.963  0.3738  0.5460 -0.0801
 4792SOL    HW125835   1.960   3.163  13.044  1.3071  0.5924 -0.1132
 4792SOL    HW225836   1.859   3.222  12.958  0.3945  1.3400  0.9931
 4793SOL     OW25837   4.563   3.167   9.267 -0.7455  0.0155  0.2000
 4793SOL    HW125838   4.519   3.085   9.288 -0.1375 -0.2368  0.4655
 4793SOL    HW225839   4.654   3.142   9.258 -0.8475 -0.4120  0.3862
 4794SOL     OW25840   4.685   0.884   2.576  0.1486  0.0854  0.0577
 4794SOL    HW125841   4.616   0.918   2.633  0.7373 -1.3431  1.6048
 4794SOL    HW225842   4.672   0.794   2.605 -0.2400  0.5882  1.4508
 4795SOL     OW25843   2.911   3.623   9.363 -0.4031 -0.2923  0.0768
 4795SOL    HW125844   2.848   3.630   9.291 -0.3382  0.5395  0.0992
 4795SOL    HW225845   2.891   3.693   9.424 -3.0706  0.1458 -1.2806
 4796SOL     OW25846   1.365   0.299  14.525  0.0946 -0.7283 -0.2802
 4796SOL    HW125847   1.338   0.209  14.505 -2.0876  0.3092 -2.0469
 4796SOL    HW225848   1.457   0.281  14.544  1.0003  1.9443 -2.2797
 4797SOL     OW25849   4.164   2.205   9.427  0.3431 -0.7400  0.4268
 4797SOL    HW125850   4.111   2.209   9.347  3.0391  2.2851 -1.2213
 4797SOL    HW225851   4.232   2.271   9.410 -0.6076 -0.2211 -1.4042
 4798SOL     OW25852   4.210   1.838   7.115  0.3823  0.0204 -0.1722
 4798SOL    HW125853   4.165   1.764   7.156  0.9319  0.1685  0.6947
 4798SOL    HW225854   4.128   1.866   7.073  1.5887  1.8899 -1.2948
 4799SOL     OW25855   3.903   0.701   0.680 -1.0964 -0.0775  0.7596
 4799SOL    HW125856   3.952   0.783   0.686 -1.8559  0.5443 -1.5439
 4799SOL    HW225857   3.902   0.663   0.768  0.5639 -0.9662  0.3986
 4800SOL     OW25858   4.409   0.771   5.460 -0.6430 -0.3123  0.2858
 4800SOL    HW125859   4.395   0.682   5.493  1.6900 -0.8307 -0.1163
 4800SOL    HW225860   4.495   0.767   5.418 -2.0071  0.6604 -2.6203
 4801SOL     OW25861   0.078   4.076  14.814 -0.3493  0.1094  0.5205
 4801SOL    HW125862   0.129   4.117  14.745  1.3784 -0.8469  1.2209
 4801SOL    HW225863   4.705   4.099  14.794  0.1676  0.0682 -1.8617
 4802SOL     OW25864   1.869   1.880   0.202 -0.0633  0.3283  0.4296
 4802SOL    HW125865   1.798   1.836   0.156 -1.2682  0.6435  2.0157
 4802SOL    HW225866   1.895   1.802   0.252  0.9711  0.1603 -0.3617
 4803SOL     OW25867   2.305   2.486   7.890  0.0325 -0.6975  0.5464
 4803SOL    HW125868   2.379   2.464   7.833  0.6137  2.3946  0.0766
 4803SOL    HW225869   2.348   2.483   7.976 -1.0543 -2.0908  1.0250
 4804SOL     OW25870   0.983   0.224   3.133 -0.4844 -0.3623  0.0656
 4804SOL    HW125871   1.030   0.155   3.085 -0.8392 -0.0211 -0.7755
 4804SOL    HW225872   1.022   0.300   3.089  1.0629 -0.8147  0.6491
 4805SOL     OW25873   2.155   0.167   3.780 -0.2861 -0.1460  0.3042
 4805SOL    HW125874   2.191   0.255   3.790  0.4102 -0.2397 -1.2745
 4805SOL    HW225875   2.070   0.174   3.824 -0.6800 -0.0742 -0.4487
 4806SOL     OW25876   4.467   0.206   7.710  0.0108  0.3751 -0.4870
 4806SOL    HW125877   4.419   0.281   7.745 -1.1570 -0.4520 -0.3164
 4806SOL    HW225878   4.398   0.174   7.653 -0.0684 -0.3650  0.0151
 4807SOL     OW25879   0.752   1.547   3.996  0.2598  0.8757  0.1687
 4807SOL    HW125880   0.846   1.562   3.985 -0.4688  4.7404 -0.6258
 4807SOL    HW225881   0.711   1.632   3.979  1.0212  1.4001  0.9337
 4808SOL     OW25882   0.738   3.607  17.609 -1.1231 -0.7636 -0.1425
 4808SOL    HW125883   0.686   3.551  17.667  0.1123 -1.1409  0.6052
 4808SOL    HW225884   0.694   3.616  17.524 -0.1918  0.1705 -0.5257
 4809SOL     OW25885   0.182   1.887   9.170 -0.1241 -0.3418 -0.0822
 4809SOL    HW125886   0.252   1.858   9.228 -0.9685 -4.4935 -1.1804
 4809SOL    HW225887   0.179   1.979   9.197  1.8396 -0.8936  1.9976
 4810SOL     OW25888   0.459   1.042   4.321  0.6155  0.2691 -0.2670
 4810SOL    HW125889   0.487   1.115   4.266 -0.0436  1.0978  0.4950
 4810SOL    HW225890   0.416   1.084   4.395  0.8773  1.4347 -0.7868
 4811SOL     OW25891   1.504   3.135   8.586 -0.1733  0.0236  0.5133
 4811SOL    HW125892   1.459   3.051   8.589 -0.2730  0.1410  2.1529
 4811SOL    HW225893   1.431   3.197   8.584 -1.5690 -1.6458 -0.3836
 4812SOL     OW25894   0.845   1.436   8.545 -0.0090  0.1530 -0.4101
 4812SOL    HW125895   0.791   1.373   8.592 -2.1984  2.2132 -0.1258
 4812SOL    HW225896   0.787   1.510   8.562  1.4721  0.5991  2.8699
 4813SOL     OW25897   0.287   3.189   5.851  0.1768 -0.0240  0.3494
 4813SOL    HW125898   0.375   3.220   5.831 -0.3584 -0.3327 -2.4750
 4813SOL    HW225899   0.242   3.274   5.858  0.7939  0.2103  1.4989
 4814SOL     OW25900   3.168   4.005   3.047 -0.4077 -0.5929 -0.4527
 4814SOL    HW125901   3.240   3.963   3.000  0.9807  2.6249 -1.2082
 4814SOL    HW225902   3.106   4.015   2.975  0.9074 -2.9129 -1.9173
 4815SOL     OW25903   2.509   0.014   8.589  0.0642 -0.0237  0.3053
 4815SOL    HW125904   2.569   0.001   8.663  0.7458  0.7972 -0.1067
 4815SOL    HW225905   2.432   4.686   8.622  0.8422 -0.1757  1.9084
 4816SOL     OW25906   3.226   2.847  15.075 -0.3266  0.0631  0.2954
 4816SOL    HW125907   3.185   2.893  15.002  0.2680 -1.2431 -0.8539
 4816SOL    HW225908   3.161   2.781  15.099  0.6386 -0.4488  1.5071
 4817SOL     OW25909   4.703   0.522   5.124  0.6992 -0.1853 -0.1162
 4817SOL    HW125910   4.712   0.499   5.031  0.7820  2.1637 -0.6888
 4817SOL    HW225911   0.023   0.610   5.127  0.2685  0.0448 -1.2560
 4818SOL     OW25912   1.914   4.427   8.874 -0.4774 -0.2744  0.1371
 4818SOL    HW125913   1.975   4.421   8.948 -0.5092 -1.7460  0.0378
 4818SOL    HW225914   1.927   4.517   8.845  0.9927 -0.6669 -0.4154
 4819SOL     OW25915   0.592   0.013   2.982  0.3609 -0.6333 -0.0299
 4819SOL    HW125916   0.667   4.710   3.037  0.0297 -0.1169  0.6137
 4819SOL    HW225917   0.605   4.673   2.907 -0.3491 -2.1836  1.0349
 4820SOL     OW25918   3.646   4.170   0.827  0.0711 -0.5998  0.0714
 4820SOL    HW125919   3.715   4.214   0.877 -0.5655  0.2409  0.1966
 4820SOL    HW225920   3.692   4.153   0.744  1.3260 -1.0974  0.8755
 4821SOL     OW25921   1.857   0.270   8.911  0.4222 -0.5203  0.1380
 4821SOL    HW125922   1.915   0.339   8.943  1.4233 -2.0825  1.6664
 4821SOL    HW225923   1.807   0.247   8.989  0.2455 -2.7341 -0.6046
 4822SOL     OW25924   2.637   2.739   5.570 -0.3622  0.3838 -0.4250
 4822SOL    HW125925   2.626   2.654   5.612  1.4049  1.1014  1.5354
 4822SOL    HW225926   2.685   2.722   5.489 -0.2879 -3.0700  0.3269
 4823SOL     OW25927   3.709   2.782  15.503 -0.7676  0.4151  0.0827
 4823SOL    HW125928   3.799   2.815  15.509 -0.1299 -1.1356 -1.0803
 4823SOL    HW225929   3.715   2.749  15.414  1.4909 -3.1525  1.5401
 4824SOL     OW25930   4.270   2.481   7.463  0.0633 -0.3093  0.5450
 4824SOL    HW125931   4.216   2.558   7.448 -0.1406 -0.1574  2.0682
 4824SOL    HW225932   4.265   2.441   7.376 -0.9124 -0.9411  0.8845
 4825SOL     OW25933   1.786   1.865   7.036 -0.8214 -0.6950  0.2760
 4825SOL    HW125934   1.824   1.831   6.955 -3.2795 -0.9990 -0.7499
 4825SOL    HW225935   1.812   1.805   7.106 -0.0851 -0.6603  0.0292
 4826SOL     OW25936   1.987   3.670   5.274 -0.8053  0.5555 -0.2813
 4826SOL    HW125937   1.981   3.658   5.369  0.9042  3.3347  0.1623
 4826SOL    HW225938   1.923   3.601   5.257 -0.9587  0.3249  1.2446
 4827SOL     OW25939   3.833   1.095  10.927 -0.1392  0.1176  1.0087
 4827SOL    HW125940   3.790   1.016  10.893  0.4655  0.2888 -0.1272
 4827SOL    HW225941   3.903   1.060  10.982 -0.3892  0.2587  1.4192
 4828SOL     OW25942   0.186   2.053   6.673  0.3525  0.3708  0.1083
 4828SOL    HW125943   0.219   2.137   6.641 -0.4298  0.8580  0.6072
 4828SOL    HW225944   0.184   2.009   6.588  0.2136  1.3826 -0.4112
 4829SOL     OW25945   3.305   3.707   6.165  0.1768 -0.0054  0.2509
 4829SOL    HW125946   3.380   3.738   6.114 -0.4297 -2.1422 -1.9489
 4829SOL    HW225947   3.237   3.725   6.100  1.1341 -1.8127 -1.2389
 4830SOL     OW25948   4.634   3.025   4.649  0.4743 -0.3913 -0.0572
 4830SOL    HW125949   4.711   2.995   4.600 -0.3225  0.0017 -1.5607
 4830SOL    HW225950   4.671   3.096   4.701  1.1027 -1.5854  1.1305
 4831SOL     OW25951   3.344   3.257  16.734  0.5547  0.2250  0.5289
 4831SOL    HW125952   3.412   3.208  16.687  0.5900  0.2524  0.5511
 4831SOL    HW225953   3.319   3.192  16.800 -0.1434  0.4402  0.4757
 4832SOL     OW25954   1.191   2.150   5.276 -0.0602  0.0645 -0.4064
 4832SOL    HW125955   1.131   2.098   5.329  1.6750 -1.7387 -0.2003
 4832SOL    HW225956   1.129   2.205   5.229 -0.3053 -0.8228 -1.1149
 4833SOL     OW25957   0.840   3.308   8.991  0.0929 -0.2376  0.3811
 4833SOL    HW125958   0.843   3.402   8.972  1.8314 -0.2195  0.7135
 4833SOL    HW225959   0.877   3.308   9.079  3.0883 -0.3874 -0.8885
 4834SOL     OW25960   3.220   2.646   3.512  0.3853 -0.0519  0.2274
 4834SOL    HW125961   3.132   2.651   3.476  1.3667  1.3673 -2.0299
 4834SOL    HW225962   3.226   2.551   3.520 -0.6424 -0.2199 -1.0487
 4835SOL     OW25963   2.339   2.697   5.516 -0.2523  0.5836 -0.3146
 4835SOL    HW125964   2.424   2.690   5.561 -0.8277 -2.0094  0.3526
 4835SOL    HW225965   2.303   2.610   5.532 -2.5328  1.4239 -0.9741
 4836SOL     OW25966   2.997   2.413   2.412 -0.0745 -0.2108  0.1826
 4836SOL    HW125967   3.084   2.382   2.441 -0.6833 -3.0394 -1.0003
 4836SOL    HW225968   2.996   2.389   2.319 -1.0772  0.6235 -0.0151
 4837SOL     OW25969   4.579   1.620  17.225 -0.0440 -0.2420 -0.0622
 4837SOL    HW125970   4.643   1.586  17.287 -1.3814 -0.2723  1.3000
 4837SOL    HW225971   4.638   1.678  17.177 -1.5884  1.1276 -0.3128
 4838SOL     OW25972   3.775   3.090   3.760 -0.2730  0.3123  0.4864
 4838SOL    HW125973   3.792   3.035   3.836  1.2018 -0.2954 -0.2785
 4838SOL    HW225974   3.687   3.060   3.740  0.3572  0.0803 -1.9168
 4839SOL     OW25975   3.691   3.994  14.136  0.8311 -0.2782  0.1762
 4839SOL    HW125976   3.617   3.969  14.080 -0.9762  2.3391  1.3900
 4839SOL    HW225977   3.724   3.904  14.145  1.2042 -0.3423 -1.9222
 4840SOL     OW25978   3.650   3.929   5.375 -0.5318 -0.1439 -0.1614
 4840SOL    HW125979   3.741   3.941   5.348 -0.4960  0.2709  0.1435
 4840SOL    HW225980   3.615   4.017   5.380  1.2387  0.4623  1.6270
 4841SOL     OW25981   2.736   3.078   5.043  0.0465  0.0018  0.0438
 4841SOL    HW125982   2.665   3.140   5.061  0.2193 -0.3340  1.8121
 4841SOL    HW225983   2.779   3.118   4.967 -1.3734 -1.7148 -1.6824
 4842SOL     OW25984   3.420   3.194  11.265 -0.2670 -0.4351  0.0170
 4842SOL    HW125985   3.364   3.132  11.218 -1.4319 -0.4153  1.3708
 4842SOL    HW225986   3.457   3.245  11.193 -0.9292 -0.1460 -0.1174
 4843SOL     OW25987   0.674   2.992   4.689 -0.6293 -0.5790  0.2117
 4843SOL    HW125988   0.708   3.081   4.700  1.6157 -1.5772  1.3686
 4843SOL    HW225989   0.717   2.941   4.757 -1.0031 -0.2260  0.7191
 4844SOL     OW25990   1.322   3.559   7.006 -0.2392 -1.3550 -0.2317
 4844SOL    HW125991   1.266   3.523   7.075  0.7658 -1.5832  0.4663
 4844SOL    HW225992   1.411   3.547   7.039 -0.2386  0.3798  0.3892
 4845SOL     OW25993   3.937   1.358   2.010 -0.1939 -0.3996  0.0826
 4845SOL    HW125994   3.933   1.453   2.017  3.1941 -0.1164 -1.8182
 4845SOL    HW225995   3.848   1.332   2.031 -0.5175  0.3398 -0.3702
 4846SOL     OW25996   1.866   1.831  17.200 -0.0670  0.2216 -0.1558
 4846SOL    HW125997   1.935   1.772  17.230  0.1235  0.1272 -0.7908
 4846SOL    HW225998   1.891   1.826  17.108 -0.1581  2.3757 -0.2986
 4847SOL     OW25999   0.353   0.583  12.334  0.0165  0.4197 -0.0707
 4847SOL    HW126000   0.441   0.548  12.324  0.0646  0.9167 -1.3569
 4847SOL    HW226001   0.304   0.502  12.345  0.5767  0.3165  1.6322
 4848SOL     OW26002   1.800   1.062   1.944  0.3097  0.0758 -0.3037
 4848SOL    HW126003   1.762   0.983   1.982 -2.1062  1.9050  1.1236
 4848SOL    HW226004   1.800   1.132   2.009  2.1746 -0.7492  0.5746
 4849SOL     OW26005   4.247   1.054   2.660  0.4780 -0.4516  0.1328
 4849SOL    HW126006   4.198   1.114   2.716  1.1504  0.6428 -0.4286
 4849SOL    HW226007   4.285   1.122   2.603  0.0975  0.2897  0.7587
 4850SOL     OW26008   2.569   2.383  15.119  0.5349 -0.1826 -0.7456
 4850SOL    HW126009   2.614   2.311  15.163  1.2927  0.7584  0.0043
 4850SOL    HW226010   2.500   2.330  15.079 -0.4263  0.6957 -0.2077
 4851SOL     OW26011   0.331   4.029   0.029  0.1541 -0.2432  0.1556
 4851SOL    HW126012   0.246   4.069   0.011 -0.3535 -1.3791  0.0447
 4851SOL    HW226013   0.299   3.950   0.072  0.3197 -1.7198 -2.4499
 4852SOL     OW26014   0.664   2.126  14.033  0.1866  0.2158 -0.2602
 4852SOL    HW126015   0.689   2.052  14.087  1.4063  0.2230 -0.8079
 4852SOL    HW226016   0.578   2.157  14.060 -0.0250 -1.4505  0.9025
 4853SOL     OW26017   0.934   1.092   6.437  0.2383 -0.4109  0.3255
 4853SOL    HW126018   0.896   1.030   6.500  0.0061 -0.4245  0.1713
 4853SOL    HW226019   0.999   1.035   6.397 -0.3428  1.5579 -3.3835
 4854SOL     OW26020   4.216   0.790   3.467 -0.0156  0.0510 -0.1247
 4854SOL    HW126021   4.267   0.810   3.546  1.9284  1.4073 -1.7068
 4854SOL    HW226022   4.218   0.874   3.420  0.8952 -0.0026 -0.1946
 4855SOL     OW26023   2.987   2.864   3.356  0.1285  0.1852  0.4256
 4855SOL    HW126024   2.974   2.793   3.418 -0.0113  0.7089  0.9929
 4855SOL    HW226025   2.982   2.810   3.277  0.0575  1.4811 -0.4592
 4856SOL     OW26026   1.276   3.172   4.796 -0.0362 -0.0425  0.1323
 4856SOL    HW126027   1.283   3.258   4.838 -0.5696 -1.7169  3.6701
 4856SOL    HW226028   1.187   3.178   4.760 -0.3860 -0.7763  0.8700
 4857SOL     OW26029   4.295   4.253  16.220  0.2284  0.1107 -0.2003
 4857SOL    HW126030   4.209   4.230  16.186 -0.1670  2.2199 -0.6524
 4857SOL    HW226031   4.356   4.191  16.180  1.1678  0.2280  1.0363
 4858SOL     OW26032   0.380   2.368   8.017  0.0156  0.1535 -0.3051
 4858SOL    HW126033   0.358   2.283   8.053  0.5490 -0.2418 -0.9198
 4858SOL    HW226034   0.472   2.358   7.992  0.0946  0.2515 -0.0635
 4859SOL     OW26035   0.593   2.861   1.371 -0.5296  0.1419  0.1707
 4859SOL    HW126036   0.666   2.923   1.377 -1.4638  1.2002  0.5404
 4859SOL    HW226037   0.647   2.783   1.389  1.7024  1.7105  0.2209
 4860SOL     OW26038   1.370   3.366   2.387  0.3275 -0.5767  0.2884
 4860SOL    HW126039   1.431   3.304   2.426  1.4124 -0.3647 -1.0868
 4860SOL    HW226040   1.327   3.305   2.327 -1.4389  0.3267  0.6311
 4861SOL     OW26041   3.059   4.157   3.488 -0.2943  0.6288 -0.1985
 4861SOL    HW126042   3.113   4.138   3.565 -2.4899  1.2204  1.4760
 4861SOL    HW226043   3.070   4.080   3.432  0.3025 -0.2589  1.1557
 4862SOL     OW26044   0.262   4.500   4.029 -0.1936  0.2428  0.3799
 4862SOL    HW126045   0.319   4.423   4.030  1.1207  1.2257  1.2621
 4862SOL    HW226046   0.176   4.468   4.057 -1.5887  2.6691 -1.1698
 4863SOL     OW26047   2.451   1.206  13.803  0.5523  0.2605  0.1269
 4863SOL    HW126048   2.442   1.246  13.717 -0.2967  1.1029  0.6085
 4863SOL    HW226049   2.518   1.260  13.846  0.9532  1.7355 -2.3833
 4864SOL     OW26050   2.723   0.102  14.769  0.7160  0.7127 -0.2804
 4864SOL    HW126051   2.706   0.016  14.808  0.3069  1.1598  0.5311
 4864SOL    HW226052   2.766   0.081  14.686 -0.4574  1.4570 -1.0786
 4865SOL     OW26053   3.126   4.473   6.269  0.0274  0.2171 -0.0744
 4865SOL    HW126054   3.209   4.498   6.228 -0.0356  1.7434  0.7406
 4865SOL    HW226055   3.145   4.396   6.322 -1.6049  0.6970  1.2113
 4866SOL     OW26056   3.667   4.249  13.483  0.6184  0.4857 -0.4591
 4866SOL    HW126057   3.752   4.243  13.528  0.2327  1.4926  0.3996
 4866SOL    HW226058   3.613   4.294  13.548  0.0124  1.5549 -1.7215
 4867SOL     OW26059   4.097   3.949  16.849 -0.1159 -0.2168 -0.0193
 4867SOL    HW126060   4.140   4.032  16.871  0.5741 -0.6771  0.3558
 4867SOL    HW226061   4.055   3.943  16.935 -1.0571  2.3662 -0.2935
 4868SOL     OW26062   4.687   1.778  13.897 -0.5383 -0.5065  0.0945
 4868SOL    HW126063   4.619   1.714  13.878 -1.5686  0.4921  0.4031
 4868SOL    HW226064   4.669   1.805  13.987  3.2542  1.6955  0.2092
 4869SOL     OW26065   1.232   0.319   5.834 -0.0863  0.4069  0.0913
 4869SOL    HW126066   1.282   0.248   5.874  0.4706  0.6025 -0.2644
 4869SOL    HW226067   1.301   0.384   5.848 -0.7476  0.5991  2.5206
 4870SOL     OW26068   3.983   1.696   5.063  0.3801  0.4733  0.2442
 4870SOL    HW126069   4.033   1.693   5.144  1.2590 -1.7467 -0.3914
 4870SOL    HW226070   3.998   1.787   5.036 -0.0662  0.7713  0.9873
 4871SOL     OW26071   3.889   0.033   2.309 -0.3328 -0.1413  0.1720
 4871SOL    HW126072   3.939   0.115   2.308 -0.3077 -0.1551  0.2761
 4871SOL    HW226073   3.886   0.011   2.216  0.3291 -0.2996  0.1854
 4872SOL     OW26074   0.666   0.086   4.322  0.1203 -0.0459  0.6405
 4872SOL    HW126075   0.631   0.175   4.322  1.5279  0.5020 -1.1167
 4872SOL    HW226076   0.595   0.037   4.363 -0.9784  1.0029 -0.0024
 4873SOL     OW26077   2.413   3.123   7.890 -0.3357 -0.2559 -0.5670
 4873SOL    HW126078   2.451   3.195   7.840 -0.7062  1.9749  2.3403
 4873SOL    HW226079   2.442   3.146   7.978 -1.0421  1.2393 -0.7212
 4874SOL     OW26080   1.229   2.498   3.568  0.4931 -0.4264  0.0556
 4874SOL    HW126081   1.323   2.479   3.571  0.1346 -2.2362 -0.1506
 4874SOL    HW226082   1.231   2.594   3.560 -1.6402 -0.4855 -1.3120
 4875SOL     OW26083   1.877   3.041   5.927 -0.1669  0.0224  0.3812
 4875SOL    HW126084   1.910   2.966   5.878  1.6078  1.3743 -0.5083
 4875SOL    HW226085   1.949   3.088   5.970  0.2266  1.6430 -2.0601
 4876SOL     OW26086   3.634   3.512  14.479  0.0963  0.3637 -0.5209
 4876SOL    HW126087   3.664   3.507  14.389  0.4773 -3.9731 -0.1364
 4876SOL    HW226088   3.703   3.558  14.527  0.2852  0.1050 -0.5445
 4877SOL     OW26089   0.230   0.328  13.910  0.0433 -0.3723 -0.4148
 4877SOL    HW126090   0.171   0.253  13.901 -1.5252  1.0925 -2.1966
 4877SOL    HW226091   0.311   0.297  13.868 -0.4444 -1.9609 -0.1895
 4878SOL     OW26092   1.503   4.039   5.586 -0.1070 -0.2223 -0.5373
 4878SOL    HW126093   1.563   4.072   5.519  1.7128 -2.5810 -0.0631
 4878SOL    HW226094   1.533   3.949   5.579 -2.7291 -1.2793  1.7235
 4879SOL     OW26095   2.690   4.434   6.824  0.1731  0.2419 -0.1874
 4879SOL    HW126096   2.712   4.461   6.735  1.8813 -0.6324 -0.0422
 4879SOL    HW226097   2.690   4.339   6.811 -1.8241  0.2923 -0.5150
 4880SOL     OW26098   4.179   2.728   5.995 -0.3774  0.0679 -0.2822
 4880SOL    HW126099   4.233   2.653   5.970 -0.3155  0.7679 -2.2631
 4880SOL    HW226100   4.247   2.779   6.040 -2.2354  1.2612  1.1870
 4881SOL     OW26101   1.584   3.722   3.961 -0.4116  0.2767 -0.4203
 4881SOL    HW126102   1.661   3.769   3.929 -0.4308  0.3746 -0.3250
 4881SOL    HW226103   1.567   3.678   3.878 -0.0200 -0.6663  0.0006
 4882SOL     OW26104   2.014   0.223   5.661  0.1176 -0.2025 -0.1424
 4882SOL    HW126105   2.089   0.269   5.699 -0.6776  1.4306 -0.5628
 4882SOL    HW226106   1.943   0.250   5.718  1.4633  0.4019  1.2374
 4883SOL     OW26107   3.448   2.941   6.818  0.0951  0.0789  0.8997
 4883SOL    HW126108   3.462   2.932   6.723  0.1801  2.4167  0.6992
 4883SOL    HW226109   3.360   2.904   6.829 -0.2970  1.7689  3.2078
 4884SOL     OW26110   2.864   4.641   2.003  0.3760  0.3345 -0.6874
 4884SOL    HW126111   2.948   4.599   2.021 -0.6744 -2.5306 -2.3768
 4884SOL    HW226112   2.800   4.587   2.048 -0.6018  0.9060 -1.3903
 4885SOL     OW26113   2.214   1.717  16.954  0.4895 -0.2677  0.0485
 4885SOL    HW126114   2.305   1.729  16.983  1.1534 -1.1692 -1.6716
 4885SOL    HW226115   2.230   1.709  16.860 -2.3095 -2.1013 -0.2663
 4886SOL     OW26116   2.956   4.476   1.320  0.4548  0.2166  0.5741
 4886SOL    HW126117   2.995   4.395   1.352  1.4658  0.3193 -0.3603
 4886SOL    HW226118   2.920   4.461   1.232  1.5820 -1.4325  0.4007
 4887SOL     OW26119   2.777   0.131  16.225  0.3611 -0.0908  0.4541
 4887SOL    HW126120   2.794   0.224  16.209  1.5470 -0.3883  0.0168
 4887SOL    HW226121   2.854   0.087  16.190 -0.5061  0.3675 -2.0298
 4888SOL     OW26122   0.354   4.182   7.236 -0.2859 -0.0588  0.1962
 4888SOL    HW126123   0.448   4.197   7.223 -0.0387 -0.2940  1.7471
 4888SOL    HW226124   0.324   4.166   7.147 -0.5058 -1.2802  0.5015
 4889SOL     OW26125   2.457   4.215   3.098  0.1302  0.3707  0.2177
 4889SOL    HW126126   2.535   4.203   3.153 -0.3664 -0.9831  0.6147
 4889SOL    HW226127   2.485   4.247   3.012  0.3464  1.5852  0.7350
 4890SOL     OW26128   4.571   4.297   5.847 -0.9652 -0.0284 -0.0744
 4890SOL    HW126129   4.517   4.296   5.926 -0.2678 -0.6641  0.3960
 4890SOL    HW226130   4.507   4.267   5.784  1.7067 -1.1448 -2.2338
 4891SOL     OW26131   3.749   1.748  14.063  0.3836  0.1027 -0.6201
 4891SOL    HW126132   3.669   1.773  14.109  0.6313  1.4168 -0.9024
 4891SOL    HW226133   3.743   1.808  13.988  0.0539 -0.9345 -1.4108
 4892SOL     OW26134   4.320   0.536  16.041 -0.4170 -0.2423  0.2839
 4892SOL    HW126135   4.349   0.452  16.077  0.7789  0.7722  1.6577
 4892SOL    HW226136   4.377   0.552  15.966  0.8376  2.0269  1.7412
 4893SOL     OW26137   2.724   0.644   4.534 -0.2938 -0.0418 -0.0500
 4893SOL    HW126138   2.683   0.649   4.447  1.9656  4.0638 -0.8699
 4893SOL    HW226139   2.656   0.592   4.577  0.6527  0.0480  1.5667
 4894SOL     OW26140   3.159   3.057  11.846 -0.4756 -0.2051 -0.5145
 4894SOL    HW126141   3.122   2.984  11.896 -1.2902  1.2091  0.9677
 4894SOL    HW226142   3.253   3.052  11.861 -0.6650 -3.3376 -0.2213
 4895SOL     OW26143   0.957   1.903   3.468 -0.0537  0.5237 -0.0714
 4895SOL    HW126144   0.990   1.914   3.557 -1.1646 -0.3494  0.4318
 4895SOL    HW226145   0.887   1.967   3.456 -0.9032 -0.3590  0.2553
 4896SOL     OW26146   1.705   3.721   8.473 -0.1862 -0.1312  0.1558
 4896SOL    HW126147   1.769   3.789   8.452 -0.3464 -0.9285 -2.9434
 4896SOL    HW226148   1.630   3.776   8.450 -1.3426 -1.6099  0.3541
 4897SOL     OW26149   3.379   0.051   5.794  0.2093  0.3150 -0.0172
 4897SOL    HW126150   3.381   0.078   5.886  1.3275 -0.8102  0.3012
 4897SOL    HW226151   3.340   0.127   5.751  0.1352  0.3234  0.0648
 4898SOL     OW26152   4.192   4.297  12.553  0.3490 -0.1034 -0.8723
 4898SOL    HW126153   4.286   4.285  12.537  0.4023  1.2949 -1.6362
 4898SOL    HW226154   4.197   4.373  12.612 -0.4754  1.5306 -2.9216
 4899SOL     OW26155   3.328   3.932   3.512  0.2246 -0.2904  0.4966
 4899SOL    HW126156   3.240   3.967   3.506  0.4090  0.0803 -0.0847
 4899SOL    HW226157   3.372   3.996   3.456 -1.6490  0.7373  0.2113
 4900SOL     OW26158   1.196   3.666   7.575  0.0595 -0.4099 -0.0835
 4900SOL    HW126159   1.194   3.760   7.555 -1.2700 -0.6411 -1.0749
 4900SOL    HW226160   1.106   3.644   7.601  1.2008 -2.1229  2.2742
 4901SOL     OW26161   2.086   2.358  10.045  0.2210  0.0608 -0.0001
 4901SOL    HW126162   2.013   2.300  10.024 -0.2268  0.1816  1.2133
 4901SOL    HW226163   2.158   2.299  10.026  0.4964  0.6480 -0.7829
 4902SOL     OW26164   2.447   4.394   3.967  0.1827 -0.0009  0.3163
 4902SOL    HW126165   2.362   4.366   3.933  1.2323 -2.3918 -0.3582
 4902SOL    HW226166   2.426   4.473   4.017 -0.3310 -0.1131  0.2724
 4903SOL     OW26167   2.915   1.439   6.207 -0.2669  0.2871  0.2381
 4903SOL    HW126168   2.856   1.390   6.149  0.7121 -0.6696  0.0436
 4903SOL    HW226169   2.869   1.437   6.291 -1.4727  0.8696 -0.4036
 4904SOL     OW26170   0.414   1.536   3.774  0.1032 -0.1654  0.3488
 4904SOL    HW126171   0.395   1.448   3.806  0.3622 -0.2862  0.1661
 4904SOL    HW226172   0.328   1.579   3.770 -0.3382 -0.8826  2.1522
 4905SOL     OW26173   4.367   0.774   3.135 -0.1091  0.3623  0.3471
 4905SOL    HW126174   4.296   0.786   3.197  0.8061 -0.1669  1.5044
 4905SOL    HW226175   4.409   0.692   3.161  0.1493  0.9502  1.7777
 4906SOL     OW26176   1.139   1.324   3.358  0.0272 -0.0743 -0.0024
 4906SOL    HW126177   1.051   1.325   3.396  0.7035  3.7760  1.4739
 4906SOL    HW226178   1.131   1.390   3.289 -2.5073 -0.4969 -0.1457
 4907SOL     OW26179   4.359   3.100  10.613 -0.4734  0.6131  0.2406
 4907SOL    HW126180   4.284   3.042  10.628 -0.3797  0.3823 -0.1890
 4907SOL    HW226181   4.440   3.052  10.625 -0.9634  0.0949  1.5291
 4908SOL     OW26182   4.633   4.651   6.624 -0.4877 -0.1832  0.4954
 4908SOL    HW126183   4.589   4.661   6.708  0.1170 -0.1207  0.8067
 4908SOL    HW226184   4.636   0.022   6.590 -0.4001 -0.1813  0.5080
 4909SOL     OW26185   3.239   4.355   9.290  0.5432  0.2701  0.5731
 4909SOL    HW126186   3.317   4.300   9.293 -0.0521 -0.5196  1.5187
 4909SOL    HW226187   3.255   4.388   9.201 -1.0009 -1.3050 -0.3005
 4910SOL     OW26188   4.033   0.474   7.023  0.8548  0.1337  0.1007
 4910SOL    HW126189   4.125   0.470   7.049  1.1823  1.3143 -0.8880
 4910SOL    HW226190   4.000   0.460   7.111  0.1166  3.3738  0.3316
 4911SOL     OW26191   0.788   3.244   6.159  0.3822 -0.0196  0.1200
 4911SOL    HW126192   0.812   3.187   6.086  0.2763 -1.7439  1.4344
 4911SOL    HW226193   0.871   3.285   6.184  0.3175  0.5596 -0.6161
 4912SOL     OW26194   0.011   0.776   1.215 -0.6448  0.3893 -0.2185
 4912SOL    HW126195   4.655   0.796   1.157 -0.7180 -0.2140 -0.3401
 4912SOL    HW226196   0.004   0.834   1.290  0.8535 -1.1416  1.1350
 4913SOL     OW26197   4.099   0.233   2.350  0.1287 -0.0235  0.4946
 4913SOL    HW126198   4.192   0.209   2.341 -0.8528 -2.2669 -3.8078
 4913SOL    HW226199   4.096   0.318   2.305 -2.1725 -1.1571 -1.4878
 4914SOL     OW26200   3.913   4.685   8.345 -0.1048 -0.2712  0.7714
 4914SOL    HW126201   3.900   4.633   8.424  1.2931 -1.3063  0.3283
 4914SOL    HW226202   3.952   0.047   8.382  1.9907  0.5111 -3.0452
 4915SOL     OW26203   0.710   3.329  11.622 -0.5488  0.1681 -0.1316
 4915SOL    HW126204   0.724   3.235  11.610  1.0782  0.0213  2.9856
 4915SOL    HW226205   0.632   3.322  11.677 -0.9083 -0.0684 -0.6666
 4916SOL     OW26206   2.955   1.374  12.176  0.1696  0.0335  0.4135
 4916SOL    HW126207   2.949   1.427  12.256 -0.4289  0.0094  0.3885
 4916SOL    HW226208   3.040   1.398  12.140 -0.3330  2.0601  0.5259
 4917SOL     OW26209   0.329   3.952   4.196 -0.4219 -0.2497  0.2688
 4917SOL    HW126210   0.423   3.951   4.216 -0.2445 -0.8616 -0.5983
 4917SOL    HW226211   0.331   3.924   4.104 -0.1287 -1.2079  0.5734
 4918SOL     OW26212   1.457   0.075   0.394  0.0599 -0.1388 -0.5774
 4918SOL    HW126213   1.426   0.153   0.440 -1.6884 -1.5110  0.5886
 4918SOL    HW226214   1.425   0.008   0.455  0.8335 -1.4799 -1.6600
 4919SOL     OW26215   3.361   2.026   2.426  0.0945 -0.2613 -0.0838
 4919SOL    HW126216   3.286   1.984   2.386 -1.8204  1.9158  1.1886
 4919SOL    HW226217   3.427   2.037   2.357 -0.3199 -0.3051 -0.4827
 4920SOL     OW26218   3.572   3.868   8.987  0.5926 -0.0018  0.3212
 4920SOL    HW126219   3.621   3.945   9.014 -0.8254  0.8024  0.6106
 4920SOL    HW226220   3.565   3.824   9.072  1.4556  0.6246  0.7127
 4921SOL     OW26221   0.658   0.600   8.665  0.0577 -0.4601  0.2644
 4921SOL    HW126222   0.569   0.615   8.633 -0.1510 -2.5900 -0.1562
 4921SOL    HW226223   0.640   0.615   8.758 -1.2118  0.7915 -0.1800
 4922SOL     OW26224   2.442   0.807   1.880  0.1306  0.5054  0.6625
 4922SOL    HW126225   2.500   0.801   1.804 -1.7782  1.9402 -0.9349
 4922SOL    HW226226   2.364   0.839   1.836  0.1660  1.9940  1.6839
 4923SOL     OW26227   1.510   3.569   6.508 -0.1365  0.2083  0.1975
 4923SOL    HW126228   1.438   3.630   6.489  0.5203 -0.2206 -3.5887
 4923SOL    HW226229   1.457   3.496   6.539  0.8316 -0.2357  0.8084
 4924SOL     OW26230   0.099   3.671  16.922 -0.3148  0.2544  0.0610
 4924SOL    HW126231   0.114   3.582  16.955 -0.6034 -0.0581 -0.6668
 4924SOL    HW226232   0.181   3.694  16.879 -0.2462  2.0195  1.1004
 4925SOL     OW26233   2.870   2.072   4.336 -0.0006  0.2717  0.6578
 4925SOL    HW126234   2.786   2.065   4.382 -0.2749 -2.6451 -0.3210
 4925SOL    HW226235   2.840   2.067   4.246 -1.0133  0.5492  0.9808
 4926SOL     OW26236   3.993   3.354  10.480  0.2634 -0.1344 -0.0558
 4926SOL    HW126237   4.002   3.368  10.575 -1.4130 -2.5343  0.4696
 4926SOL    HW226238   3.898   3.350  10.472  0.1101  0.5423  1.4502
 4927SOL     OW26239   2.046   3.297  10.926  0.2293  0.0530  0.0827
 4927SOL    HW126240   1.968   3.277  10.873  0.0873  0.9654 -0.0499
 4927SOL    HW226241   2.115   3.259  10.871 -0.6152  2.0522 -2.3755
 4928SOL     OW26242   1.432   0.960   3.393  0.3490 -0.4777  0.2920
 4928SOL    HW126243   1.410   0.988   3.304 -0.9712 -1.4334  0.3317
 4928SOL    HW226244   1.404   0.869   3.390  1.2697 -0.7778  0.6072
 4929SOL     OW26245   0.392   2.648   3.418  0.0085 -0.6976  0.2725
 4929SOL    HW126246   0.467   2.708   3.417 -1.5607  1.2362 -0.9207
 4929SOL    HW226247   0.412   2.604   3.336  0.3831  1.0066 -0.5534
 4930SOL     OW26248   1.076   0.373  16.276 -0.2218 -0.0712 -0.4839
 4930SOL    HW126249   1.085   0.469  16.271 -1.1470 -0.0869 -2.3531
 4930SOL    HW226250   1.045   0.367  16.367 -0.8471 -0.3319 -0.7129
 4931SOL     OW26251   4.010   2.406   8.984 -0.3048 -0.1871  0.5034
 4931SOL    HW126252   4.019   2.500   8.972 -3.1805  0.2579  1.7159
 4931SOL    HW226253   3.915   2.393   8.976 -0.3142 -1.1891  2.1297
 4932SOL     OW26254   2.950   4.503   6.810 -0.9781  0.4289 -0.1361
 4932SOL    HW126255   2.931   4.578   6.754  0.1253  1.3824  0.7502
 4932SOL    HW226256   3.043   4.523   6.823 -0.6201 -0.0585 -1.9572
 4933SOL     OW26257   2.259   0.550   3.216  0.3152  0.5037 -0.8354
 4933SOL    HW126258   2.252   0.642   3.240 -1.1935  0.5103 -1.3563
 4933SOL    HW226259   2.202   0.540   3.140 -0.5797 -1.9514  0.1450
 4934SOL     OW26260   3.304   3.111  14.961  0.0014 -0.0574 -0.4517
 4934SOL    HW126261   3.297   3.095  15.055 -2.0709 -0.2389 -0.6199
 4934SOL    HW226262   3.362   3.045  14.924 -0.5017 -0.3706 -0.6888
 4935SOL     OW26263   2.974   1.091   0.249 -0.4609  0.2013 -0.0341
 4935SOL    HW126264   3.019   1.062   0.170  1.7360 -1.0876  1.6753
 4935SOL    HW226265   2.888   1.106   0.211  0.0977 -0.4671 -1.5900
 4936SOL     OW26266   0.588   3.791   5.151 -0.0163 -0.2678 -0.2707
 4936SOL    HW126267   0.546   3.706   5.154  2.0777 -1.3043  0.0501
 4936SOL    HW226268   0.660   3.772   5.212 -1.4124  0.9684  1.7646
 4937SOL     OW26269   1.187   4.102  16.303  0.0440  0.0697  0.0833
 4937SOL    HW126270   1.241   4.155  16.362 -1.4381  0.8357  0.7611
 4937SOL    HW226271   1.250   4.076  16.236  0.1025  2.2442 -0.7232
 4938SOL     OW26272   0.969   1.075  14.472 -0.0860  0.0723 -0.1092
 4938SOL    HW126273   0.910   1.013  14.515 -1.0457  0.9216 -0.2151
 4938SOL    HW226274   1.035   1.016  14.435  1.1082  1.0594  0.4545
 4939SOL     OW26275   4.140   0.309   3.152  0.0691 -0.2119  0.0295
 4939SOL    HW126276   4.199   0.382   3.134  0.4497 -0.3071  0.8974
 4939SOL    HW226277   4.101   0.338   3.235  0.2376  0.0479  0.0164
 4940SOL     OW26278   2.043   2.700   6.600  0.1382 -0.0398  0.2990
 4940SOL    HW126279   2.038   2.711   6.695  1.2611  1.2123  0.2173
 4940SOL    HW226280   1.960   2.726   6.559  1.2020  1.3132 -1.0182
 4941SOL     OW26281   3.985   0.095   1.451  0.4494  0.1526 -0.0150
 4941SOL    HW126282   3.972   0.154   1.526  0.1804 -1.7257  1.4185
 4941SOL    HW226283   3.896   0.062   1.437  0.3941  0.0045  0.6923
 4942SOL     OW26284   1.360   2.903   3.059  0.0572 -0.5672  0.0181
 4942SOL    HW126285   1.328   2.953   2.984 -2.5946  1.7597  2.6930
 4942SOL    HW226286   1.434   2.955   3.090  1.6591 -2.4770 -0.6939
 4943SOL     OW26287   1.100   2.537   6.927 -0.2775 -0.3590 -0.5830
 4943SOL    HW126288   1.114   2.509   7.017 -1.0498 -0.7949 -0.6085
 4943SOL    HW226289   1.133   2.461   6.879  1.7730  0.1927 -0.0677
 4944SOL     OW26290   2.639   2.209   5.007  0.1650 -0.2020 -0.0825
 4944SOL    HW126291   2.709   2.223   5.071 -0.3339  0.2402  0.3644
 4944SOL    HW226292   2.610   2.120   5.029 -1.2876  0.2242 -0.3316
 4945SOL     OW26293   3.666   2.435   9.774 -0.1341  0.0033  0.0473
 4945SOL    HW126294   3.725   2.380   9.825  0.4952  3.7468  3.3523
 4945SOL    HW226295   3.579   2.428   9.814 -0.3266 -1.2718 -0.5826
 4946SOL     OW26296   3.695   3.164  12.096 -0.0732 -0.4312  0.3268
 4946SOL    HW126297   3.790   3.168  12.107  0.0935  1.0955 -1.6455
 4946SOL    HW226298   3.686   3.126  12.008 -1.3560  0.0023  0.2613
 4947SOL     OW26299   0.589   0.787  16.403  0.1373  0.0403  0.0281
 4947SOL    HW126300   0.592   0.783  16.499 -0.4697  0.4027  0.0648
 4947SOL    HW226301   0.615   0.698  16.380 -0.9058 -0.2241 -0.1454
 4948SOL     OW26302   3.461   3.465   7.938 -0.2784  0.1181 -0.1572
 4948SOL    HW126303   3.530   3.472   7.873  0.5973 -0.0194  0.7485
 4948SOL    HW226304   3.445   3.556   7.961  0.7823  0.8727 -2.4297
 4949SOL     OW26305   0.943   0.858   4.130 -0.3805  0.0199 -0.0920
 4949SOL    HW126306   0.921   0.947   4.159  0.4823 -0.4636  2.1005
 4949SOL    HW226307   0.968   0.811   4.209 -1.2925  0.0357  0.2099
 4950SOL     OW26308   0.667   2.752   6.384 -0.1193  0.4680  0.4619
 4950SOL    HW126309   0.641   2.677   6.330  0.2667  1.9646 -1.7974
 4950SOL    HW226310   0.585   2.794   6.411  1.6134  3.2666  1.2896
 4951SOL     OW26311   4.473   2.251   0.178 -0.1216  0.3531 -0.5667
 4951SOL    HW126312   4.385   2.287   0.192 -0.7786 -1.4220 -0.0674
 4951SOL    HW226313   4.524   2.329   0.200  1.3753 -0.5460 -0.9112
 4952SOL     OW26314   3.743   1.604   1.732  0.0868  0.2265 -0.5460
 4952SOL    HW126315   3.694   1.685   1.719 -1.3628 -0.7470 -1.1969
 4952SOL    HW226316   3.685   1.537   1.695  0.4322 -0.4276  0.0959
 4953SOL     OW26317   3.675   0.493   9.586  0.1694 -0.2185  0.6515
 4953SOL    HW126318   3.594   0.520   9.629  0.3808  1.3600  0.0374
 4953SOL    HW226319   3.682   0.552   9.512  1.7057 -0.2656  0.7671
 4954SOL     OW26320   3.046   0.570   6.717  0.1288 -0.2723 -0.0815
 4954SOL    HW126321   3.041   0.517   6.637 -0.5354 -1.0068  0.4498
 4954SOL    HW226322   3.028   0.660   6.690  0.2960  0.3640  1.9062
 4955SOL     OW26323   3.841   0.708   6.429  0.4669 -0.1597 -0.2107
 4955SOL    HW126324   3.749   0.734   6.435  0.9871  1.1700  2.2425
 4955SOL    HW226325   3.858   0.668   6.344 -0.9447  0.6178 -0.8534
 4956SOL     OW26326   3.001   1.496   5.032 -0.3682 -0.3959 -0.8087
 4956SOL    HW126327   2.923   1.450   5.063 -0.6421 -0.8935 -2.2797
 4956SOL    HW226328   3.071   1.436   5.056 -0.9890 -0.9916 -0.4947
 4957SOL     OW26329   0.358   1.883  16.734  0.2867  0.1513 -0.5938
 4957SOL    HW126330   0.336   1.793  16.758  2.0340  0.4653  2.1644
 4957SOL    HW226331   0.429   1.904  16.794 -0.4333 -1.0479  0.6686
 4958SOL     OW26332   3.379   1.433   3.377  0.4586 -0.0530  0.1135
 4958SOL    HW126333   3.362   1.422   3.283  2.0115 -1.2328 -0.0363
 4958SOL    HW226334   3.362   1.525   3.393  0.0854 -0.1471  0.2494
 4959SOL     OW26335   1.578   4.152  16.490  0.0045  0.2403  0.3265
 4959SOL    HW126336   1.535   4.086  16.544  0.0098  1.3646  1.6826
 4959SOL    HW226337   1.555   4.224  16.549 -0.5713 -0.8279  1.3968
 4960SOL     OW26338   4.035   4.709  15.165  0.0140 -0.5480 -0.2171
 4960SOL    HW126339   4.091   0.047  15.111 -1.2195 -0.3330 -1.2772
 4960SOL    HW226340   3.950   0.021  15.134  0.9239  0.6978 -1.5309
 4961SOL     OW26341   3.701   2.569  10.699  0.7786 -0.1680  0.3420
 4961SOL    HW126342   3.715   2.506  10.629  1.1901  0.3493 -0.0462
 4961SOL    HW226343   3.646   2.631  10.652 -0.2324 -0.9973  0.4369
 4962SOL     OW26344   3.600   1.760   5.585  0.3104 -0.1519 -0.1674
 4962SOL    HW126345   3.686   1.733   5.619 -1.1560 -3.1786  1.1582
 4962SOL    HW226346   3.569   1.788   5.671  0.7796 -1.0900  0.3183
 4963SOL     OW26347   2.816   3.375  12.710  0.1594  0.4381 -1.0867
 4963SOL    HW126348   2.790   3.414  12.627 -1.8973  0.1538 -0.5599
 4963SOL    HW226349   2.890   3.318  12.692  0.9139  1.4144 -1.1157
 4964SOL     OW26350   3.878   1.595   6.833  0.6957  0.5328  0.9846
 4964SOL    HW126351   3.851   1.507   6.858  1.9656  0.4180  1.9894
 4964SOL    HW226352   3.940   1.582   6.761 -1.5450  2.4712 -1.2829
 4965SOL     OW26353   3.368   0.638   2.987 -0.2375 -0.3340 -0.1045
 4965SOL    HW126354   3.300   0.570   2.989 -1.6521  0.9513 -3.7176
 4965SOL    HW226355   3.418   0.627   3.068  0.5568 -0.3866 -0.5993
 4966SOL     OW26356   4.392   3.767   7.235 -0.0393 -1.1729 -0.3811
 4966SOL    HW126357   4.460   3.775   7.302  0.2008  0.1705 -0.7894
 4966SOL    HW226358   4.441   3.772   7.154  0.7306 -0.1488  0.1551
 4967SOL     OW26359   2.270   0.953   7.169 -0.5113 -0.2169 -0.1585
 4967SOL    HW126360   2.236   1.030   7.123  1.8258  0.3850 -0.8808
 4967SOL    HW226361   2.297   0.991   7.252 -0.3895 -0.8668  0.0930
 4968SOL     OW26362   3.253   0.537   8.474 -0.4043 -0.6476  0.0124
 4968SOL    HW126363   3.225   0.614   8.523  0.0157  0.1644 -1.0063
 4968SOL    HW226364   3.185   0.530   8.407 -0.5060 -1.4059  0.1892
 4969SOL     OW26365   1.358   2.446   6.267 -0.4299  0.0806  0.0531
 4969SOL    HW126366   1.423   2.402   6.211 -1.7611 -1.6289 -0.1415
 4969SOL    HW226367   1.323   2.500   6.197  0.0840  0.1966 -0.1182
 4970SOL     OW26368   4.510   3.001  17.070 -0.5057 -0.0344  0.7426
 4970SOL    HW126369   4.445   2.965  17.010 -1.2582  2.1226  0.2736
 4970SOL    HW226370   4.536   3.082  17.027  1.8889 -1.9111 -1.3411
 4971SOL     OW26371   4.491   3.013   4.947 -0.2032 -0.2322  0.0708
 4971SOL    HW126372   4.553   3.010   4.874  0.5036 -1.4668  0.7053
 4971SOL    HW226373   4.522   3.092   4.991 -2.9578  1.5939 -1.2930
 4972SOL     OW26374   4.429   4.117   2.245 -0.4207  0.0751  0.3612
 4972SOL    HW126375   4.361   4.052   2.258 -0.4556  0.5373  2.4732
 4972SOL    HW226376   4.383   4.193   2.209 -0.0452 -0.2750 -0.8662
 4973SOL     OW26377   1.305   1.211  10.553 -0.1487 -0.1397 -0.3305
 4973SOL    HW126378   1.393   1.184  10.526 -0.6438 -0.9161 -1.1249
 4973SOL    HW226379   1.266   1.237  10.470 -0.9501  0.0662  0.1101
 4974SOL     OW26380   4.108   1.896   8.730  0.0501 -0.4596  0.4233
 4974SOL    HW126381   4.157   1.974   8.704 -1.0964 -0.6050 -2.1795
 4974SOL    HW226382   4.019   1.932   8.726 -0.0562 -0.6956  0.6560
 4975SOL     OW26383   4.631   2.064   6.734 -0.3849  0.1878  0.3161
 4975SOL    HW126384   4.625   2.158   6.751  0.5783  0.7194 -2.1586
 4975SOL    HW226385   0.008   2.049   6.723 -0.2958  0.7989  0.2217
 4976SOL     OW26386   1.019   0.822   7.840  0.7384 -0.2437  0.0559
 4976SOL    HW126387   0.941   0.767   7.841  1.0707 -0.7142  0.1190
 4976SOL    HW226388   1.056   0.822   7.928 -0.4704  1.1522  0.5699
 4977SOL     OW26389   3.228   3.736  13.416  0.0645 -0.1326 -0.3832
 4977SOL    HW126390   3.229   3.800  13.345  0.1876 -1.1425 -1.2985
 4977SOL    HW226391   3.184   3.786  13.484 -2.2799 -2.2421 -0.3457
 4978SOL     OW26392   0.422   2.637   4.362  0.0635  0.3195 -0.0053
 4978SOL    HW126393   0.382   2.675   4.283 -1.0135  1.2383  0.9783
 4978SOL    HW226394   0.433   2.714   4.418  0.5000  1.8566 -2.2060
 4979SOL     OW26395   1.880   0.460   9.625  1.0684 -0.0515 -0.0256
 4979SOL    HW126396   1.859   0.394   9.690  1.4588  0.5956  0.7572
 4979SOL    HW226397   1.790   0.490   9.611  1.3113 -0.2317 -2.0608
 4980SOL     OW26398   0.100   4.472  14.911 -0.6233 -0.3462  0.0907
 4980SOL    HW126399   0.172   4.504  14.858  0.3609 -0.8351  1.1371
 4980SOL    HW226400   0.063   4.408  14.851 -1.4980 -1.5728  1.9072
 4981SOL     OW26401   3.214   4.093   3.695 -0.1860 -0.8059  0.8040
 4981SOL    HW126402   3.302   4.124   3.715 -0.2280  0.2527 -0.6934
 4981SOL    HW226403   3.208   4.004   3.729 -1.5369 -0.4805  1.4287
 4982SOL     OW26404   3.590   0.325   0.028  0.0494  0.3874  0.1171
 4982SOL    HW126405   3.495   0.335   0.024  0.0821  0.5699 -0.2498
 4982SOL    HW226406   3.606   0.238   0.062  0.1486  0.3778  0.0458
 4983SOL     OW26407   2.505   2.134   8.082  0.0748  0.0507  0.0854
 4983SOL    HW126408   2.410   2.138   8.095 -0.3022  0.0652 -2.8325
 4983SOL    HW226409   2.520   2.042   8.058 -0.1159  0.1248 -0.3133
 4984SOL     OW26410   0.330   3.936  10.626 -0.3161 -0.4654 -0.2178
 4984SOL    HW126411   0.290   3.849  10.628  1.6349 -1.3495  1.0194
 4984SOL    HW226412   0.299   3.970  10.542  2.1941  2.6078  0.0957
 4985SOL     OW26413   0.904   0.849   6.604  0.1688 -0.3695 -0.3647
 4985SOL    HW126414   0.813   0.844   6.575  0.6211  0.1436 -1.8937
 4985SOL    HW226415   0.930   0.757   6.612 -1.5011 -0.7392  0.7401
 4986SOL     OW26416   3.745   4.331  11.238  0.3465 -0.3809 -1.1091
 4986SOL    HW126417   3.813   4.311  11.302 -1.4454  1.7507  1.4428
 4986SOL    HW226418   3.673   4.269  11.255 -0.2084  0.5655 -0.0675
 4987SOL     OW26419   2.247   0.151   6.223  0.3344  0.4391  0.4338
 4987SOL    HW126420   2.292   0.123   6.303  0.1859  0.6211  0.5827
 4987SOL    HW226421   2.312   0.165   6.155  0.6333 -0.4630  0.5295
 4988SOL     OW26422   1.148   1.276   8.138 -0.1249 -0.4487 -0.0670
 4988SOL    HW126423   1.110   1.312   8.219 -1.5848 -0.6402 -0.6725
 4988SOL    HW226424   1.241   1.284   8.161 -0.4997  0.0623  1.2742
 4989SOL     OW26425   3.201   2.373   3.528 -0.2673  0.5519 -0.0170
 4989SOL    HW126426   3.215   2.298   3.471  0.9761  1.0502 -0.3674
 4989SOL    HW226427   3.156   2.333   3.602  1.5628 -0.3547  0.5948
 4990SOL     OW26428   1.167   0.337   8.539 -0.1568 -0.0099 -0.1081
 4990SOL    HW126429   1.225   0.264   8.518  0.0689 -0.4700  2.1155
 4990SOL    HW226430   1.125   0.343   8.453 -2.7100 -1.1911  1.0819
 4991SOL     OW26431   0.853   3.510  11.478 -0.6128  0.0697  0.2445
 4991SOL    HW126432   0.842   3.425  11.521  1.4149 -2.1198 -3.5108
 4991SOL    HW226433   0.770   3.522  11.433 -0.0719  1.3821 -0.3923
 4992SOL     OW26434   1.934   0.839   6.292  0.1567  0.2789 -0.4788
 4992SOL    HW126435   1.863   0.787   6.329  1.2184 -1.8265 -1.4234
 4992SOL    HW226436   1.908   0.924   6.328  0.3639 -0.6973  2.0022
 4993SOL     OW26437   0.948   1.549   2.564 -0.8338 -0.7690 -0.4680
 4993SOL    HW126438   1.033   1.543   2.607 -1.1033 -0.4138  0.1137
 4993SOL    HW226439   0.969   1.490   2.491  2.5980 -0.6308  0.4020
 4994SOL     OW26440   3.062   1.434   4.640 -0.5471 -0.2103 -0.0747
 4994SOL    HW126441   3.130   1.366   4.648  0.5316  1.0807  1.4915
 4994SOL    HW226442   3.095   1.484   4.565 -0.2660 -2.6685 -1.6081
 4995SOL     OW26443   4.709   1.135   6.552  0.0985 -0.2722  0.1639
 4995SOL    HW126444   0.020   1.137   6.461  1.8924 -0.6396  0.7100
 4995SOL    HW226445   4.708   1.040   6.561  2.8067 -0.5275 -2.4093
 4996SOL     OW26446   3.251   0.887  13.980 -0.4224  0.3417 -0.0629
 4996SOL    HW126447   3.296   0.914  13.900  0.7313  1.8106  1.0989
 4996SOL    HW226448   3.327   0.856  14.029  0.6987  2.6709 -0.3180
 4997SOL     OW26449   2.853   1.458   2.819  0.6089 -0.1844 -0.2055
 4997SOL    HW126450   2.868   1.505   2.901  1.6009 -4.2237  1.8975
 4997SOL    HW226451   2.760   1.436   2.817  0.0388  1.9053  2.4842
 4998SOL     OW26452   1.131   2.455   9.650 -0.2468 -0.3433 -0.1455
 4998SOL    HW126453   1.077   2.455   9.729  2.0537  2.9233  1.4120
 4998SOL    HW226454   1.198   2.394   9.681 -1.7567 -1.0572  1.7583
 4999SOL     OW26455   1.541   1.908  15.416 -0.3697 -0.4586 -0.3313
 4999SOL    HW126456   1.567   1.887  15.506 -1.0315 -1.0715 -0.2875
 4999SOL    HW226457   1.551   1.824  15.371 -0.6027 -0.1027 -1.0500
 5000SOL     OW26458   4.532   0.571   2.548  0.0803 -0.2816 -0.1849
 5000SOL    HW126459   4.467   0.617   2.495 -2.8739 -2.2512  1.7176
 5000SOL    HW226460   4.579   0.517   2.484  1.9445 -0.9101  1.7093
 5001SOL     OW26461   1.877   2.445   8.970 -0.2165  0.0263 -0.2401
 5001SOL    HW126462   1.934   2.369   8.975  1.2281  1.1672  0.7072
 5001SOL    HW226463   1.934   2.520   8.989 -1.3650  0.0500  3.0543
 5002SOL     OW26464   4.115   0.952  11.673  0.1065 -0.5194 -0.2754
 5002SOL    HW126465   4.163   0.913  11.600  2.4821 -1.4691  1.8328
 5002SOL    HW226466   4.032   0.904  11.664  0.7311 -1.5648 -0.4275
 5003SOL     OW26467   3.943   2.266   1.664  0.0893  0.6830  0.0688
 5003SOL    HW126468   3.856   2.300   1.646 -0.4390 -1.1954 -0.8894
 5003SOL    HW226469   4.000   2.275   1.587 -0.0956 -0.9366 -0.2483
 5004SOL     OW26470   4.128   1.012  15.650  0.1710  0.2042  0.0261
 5004SOL    HW126471   4.156   1.058  15.729  1.8097 -1.0826  0.1812
 5004SOL    HW226472   4.169   0.927  15.664 -0.5806  0.0728  1.5466
 5005SOL     OW26473   3.909   0.574   6.197 -0.2191  0.0765  0.1682
 5005SOL    HW126474   3.933   0.506   6.134  0.6854 -0.6036  1.2527
 5005SOL    HW226475   3.993   0.582   6.243 -1.0484 -0.1052  1.7173
 5006SOL     OW26476   4.561   2.529   9.730  0.1913  0.1577  0.9296
 5006SOL    HW126477   4.476   2.546   9.689  1.0410  0.8362 -0.5428
 5006SOL    HW226478   4.614   2.492   9.661 -3.2125  3.0677 -3.2761
 5007SOL     OW26479   4.443   2.302   1.334  0.2336 -0.0604  0.5153
 5007SOL    HW126480   4.526   2.282   1.378  0.8544 -0.0766 -0.6623
 5007SOL    HW226481   4.392   2.236   1.382 -0.0799 -0.4231 -0.3144
 5008SOL     OW26482   4.253   3.612   4.980 -0.4541 -0.4292 -0.3852
 5008SOL    HW126483   4.307   3.687   5.003 -0.1148 -1.1427  1.1710
 5008SOL    HW226484   4.332   3.558   4.982 -1.0704 -1.3415 -0.4485
 5009SOL     OW26485   0.451   1.876  10.924  0.0422 -0.3610 -0.0303
 5009SOL    HW126486   0.378   1.865  10.985 -1.7218  0.5736 -1.9862
 5009SOL    HW226487   0.514   1.834  10.982  0.8817  0.4169 -0.3638
 5010SOL     OW26488   2.628   0.810   5.802 -0.3867 -0.1748 -0.2957
 5010SOL    HW126489   2.568   0.873   5.841 -1.1069  0.1574 -1.9576
 5010SOL    HW226490   2.571   0.779   5.732 -0.4179 -1.7970  0.4696
 5011SOL     OW26491   1.262   0.782   6.849  0.2218  0.1932 -0.1543
 5011SOL    HW126492   1.282   0.800   6.757  0.9810 -1.1431 -0.2437
 5011SOL    HW226493   1.347   0.764   6.888  0.9162  0.0906 -1.6866
 5012SOL     OW26494   3.366   2.620   5.437 -0.1227 -0.3595 -0.4709
 5012SOL    HW126495   3.376   2.620   5.341 -0.1428 -1.3148 -0.4715
 5012SOL    HW226496   3.331   2.532   5.449  2.9944 -1.5829 -0.2580
 5013SOL     OW26497   0.658   1.373   4.396 -0.2501  0.5915 -0.0343
 5013SOL    HW126498   0.701   1.453   4.425  0.1286  0.2920  0.2274
 5013SOL    HW226499   0.612   1.395   4.315 -0.8864  0.9261  0.4200
 5014SOL     OW26500   0.267   3.172   6.166  0.2430  0.4345  0.5061
 5014SOL    HW126501   0.362   3.168   6.178 -0.1746 -3.8391  2.3820
 5014SOL    HW226502   0.252   3.226   6.088 -5.3321 -2.6260 -0.5591
 5015SOL     OW26503   3.791   2.572  12.192 -0.1081  0.1582  0.5380
 5015SOL    HW126504   3.761   2.483  12.171 -0.3251  0.2173  0.5939
 5015SOL    HW226505   3.727   2.602  12.257 -0.7503 -0.9207  0.4114
 5016SOL     OW26506   2.060   4.688   2.474  0.5860 -0.1070  0.3384
 5016SOL    HW126507   1.983   0.015   2.441  0.2072 -0.6891  0.4442
 5016SOL    HW226508   2.093   0.041   2.530 -1.2394  0.9603  0.0533
 5017SOL     OW26509   0.556   1.596   6.518  0.0696  0.1991  0.1743
 5017SOL    HW126510   0.477   1.577   6.467 -0.2993  1.8034  0.1385
 5017SOL    HW226511   0.521   1.671   6.566  0.1660 -1.9916  3.6136
 5018SOL     OW26512   0.411   0.255   8.323 -0.0700 -0.2183 -0.0060
 5018SOL    HW126513   0.342   0.199   8.360  0.2120  1.4008  2.9744
 5018SOL    HW226514   0.422   0.208   8.241  0.4657  2.1672 -1.3026
 5019SOL     OW26515   2.642   1.239  16.631  0.1828  0.2479 -0.2206
 5019SOL    HW126516   2.726   1.281  16.619  1.1352 -1.6287 -0.0962
 5019SOL    HW226517   2.664   1.146  16.638  1.1340  0.3060 -2.4739
 5020SOL     OW26518   0.447   2.972   1.599  0.4638 -0.2546  0.0911
 5020SOL    HW126519   0.506   2.952   1.526  2.4238  1.3829  1.2425
 5020SOL    HW226520   0.450   3.068   1.602  0.9541 -0.2133 -1.5827
 5021SOL     OW26521   3.683   1.334   7.528 -0.3875 -0.1156 -0.0559
 5021SOL    HW126522   3.746   1.399   7.560 -0.4519 -0.3763  0.6089
 5021SOL    HW226523   3.628   1.325   7.606  0.3415  0.2340  0.4936
 5022SOL     OW26524   4.669   4.185   8.065  0.1462  0.7240  0.0928
 5022SOL    HW126525   4.714   4.222   7.989 -0.3322  1.1323  0.0079
 5022SOL    HW226526   0.027   4.138   8.102 -0.3558 -0.6947 -0.7129
 5023SOL     OW26527   2.944   2.871   8.722  0.1328  0.5126  0.1146
 5023SOL    HW126528   2.878   2.850   8.656  0.3695 -0.0711  0.0603
 5023SOL    HW226529   2.887   2.928   8.773 -1.6450 -0.5669 -0.6327
 5024SOL     OW26530   0.071   1.429   6.934  0.1703  0.1548  0.1004
 5024SOL    HW126531   0.094   1.380   6.855 -1.2733 -0.9793  0.3801
 5024SOL    HW226532   0.123   1.388   7.004 -2.3366 -1.4384  1.0462
 5025SOL     OW26533   3.852   0.937   3.185  0.5144  0.4286  0.4728
 5025SOL    HW126534   3.775   0.881   3.172  0.5330  0.3622  0.6418
 5025SOL    HW226535   3.897   0.960   3.104 -0.5892  0.3993 -0.1384
 5026SOL     OW26536   3.034   4.499   8.076 -0.3332  0.0291  0.5758
 5026SOL    HW126537   3.023   4.514   7.982  0.1883 -1.8055  0.2258
 5026SOL    HW226538   3.099   4.429   8.081 -0.2637  0.0002 -0.7302
 5027SOL     OW26539   3.669   3.368   4.036  0.3479 -0.1617  0.0235
 5027SOL    HW126540   3.662   3.420   4.116 -0.1497 -2.2220  1.3172
 5027SOL    HW226541   3.755   3.391   4.002 -0.3725  1.8414 -0.4065
 5028SOL     OW26542   0.434   4.477  15.727 -0.2116 -0.5138 -0.5037
 5028SOL    HW126543   0.400   4.388  15.737 -0.8880 -0.1865  0.0911
 5028SOL    HW226544   0.506   4.463  15.666  0.5819 -1.1693  0.5751
 5029SOL     OW26545   1.074   0.555   4.763  0.0361 -0.3684  0.6949
 5029SOL    HW126546   1.140   0.489   4.740  0.0819  0.5159 -1.7817
 5029SOL    HW226547   1.039   0.513   4.841 -1.6825 -1.1902 -0.5209
 5030SOL     OW26548   3.682   0.499   7.254 -0.4695  0.0958 -0.0191
 5030SOL    HW126549   3.723   0.581   7.282  0.1996 -0.5365  0.8288
 5030SOL    HW226550   3.668   0.522   7.162 -2.7537 -1.8891 -0.1833
 5031SOL     OW26551   3.108   1.015   0.033  0.4126  0.0183  0.6375
 5031SOL    HW126552   3.161   0.943   0.065  0.6883  0.5501  1.3813
 5031SOL    HW226553   3.182   1.052  17.659 -1.3302  2.3433 -0.2936
 5032SOL     OW26554   2.982   2.756   6.205  0.0863 -0.2974  0.2660
 5032SOL    HW126555   2.899   2.718   6.178 -0.0562  0.2600 -0.0775
 5032SOL    HW226556   3.019   2.809   6.134 -0.3973 -0.5135 -0.1481
 5033SOL     OW26557   2.565   4.605  11.365 -0.1139  0.0809  0.4743
 5033SOL    HW126558   2.646   4.556  11.352  0.4505  0.5817  2.0982
 5033SOL    HW226559   2.561   4.599  11.461 -2.9697 -1.9599  0.2480
 5034SOL     OW26560   2.116   2.808   1.991  0.1256  0.4550  0.5139
 5034SOL    HW126561   2.076   2.736   1.942 -1.1541  0.7244  1.1752
 5034SOL    HW226562   2.157   2.774   2.071  1.0017  0.9661  0.2872
 5035SOL     OW26563   3.367   4.409   8.353  0.1347  0.1255  0.0866
 5035SOL    HW126564   3.298   4.344   8.341 -1.2720  1.7113 -0.3913
 5035SOL    HW226565   3.435   4.377   8.293 -1.3661 -2.0593 -0.4331
 5036SOL     OW26566   3.166   0.874   8.122 -0.2225 -0.3092  0.2546
 5036SOL    HW126567   3.199   0.917   8.043  0.9279 -1.4729  0.1055
 5036SOL    HW226568   3.216   0.928   8.184 -1.8867  0.5598  0.8555
 5037SOL     OW26569   1.568   3.500   1.323  0.7545 -0.3303  0.6410
 5037SOL    HW126570   1.584   3.426   1.265 -0.4110  1.7910 -2.3805
 5037SOL    HW226571   1.619   3.564   1.273 -0.9679  0.1571 -0.5057
 5038SOL     OW26572   1.602   0.661   8.612 -0.1167  0.5063 -0.5106
 5038SOL    HW126573   1.568   0.744   8.645  0.0280 -0.1578  1.3078
 5038SOL    HW226574   1.614   0.681   8.519  1.3726  4.2938  0.5170
 5039SOL     OW26575   2.900   0.588   3.619 -0.5538  0.2977 -0.0149
 5039SOL    HW126576   2.916   0.515   3.679  1.0888  1.3242  0.8075
 5039SOL    HW226577   2.956   0.558   3.548  0.8278  2.2324  0.2550
 5040SOL     OW26578   1.057   3.386  13.622 -0.2028  0.2040 -0.0376
 5040SOL    HW126579   1.083   3.440  13.697  0.5341  1.3826 -1.1646
 5040SOL    HW226580   1.103   3.438  13.556  1.2902  0.0293  0.8486
 5041SOL     OW26581   2.304   2.757   8.788 -0.2863  0.0946  0.0300
 5041SOL    HW126582   2.231   2.790   8.736 -1.0030  0.7540  1.4728
 5041SOL    HW226583   2.302   2.793   8.876 -0.2406  2.9560 -1.1355
 5042SOL     OW26584   4.117   0.697   7.476 -0.3963  0.2339 -0.2701
 5042SOL    HW126585   4.036   0.728   7.517 -0.6146 -0.4468 -0.2009
 5042SOL    HW226586   4.109   0.605   7.498 -0.0146  0.5677  1.2584
 5043SOL     OW26587   1.435   2.245   2.407 -0.9402  0.0016 -0.4869
 5043SOL    HW126588   1.468   2.295   2.332  1.7142  1.9835  2.0044
 5043SOL    HW226589   1.430   2.154   2.378 -0.8713 -0.8971  2.3490
 5044SOL     OW26590   1.908   2.191   4.258  0.1095 -0.3968 -0.2714
 5044SOL    HW126591   1.818   2.189   4.223  0.2437 -0.7482 -0.5960
 5044SOL    HW226592   1.953   2.128   4.202  0.3577  0.3519 -0.9143
 5045SOL     OW26593   0.230   2.673   1.988 -0.7429 -0.6343 -0.2963
 5045SOL    HW126594   0.227   2.696   2.080  0.8046  2.6219 -1.0690
 5045SOL    HW226595   0.226   2.759   1.946  0.6563  0.0964  1.0963
 5046SOL     OW26596   3.178   1.859   6.022 -0.3121 -0.4027 -0.5811
 5046SOL    HW126597   3.153   1.790   6.083 -0.7775 -0.3700 -0.7384
 5046SOL    HW226598   3.255   1.829   5.972 -0.2975 -1.1008 -0.1362
 5047SOL     OW26599   3.320   3.017   0.347  0.3600  0.2007 -0.0671
 5047SOL    HW126600   3.358   3.076   0.412 -1.1997  1.0636  0.0592
 5047SOL    HW226601   3.399   2.974   0.313 -0.1365 -0.8050  0.0353
 5048SOL     OW26602   1.791   3.717   8.163  0.0769  0.0977  0.3314
 5048SOL    HW126603   1.775   3.648   8.098  0.5476 -0.1382  0.4691
 5048SOL    HW226604   1.741   3.782   8.113  0.4077  0.6704  0.7513
 5049SOL     OW26605   0.317   3.049  10.613  0.3812 -0.6200  0.2245
 5049SOL    HW126606   0.362   2.983  10.561 -1.4612 -0.0570 -2.0934
 5049SOL    HW226607   0.278   2.998  10.684 -0.5569 -1.7146 -1.0887
 5050SOL     OW26608   0.596   1.758   7.519  0.7222  0.2797 -0.0414
 5050SOL    HW126609   0.540   1.796   7.451 -0.0278  3.4820  2.3724
 5050SOL    HW226610   0.666   1.822   7.523  0.2925  0.9040 -2.3941
 5051SOL     OW26611   3.032   0.460   3.420 -0.3758  0.7902  0.0461
 5051SOL    HW126612   2.956   0.404   3.408 -0.4273  0.2286  2.9602
 5051SOL    HW226613   3.103   0.399   3.401 -0.8332  0.1368  0.4358
 5052SOL     OW26614   2.011   1.713   6.483 -0.0716  0.4436  0.4870
 5052SOL    HW126615   2.071   1.784   6.506  1.9872 -0.6478 -1.6287
 5052SOL    HW226616   2.049   1.637   6.526 -0.5265 -0.5369 -0.8367
 5053SOL     OW26617   0.521   2.105   7.220 -0.2007  0.0901  0.5215
 5053SOL    HW126618   0.526   2.069   7.308  2.6387  0.9247  0.6844
 5053SOL    HW226619   0.475   2.033   7.178 -0.5176 -0.5841  2.0213
 5054SOL     OW26620   4.453   1.617  12.272 -0.8359  0.2122  0.0521
 5054SOL    HW126621   4.438   1.709  12.293  1.1897  0.6729 -0.4977
 5054SOL    HW226622   4.435   1.617  12.178  4.5277  1.9506 -0.9926
 5055SOL     OW26623   3.680   4.388   8.566  0.1541  0.8658  0.3827
 5055SOL    HW126624   3.642   4.373   8.652 -1.4948 -1.9706 -0.8284
 5055SOL    HW226625   3.668   4.300   8.529 -1.8939  1.0846  0.5585
 5056SOL     OW26626   1.322   3.395  14.530  0.3488  0.2584  0.0239
 5056SOL    HW126627   1.298   3.346  14.451 -2.2102 -0.0339  0.9737
 5056SOL    HW226628   1.406   3.435  14.508 -0.0243  0.5735 -0.8136
 5057SOL     OW26629   4.168   2.420   4.995 -0.0070 -0.2801 -0.8322
 5057SOL    HW126630   4.198   2.477   4.924  0.1873  1.5340  0.6925
 5057SOL    HW226631   4.084   2.457   5.022 -0.8288  0.2669 -4.1286
 5058SOL     OW26632   4.458   3.501  10.865 -0.0013 -0.0726 -0.3725
 5058SOL    HW126633   4.497   3.571  10.812  1.6738 -0.4903  0.3267
 5058SOL    HW226634   4.389   3.550  10.911 -0.9870 -0.5128 -1.3695
 5059SOL     OW26635   0.497   4.376   0.411 -0.1157 -0.0449  0.0371
 5059SOL    HW126636   0.506   4.290   0.452  0.6348  0.9969  2.0851
 5059SOL    HW226637   0.461   4.341   0.330 -0.8609  0.0964  0.3058
 5060SOL     OW26638   1.368   1.257   0.815 -0.0273 -0.5000  0.2170
 5060SOL    HW126639   1.333   1.215   0.736 -3.4708  0.3541  1.2998
 5060SOL    HW226640   1.463   1.247   0.812  0.0824  0.0746  2.3911
 5061SOL     OW26641   4.217   1.351  17.234 -0.7444  0.1296 -0.0573
 5061SOL    HW126642   4.126   1.320  17.240  0.3161 -2.6438  1.4137
 5061SOL    HW226643   4.207   1.443  17.209  0.7419  0.0955 -0.7489
 5062SOL     OW26644   2.820   4.658  11.726  0.1808  0.1783 -0.0702
 5062SOL    HW126645   2.876   4.711  11.782  0.5404  2.4334 -2.5469
 5062SOL    HW226646   2.848   4.691  11.640  0.1469 -0.4986 -0.3438
 5063SOL     OW26647   3.627   4.146   8.448 -0.0269  0.0757 -0.2815
 5063SOL    HW126648   3.543   4.117   8.485  0.2703 -1.0074 -0.4765
 5063SOL    HW226649   3.666   4.059   8.446  0.9686  0.5083  0.2952
 5064SOL     OW26650   1.198   4.379   3.275  0.3294  0.0019  0.2414
 5064SOL    HW126651   1.119   4.357   3.225  1.3338  0.0927 -1.3903
 5064SOL    HW226652   1.261   4.340   3.214  1.5596 -1.9339  2.7664
 5065SOL     OW26653   4.055   2.525  17.372 -0.2174  0.3272  0.1427
 5065SOL    HW126654   4.109   2.597  17.404 -0.0881  0.7856 -1.1111
 5065SOL    HW226655   4.118   2.472  17.322 -2.0159 -1.3721 -0.3610
 5066SOL     OW26656   0.562   1.806  10.305 -0.6537 -0.6210 -0.0131
 5066SOL    HW126657   0.506   1.746  10.355 -2.0951 -0.1545 -1.0841
 5066SOL    HW226658   0.535   1.890  10.342  0.9401  0.7435 -1.9401
 5067SOL     OW26659   3.890   1.388  16.734  0.0603  0.2088 -0.6158
 5067SOL    HW126660   3.905   1.295  16.752 -2.1077  0.4073  2.0696
 5067SOL    HW226661   3.809   1.415  16.775  0.4485  0.9483 -0.3427
 5068SOL     OW26662   0.461   1.647   4.528  0.1848  0.1012 -0.2419
 5068SOL    HW126663   0.486   1.669   4.439  0.5390  1.9807  0.3209
 5068SOL    HW226664   0.544   1.655   4.574  0.2900  3.6708 -1.0731
 5069SOL     OW26665   2.684   4.710   5.818  0.3644 -0.4524  0.4981
 5069SOL    HW126666   2.649   0.049   5.887  0.9590 -1.2502  1.4451
 5069SOL    HW226667   2.606   4.674   5.776 -0.7910 -1.3298  3.4368
 5070SOL     OW26668   0.136   1.735   9.841 -0.2156 -0.3912 -0.3286
 5070SOL    HW126669   0.157   1.758   9.932 -0.8036  1.7233 -0.7217
 5070SOL    HW226670   0.096   1.649   9.848 -0.6697 -0.0952  0.7916
 5071SOL     OW26671   3.428   2.707   2.823 -0.9205 -0.0755  0.1825
 5071SOL    HW126672   3.456   2.764   2.752  0.4565 -0.6210  0.2973
 5071SOL    HW226673   3.494   2.738   2.886 -0.4710 -0.0016 -0.3281
 5072SOL     OW26674   4.415   4.013   6.805  0.9709  0.0607 -0.6603
 5072SOL    HW126675   4.370   3.990   6.724  2.8475 -2.0803 -1.1081
 5072SOL    HW226676   4.475   4.085   6.787  1.0335 -0.2813 -1.8061
 5073SOL     OW26677   3.886   2.456   5.120 -0.0142  0.4211 -0.0474
 5073SOL    HW126678   3.855   2.488   5.035 -2.3100 -2.1117 -0.1739
 5073SOL    HW226679   3.848   2.515   5.184 -1.4839 -0.4986 -0.0714
 5074SOL     OW26680   0.034   3.163  17.276 -0.1683 -0.0658  0.3607
 5074SOL    HW126681   0.092   3.154  17.201  0.5482  0.5448  0.8359
 5074SOL    HW226682   0.019   3.257  17.284  0.5496 -0.2216  3.5038
 5075SOL     OW26683   4.373   0.582   2.765 -0.4587 -0.3021 -0.2005
 5075SOL    HW126684   4.445   0.543   2.813 -0.4581 -1.3141 -1.0185
 5075SOL    HW226685   4.415   0.573   2.679 -1.5049 -0.7132 -0.6706
 5076SOL     OW26686   3.272   0.325   3.668  0.3562 -0.1898  1.0915
 5076SOL    HW126687   3.186   0.362   3.688  0.3316  0.2576  0.1542
 5076SOL    HW226688   3.296   0.375   3.591 -2.2596  1.1071  1.1352
 5077SOL     OW26689   0.425   2.821   6.502  0.2346  0.1060  0.0256
 5077SOL    HW126690   0.446   2.737   6.543  0.4589 -0.0263 -0.3548
 5077SOL    HW226691   0.359   2.802   6.436 -1.1013  1.0474  1.1043
 5078SOL     OW26692   1.011   2.912   8.313 -0.5874  0.6287 -0.3201
 5078SOL    HW126693   0.987   2.825   8.345  0.4413  0.0068 -1.2128
 5078SOL    HW226694   1.105   2.902   8.325 -0.8782 -0.3255  1.1705
 5079SOL     OW26695   0.845   2.218   7.892 -0.1159 -0.7305  0.0337
 5079SOL    HW126696   0.908   2.168   7.943  1.2650 -2.1341 -3.0265
 5079SOL    HW226697   0.822   2.287   7.955 -0.7803  1.6663 -2.7873
 5080SOL     OW26698   1.721   2.461   4.613 -0.4932 -0.2490 -0.1286
 5080SOL    HW126699   1.671   2.536   4.644 -2.2809 -0.9117 -1.4356
 5080SOL    HW226700   1.654   2.397   4.591 -1.5765  1.2316 -1.1301
 5081SOL     OW26701   0.442   0.401   0.782  0.6450 -0.1745  0.1287
 5081SOL    HW126702   0.533   0.410   0.751  0.4282  0.4467 -0.3343
 5081SOL    HW226703   0.462   0.401   0.876  2.3550  1.1418 -0.2350
 5082SOL     OW26704   1.550   2.652   7.368 -0.0178 -0.2385 -0.1317
 5082SOL    HW126705   1.635   2.609   7.354  0.5022  1.2032 -1.4292
 5082SOL    HW226706   1.557   2.691   7.455  1.4269  1.5366 -1.0437
 5083SOL     OW26707   3.683   1.931  13.853 -0.2256 -0.1892  0.3777
 5083SOL    HW126708   3.600   1.950  13.809 -0.9622  1.6827  2.6241
 5083SOL    HW226709   3.718   2.019  13.865 -0.6640  0.2838 -1.7858
 5084SOL     OW26710   2.983   3.077  14.906 -0.2182  0.3833 -0.2405
 5084SOL    HW126711   3.074   3.104  14.914 -0.7683  2.1797 -0.2093
 5084SOL    HW226712   2.989   2.997  14.853 -0.3150  0.9728 -1.1298
 5085SOL     OW26713   2.622   4.509   7.441  0.2474 -0.0271 -0.0854
 5085SOL    HW126714   2.557   4.493   7.373 -1.0199 -0.2520  1.1807
 5085SOL    HW226715   2.705   4.487   7.399  0.9846 -0.6969  1.6829
 5086SOL     OW26716   4.125   1.638   6.299  0.6954 -0.6860  0.0335
 5086SOL    HW126717   4.195   1.659   6.237  0.3502  0.9187  0.1788
 5086SOL    HW226718   4.135   1.708   6.363  1.2437  0.5885 -1.4482
 5087SOL     OW26719   0.251   2.259   3.028  0.3279  0.0792 -0.3550
 5087SOL    HW126720   0.224   2.329   2.969  0.8062  0.1422 -0.4914
 5087SOL    HW226721   0.197   2.188   2.992 -0.8362  1.0933 -0.6352
 5088SOL     OW26722   3.232   3.308   0.095 -0.0775 -0.6059  0.3985
 5088SOL    HW126723   3.201   3.218   0.105 -0.2586 -0.5608  0.2368
 5088SOL    HW226724   3.145   3.339   0.074  0.4276  0.9615  0.6439
 5089SOL     OW26725   2.477   0.696   8.675  0.3650 -0.6180  0.1824
 5089SOL    HW126726   2.436   0.613   8.649 -0.9017  0.5772 -1.6190
 5089SOL    HW226727   2.410   0.716   8.741 -1.9719 -2.0999 -1.7370
 5090SOL     OW26728   4.461   0.757  10.589 -0.0147  0.3622 -0.1021
 5090SOL    HW126729   4.538   0.809  10.566  1.0553 -1.5529 -0.8304
 5090SOL    HW226730   4.402   0.831  10.576 -1.4525 -0.9670 -1.1317
 5091SOL     OW26731   2.694   0.479   1.969 -0.0901  0.2964  0.0589
 5091SOL    HW126732   2.701   0.498   1.875  1.2664  0.3434  0.1763
 5091SOL    HW226733   2.701   0.567   2.006 -1.3940  0.7433 -0.7444
 5092SOL     OW26734   3.077   2.351   7.791  0.0250  0.4509  0.4197
 5092SOL    HW126735   3.147   2.408   7.760  0.0406 -0.8565 -1.9525
 5092SOL    HW226736   3.124   2.287   7.845 -1.1424  0.5318  1.5364
 5093SOL     OW26737   3.395   1.182   1.937  0.1693 -0.5445  0.4471
 5093SOL    HW126738   3.309   1.140   1.939  0.2941 -0.7796  1.0530
 5093SOL    HW226739   3.438   1.141   2.012  0.5477  0.8957  1.0334
 5094SOL     OW26740   3.267   1.535   1.385  0.8728  0.0589  0.0422
 5094SOL    HW126741   3.271   1.620   1.341 -2.3384  0.4346  0.4493
 5094SOL    HW226742   3.252   1.561   1.476  1.3581  2.6912 -0.6374
 5095SOL     OW26743   2.516   1.405   6.935 -0.3165 -0.1725  0.0300
 5095SOL    HW126744   2.608   1.384   6.945 -0.6308 -0.4045  2.4469
 5095SOL    HW226745   2.493   1.462   7.009  1.3237 -0.1027  0.4785
 5096SOL     OW26746   0.813   4.690   1.516 -0.1195 -0.5077  0.1686
 5096SOL    HW126747   0.721   4.666   1.511 -0.1388 -0.5039  0.4990
 5096SOL    HW226748   0.850   4.604   1.498  0.0698 -0.3693 -0.1094
 5097SOL     OW26749   0.838   2.143  10.455  0.0867  0.1831  0.3954
 5097SOL    HW126750   0.842   2.224  10.507  1.5671  0.2264  0.2245
 5097SOL    HW226751   0.771   2.168  10.391 -0.6706 -2.0686  0.3103
 5098SOL     OW26752   2.077   4.717  14.677  0.7321 -0.1444  0.0821
 5098SOL    HW126753   2.165   4.689  14.654  0.5885  0.0551 -0.7273
 5098SOL    HW226754   2.018   4.657  14.631  0.0872  0.1436  0.5294
 5099SOL     OW26755   2.651   4.427   8.286  0.0678  0.2129  0.0287
 5099SOL    HW126756   2.710   4.456   8.216 -0.4405  2.6711  0.6157
 5099SOL    HW226757   2.568   4.474   8.276 -1.0793 -1.4424  1.8454
 5100SOL     OW26758   1.472   3.481  16.228 -0.0598 -0.7590  0.1742
 5100SOL    HW126759   1.463   3.428  16.307 -0.8900  1.5695  1.6416
 5100SOL    HW226760   1.567   3.489  16.227 -0.0777 -0.6174 -0.2107
 5101SOL     OW26761   1.532   0.634  16.435 -0.9497 -0.0980  0.3340
 5101SOL    HW126762   1.566   0.650  16.523 -0.2132 -0.6411  0.1558
 5101SOL    HW226763   1.551   0.540  16.426  0.7802  0.3491 -0.7282
 5102SOL     OW26764   2.185   3.150   4.626 -0.6013  0.1508  0.1174
 5102SOL    HW126765   2.223   3.235   4.649 -1.5605  1.4073 -2.8842
 5102SOL    HW226766   2.167   3.128   4.717  0.1318  0.9743  0.4732
 5103SOL     OW26767   0.640   0.993   5.481 -0.1298  0.4386  0.2894
 5103SOL    HW126768   0.616   0.957   5.396 -0.4495  2.2467 -0.4007
 5103SOL    HW226769   0.589   0.936   5.539 -0.3494  0.4720  0.1316
 5104SOL     OW26770   0.593   0.200  14.629 -0.7969  0.0700  0.9379
 5104SOL    HW126771   0.675   0.216  14.675 -0.2758  0.1524 -0.0018
 5104SOL    HW226772   0.561   0.124  14.677 -2.7069 -1.2701 -2.4001
 5105SOL     OW26773   1.608   3.145  15.308 -0.3100  0.1278  0.7773
 5105SOL    HW126774   1.552   3.083  15.261 -1.8167  0.5149  2.0491
 5105SOL    HW226775   1.691   3.098  15.319 -1.3315 -1.5638  1.2890
 5106SOL     OW26776   0.776   0.664   4.633 -0.4105  0.3336  0.2180
 5106SOL    HW126777   0.857   0.644   4.680  0.4533 -0.1789 -1.4930
 5106SOL    HW226778   0.711   0.680   4.703  0.8918  1.4523  1.1846
 5107SOL     OW26779   4.213   1.908   8.358 -0.4085 -0.5986  0.4582
 5107SOL    HW126780   4.194   1.980   8.297  1.4551  0.0778  0.6743
 5107SOL    HW226781   4.219   1.952   8.443 -0.6097  2.3934 -1.0903
 5108SOL     OW26782   0.150   1.621   7.942 -0.5122 -0.3655  0.1771
 5108SOL    HW126783   0.237   1.599   7.908 -0.7709  1.4282 -1.6379
 5108SOL    HW226784   0.107   1.537   7.922 -2.4733  0.3824  1.2770
 5109SOL     OW26785   2.321   3.742   1.930  0.1117  0.3596  0.0285
 5109SOL    HW126786   2.407   3.782   1.944  0.6051 -0.2238 -1.3500
 5109SOL    HW226787   2.330   3.673   1.996 -1.3885 -1.6126 -1.8366
 5110SOL     OW26788   1.363   4.319   1.345 -0.2661 -0.4875 -0.5429
 5110SOL    HW126789   1.403   4.406   1.342  3.2045 -2.0752 -0.1352
 5110SOL    HW226790   1.288   4.349   1.396 -0.7451 -0.2030 -1.4120
 5111SOL     OW26791   2.242   3.333  12.812  0.1820  0.5301  0.0412
 5111SOL    HW126792   2.228   3.284  12.893  1.2201  0.4101  0.1413
 5111SOL    HW226793   2.288   3.406  12.853  2.7413 -0.7709 -0.4997
 5112SOL     OW26794   0.351   1.647  16.848 -0.0606  0.1393  0.0483
 5112SOL    HW126795   0.406   1.615  16.920  0.7112 -2.3065 -1.6355
 5112SOL    HW226796   0.285   1.578  16.850  1.1208 -0.9444  2.0263
 5113SOL     OW26797   0.896   2.003  11.371  0.1202 -0.4016 -0.4925
 5113SOL    HW126798   0.896   1.925  11.426  0.4351 -2.1625 -2.9733
 5113SOL    HW226799   0.864   1.969  11.287  1.3691 -0.7926 -0.8117
 5114SOL     OW26800   1.458   1.071   6.638 -0.6764 -0.0090  0.0125
 5114SOL    HW126801   1.427   0.992   6.594  0.4252  1.7685 -3.9531
 5114SOL    HW226802   1.553   1.072   6.635 -0.6262 -1.1899  1.4273
 5115SOL     OW26803   1.535   3.657  15.797 -0.2543  0.1461  0.3247
 5115SOL    HW126804   1.585   3.726  15.839  0.2554 -0.0388  0.0233
 5115SOL    HW226805   1.609   3.613  15.755  1.6401  1.3276  2.4420
 5116SOL     OW26806   0.506   2.630   2.717  0.3374  0.1077 -0.5380
 5116SOL    HW126807   0.518   2.573   2.640 -1.9578 -1.7857  0.5189
 5116SOL    HW226808   0.420   2.652   2.682  0.3657  3.4525  1.5391
 5117SOL     OW26809   1.604   1.328   3.934 -0.0019  0.4667 -0.0185
 5117SOL    HW126810   1.529   1.387   3.939 -1.6168 -1.5287 -0.3273
 5117SOL    HW226811   1.579   1.292   4.019 -2.4117  2.3612  0.0857
 5118SOL     OW26812   3.212   2.354   1.525 -0.2344  0.2179  0.1395
 5118SOL    HW126813   3.292   2.402   1.544 -0.8899  1.3179  0.0954
 5118SOL    HW226814   3.175   2.366   1.612 -0.8807 -0.9999  0.0369
 5119SOL     OW26815   2.986   1.545   8.696 -0.5026 -0.1818  0.1081
 5119SOL    HW126816   2.945   1.555   8.610 -1.8137 -2.3883  0.4934
 5119SOL    HW226817   2.995   1.636   8.726 -0.2136  0.0555 -0.6972
 5120SOL     OW26818   3.199   1.691   8.903 -0.6923 -0.0148  0.1118
 5120SOL    HW126819   3.259   1.761   8.932  1.6116 -1.8451 -0.2557
 5120SOL    HW226820   3.123   1.743   8.876 -0.0228  2.0569  2.1922
 5121SOL     OW26821   1.325   1.091  10.159  0.4883 -0.3381 -0.0380
 5121SOL    HW126822   1.301   1.032  10.230  1.3632  0.8093  1.2064
 5121SOL    HW226823   1.379   1.158  10.203  0.1229  2.2161 -3.4775
 5122SOL     OW26824   3.815   2.451  15.896 -0.3449  0.2073  0.3861
 5122SOL    HW126825   3.783   2.505  15.824 -0.0728 -1.1309 -0.7396
 5122SOL    HW226826   3.799   2.501  15.977  3.0748 -0.8230  1.7338
 5123SOL     OW26827   3.319   1.786   7.683 -0.3437 -0.1621 -0.4128
 5123SOL    HW126828   3.328   1.694   7.656 -1.8198 -0.3991 -0.1330
 5123SOL    HW226829   3.228   1.803   7.658 -0.5136  2.0663  1.7614
 5124SOL     OW26830   4.036   4.699   5.993  0.5543  0.2281 -0.3018
 5124SOL    HW126831   4.057   4.655   5.911  0.6813  0.9904 -0.6744
 5124SOL    HW226832   3.946   4.668   6.008  0.8780 -0.6484 -0.1530
 5125SOL     OW26833   3.056   4.703   9.821 -0.1706  1.0050 -0.3589
 5125SOL    HW126834   3.010   0.044   9.762 -2.2947 -1.0893 -0.7803
 5125SOL    HW226835   3.145   4.700   9.784  0.1088  0.1188  0.3802
 5126SOL     OW26836   2.623   2.739   0.454  0.3264 -0.2398  0.5178
 5126SOL    HW126837   2.578   2.697   0.381 -0.5206 -0.7928  1.3672
 5126SOL    HW226838   2.541   2.775   0.487  0.4421 -0.1817  0.7419
 5127SOL     OW26839   0.734   1.439   5.635  0.4288 -0.4895 -0.2565
 5127SOL    HW126840   0.702   1.351   5.654  2.1424 -1.0257  0.1881
 5127SOL    HW226841   0.672   1.468   5.568  0.5468  0.7190  0.1490
 5128SOL     OW26842   0.699   0.699  13.070 -0.4047 -0.0431 -0.2828
 5128SOL    HW126843   0.783   0.669  13.104 -1.0251 -1.9882 -0.4359
 5128SOL    HW226844   0.644   0.621  13.077 -1.5443  0.8158  0.4329
 5129SOL     OW26845   2.648   2.803   5.141 -0.1118 -0.0896 -0.7187
 5129SOL    HW126846   2.555   2.798   5.165 -0.3519 -0.6722 -1.7788
 5129SOL    HW226847   2.664   2.895   5.120  0.7737  0.2431  1.3805
 5130SOL     OW26848   0.714   3.346  16.451 -0.4275  0.7245  0.1479
 5130SOL    HW126849   0.691   3.255  16.469 -0.2269  0.9025  1.3366
 5130SOL    HW226850   0.648   3.363  16.383  0.4138  1.1964 -0.5469
 5131SOL     OW26851   3.820   0.273  14.895 -0.4762  0.4338 -0.0972
 5131SOL    HW126852   3.809   0.179  14.909 -1.6792  0.7123  0.9190
 5131SOL    HW226853   3.867   0.292  14.976  1.7094  0.4615 -1.3938
 5132SOL     OW26854   0.996   4.104   2.613  0.5533  0.1627 -0.0368
 5132SOL    HW126855   1.016   4.198   2.619  0.6795  0.0617  1.0864
 5132SOL    HW226856   1.016   4.090   2.520 -2.0072 -3.3857 -0.0604
 5133SOL     OW26857   0.971   0.469  12.606  0.9451  0.1912 -0.1509
 5133SOL    HW126858   0.907   0.539  12.621  0.8364 -0.3283  1.7854
 5133SOL    HW226859   1.035   0.501  12.543 -0.6224  0.1313 -1.7775
 5134SOL     OW26860   4.061   1.927   3.949  0.6670  0.4637  0.3103
 5134SOL    HW126861   4.137   1.871   3.965 -1.8445 -2.0333  3.4524
 5134SOL    HW226862   3.996   1.880   4.001 -1.6243  1.8191 -1.3012
 5135SOL     OW26863   0.085   3.119   3.958  0.0626  0.6928  0.4843
 5135SOL    HW126864   0.124   3.203   3.981 -0.5483  0.6330  1.7552
 5135SOL    HW226865   0.029   3.109   4.035  2.2041 -0.4852  1.8962
 5136SOL     OW26866   4.143   1.029  14.205  0.6970  0.4666 -0.1908
 5136SOL    HW126867   4.062   1.072  14.177  1.7716  1.5991 -1.5049
 5136SOL    HW226868   4.125   1.028  14.299  0.1363  2.3649 -0.2806
 5137SOL     OW26869   1.276   0.125   5.107 -0.2810 -0.2939 -0.3054
 5137SOL    HW126870   1.322   0.119   5.191 -1.3400  0.8714  0.3454
 5137SOL    HW226871   1.321   0.053   5.062  1.4910  0.3485  0.4464
 5138SOL     OW26872   3.532   2.324  16.127 -0.0606 -0.3882 -0.0493
 5138SOL    HW126873   3.618   2.331  16.169 -1.5339  2.7838  2.3971
 5138SOL    HW226874   3.485   2.403  16.155 -0.8784 -0.1169 -2.1797
 5139SOL     OW26875   4.033   4.272  12.894  0.0307  0.1139  0.0074
 5139SOL    HW126876   3.957   4.219  12.868 -0.0152 -0.9744  2.3119
 5139SOL    HW226877   3.982   4.331  12.951  1.5175 -0.1147  1.5799
 5140SOL     OW26878   0.019   4.544   2.072  0.2557  0.2436  0.9373
 5140SOL    HW126879   4.709   4.479   2.137 -1.4199 -0.4416 -0.4582
 5140SOL    HW226880   0.054   4.501   1.993  1.2834 -0.5795  1.8363
 5141SOL     OW26881   1.503   4.149  10.798  0.3345  0.4354 -0.5755
 5141SOL    HW126882   1.443   4.219  10.825  0.3495 -0.3153  1.4350
 5141SOL    HW226883   1.574   4.156  10.861  0.8167  2.0196 -1.3100
 5142SOL     OW26884   0.480   2.121   3.048 -0.4765 -0.4693 -0.2866
 5142SOL    HW126885   0.461   2.060   2.977  1.4452 -0.0450 -1.1527
 5142SOL    HW226886   0.398   2.163   3.074  1.0163  0.6811  2.6490
 5143SOL     OW26887   2.039   4.109  10.985  0.0120 -0.0324 -0.4644
 5143SOL    HW126888   2.059   4.123  11.077  0.3676 -2.3012 -0.1969
 5143SOL    HW226889   1.981   4.182  10.964  1.2062  1.3948  1.2631
 5144SOL     OW26890   3.761   4.106   7.358 -0.2436  0.1135 -0.1788
 5144SOL    HW126891   3.793   4.028   7.313 -2.6989 -1.2996  0.5027
 5144SOL    HW226892   3.680   4.084   7.404 -0.0310 -1.4907 -0.5478
 5145SOL     OW26893   0.628   3.030  15.502  0.1509  0.1773  0.5592
 5145SOL    HW126894   0.700   3.031  15.439  1.8157 -0.0277  2.4574
 5145SOL    HW226895   0.574   2.960  15.466 -0.0011  0.0487  1.0264
 5146SOL     OW26896   4.168   3.341   6.374 -0.4781 -0.4560  0.2481
 5146SOL    HW126897   4.170   3.256   6.331 -0.8686 -0.2930 -0.0833
 5146SOL    HW226898   4.074   3.350   6.385 -0.3051 -1.2166  2.3819
 5147SOL     OW26899   2.261   0.758   2.966 -0.5146  0.1616  0.3642
 5147SOL    HW126900   2.343   0.712   2.948 -1.6258 -2.1272  1.1869
 5147SOL    HW226901   2.268   0.779   3.059 -0.4829  0.9585  0.1869
 5148SOL     OW26902   1.912   3.522   7.542  0.1404  0.3158  0.0724
 5148SOL    HW126903   1.860   3.475   7.607 -1.6330  0.7527 -1.0417
 5148SOL    HW226904   1.894   3.614   7.563 -1.5999  0.6635 -3.0279
 5149SOL     OW26905   2.488   3.432   7.412  0.8726  0.1408 -0.2647
 5149SOL    HW126906   2.413   3.396   7.459 -0.7871  0.8922 -2.3071
 5149SOL    HW226907   2.559   3.376   7.442 -0.1596 -0.1461  1.6431
 5150SOL     OW26908   1.048   2.326   4.030 -0.3981 -0.0894  0.6371
 5150SOL    HW126909   1.017   2.286   3.948  0.7991 -0.5354  0.3970
 5150SOL    HW226910   1.137   2.351   4.004 -1.0817 -0.1812 -1.8363
 5151SOL     OW26911   1.607   4.537  11.565 -0.2303  0.1420  0.3785
 5151SOL    HW126912   1.560   4.618  11.545 -2.7395 -1.9312 -2.0913
 5151SOL    HW226913   1.700   4.561  11.561 -0.6797  2.0076  0.9574
 5152SOL     OW26914   2.589   1.575   7.164 -0.3687  0.6367 -0.2827
 5152SOL    HW126915   2.657   1.597   7.100  0.8612 -2.2157  0.0379
 5152SOL    HW226916   2.545   1.659   7.158  2.9441  2.1808 -2.9720
 5153SOL     OW26917   3.742   3.016   6.865  0.3146  0.2373 -0.3459
 5153SOL    HW126918   3.686   3.006   6.788  1.7562  1.4860 -1.5382
 5153SOL    HW226919   3.791   2.935   6.849 -0.4325 -0.2309 -0.2933
 5154SOL     OW26920   1.188   1.842   8.202 -0.4143  0.2829 -0.2812
 5154SOL    HW126921   1.217   1.761   8.244 -1.7147 -0.6364 -1.1830
 5154SOL    HW226922   1.093   1.832   8.214 -0.7181  1.3356 -1.7970
 5155SOL     OW26923   1.370   2.166   0.104  0.1866  0.1656  0.2972
 5155SOL    HW126924   1.303   2.117   0.056  0.2112  1.2623 -0.8677
 5155SOL    HW226925   1.414   2.092   0.145  0.7462  0.8175  0.8671
 5156SOL     OW26926   3.700   3.283   5.750 -0.1420 -0.0545 -0.9984
 5156SOL    HW126927   3.728   3.194   5.730  0.9861  0.2778 -0.9035
 5156SOL    HW226928   3.621   3.292   5.698 -0.9105  1.4218  0.4081
 5157SOL     OW26929   1.653   1.947   5.285 -0.1647 -1.1044 -0.7122
 5157SOL    HW126930   1.741   1.975   5.258  0.3326 -1.0781  0.8945
 5157SOL    HW226931   1.652   1.953   5.381  0.9201 -1.0161 -0.7014
 5158SOL     OW26932   3.985   2.030   1.239 -0.1547 -0.2956  0.1681
 5158SOL    HW126933   3.988   1.950   1.292 -0.2533  0.2752  1.0466
 5158SOL    HW226934   3.891   2.045   1.249 -0.0209 -0.2664  1.4611
 5159SOL     OW26935   2.342   2.312   3.010 -0.3502  0.2184  0.4057
 5159SOL    HW126936   2.330   2.379   2.942 -1.4383 -1.2719 -0.8770
 5159SOL    HW226937   2.250   2.319   3.033 -0.7166 -1.5492 -0.4981
 5160SOL     OW26938   4.385   0.413   0.145  0.1989 -0.4146 -0.0249
 5160SOL    HW126939   4.385   0.369   0.230 -0.0631  0.4023  0.4067
 5160SOL    HW226940   4.292   0.394   0.134  0.5776 -0.8455 -2.4515
 5161SOL     OW26941   4.187   4.292   1.556  0.1418 -0.1218  0.5184
 5161SOL    HW126942   4.212   4.366   1.613 -0.0238 -0.9068  1.6158
 5161SOL    HW226943   4.120   4.328   1.498  0.5354  0.7391  0.5861
 5162SOL     OW26944   1.988   1.639  11.905  0.1614 -0.7243  0.1663
 5162SOL    HW126945   1.954   1.683  11.983  1.5184 -1.9328  1.4556
 5162SOL    HW226946   2.020   1.715  11.856 -1.8882 -0.5065 -0.8194
 5163SOL     OW26947   2.632   3.811   8.633  0.3996 -0.2142  0.5366
 5163SOL    HW126948   2.700   3.801   8.567  0.1612  0.1490  0.2306
 5163SOL    HW226949   2.619   3.721   8.661  0.8432  0.4453  2.8159
 5164SOL     OW26950   0.722   2.551  14.703  0.1829 -0.5068 -0.1035
 5164SOL    HW126951   0.795   2.540  14.642 -0.2138 -0.2972 -0.6282
 5164SOL    HW226952   0.665   2.619  14.666 -1.0934 -1.8745 -0.6589
 5165SOL     OW26953   1.968   2.017  14.654  0.1800  0.0804 -0.6259
 5165SOL    HW126954   1.880   1.992  14.625  0.4353  2.3144 -3.2854
 5165SOL    HW226955   1.993   1.929  14.683  0.8518  0.5937  0.3510
 5166SOL     OW26956   3.004   0.622   0.703  0.3603  0.4584  0.2692
 5166SOL    HW126957   3.049   0.586   0.626  0.4702 -0.6104  0.8335
 5166SOL    HW226958   3.073   0.683   0.728 -0.6728  0.5510  2.8248
 5167SOL     OW26959   3.987   4.494   1.439 -0.0561  0.0066  0.4308
 5167SOL    HW126960   4.072   4.537   1.429 -0.1999  0.4455  1.1587
 5167SOL    HW226961   3.938   4.511   1.358  0.3679 -1.1837 -0.0870
 5168SOL     OW26962   2.252   0.356   7.225 -0.6622 -0.3100  0.0086
 5168SOL    HW126963   2.242   0.273   7.272  0.0982 -0.8317 -0.7517
 5168SOL    HW226964   2.245   0.424   7.292 -0.0798  0.3240 -0.5782
 5169SOL     OW26965   1.747   4.472  14.182 -0.5946 -0.2314 -0.7363
 5169SOL    HW126966   1.749   4.417  14.103 -2.2768 -0.4726 -0.6245
 5169SOL    HW226967   1.756   4.566  14.166  0.9960 -0.2186  0.2929
 5170SOL     OW26968   1.667   0.395   5.650 -0.6354 -0.5632 -0.5678
 5170SOL    HW126969   1.664   0.423   5.559  2.8804 -2.3484 -1.2203
 5170SOL    HW226970   1.748   0.440   5.674 -0.6526 -1.8434  1.8762
 5171SOL     OW26971   2.487   1.600   8.118  0.1331  0.2150  0.5628
 5171SOL    HW126972   2.535   1.519   8.107 -1.6934 -0.4131 -2.5865
 5171SOL    HW226973   2.398   1.577   8.090  0.9642 -0.5492 -1.4525
 5172SOL     OW26974   0.588   4.040   2.023 -0.3690 -0.2053  0.1172
 5172SOL    HW126975   0.682   4.023   2.016  0.4247  3.4564  1.7495
 5172SOL    HW226976   0.547   4.052   1.938  0.9603  0.5608 -0.4190
 5173SOL     OW26977   0.226   3.947   7.666  0.2348  0.5644  0.9858
 5173SOL    HW126978   0.220   3.861   7.626 -1.5181  0.9781  0.3724
 5173SOL    HW226979   0.310   3.945   7.712  1.3551 -0.7218 -1.0968
 5174SOL     OW26980   1.936   1.889   3.824 -0.2159 -0.3332 -0.3746
 5174SOL    HW126981   1.888   1.941   3.759 -1.7203 -0.1893  0.8475
 5174SOL    HW226982   1.922   1.803   3.785 -0.0025  0.2374 -1.6808
 5175SOL     OW26983   1.168   4.487   7.021  0.1980 -0.5155  0.0372
 5175SOL    HW126984   1.132   4.465   7.107  0.4982  4.1144  1.3620
 5175SOL    HW226985   1.083   4.476   6.980  0.7452 -0.9768 -0.9777
 5176SOL     OW26986   0.388   3.939   3.946  0.5333  0.0468 -0.7434
 5176SOL    HW126987   0.439   3.866   3.981  0.9919 -0.4116 -2.4114
 5176SOL    HW226988   0.322   3.893   3.895  0.1393 -0.2439  0.0174
 5177SOL     OW26989   1.901   3.935   3.517 -0.3756 -0.2724 -0.2754
 5177SOL    HW126990   1.935   3.862   3.466 -2.8430  0.2460 -2.6246
 5177SOL    HW226991   1.979   3.956   3.569 -2.2338  0.3205  2.2594
 5178SOL     OW26992   1.117   2.488   5.112 -0.0749  0.1964 -0.2595
 5178SOL    HW126993   1.052   2.558   5.116  2.0211  2.0807  0.3089
 5178SOL    HW226994   1.056   2.417   5.132 -0.7791  1.1406  0.9549
 5179SOL     OW26995   3.341   1.796   0.926 -0.0341 -0.1595 -0.1340
 5179SOL    HW126996   3.397   1.860   0.969 -0.5939 -0.5289  1.1362
 5179SOL    HW226997   3.277   1.842   0.872  0.6371  0.2852 -0.5527
 5180SOL     OW26998   3.045   4.662  10.693  0.1160  0.3793  0.0757
 5180SOL    HW126999   3.032   4.675  10.787 -0.7963  0.3731 -0.0509
 5180SOL    HW227000   3.130   4.619  10.703  0.4077  1.2560  1.3948
 5181SOL     OW27001   2.210   0.183   8.877 -0.3282 -0.1149 -0.2785
 5181SOL    HW127002   2.207   0.273   8.844 -0.4595  0.3177  0.9049
 5181SOL    HW227003   2.234   0.202   8.968  1.1618 -0.6016 -0.5830
 5182SOL     OW27004   0.990   2.517   4.833 -0.4946 -0.3525  0.1418
 5182SOL    HW127005   0.926   2.518   4.904 -0.1563  0.9570  0.4112
 5182SOL    HW227006   1.053   2.586   4.852 -0.9234  0.1333 -0.2038
 5183SOL     OW27007   4.267   3.526  16.004 -0.2498  0.2254 -0.7996
 5183SOL    HW127008   4.324   3.600  15.984 -0.0355  0.6905  1.5223
 5183SOL    HW227009   4.211   3.529  15.926 -1.0314  1.1214 -0.2204
 5184SOL     OW27010   1.357   4.583   8.712  0.1844 -0.3827 -0.4807
 5184SOL    HW127011   1.356   4.535   8.629 -1.1055  0.4662 -0.9582
 5184SOL    HW227012   1.349   4.510   8.773  0.0347  0.3207  0.3445
 5185SOL     OW27013   1.631   1.163  11.720  0.3319 -0.1331 -0.5757
 5185SOL    HW127014   1.576   1.205  11.654 -3.7040 -3.3952  0.7266
 5185SOL    HW227015   1.592   1.197  11.800  2.6797  0.6939  0.2311
 5186SOL     OW27016   3.398   1.286   4.615 -0.1825  0.2270  0.0853
 5186SOL    HW127017   3.376   1.204   4.657  1.1832 -0.5695 -0.7392
 5186SOL    HW227018   3.408   1.250   4.527 -1.0866 -0.6384  0.3437
 5187SOL     OW27019   1.497   3.886   8.394  0.1826 -0.4752 -0.2290
 5187SOL    HW127020   1.430   3.937   8.440 -0.1234 -1.3000  0.2548
 5187SOL    HW227021   1.492   3.929   8.309  1.4987 -0.7985 -0.4627
 5188SOL     OW27022   4.685   4.259   2.443 -0.0290 -0.1918 -0.1032
 5188SOL    HW127023   4.704   4.346   2.475 -1.2379  0.3425 -0.8150
 5188SOL    HW227024   4.611   4.281   2.385 -0.3917  0.8687  0.7776
 5189SOL     OW27025   2.321   2.696  11.791 -0.1262 -0.3010 -0.1028
 5189SOL    HW127026   2.257   2.656  11.850  0.2794 -0.4101  0.2698
 5189SOL    HW227027   2.386   2.712  11.859 -1.2532 -0.4986  1.0158
 5190SOL     OW27028   1.595   2.889   3.718  0.5329 -0.0162  0.0295
 5190SOL    HW127029   1.658   2.935   3.773  2.3210 -0.4524 -1.6434
 5190SOL    HW227030   1.651   2.877   3.641 -0.5281 -0.4204 -0.6781
 5191SOL     OW27031   4.287   1.788   6.081 -0.6926 -0.3172 -0.1336
 5191SOL    HW127032   4.379   1.812   6.091 -1.1520  1.8555 -1.0167
 5191SOL    HW227033   4.246   1.875   6.078 -0.6475 -0.3405 -1.1504
 5192SOL     OW27034   4.186   2.864  10.367  0.4966  0.5344  0.1986
 5192SOL    HW127035   4.229   2.815  10.437  0.9651 -1.5692 -1.5775
 5192SOL    HW227036   4.116   2.911  10.412  1.3228  1.8119  0.1549
 5193SOL     OW27037   0.057   0.267   1.393 -0.4453 -0.0795  0.3427
 5193SOL    HW127038   4.682   0.283   1.373  0.1582  2.1275 -0.6493
 5193SOL    HW227039   0.094   0.249   1.306 -1.8307  0.4588 -0.3670
 5194SOL     OW27040   1.321   3.256   4.133 -0.4512  0.3734  0.2307
 5194SOL    HW127041   1.255   3.288   4.073  1.2916  0.8287 -1.4315
 5194SOL    HW227042   1.394   3.274   4.075 -2.1482 -1.4037 -2.4515
 5195SOL     OW27043   3.026   2.251   3.734 -0.0552  0.3112  0.1345
 5195SOL    HW127044   2.982   2.167   3.719  0.3319  0.8423 -3.7280
 5195SOL    HW227045   3.022   2.251   3.830 -2.8046  0.5786  0.0036
 5196SOL     OW27046   1.116   1.669  14.743 -0.2414 -0.2022 -0.2948
 5196SOL    HW127047   1.127   1.576  14.724  1.5404  0.3277 -1.8193
 5196SOL    HW227048   1.034   1.678  14.694  0.6185  4.3194 -0.9101
 5197SOL     OW27049   2.879   2.545   7.105  0.5481 -0.0092 -0.6337
 5197SOL    HW127050   2.853   2.517   7.192  2.5120  1.7780  0.5593
 5197SOL    HW227051   2.812   2.510   7.048  0.5184 -1.0261  0.0335
 5198SOL     OW27052   2.560   4.343   1.868  0.4907 -0.0620 -0.7191
 5198SOL    HW127053   2.540   4.256   1.904 -4.2271  0.1498 -2.7264
 5198SOL    HW227054   2.644   4.318   1.830  0.5004 -0.3553 -0.5033
 5199SOL     OW27055   1.732   2.384  17.437  0.2919  0.5647 -0.7075
 5199SOL    HW127056   1.680   2.376  17.358 -1.1957 -2.3565  0.5835
 5199SOL    HW227057   1.783   2.304  17.443  1.5399  1.4375  0.3682
 5200SOL     OW27058   3.365   2.830  11.293  0.1100  0.0069  0.3134
 5200SOL    HW127059   3.404   2.819  11.379  2.6172 -2.0160 -1.1054
 5200SOL    HW227060   3.339   2.740  11.275  2.6928 -0.2501 -2.1607
 5201SOL     OW27061   1.048   2.795   6.947 -0.0566  0.1065  0.8881
 5201SOL    HW127062   1.113   2.866   6.952 -1.0826  1.1414 -0.5564
 5201SOL    HW227063   1.102   2.717   6.941 -2.7124 -1.7182  0.8172
 5202SOL     OW27064   3.235   4.586   9.443  0.1714  0.2081  0.1767
 5202SOL    HW127065   3.226   4.491   9.454 -1.2831  0.2850 -0.3882
 5202SOL    HW227066   3.221   4.583   9.348  2.0040  1.4999 -0.1402
 5203SOL     OW27067   3.926   1.866  15.094  0.3430 -0.2025  0.2770
 5203SOL    HW127068   3.966   1.914  15.022  0.8794  2.1687  2.1578
 5203SOL    HW227069   3.842   1.846  15.051  0.0792  0.2592  0.5786
 5204SOL     OW27070   0.532   0.894   5.238 -0.6633  0.8273  0.0220
 5204SOL    HW127071   0.558   0.955   5.169 -0.6778  1.1063  0.2635
 5204SOL    HW227072   0.477   0.842   5.179  0.3449  0.0457 -0.2169
 5205SOL     OW27073   3.966   1.843   6.945  0.4119  0.2746  0.0897
 5205SOL    HW127074   3.946   1.810   6.857 -0.2052  0.7090  0.0643
 5205SOL    HW227075   3.970   1.756   6.985  0.7488  0.8857  1.3732
 5206SOL     OW27076   3.149   1.074   1.908  0.0133  0.0501  0.0179
 5206SOL    HW127077   3.142   1.096   1.815 -1.8341 -1.1324 -0.1252
 5206SOL    HW227078   3.137   0.979   1.906 -1.5076  0.2387 -0.0139
 5207SOL     OW27079   2.429   0.085   6.422  0.1267 -1.0137  0.2069
 5207SOL    HW127080   2.496   0.075   6.355 -0.7034  1.5486 -0.9880
 5207SOL    HW227081   2.463   0.155   6.477  1.2267 -0.1827 -1.5438
 5208SOL     OW27082   1.575   0.910   9.277 -0.3507 -0.1238 -0.3125
 5208SOL    HW127083   1.539   0.822   9.271 -0.1001 -0.0538 -2.7817
 5208SOL    HW227084   1.517   0.955   9.338 -2.2193 -0.2041 -2.0111
 5209SOL     OW27085   3.035   3.069   9.155 -0.1062 -0.1576 -0.0473
 5209SOL    HW127086   3.101   3.084   9.087 -0.6093  0.2547 -0.4460
 5209SOL    HW227087   3.018   2.975   9.155 -2.3960  0.2665 -1.1502
 5210SOL     OW27088   0.523   0.195   2.459  0.4048 -0.0126 -0.4263
 5210SOL    HW127089   0.611   0.181   2.424 -0.0837  0.1998 -1.7028
 5210SOL    HW227090   0.552   0.191   2.551  2.0481  1.0601 -0.8968
 5211SOL     OW27091   3.961   3.201  14.346  0.4217 -0.2173  0.5501
 5211SOL    HW127092   3.917   3.234  14.268  0.3273  1.7457  1.4298
 5211SOL    HW227093   4.056   3.204  14.333  0.4598  0.0459  0.8752
 5212SOL     OW27094   0.558   2.324  10.593  0.6502 -0.0296 -0.1450
 5212SOL    HW127095   0.565   2.269  10.671  1.0549  0.0661 -0.1115
 5212SOL    HW227096   0.638   2.376  10.600 -0.1693  1.1947 -0.0087
 5213SOL     OW27097   2.744   1.442  12.017  0.5813 -0.4390  0.0733
 5213SOL    HW127098   2.683   1.415  12.085 -1.2177 -1.5116 -1.9452
 5213SOL    HW227099   2.829   1.451  12.060  1.3498  0.9699 -1.7070
 5214SOL     OW27100   2.561   0.987   3.605 -0.0583  0.0069 -0.2251
 5214SOL    HW127101   2.579   0.894   3.619 -0.7624  0.0476  0.9147
 5214SOL    HW227102   2.639   1.018   3.651 -1.8548  3.3404  0.5926
 5215SOL     OW27103   1.067   2.223   4.445  0.3968  0.1244  0.0299
 5215SOL    HW127104   0.975   2.201   4.432 -0.0693  2.0420  0.0983
 5215SOL    HW227105   1.062   2.315   4.468  1.8609  0.6396 -1.6935
 5216SOL     OW27106   0.765   1.616   4.935  0.1552 -0.3581  0.0094
 5216SOL    HW127107   0.757   1.662   4.852 -0.4658 -0.7045 -0.1258
 5216SOL    HW227108   0.859   1.612   4.953  0.1571 -2.5384 -0.5188
 5217SOL     OW27109   1.650   4.678  10.883 -0.1389 -0.1390 -0.1933
 5217SOL    HW127110   1.557   4.692  10.864 -0.3923 -0.6985  0.6526
 5217SOL    HW227111   1.687   4.621  10.816 -0.0017 -1.6012  1.1210
 5218SOL     OW27112   1.240   2.939   2.145 -0.2675  0.2747 -0.1771
 5218SOL    HW127113   1.184   2.862   2.158 -2.8263  1.9807 -1.1038
 5218SOL    HW227114   1.320   2.905   2.186 -0.3944 -0.6813 -0.7208
 5219SOL     OW27115   1.519   2.051   9.596  0.5121 -0.1115  1.1506
 5219SOL    HW127116   1.433   2.052   9.637  1.1504 -0.4678  2.4855
 5219SOL    HW227117   1.531   1.958   9.576 -1.4846 -0.3806  1.2037
 5220SOL     OW27118   1.067   3.605   4.561  0.6875  0.5480 -0.2541
 5220SOL    HW127119   1.006   3.673   4.532 -1.5357 -1.4900 -0.3179
 5220SOL    HW227120   1.041   3.526   4.514 -1.0991  1.7089 -1.2308
 5221SOL     OW27121   3.385   0.391   1.047  0.5454  0.2644  0.1529
 5221SOL    HW127122   3.319   0.401   0.978  1.0233 -1.9749 -0.6038
 5221SOL    HW227123   3.381   0.476   1.092  3.2874 -0.2232  1.2988
 5222SOL     OW27124   3.909   0.803   7.616 -0.5256  0.2278  0.7074
 5222SOL    HW127125   3.816   0.808   7.593 -0.0511 -0.4564 -1.2983
 5222SOL    HW227126   3.931   0.730   7.674  0.0021 -0.8040 -0.8034
 5223SOL     OW27127   4.460   2.840  11.505 -0.0232 -0.1612  0.3809
 5223SOL    HW127128   4.431   2.930  11.488 -0.0309 -0.3828 -0.8107
 5223SOL    HW227129   4.472   2.855  11.599  3.8280 -0.3722 -0.0538
 5224SOL     OW27130   3.967   4.222   4.321  0.5626  0.1790  0.2632
 5224SOL    HW127131   3.996   4.133   4.302 -0.0404 -0.0606  0.4794
 5224SOL    HW227132   4.003   4.277   4.251  1.3912 -0.5602  0.1053
 5225SOL     OW27133   3.249   3.922   5.240  0.6103  0.6311  0.1002
 5225SOL    HW127134   3.265   4.008   5.278  1.3739  1.1140 -1.3002
 5225SOL    HW227135   3.299   3.918   5.158  1.7492  0.8532  0.7785
 5226SOL     OW27136   0.081   0.131   7.853 -0.0121  0.2818 -0.0452
 5226SOL    HW127137   0.039   0.121   7.939 -3.2871  0.6556 -1.6024
 5226SOL    HW227138   0.104   0.041   7.828 -0.0464  0.0015  0.9124
 5227SOL     OW27139   1.936   0.796   3.656  0.3940  0.2864  0.0676
 5227SOL    HW127140   1.950   0.701   3.645 -1.3036  0.1504 -0.8912
 5227SOL    HW227141   1.846   0.807   3.628  0.8756  0.6579 -1.3102
 5228SOL     OW27142   2.471   2.566   0.299  0.5132 -0.2491  0.8010
 5228SOL    HW127143   2.409   2.632   0.331  2.3631  1.0560  1.7164
 5228SOL    HW227144   2.411   2.521   0.239  0.2225  0.9101  0.2106
 5229SOL     OW27145   1.281   2.152   7.307  0.6193 -0.1806  0.2906
 5229SOL    HW127146   1.216   2.182   7.370 -0.2963  0.8506 -1.1406
 5229SOL    HW227147   1.244   2.064   7.316  1.7526 -0.8297 -1.3280
 5230SOL     OW27148   0.924   0.357  14.231 -0.0416 -0.8273  0.3084
 5230SOL    HW127149   0.874   0.324  14.306 -0.3241 -1.0995 -0.0013
 5230SOL    HW227150   0.863   0.328  14.164  0.6084 -0.8722 -0.2631
 5231SOL     OW27151   0.186   3.098   0.285  0.0930  0.0741  0.3405
 5231SOL    HW127152   0.128   3.085   0.360 -1.4318  0.4603 -0.7825
 5231SOL    HW227153   0.261   3.065   0.334 -0.9314  0.4602  2.1653
 5232SOL     OW27154   1.642   1.320   3.382 -0.1011 -0.0698 -0.1187
 5232SOL    HW127155   1.598   1.236   3.365  1.4853 -1.0002  0.4323
 5232SOL    HW227156   1.650   1.318   3.477 -0.9522  2.2289 -0.0034
 5233SOL     OW27157   3.058   3.454   8.504 -0.0615 -0.0700  0.4361
 5233SOL    HW127158   3.076   3.476   8.595  0.9680  1.2898 -0.0935
 5233SOL    HW227159   3.131   3.397   8.479  0.8598  0.4160  2.0536
 5234SOL     OW27160   0.776   2.028   4.678  0.2512  0.5365 -0.0847
 5234SOL    HW127161   0.801   2.046   4.588  1.4376  0.8808  0.3144
 5234SOL    HW227162   0.839   2.090   4.713  1.0284 -0.0824 -0.4006
 5235SOL     OW27163   0.604   0.793   3.197 -0.1798 -0.0793  0.3355
 5235SOL    HW127164   0.560   0.817   3.278  1.2317 -1.6919  1.5835
 5235SOL    HW227165   0.634   0.879   3.166 -1.3557 -0.0070 -0.6264
 5236SOL     OW27166   0.916   4.188   4.018 -0.2064 -0.7469  0.2508
 5236SOL    HW127167   0.949   4.098   4.017 -0.5113 -0.8391 -1.8475
 5236SOL    HW227168   0.995   4.227   4.056  0.0097  0.4158 -1.3903
 5237SOL     OW27169   2.922   3.125   5.882  0.1097  0.2689 -0.5025
 5237SOL    HW127170   2.874   3.157   5.958  1.7794  0.0753  0.6364
 5237SOL    HW227171   2.913   3.201   5.824  0.3125  2.5770  2.5160
 5238SOL     OW27172   1.880   0.625   4.453  0.2764 -0.0140 -0.0877
 5238SOL    HW127173   1.863   0.536   4.486 -1.7959 -0.3269 -1.9819
 5238SOL    HW227174   1.801   0.674   4.478 -0.3345  0.5234 -3.0744
 5239SOL     OW27175   0.204   1.997   6.409  0.3470 -0.0316 -0.3901
 5239SOL    HW127176   0.288   1.957   6.383 -0.6981 -2.2445 -0.3803
 5239SOL    HW227177   0.143   1.924   6.397  0.6879 -0.7185  2.0354
 5240SOL     OW27178   4.071   3.275  11.382  0.5012 -0.6418 -0.2899
 5240SOL    HW127179   4.057   3.325  11.302 -0.9515 -0.4112  0.1049
 5240SOL    HW227180   4.097   3.339  11.449 -0.8390 -0.1385 -0.2555
 5241SOL     OW27181   3.334   3.546   5.099 -0.1863 -0.4133  0.0983
 5241SOL    HW127182   3.297   3.460   5.120  0.3393 -1.0069 -1.3738
 5241SOL    HW227183   3.361   3.533   5.008  0.5629 -0.5624  0.3404
 5242SOL     OW27184   0.335   1.313   9.222 -0.0852  0.4773 -0.2374
 5242SOL    HW127185   0.319   1.246   9.288  0.5138  1.2050  0.6452
 5242SOL    HW227186   0.398   1.280   9.158  2.1141  3.1386  0.5684
 5243SOL     OW27187   4.254   0.494   3.504 -0.4973  0.0061 -0.0394
 5243SOL    HW127188   4.234   0.575   3.458  0.9218  0.6076  0.3742
 5243SOL    HW227189   4.304   0.517   3.583  0.1832  1.6354 -0.9528
 5244SOL     OW27190   3.145   1.988  16.909 -0.4292 -0.3434 -0.1103
 5244SOL    HW127191   3.090   1.974  16.986  0.3118  4.1168  1.2707
 5244SOL    HW227192   3.077   1.975  16.844 -1.1278  0.7001  0.4067
 5245SOL     OW27193   1.190   3.775   4.898 -0.2070  0.0467 -0.4316
 5245SOL    HW127194   1.157   3.852   4.853 -2.5985  0.2206  1.6252
 5245SOL    HW227195   1.255   3.742   4.836 -0.3031  1.3675 -1.2119
 5246SOL     OW27196   3.595   3.838   2.425 -0.4705 -0.3240 -0.1534
 5246SOL    HW127197   3.688   3.821   2.436 -0.2953  0.7328  0.0360
 5246SOL    HW227198   3.573   3.750   2.456 -1.8239  0.2400  0.5184
 5247SOL     OW27199   3.472   1.890   4.416 -0.2089  0.1972  0.5909
 5247SOL    HW127200   3.427   1.961   4.461 -1.5191  0.0340 -0.4518
 5247SOL    HW227201   3.486   1.827   4.487  0.0789  0.9002  1.1521
 5248SOL     OW27202   3.047   3.149   2.480  0.2340  0.4638  0.5442
 5248SOL    HW127203   3.048   3.087   2.553  0.3668  0.9343  0.9445
 5248SOL    HW227204   3.140   3.170   2.474  1.0106 -2.4630  2.0660
 5249SOL     OW27205   0.334   0.855   3.140  0.7096  0.1297 -0.7051
 5249SOL    HW127206   0.412   0.892   3.098  0.8504 -0.3937 -0.8968
 5249SOL    HW227207   0.329   0.911   3.218  2.4630 -0.4478 -0.1850
 5250SOL     OW27208   0.576   4.224   2.199  0.0784  0.2627 -0.0763
 5250SOL    HW127209   0.572   4.164   2.124  0.3942  1.4323 -1.0369
 5250SOL    HW227210   0.530   4.295   2.155  1.2438  0.1366 -1.5065
 5251SOL     OW27211   0.877   0.088  11.611  0.0866 -0.0879 -0.0876
 5251SOL    HW127212   0.840   0.093  11.700 -1.7658  0.0607 -0.8730
 5251SOL    HW227213   0.810   0.122  11.552  0.0756  2.1584  1.2292
 5252SOL     OW27214   1.085   1.274   4.139 -0.4296  0.2919 -0.5504
 5252SOL    HW127215   1.139   1.344   4.177 -2.6265  3.2844 -2.9242
 5252SOL    HW227216   1.138   1.263   4.060 -1.2563  0.5435 -1.1398
 5253SOL     OW27217   3.065   0.614   7.774 -0.0570 -0.1730 -0.1097
 5253SOL    HW127218   2.993   0.588   7.716 -0.6082 -0.0545  0.5184
 5253SOL    HW227219   3.141   0.577   7.729 -0.3282  1.0004 -1.5254
 5254SOL     OW27220   3.322   2.344   4.238  0.3331  0.0218  0.4356
 5254SOL    HW127221   3.388   2.364   4.172  0.0304  0.1160  0.1642
 5254SOL    HW227222   3.318   2.249   4.228  0.4954  0.2078 -1.4509
 5255SOL     OW27223   2.611   1.200   1.957  0.1888  0.0179 -0.4806
 5255SOL    HW127224   2.681   1.243   2.006  0.6677 -1.9331  0.5407
 5255SOL    HW227225   2.617   1.110   1.989 -0.5845 -0.1758 -0.8844
 5256SOL     OW27226   3.443   0.065   4.700  0.7990  0.0610 -0.3356
 5256SOL    HW127227   3.470   0.108   4.619  0.0070  0.5207 -0.3477
 5256SOL    HW227228   3.429   4.691   4.676 -0.4862  0.2613 -0.3153
 5257SOL     OW27229   0.101   1.829  15.810 -0.2804 -0.3784  0.0253
 5257SOL    HW127230   0.146   1.906  15.775  1.3140 -0.8094  1.1181
 5257SOL    HW227231   0.055   1.870  15.883  0.8249  1.4350 -0.3024
 5258SOL     OW27232   0.286   1.422   6.133  0.2664 -0.5243 -0.2778
 5258SOL    HW127233   0.267   1.337   6.092 -1.4907 -0.4952  0.4628
 5258SOL    HW227234   0.364   1.442   6.081 -0.9324  0.6591 -1.6063
 5259SOL     OW27235   3.233   4.520   2.275 -0.5691 -0.5786 -0.1244
 5259SOL    HW127236   3.284   4.574   2.336  1.2266 -2.8220  0.3504
 5259SOL    HW227237   3.240   4.566   2.191  0.3412  0.2780  0.4162
 5260SOL     OW27238   4.158   3.280   1.758 -0.1804 -0.7397  0.4780
 5260SOL    HW127239   4.154   3.369   1.723  1.3757 -0.2671  1.5032
 5260SOL    HW227240   4.192   3.294   1.847  4.0778  0.6093 -1.3572
 5261SOL     OW27241   3.489   3.212  10.513 -0.5449  0.0020 -0.0918
 5261SOL    HW127242   3.405   3.195  10.555 -0.4421  1.7857  0.8334
 5261SOL    HW227243   3.480   3.166  10.430 -1.5272  1.7106 -0.9273
 5262SOL     OW27244   3.514   2.041   8.703  0.4114 -0.0927 -0.2619
 5262SOL    HW127245   3.435   2.050   8.649  0.3515  2.8736  0.3283
 5262SOL    HW227246   3.550   2.130   8.705  2.3174 -0.8795  0.5616
 5263SOL     OW27247   3.161   2.207   1.309  0.2291  0.2435 -0.5049
 5263SOL    HW127248   3.165   2.255   1.391  0.0681 -2.1275  0.9165
 5263SOL    HW227249   3.070   2.179   1.316 -0.1241  1.6816  0.5965
 5264SOL     OW27250   3.908   0.980   2.606 -0.1458 -0.2288 -0.2632
 5264SOL    HW127251   3.829   0.969   2.553 -0.1091 -2.1821  0.0811
 5264SOL    HW227252   3.885   0.921   2.678  0.0558  1.9867  1.6101
 5265SOL     OW27253   2.564   2.468   5.001 -0.1400 -0.2365 -0.3274
 5265SOL    HW127254   2.603   2.499   4.918 -1.3113 -2.3204 -1.6388
 5265SOL    HW227255   2.592   2.377   4.993  2.2506  0.4891 -0.5580
 5266SOL     OW27256   1.977   4.507  14.596 -0.4745 -0.2679 -0.2181
 5266SOL    HW127257   2.046   4.496  14.531  0.6931  0.5961  0.8680
 5266SOL    HW227258   1.913   4.438  14.583  1.0024 -1.8775  0.9588
 5267SOL     OW27259   4.218   0.201   8.333  0.6583 -0.5562  0.2693
 5267SOL    HW127260   4.156   0.171   8.267 -0.1027  0.9403  0.2991
 5267SOL    HW227261   4.182   0.155   8.408 -0.9970 -0.3833 -0.4358
 5268SOL     OW27262   1.102   3.964   5.896  0.4510  0.2088 -0.5667
 5268SOL    HW127263   1.087   3.995   5.985 -1.9002 -1.1630 -0.4746
 5268SOL    HW227264   1.194   3.990   5.883  0.2797  0.7179 -0.7872
 5269SOL     OW27265   4.445   0.739  13.762 -0.0674  0.3462 -0.1305
 5269SOL    HW127266   4.358   0.725  13.800  0.1721 -1.2702 -0.1768
 5269SOL    HW227267   4.428   0.743  13.668 -0.1298 -0.0927 -0.1378
 5270SOL     OW27268   2.134   3.569   7.386 -0.8156  0.3785 -0.8871
 5270SOL    HW127269   2.122   3.549   7.293 -1.3206  1.0678 -0.9671
 5270SOL    HW227270   2.047   3.538   7.412 -2.1040  0.2303 -5.4178
 5271SOL     OW27271   0.488   4.448   6.598 -0.4948 -0.1660  0.0277
 5271SOL    HW127272   0.431   4.525   6.592 -2.0888 -1.3563 -0.2095
 5271SOL    HW227273   0.430   4.385   6.554 -1.0238  1.1575 -1.1778
 5272SOL     OW27274   1.369   0.738   8.138  0.1925 -0.3025  0.1320
 5272SOL    HW127275   1.413   0.658   8.165  1.1402  0.4723  0.8795
 5272SOL    HW227276   1.443   0.791   8.109  0.4792 -0.0154  1.3914
 5273SOL     OW27277   0.741   3.769   6.784 -0.5165  0.1084 -0.1407
 5273SOL    HW127278   0.684   3.692   6.787  1.5885 -1.4209  0.7163
 5273SOL    HW227279   0.722   3.796   6.694 -0.8040  1.7806  0.4182
 5274SOL     OW27280   4.386   3.235   5.398 -0.2892 -0.7817 -0.4979
 5274SOL    HW127281   4.391   3.232   5.494  0.6872  0.8878 -0.5083
 5274SOL    HW227282   4.291   3.246   5.391 -0.2446 -0.3143 -0.3279
 5275SOL     OW27283   0.491   1.427   5.958 -0.3254 -0.1055  0.4806
 5275SOL    HW127284   0.514   1.337   5.935  0.0431  0.4930 -1.5323
 5275SOL    HW227285   0.465   1.465   5.874  0.5038 -1.0317 -0.1989
 5276SOL     OW27286   3.499   3.822  11.832  0.4707  0.3421  0.2280
 5276SOL    HW127287   3.491   3.729  11.810  2.0492 -0.1405  1.7412
 5276SOL    HW227288   3.592   3.831  11.849  0.0327  0.5947  2.4993
 5277SOL     OW27289   0.017   1.313   8.195 -0.3660 -0.5890  0.4727
 5277SOL    HW127290   4.644   1.320   8.223 -1.2316  1.8028 -2.9727
 5277SOL    HW227291   0.016   1.332   8.101  0.3127 -1.0635  0.3713
 5278SOL     OW27292   0.233   0.012   1.970  0.1485  0.2896  0.3697
 5278SOL    HW127293   0.162   4.682   2.014  0.8930 -0.7828  0.3865
 5278SOL    HW227294   0.269   0.050   2.050 -1.9843 -2.8210  2.8031
 5279SOL     OW27295   0.189   2.829   7.057 -0.3804 -0.0654 -0.2668
 5279SOL    HW127296   0.189   2.736   7.078  1.3363  0.1172  0.5884
 5279SOL    HW227297   0.205   2.831   6.963 -1.5014 -1.1548 -0.4773
 5280SOL     OW27298   3.922   0.573   0.432 -0.0116 -0.3328  0.4829
 5280SOL    HW127299   3.969   0.647   0.394 -0.6359  0.7681  1.8342
 5280SOL    HW227300   3.905   0.598   0.523 -1.6276 -2.2111  0.6852
 5281SOL     OW27301   2.119   0.584   1.299 -0.3249  0.3137  0.3146
 5281SOL    HW127302   2.166   0.500   1.304  0.9671  1.2476  3.2920
 5281SOL    HW227303   2.199   0.629   1.273 -0.4878 -1.0423 -2.6233
 5282SOL     OW27304   3.711   1.658   7.302  0.2772  0.6242 -0.0743
 5282SOL    HW127305   3.729   1.752   7.305  1.4456  0.3808  0.7750
 5282SOL    HW227306   3.797   1.623   7.329  0.1974  1.4596  1.2392
 5283SOL     OW27307   0.909   3.715   8.307  0.1148  0.6730  0.4645
 5283SOL    HW127308   0.817   3.715   8.279  0.2491  0.5100  0.0167
 5283SOL    HW227309   0.908   3.628   8.348 -0.0349  0.4026 -0.1189
 5284SOL     OW27310   1.729   0.562   3.710 -0.2834 -0.0606  0.0494
 5284SOL    HW127311   1.729   0.474   3.673  0.2752  0.5540 -1.4271
 5284SOL    HW227312   1.720   0.617   3.631 -1.6184 -0.0943  0.1787
 5285SOL     OW27313   2.900   1.406   3.443 -0.8862 -0.1507  0.3077
 5285SOL    HW127314   2.991   1.384   3.427 -0.5525  0.7168  1.0099
 5285SOL    HW227315   2.901   1.439   3.533 -0.3613 -1.4751  0.7867
 5286SOL     OW27316   3.957   0.455  14.707 -0.8368  0.1183  0.1675
 5286SOL    HW127317   3.960   0.532  14.763  2.3296 -0.0922  0.2885
 5286SOL    HW227318   3.928   0.390  14.771  0.7444 -1.1711 -0.4267
 5287SOL     OW27319   3.944   3.041   1.439 -0.1804  0.1747 -0.2274
 5287SOL    HW127320   3.999   3.035   1.517 -0.8494 -0.2403  0.2171
 5287SOL    HW227321   4.006   3.007   1.375 -0.9634 -1.8398  0.0853
 5288SOL     OW27322   2.525   1.613   4.832  0.2169  0.3403 -0.0732
 5288SOL    HW127323   2.573   1.665   4.897  0.5377  0.2594 -0.2412
 5288SOL    HW227324   2.464   1.576   4.895  0.4693 -0.3261 -0.2201
 5289SOL     OW27325   3.809   3.506  16.428 -0.3796 -0.4131  0.3058
 5289SOL    HW127326   3.837   3.576  16.487 -2.8424  1.3323 -0.6406
 5289SOL    HW227327   3.729   3.470  16.465 -1.2954  0.8625 -0.4420
 5290SOL     OW27328   0.131   1.492  10.710 -0.1377  1.0775  0.2928
 5290SOL    HW127329   0.085   1.409  10.723  2.5964 -0.1667  2.1770
 5290SOL    HW227330   0.148   1.511  10.803 -1.7315 -1.6890  1.1744
 5291SOL     OW27331   0.972   2.058   8.371  0.0618 -0.3197  0.4284
 5291SOL    HW127332   0.883   2.090   8.385 -0.6025  0.3007 -5.3976
 5291SOL    HW227333   0.969   1.975   8.420  2.5791 -1.9493 -2.1592
 5292SOL     OW27334   1.315   3.267   5.495  0.2360 -0.6118  0.2440
 5292SOL    HW127335   1.266   3.348   5.503  0.9939 -0.3218  1.9658
 5292SOL    HW227336   1.305   3.257   5.400  0.8786 -0.4525  0.1628
 5293SOL     OW27337   0.481   1.872  15.811 -0.4875  0.5658  0.2830
 5293SOL    HW127338   0.554   1.871  15.873 -0.6245 -0.8182  0.4158
 5293SOL    HW227339   0.417   1.925  15.857 -0.9014  1.3309 -1.1708
 5294SOL     OW27340   1.107   4.551   5.105 -0.4808  0.5941 -0.9615
 5294SOL    HW127341   1.024   4.506   5.120  0.3737 -1.0421 -1.0665
 5294SOL    HW227342   1.094   4.633   5.152  1.5757 -0.3402  1.2509
 5295SOL     OW27343   2.105   3.777  11.303  0.6840 -0.2384 -0.0366
 5295SOL    HW127344   2.182   3.738  11.261  0.7079 -0.2272 -0.0032
 5295SOL    HW227345   2.142   3.853  11.348 -0.5797 -0.0446  0.6807
 5296SOL     OW27346   2.803   0.988   5.603 -1.0631  0.1237  0.5224
 5296SOL    HW127347   2.726   0.958   5.652  0.1355 -1.5612  1.3695
 5296SOL    HW227348   2.863   0.985   5.677  1.5068 -1.1812 -1.6389
 5297SOL     OW27349   3.182   0.159   1.301 -0.3067 -0.2540 -0.5293
 5297SOL    HW127350   3.143   0.244   1.321 -0.3982 -0.7101  1.1982
 5297SOL    HW227351   3.110   0.139   1.240  1.0191  0.0642 -2.1862
 5298SOL     OW27352   0.012   1.302  10.421 -0.3892  0.1688  0.7219
 5298SOL    HW127353   4.671   1.377  10.410 -3.3649 -2.4455 -1.2184
 5298SOL    HW227354   4.683   1.229  10.380  0.9227 -0.1123 -0.2700
 5299SOL     OW27355   3.572   0.980   6.824 -0.0932 -0.5574 -0.2412
 5299SOL    HW127356   3.608   0.977   6.736 -1.3042  0.2335 -0.7657
 5299SOL    HW227357   3.491   1.027   6.804 -1.0871 -1.5222  1.5234
 5300SOL     OW27358   3.736   0.292   3.401 -0.1906 -0.0698 -0.5637
 5300SOL    HW127359   3.784   0.370   3.375  0.0012 -0.1554 -0.4603
 5300SOL    HW227360   3.654   0.330   3.433 -0.6912 -1.8192  0.2505
 5301SOL     OW27361   3.964   2.130   2.984 -0.2344  0.1519 -0.3091
 5301SOL    HW127362   3.925   2.161   2.903 -0.0909  1.2371  0.0407
 5301SOL    HW227363   3.923   2.045   3.005 -0.9755  0.4215 -0.6522
 5302SOL     OW27364   3.890   0.002   5.716 -0.3829  0.1146 -0.8030
 5302SOL    HW127365   3.879   4.705   5.622 -2.5424 -1.0210 -0.3564
 5302SOL    HW227366   3.812   4.679   5.755  0.1664  0.8612  1.0735
 5303SOL     OW27367   4.166   0.929   5.375 -0.2462  0.0092 -0.5921
 5303SOL    HW127368   4.205   0.844   5.394  1.4680  1.0849  0.6404
 5303SOL    HW227369   4.081   0.911   5.335 -1.1612 -0.0322  1.4024
 5304SOL     OW27370   0.901   1.011   8.368  0.3017  0.1481 -0.0615
 5304SOL    HW127371   0.929   1.031   8.278 -2.8548 -0.5956 -1.1920
 5304SOL    HW227372   0.879   1.099   8.400  2.2432  0.2774  0.8832
 5305SOL     OW27373   1.900   1.324   1.201 -0.2322  0.0178  0.1128
 5305SOL    HW127374   1.890   1.262   1.274  1.2710 -0.9321 -0.4891
 5305SOL    HW227375   1.870   1.406   1.240 -0.1035  1.1662 -2.2034
 5306SOL     OW27376   4.711   2.548   2.322  0.4720  0.6111 -0.2004
 5306SOL    HW127377   4.680   2.565   2.233 -1.5059 -1.2011  0.1418
 5306SOL    HW227378   0.024   2.637   2.339 -0.4579  1.0666 -0.8628
 5307SOL     OW27379   2.287   1.297   4.328  0.6838 -0.9795  0.3818
 5307SOL    HW127380   2.292   1.289   4.233  0.8396  0.0484  0.3006
 5307SOL    HW227381   2.357   1.239   4.356  1.4127  0.4543  1.5753
 5308SOL     OW27382   3.655   3.434   3.488  0.5403 -0.4712  0.0378
 5308SOL    HW127383   3.585   3.369   3.488  0.4002 -0.3409 -1.6245
 5308SOL    HW227384   3.693   3.418   3.574  0.4817 -0.4204  0.0734
 5309SOL     OW27385   1.397   0.849   9.714  0.4359 -0.0294 -0.3051
 5309SOL    HW127386   1.428   0.760   9.730  0.9051  0.2742  0.4785
 5309SOL    HW227387   1.402   0.879   9.804  1.3779  0.8855 -0.6726
 5310SOL     OW27388   2.650   0.003  16.434 -0.3095  0.0702  0.3564
 5310SOL    HW127389   2.652   0.082  16.487 -1.2786  1.0239 -1.0375
 5310SOL    HW227390   2.699   0.038  16.359 -0.2065  0.6164  0.6784
 5311SOL     OW27391   3.334   2.993  16.866  0.5375  0.3041  0.0464
 5311SOL    HW127392   3.405   3.028  16.919  1.3597 -0.1671 -0.7630
 5311SOL    HW227393   3.291   2.936  16.931 -0.2518  0.0322 -0.7148
 5312SOL     OW27394   1.390   1.180   7.721 -0.4289 -0.1605 -0.8362
 5312SOL    HW127395   1.372   1.192   7.628  0.7742  1.6986 -0.8372
 5312SOL    HW227396   1.418   1.089   7.733  1.4028  0.4142 -0.7723
 5313SOL     OW27397   4.408   3.914   8.664 -0.1240 -0.4065  0.0319
 5313SOL    HW127398   4.437   3.943   8.577  2.1493 -0.0412  0.9059
 5313SOL    HW227399   4.324   3.869   8.657 -0.2085 -0.2360 -0.0731
 5314SOL     OW27400   2.000   3.502   7.939  0.7107 -0.2422  0.3802
 5314SOL    HW127401   2.059   3.519   7.866  1.2617 -1.1324  0.6057
 5314SOL    HW227402   2.060   3.508   8.014  0.3384 -0.7310  0.7181
 5315SOL     OW27403   1.638   1.553  10.802  0.0117  0.3663  0.8299
 5315SOL    HW127404   1.690   1.632  10.818  0.4393  0.8092 -2.7450
 5315SOL    HW227405   1.698   1.500  10.750  2.0687  1.6203  1.9038
 5316SOL     OW27406   0.430   3.866   7.154  0.5089  0.9710 -0.4654
 5316SOL    HW127407   0.499   3.800   7.160 -1.2210 -0.8910 -0.8208
 5316SOL    HW227408   0.443   3.926   7.227  1.0574 -0.4732  0.6173
 5317SOL     OW27409   3.415   3.478   7.386 -0.3615 -0.1450  0.2615
 5317SOL    HW127410   3.399   3.548   7.322 -0.1983 -1.1690 -0.8924
 5317SOL    HW227411   3.372   3.401   7.349  0.2629 -0.0488 -0.6642
 5318SOL     OW27412   2.124   3.481  11.412 -0.1969 -0.1498  0.1865
 5318SOL    HW127413   2.129   3.490  11.317 -0.4848 -1.3058  0.0555
 5318SOL    HW227414   2.032   3.457  11.421 -0.1262  0.0954  1.6010
 5319SOL     OW27415   1.314   0.129  11.971 -0.0366 -0.0838 -0.1622
 5319SOL    HW127416   1.276   0.063  11.914 -0.1964 -0.3427  0.2481
 5319SOL    HW227417   1.358   0.199  11.922  1.3577 -1.6374 -1.1172
 5320SOL     OW27418   4.269   2.757  15.044  0.0619 -0.4058  0.3444
 5320SOL    HW127419   4.324   2.679  15.041 -0.1056 -0.5942  1.8678
 5320SOL    HW227420   4.191   2.736  14.993  0.8116 -1.1256 -0.5019
 5321SOL     OW27421   1.835   2.121   6.704 -0.4634  0.5749 -0.3830
 5321SOL    HW127422   1.742   2.140   6.698 -0.8916 -1.7982 -1.0912
 5321SOL    HW227423   1.875   2.205   6.682  0.2546  0.7730  1.6658
 5322SOL     OW27424   3.900   3.584  10.809  0.5222 -0.2177  0.6111
 5322SOL    HW127425   3.862   3.640  10.876 -1.9392 -0.8815 -0.2311
 5322SOL    HW227426   3.888   3.631  10.727  1.7693 -1.5668 -0.3497
 5323SOL     OW27427   3.944   3.403   3.956  0.0613  0.2987 -0.0011
 5323SOL    HW127428   3.988   3.329   3.916 -0.1907 -1.2365  2.5746
 5323SOL    HW227429   3.998   3.482   3.947  0.4148 -0.1776 -1.9899
 5324SOL     OW27430   0.971   3.457  17.668 -0.0227  0.1261 -0.1177
 5324SOL    HW127431   0.921   3.528  17.628  1.1530  0.2932 -1.2798
 5324SOL    HW227432   0.916   3.379  17.654 -0.6126  0.4995  0.1502
 5325SOL     OW27433   0.698   1.803   7.204  0.2072  0.3742 -0.5500
 5325SOL    HW127434   0.617   1.755   7.220  0.0226  0.3993 -1.4178
 5325SOL    HW227435   0.729   1.776   7.118  2.6272 -1.0053  0.7612
 5326SOL     OW27436   3.656   3.618  17.424  0.5981 -0.5217 -0.7983
 5326SOL    HW127437   3.728   3.678  17.443  1.1508 -0.6818 -2.4061
 5326SOL    HW227438   3.675   3.577  17.340 -0.5371 -0.5259 -1.0476
 5327SOL     OW27439   1.217   0.888  10.326  0.4406  0.1253  0.3232
 5327SOL    HW127440   1.259   0.808  10.357  1.6274  1.3610  1.8834
 5327SOL    HW227441   1.128   0.884  10.361 -0.4135  0.4477 -1.8148
 5328SOL     OW27442   1.314   0.849   5.373 -0.3106 -0.2491  0.3104
 5328SOL    HW127443   1.383   0.902   5.333 -0.1310 -0.0873  0.8376
 5328SOL    HW227444   1.326   0.759   5.343 -1.5603 -0.5239  0.6115
 5329SOL     OW27445   2.215   0.943   9.149  0.4446 -0.4449 -0.7946
 5329SOL    HW127446   2.286   0.880   9.137  2.0850  1.1155  0.7842
 5329SOL    HW227447   2.172   0.920   9.231  0.3626  0.7362 -0.5068
 5330SOL     OW27448   3.447   0.931   2.454 -0.2247  0.8528  0.2157
 5330SOL    HW127449   3.370   0.917   2.510  1.4010 -0.7450  2.0635
 5330SOL    HW227450   3.400   0.917   2.372  1.9983 -1.7819 -0.6294
 5331SOL     OW27451   1.764   2.293   5.450 -0.1208 -0.0244  0.0943
 5331SOL    HW127452   1.840   2.237   5.437  0.0507  0.2962 -0.2647
 5331SOL    HW227453   1.740   2.317   5.361  0.5241  1.6098  0.3629
 5332SOL     OW27454   0.726   3.635   2.848 -0.0185  0.3809 -0.0074
 5332SOL    HW127455   0.660   3.567   2.835 -1.7769  2.4449 -1.7555
 5332SOL    HW227456   0.676   3.716   2.852  0.9101  0.9143  0.7621
 5333SOL     OW27457   0.360   2.239   5.124 -0.1058 -0.1471 -0.2325
 5333SOL    HW127458   0.348   2.250   5.029 -0.4634 -0.1216 -0.1825
 5333SOL    HW227459   0.278   2.278   5.152  0.9786  4.0001 -2.7934
 5334SOL     OW27460   1.477   4.416   3.935 -0.6301 -0.7611 -0.1410
 5334SOL    HW127461   1.571   4.405   3.920 -0.4780  0.0653  0.2028
 5334SOL    HW227462   1.445   4.377   3.854 -1.9943  1.1490 -0.5134
 5335SOL     OW27463   4.442   1.458   3.716 -0.2688  0.2924  0.1907
 5335SOL    HW127464   4.379   1.433   3.783 -0.3189 -0.2106 -0.0392
 5335SOL    HW227465   4.466   1.376   3.674 -1.4019 -0.0921  0.2961
 5336SOL     OW27466   3.777   3.699   6.620 -0.1738  0.1483  0.2145
 5336SOL    HW127467   3.689   3.736   6.614  0.1359  0.2936 -2.9049
 5336SOL    HW227468   3.748   3.611   6.594 -2.3028  0.4345  1.5683
 5337SOL     OW27469   0.567   3.359   5.276 -0.5323 -0.4301  0.6349
 5337SOL    HW127470   0.630   3.298   5.314  0.8020  1.6719  1.8203
 5337SOL    HW227471   0.492   3.324   5.324 -0.9014 -1.4368 -0.6911
 5338SOL     OW27472   3.742   1.670   4.197  0.0637 -0.0588  0.4719
 5338SOL    HW127473   3.781   1.644   4.113 -0.0776  0.5443  0.2167
 5338SOL    HW227474   3.691   1.592   4.219 -0.7863  0.1692 -0.6357
 5339SOL     OW27475   0.115   1.107   7.285 -0.2475  0.0985  0.4721
 5339SOL    HW127476   0.067   1.049   7.226  2.4765  0.1219 -1.7317
 5339SOL    HW227477   0.165   1.161   7.224  0.3969 -3.8088 -2.4372
 5340SOL     OW27478   2.228   1.497   3.694  0.0004  0.2008 -0.8251
 5340SOL    HW127479   2.152   1.474   3.641  1.0128 -1.4597 -1.5816
 5340SOL    HW227480   2.281   1.439   3.638 -1.1060 -1.3617 -0.2576
 5341SOL     OW27481   1.281   2.484  11.475 -0.0760 -0.0261  0.1501
 5341SOL    HW127482   1.345   2.554  11.485 -0.4316  0.6075 -2.0729
 5341SOL    HW227483   1.325   2.414  11.522  0.2812  0.9157  1.2098
 5342SOL     OW27484   2.452   1.603   8.820  1.1583 -0.0211 -0.7320
 5342SOL    HW127485   2.504   1.657   8.879  0.3812  0.4932 -0.5194
 5342SOL    HW227486   2.389   1.569   8.883  0.5736  1.4765 -0.5154
 5343SOL     OW27487   0.868   2.993   8.713  0.1649  0.0085  0.3840
 5343SOL    HW127488   0.894   2.934   8.642  1.2845 -1.2687  1.8640
 5343SOL    HW227489   0.846   2.935   8.786 -1.9055 -0.6503 -0.7680
 5344SOL     OW27490   3.999   4.014   2.379 -0.6450 -0.4682  0.6920
 5344SOL    HW127491   4.090   4.005   2.352  0.1372 -0.6507  3.4369
 5344SOL    HW227492   3.992   4.109   2.393 -0.2101 -0.2688 -0.4788
 5345SOL     OW27493   1.751   2.781   9.566 -0.2445 -0.1288 -0.5600
 5345SOL    HW127494   1.788   2.735   9.491 -1.0559 -0.1074 -0.9774
 5345SOL    HW227495   1.657   2.781   9.549 -0.5099 -2.2205  0.9637
 5346SOL     OW27496   1.344   2.737  15.419 -0.0004 -0.2010  0.1679
 5346SOL    HW127497   1.303   2.713  15.336 -0.8919  1.3631  0.1616
 5346SOL    HW227498   1.435   2.723  15.394  0.5681  2.0322  0.9817
 5347SOL     OW27499   2.826   0.131   4.073  0.4663  0.0882 -0.4790
 5347SOL    HW127500   2.731   0.123   4.075  0.3745  0.3565 -2.8000
 5347SOL    HW227501   2.833   0.219   4.109 -1.0285 -1.3781  3.2896
 5348SOL     OW27502   1.653   0.029   2.077  0.2850  0.0353  0.0297
 5348SOL    HW127503   1.622   0.089   2.009  2.1424  0.4812 -0.4132
 5348SOL    HW227504   1.588   4.676   2.074 -1.1778  1.3807  0.3754
 5349SOL     OW27505   4.092   2.946   8.173  0.0105 -0.4011  0.3969
 5349SOL    HW127506   4.147   2.901   8.108  0.6635 -1.9008  1.9820
 5349SOL    HW227507   4.108   3.037   8.150 -0.9932 -0.7014 -1.5125
 5350SOL     OW27508   4.685   4.395   2.682 -0.5420 -0.0285  0.0165
 5350SOL    HW127509   4.627   4.320   2.669 -0.1693 -0.7393  2.4547
 5350SOL    HW227510   4.708   4.382   2.775  0.7060 -0.7467 -0.3841
 5351SOL     OW27511   3.687   2.825   3.966 -0.3665  1.1339  0.2000
 5351SOL    HW127512   3.685   2.766   3.891  2.4169 -1.1177  1.9019
 5351SOL    HW227513   3.602   2.863   3.942 -1.3306  0.9234  3.2275
 5352SOL     OW27514   4.068   2.029  16.907  0.5230 -0.2926 -0.4921
 5352SOL    HW127515   4.091   2.087  16.979  2.0515 -0.2374 -1.0346
 5352SOL    HW227516   4.121   2.063  16.835  0.4587  1.4581  0.2874
 5353SOL     OW27517   1.500   0.346   3.873 -0.0341  0.0934 -0.0774
 5353SOL    HW127518   1.495   0.346   3.778  3.3371 -0.3358 -0.2535
 5353SOL    HW227519   1.467   0.260   3.899  0.0919 -0.3386 -1.3666
 5354SOL     OW27520   2.844   0.610   7.198 -0.0119 -0.0696  0.0286
 5354SOL    HW127521   2.797   0.646   7.123 -0.7019  1.2334  1.0762
 5354SOL    HW227522   2.782   0.549   7.239 -0.1465 -0.3239 -0.5497
 5355SOL     OW27523   1.914   2.071   9.306  0.1378  0.8412 -0.7503
 5355SOL    HW127524   1.942   2.021   9.383  0.8735  1.2747 -0.7356
 5355SOL    HW227525   1.843   2.016   9.272  0.9309 -2.0582  2.2412
 5356SOL     OW27526   2.834   3.052   7.558  0.4652 -0.2747  0.1589
 5356SOL    HW127527   2.799   2.966   7.533  0.5435  0.3658 -2.1899
 5356SOL    HW227528   2.895   3.032   7.629  1.2486  1.2096 -0.1021
 5357SOL     OW27529   2.130   1.357  11.922 -0.0856 -0.3890 -0.6530
 5357SOL    HW127530   2.121   1.452  11.933  3.2627 -0.0420 -0.8734
 5357SOL    HW227531   2.039   1.328  11.909 -0.5344  1.0809 -0.8716
 5358SOL     OW27532   3.744   4.397   8.912  0.1509 -0.5257  0.3863
 5358SOL    HW127533   3.823   4.344   8.920  1.1110  0.6273 -1.5054
 5358SOL    HW227534   3.686   4.328   8.882 -1.8945  1.1255  0.5227
 5359SOL     OW27535   0.029   4.024   1.615 -0.4274 -0.4262  0.2519
 5359SOL    HW127536   4.692   3.946   1.602  1.2332 -1.3402 -1.1444
 5359SOL    HW227537   0.116   3.983   1.611 -0.4861 -0.4557 -0.7653
 5360SOL     OW27538   2.501   4.657   8.324  0.2421 -0.0186 -0.0619
 5360SOL    HW127539   2.534   0.019   8.282  0.9541 -0.7520 -0.8841
 5360SOL    HW227540   2.514   4.687   8.415 -0.2794  1.2503 -0.4035
 5361SOL     OW27541   4.305   1.020  13.809 -0.3913  0.3938  0.2403
 5361SOL    HW127542   4.300   0.993  13.901  1.0248 -0.4698  0.0744
 5361SOL    HW227543   4.276   1.111  13.808 -1.3049  0.0826 -0.7426
 5362SOL     OW27544   1.692   2.034   9.034 -0.0429 -0.5442 -0.3135
 5362SOL    HW127545   1.764   2.018   8.972  0.3432 -1.7544  0.4495
 5362SOL    HW227546   1.646   2.104   8.987 -1.3228 -0.9308  0.3962
 5363SOL     OW27547   1.540   1.233   4.709  0.3191  0.1540  0.1927
 5363SOL    HW127548   1.498   1.179   4.777  1.5784 -0.7902  0.2184
 5363SOL    HW227549   1.624   1.253   4.750 -0.5864 -0.8152  2.5435
 5364SOL     OW27550   4.653   3.414   3.086 -0.1581 -0.5175 -0.4756
 5364SOL    HW127551   4.668   3.320   3.087  2.0212 -0.1564  1.7036
 5364SOL    HW227552   4.657   3.446   3.177 -0.8587 -3.5190  0.5920
 5365SOL     OW27553   2.650   4.584  14.943  0.0160  0.5353  0.1782
 5365SOL    HW127554   2.645   4.630  15.027 -0.3342  1.4783 -0.3633
 5365SOL    HW227555   2.716   4.514  14.950  1.5630  2.2467  2.6490
 5366SOL     OW27556   0.674   3.870   7.996  0.0013 -0.4437 -0.2315
 5366SOL    HW127557   0.605   3.927   7.963  0.1860  1.0498  1.9856
 5366SOL    HW227558   0.647   3.778   7.987 -1.8119  0.0805  0.0480
 5367SOL     OW27559   3.048   3.053  16.155 -0.0619 -0.8205 -0.1172
 5367SOL    HW127560   3.034   3.078  16.247 -0.3167  0.6899 -0.5683
 5367SOL    HW227561   2.956   3.064  16.131 -0.4491  0.8915  2.0750
 5368SOL     OW27562   2.951   2.627   3.492 -1.0110  0.6278  0.7390
 5368SOL    HW127563   2.943   2.541   3.450 -1.0634  0.4601  1.0934
 5368SOL    HW227564   2.956   2.607   3.585  1.0240 -1.1398  0.2600
 5369SOL     OW27565   1.335   1.602   3.263  0.9434  0.1996 -0.0858
 5369SOL    HW127566   1.265   1.638   3.318  0.5572  0.1363 -0.5426
 5369SOL    HW227567   1.358   1.683   3.219  3.0046 -0.6591 -0.5882
 5370SOL     OW27568   3.314   2.518   3.790 -0.2648  0.5020 -0.2870
 5370SOL    HW127569   3.248   2.554   3.731 -1.3027 -0.7082  0.1395
 5370SOL    HW227570   3.288   2.426   3.795 -0.3273  0.5017 -0.6303
 5371SOL     OW27571   1.722   2.577   3.951  0.5539  0.3369 -0.8248
 5371SOL    HW127572   1.738   2.667   3.923  1.7072  0.9069  1.5731
 5371SOL    HW227573   1.745   2.573   4.044 -1.2055  0.7671 -0.3820
 5372SOL     OW27574   4.478   3.518   5.146 -0.1202 -0.4538 -0.3343
 5372SOL    HW127575   4.533   3.510   5.223  1.6146 -0.2372 -1.5678
 5372SOL    HW227576   4.398   3.505   5.197 -0.3281 -1.1751 -0.8469
 5373SOL     OW27577   0.357   0.852   4.155  0.4120 -0.2918 -0.1733
 5373SOL    HW127578   0.402   0.919   4.207 -0.4776 -0.7512  1.2086
 5373SOL    HW227579   0.430   0.798   4.125 -0.0344 -0.5427 -0.7939
 5374SOL     OW27580   3.703   0.872   2.466 -0.4579 -0.1461  0.5111
 5374SOL    HW127581   3.614   0.902   2.449 -0.4810 -0.2313  0.4782
 5374SOL    HW227582   3.697   0.783   2.431 -1.5827 -0.4832  1.5354
 5375SOL     OW27583   4.177   1.606  17.133 -0.3306  0.3441 -0.1450
 5375SOL    HW127584   4.096   1.606  17.082  0.0016  3.2620 -0.6834
 5375SOL    HW227585   4.192   1.700  17.144  3.8302 -0.3084 -0.3181
 5376SOL     OW27586   4.558   3.861  17.201 -0.6993  0.6626  0.4898
 5376SOL    HW127587   4.637   3.811  17.222 -0.4101  1.0407  0.3080
 5376SOL    HW227588   4.499   3.788  17.181 -0.7340  1.3737 -1.9783
 5377SOL     OW27589   1.203   4.178   6.091  0.1122  0.2038  0.1831
 5377SOL    HW127590   1.233   4.162   6.001 -0.0081  2.2740 -0.2258
 5377SOL    HW227591   1.271   4.122   6.129  0.9658  0.6434 -0.6903
 5378SOL     OW27592   2.430   3.110   7.032 -0.3328 -0.1264  0.1948
 5378SOL    HW127593   2.497   3.101   7.099 -1.8682 -1.1178  1.6014
 5378SOL    HW227594   2.472   3.182   6.984 -0.2328  1.5419  2.8248
 5379SOL     OW27595   3.079   1.176   9.193  0.4341  0.6332 -0.5404
 5379SOL    HW127596   3.125   1.103   9.234 -2.5532  0.2443  2.2042
 5379SOL    HW227597   3.002   1.174   9.251  1.2306  0.4756  0.5047
 5380SOL     OW27598   4.147   2.092   3.226  0.4174 -0.3661  0.1590
 5380SOL    HW127599   4.128   2.000   3.248  2.3013 -0.6281  0.7170
 5380SOL    HW227600   4.125   2.087   3.133 -1.4030  0.0609  0.5730
 5381SOL     OW27601   4.666   3.332   5.816 -0.4489 -0.1400 -0.1506
 5381SOL    HW127602   4.621   3.400   5.866 -0.0978  0.6070 -0.8606
 5381SOL    HW227603   0.015   3.389   5.778  0.3683  0.7236  2.5715
 5382SOL     OW27604   0.784   0.678   3.986 -0.2382 -0.5361 -0.3813
 5382SOL    HW127605   0.833   0.748   4.030 -1.5193  0.9320 -1.3097
 5382SOL    HW227606   0.841   0.602   3.985 -0.3436 -0.6148 -0.2904
 5383SOL     OW27607   1.352   2.292   5.668  0.6363  0.4451  0.4533
 5383SOL    HW127608   1.446   2.292   5.685  0.9168 -1.9915 -1.1632
 5383SOL    HW227609   1.339   2.221   5.605 -0.4599  1.7967 -0.8467
 5384SOL     OW27610   0.144   2.279   7.171  0.3095  0.1831  0.3930
 5384SOL    HW127611   0.133   2.199   7.120  0.4632  0.8763 -0.7183
 5384SOL    HW227612   0.102   2.352   7.127 -1.8254 -0.7163  0.9367
 5385SOL     OW27613   3.701   3.386  10.510  0.0882  0.0800 -0.7947
 5385SOL    HW127614   3.696   3.399  10.604 -0.2745  2.0900 -1.1026
 5385SOL    HW227615   3.633   3.318  10.501  0.8274 -0.8903  1.0074
 5386SOL     OW27616   0.872   2.048   5.596  0.1854  0.0438 -0.6386
 5386SOL    HW127617   0.817   2.124   5.614 -0.6846 -0.1858 -2.3436
 5386SOL    HW227618   0.836   1.977   5.651 -0.1246  0.1581 -0.6954
 5387SOL     OW27619   0.862   0.864   9.068  0.1292 -0.1045  0.4129
 5387SOL    HW127620   0.893   0.838   8.981  2.2379  0.8856  0.8717
 5387SOL    HW227621   0.921   0.823   9.131 -0.1611 -0.0428  0.7270
 5388SOL     OW27622   4.071   4.615   7.644 -0.0445 -0.3676 -0.1026
 5388SOL    HW127623   4.018   4.536   7.640  2.1391 -1.5785 -4.5123
 5388SOL    HW227624   4.129   4.603   7.719  0.0808 -0.6952 -0.2530
 5389SOL     OW27625   0.057   4.031   4.891  0.5967  0.0657 -0.3131
 5389SOL    HW127626   0.073   3.954   4.836 -3.5852 -2.5948  2.1869
 5389SOL    HW227627   0.066   4.100   4.825  1.6524 -1.1812 -1.4696
 5390SOL     OW27628   2.753   3.630   6.637 -0.1273  0.4448 -0.0994
 5390SOL    HW127629   2.678   3.680   6.669  1.3181  1.8880  1.0220
 5390SOL    HW227630   2.727   3.540   6.659  0.1924  0.1268 -1.0015
 5391SOL     OW27631   4.197   4.575   2.564  0.2522 -0.1340  0.2096
 5391SOL    HW127632   4.278   4.596   2.612 -0.1753 -0.4337  1.0705
 5391SOL    HW227633   4.127   4.611   2.619  1.0951 -1.5432  2.2059
 5392SOL     OW27634   1.277   1.882  15.107  0.1169  0.6021  0.4549
 5392SOL    HW127635   1.207   1.819  15.085 -0.4739  1.8098 -1.1385
 5392SOL    HW227636   1.331   1.870  15.029 -0.2780 -1.6859  0.5225
 5393SOL     OW27637   1.894   3.135   7.176  0.7751 -0.4855 -0.0312
 5393SOL    HW127638   1.920   3.043   7.167  2.7839  0.2146 -1.3169
 5393SOL    HW227639   1.941   3.170   7.251  0.1187 -1.2478  0.7392
 5394SOL     OW27640   1.697   0.697  17.478 -0.3423 -0.6047 -0.4073
 5394SOL    HW127641   1.772   0.751  17.456 -0.1261 -0.4953  0.6092
 5394SOL    HW227642   1.738   0.610  17.479 -1.2279 -1.0037  1.5937
 5395SOL     OW27643   1.468   3.641   7.589 -0.3638 -0.5979  0.3328
 5395SOL    HW127644   1.374   3.637   7.571 -0.3708  1.6752 -0.0446
 5395SOL    HW227645   1.466   3.577   7.660 -0.8037 -0.6650  0.2607
 5396SOL     OW27646   3.944   3.530   2.720  0.3073 -0.3369  0.0714
 5396SOL    HW127647   3.958   3.530   2.815 -0.7777 -0.4883  0.2328
 5396SOL    HW227648   3.996   3.609   2.709  0.8811 -0.7191  0.0704
 5397SOL     OW27649   4.068   3.947   5.068 -0.3761  0.3064  0.5328
 5397SOL    HW127650   4.162   3.933   5.081 -0.5599  2.6146  4.4012
 5397SOL    HW227651   4.055   3.959   4.974  0.8084  0.8319  0.4411
 5398SOL     OW27652   2.577   4.208   8.129 -0.1962  0.6422 -0.1784
 5398SOL    HW127653   2.560   4.285   8.183 -3.0155  1.6216 -2.4355
 5398SOL    HW227654   2.669   4.220   8.108 -0.3766 -0.0038 -1.3564
 5399SOL     OW27655   2.483   3.925   7.575 -0.4621  0.1109 -0.1215
 5399SOL    HW127656   2.470   3.845   7.524 -0.9859 -0.5586  1.0563
 5399SOL    HW227657   2.554   3.903   7.636  0.5783  0.0252 -1.3610
 5400SOL     OW27658   1.383   4.416   1.928 -0.2778  0.1559  0.1277
 5400SOL    HW127659   1.398   4.355   1.856  3.4109 -0.0457  1.1013
 5400SOL    HW227660   1.318   4.476   1.890  1.2629  1.3132 -0.6575
 5401SOL     OW27661   0.663   3.415   3.320  0.1807  0.0526  0.6069
 5401SOL    HW127662   0.590   3.473   3.298  0.2281  0.0605  0.4717
 5401SOL    HW227663   0.723   3.485   3.346  0.9842 -0.1044 -0.8132
 5402SOL     OW27664   2.362   0.662   3.678 -0.2263 -0.2205  0.2942
 5402SOL    HW127665   2.297   0.623   3.738  1.1546 -2.1061  0.5659
 5402SOL    HW227666   2.348   0.754   3.697 -1.2568 -0.1884 -0.6214
 5403SOL     OW27667   2.241   2.135   4.117 -0.0585  0.1230 -0.0953
 5403SOL    HW127668   2.191   2.056   4.100  0.3771  0.5333 -3.4856
 5403SOL    HW227669   2.254   2.162   4.026 -2.6404 -0.5100 -0.6405
 5404SOL     OW27670   2.397   2.010   6.387  0.2398 -0.3663  0.7545
 5404SOL    HW127671   2.451   2.013   6.467 -1.2265 -2.5875  1.8124
 5404SOL    HW227672   2.435   1.937   6.337 -1.3400  0.0652 -1.0517
 5405SOL     OW27673   0.688   4.640   2.117 -0.0276  0.8280 -0.1887
 5405SOL    HW127674   0.612   4.585   2.097  0.4331  0.5786 -1.2861
 5405SOL    HW227675   0.665   4.713   2.059 -1.8132  1.9453  1.9153
 5406SOL     OW27676   3.771   0.661  17.543 -0.1598 -0.4806  0.1105
 5406SOL    HW127677   3.728   0.578  17.523 -2.9654  1.0010  0.0693
 5406SOL    HW227678   3.733   0.729  17.488 -1.5179 -1.7072 -0.4723
 5407SOL     OW27679   0.020   4.405   6.660  0.2745  0.0893  0.2543
 5407SOL    HW127680   0.039   4.408   6.754  0.7348  1.6135  0.1207
 5407SOL    HW227681   0.006   4.499   6.649 -0.7916 -0.1016  0.0373
 5408SOL     OW27682   2.747   0.305   7.917 -0.4277 -0.1635  0.2109
 5408SOL    HW127683   2.740   0.349   8.002  1.7956  1.1477 -0.2829
 5408SOL    HW227684   2.670   0.344   7.874 -1.1374 -2.6854 -0.7896
 5409SOL     OW27685   1.313   3.683  15.617 -0.2611  0.1786  0.3533
 5409SOL    HW127686   1.374   3.687  15.691  0.0896 -1.0266  0.1304
 5409SOL    HW227687   1.370   3.650  15.547 -0.3091  2.6404 -0.8594
 5410SOL     OW27688   3.785   4.014   2.189  0.5317  0.3151  0.1105
 5410SOL    HW127689   3.841   3.988   2.262 -0.4630  2.5032  1.6507
 5410SOL    HW227690   3.768   3.939   2.132  0.8109 -0.1191  0.5984
 5411SOL     OW27691   0.849   3.661   0.810 -0.0148 -0.3422  0.0960
 5411SOL    HW127692   0.798   3.622   0.881 -1.6970  0.5717 -0.6041
 5411SOL    HW227693   0.779   3.702   0.760 -1.8545 -1.8929  1.4033
 5412SOL     OW27694   1.603   1.828   7.359  0.5772 -0.3662  0.1029
 5412SOL    HW127695   1.610   1.913   7.403 -0.8634  0.0564 -0.4777
 5412SOL    HW227696   1.508   1.827   7.347  0.6222 -0.8075 -0.2245
 5413SOL     OW27697   0.448   3.380   8.965 -0.0297 -0.0018  0.6366
 5413SOL    HW127698   0.470   3.462   9.009 -1.4212  0.7886 -0.1300
 5413SOL    HW227699   0.424   3.323   9.037  1.4173  0.6397  1.6219
 5414SOL     OW27700   1.126   4.620   3.440  0.2627  0.1440 -0.4966
 5414SOL    HW127701   1.051   4.650   3.389 -0.5963  0.2176  0.8171
 5414SOL    HW227702   1.155   4.541   3.394 -3.3970 -1.2579 -0.3695
 5415SOL     OW27703   3.544   4.461   4.062 -0.1231 -0.1541  0.3534
 5415SOL    HW127704   3.628   4.468   4.016 -1.1476 -1.1728 -1.7300
 5415SOL    HW227705   3.564   4.379   4.107  1.6718 -0.2344 -0.5638
 5416SOL     OW27706   1.821   2.755  10.271  0.2124 -0.0529 -0.0081
 5416SOL    HW127707   1.892   2.799  10.224 -0.4228  1.9551  0.9298
 5416SOL    HW227708   1.760   2.753  10.198 -0.6524  1.3462  0.6703
 5417SOL     OW27709   4.524   3.440   1.422  0.0086  0.6509 -0.5038
 5417SOL    HW127710   4.516   3.535   1.432  0.9114  0.6483  0.1614
 5417SOL    HW227711   4.575   3.411   1.497  1.3027 -1.1482 -2.0553
 5418SOL     OW27712   4.673   1.729   7.767 -0.2823  0.0419  0.1247
 5418SOL    HW127713   0.012   1.727   7.844  0.2009  1.3722 -0.1820
 5418SOL    HW227714   4.592   1.723   7.816 -0.8491  1.4679 -0.6399
 5419SOL     OW27715   3.007   3.133   0.908 -0.0966 -0.3110 -1.1236
 5419SOL    HW127716   3.034   3.222   0.932  0.4424 -0.5506 -0.8358
 5419SOL    HW227717   2.990   3.138   0.814 -1.4777 -1.1775 -0.9130
 5420SOL     OW27718   0.767   1.570   3.335  0.0749 -0.0553 -0.0483
 5420SOL    HW127719   0.729   1.492   3.375  3.4749 -1.2482  0.9065
 5420SOL    HW227720   0.704   1.638   3.356  0.4240  0.4278 -0.5410
 5421SOL     OW27721   3.916   2.168   2.401  0.0340 -0.0835  0.4335
 5421SOL    HW127722   3.988   2.191   2.460 -0.4488 -0.6715  1.2590
 5421SOL    HW227723   3.836   2.173   2.455 -2.4467 -1.6609 -3.0890
 5422SOL     OW27724   2.330   4.123   8.072 -0.6770 -0.0548  0.1668
 5422SOL    HW127725   2.345   4.207   8.028  0.1798  0.1201  0.7927
 5422SOL    HW227726   2.420   4.105   8.099 -0.5411 -1.5956 -1.3203
 5423SOL     OW27727   0.923   3.103   2.253 -0.2617 -0.2258  0.3745
 5423SOL    HW127728   0.892   3.030   2.199  2.8194 -0.5249 -0.9742
 5423SOL    HW227729   0.958   3.060   2.331  0.9901 -0.8011 -0.5040
 5424SOL     OW27730   3.095   2.765   6.453 -0.1114 -0.4045  0.3008
 5424SOL    HW127731   3.054   2.775   6.367  1.8284 -1.4315 -0.7332
 5424SOL    HW227732   3.013   2.742   6.498 -0.3752  0.9801  0.5240
 5425SOL     OW27733   0.153   0.173   1.153 -0.0575  0.2266  0.1001
 5425SOL    HW127734   0.137   0.218   1.070  4.3695  0.9134 -0.3816
 5425SOL    HW227735   0.086   0.104   1.154  1.2664 -1.1208 -2.1276
 5426SOL     OW27736   3.197   1.544   7.002 -0.5331  0.2779  0.1433
 5426SOL    HW127737   3.198   1.608   7.074  3.2104  1.1529 -0.7062
 5426SOL    HW227738   3.290   1.549   6.980 -0.6445 -1.1165 -0.6012
 5427SOL     OW27739   4.385   2.456   7.987  0.6702  0.2529 -0.5260
 5427SOL    HW127740   4.380   2.438   7.893  0.4680  1.1016 -0.6749
 5427SOL    HW227741   4.480   2.451   7.999  0.7006  2.0489  0.0318
 5428SOL     OW27742   4.686   1.659   8.723 -0.4683  0.1899 -0.3700
 5428SOL    HW127743   4.661   1.620   8.806 -0.7549 -0.9981 -1.0189
 5428SOL    HW227744   4.602   1.704   8.714 -1.5934 -1.6312  1.1141
 5429SOL     OW27745   3.341   2.133  14.443  0.2132 -0.5927 -0.3958
 5429SOL    HW127746   3.383   2.191  14.379 -2.6386  2.6219  0.6380
 5429SOL    HW227747   3.417   2.107  14.496 -0.0701  1.4905  1.0196
 5430SOL     OW27748   1.808   3.799   3.859 -0.4392 -0.1661 -0.4093
 5430SOL    HW127749   1.826   3.764   3.772  3.1587  1.1705 -0.1851
 5430SOL    HW227750   1.814   3.894   3.849  0.1113 -0.2174 -0.5534
 5431SOL     OW27751   2.668   3.779  12.441  0.1079 -0.2772  0.5155
 5431SOL    HW127752   2.618   3.838  12.497  2.2445  1.4587  0.6086
 5431SOL    HW227753   2.700   3.840  12.375  0.9357  0.5682  1.7018
 5432SOL     OW27754   1.269   4.654  10.160  0.3016 -0.2963 -0.4341
 5432SOL    HW127755   1.226   4.570  10.148  0.7790 -0.2314 -2.6179
 5432SOL    HW227756   1.227   4.693  10.237 -0.1691 -0.6407 -0.5192
 5433SOL     OW27757   3.696   3.974  11.156 -0.5232 -0.5306 -0.0975
 5433SOL    HW127758   3.678   4.014  11.071 -0.1744 -1.0103 -0.3953
 5433SOL    HW227759   3.648   4.030  11.218  1.2174 -0.7159  1.4031
 5434SOL     OW27760   1.604   0.199   1.881 -1.2037 -0.1692  0.4491
 5434SOL    HW127761   1.509   0.200   1.895 -1.2044  1.4961  0.3301
 5434SOL    HW227762   1.617   0.285   1.840 -0.9770 -0.2411  0.3721
 5435SOL     OW27763   1.133   1.682   8.871  0.6013 -0.4750  0.2388
 5435SOL    HW127764   1.144   1.598   8.827 -0.4838 -0.7018  0.4155
 5435SOL    HW227765   1.062   1.661   8.932 -1.6923  2.4149 -1.4341
 5436SOL     OW27766   0.064   4.146   5.398 -0.2656 -0.1998  0.4539
 5436SOL    HW127767   4.686   4.144   5.404 -0.2638 -0.9301  0.2458
 5436SOL    HW227768   0.071   4.108   5.310 -0.0023 -0.7223  0.7020
 5437SOL     OW27769   0.449   0.563  17.606  0.3896  0.7016  0.4641
 5437SOL    HW127770   0.530   0.514  17.621  2.3644  3.1614 -2.1593
 5437SOL    HW227771   0.478   0.645  17.645 -0.3434  1.5441 -0.7433
 5438SOL     OW27772   0.485   2.258   6.965  0.3836  0.5617  0.5602
 5438SOL    HW127773   0.506   2.240   7.056 -0.9098 -1.4726  0.4603
 5438SOL    HW227774   0.499   2.174   6.921  0.2583  0.8350 -0.0082
 5439SOL     OW27775   2.910   3.413   5.740  0.0728 -0.3620 -0.2867
 5439SOL    HW127776   2.907   3.475   5.813 -1.9201 -0.1839 -0.5283
 5439SOL    HW227777   2.995   3.444   5.707  1.0339 -1.2214  1.3723
 5440SOL     OW27778   2.420   2.107   8.685 -0.3760  0.7476 -0.1098
 5440SOL    HW127779   2.482   2.105   8.758 -0.4961  0.5556 -0.0100
 5440SOL    HW227780   2.398   2.013   8.682  0.9913  0.4249 -0.2460
 5441SOL     OW27781   3.422   2.241  11.688 -0.5681 -0.1824  0.2153
 5441SOL    HW127782   3.447   2.271  11.601 -0.5039  0.2173  0.3742
 5441SOL    HW227783   3.454   2.151  11.684  1.3067  0.5236 -0.5396
 5442SOL     OW27784   0.095   2.578   7.127 -0.0647 -0.2524  0.1626
 5442SOL    HW127785   0.013   2.607   7.089 -0.0131 -1.4063 -0.8267
 5442SOL    HW227786   0.073   2.579   7.220 -1.0472 -0.5397 -0.0721
 5443SOL     OW27787   0.045   2.063   3.445 -0.4706  0.1633 -0.0198
 5443SOL    HW127788   0.101   2.006   3.392 -1.3078 -0.5447 -0.1225
 5443SOL    HW227789   0.059   2.140   3.389 -1.1856 -0.4082 -0.9667
 5444SOL     OW27790   0.615   3.416   2.742 -0.3973 -0.6577 -0.0001
 5444SOL    HW127791   0.521   3.412   2.729 -0.3834  1.2692 -0.6657
 5444SOL    HW227792   0.659   3.371   2.670 -0.4817 -0.6124 -0.0800
 5445SOL     OW27793   3.240   0.346   6.167 -0.6065  0.4639  0.3204
 5445SOL    HW127794   3.168   0.297   6.207 -1.4714 -0.2905 -2.1467
 5445SOL    HW227795   3.266   0.412   6.231  1.1577 -1.0234  1.1425
 5446SOL     OW27796   3.590   3.239  15.511 -0.6349  0.3717 -0.1786
 5446SOL    HW127797   3.576   3.333  15.526 -1.3412  0.0840  0.9498
 5446SOL    HW227798   3.521   3.213  15.572 -1.1338  3.5342  0.6470
 5447SOL     OW27799   3.675   3.657   6.222 -0.0728 -0.3763 -0.0554
 5447SOL    HW127800   3.646   3.748   6.224  2.1001  0.3270  0.0737
 5447SOL    HW227801   3.686   3.639   6.128  1.3901 -1.2771  0.2827
 5448SOL     OW27802   1.887   4.654   1.465  0.0622 -0.5583 -0.3131
 5448SOL    HW127803   1.845   4.683   1.546 -0.8890 -1.7475 -0.3802
 5448SOL    HW227804   1.907   0.025   1.433 -2.0158  0.1084  0.2286
 5449SOL     OW27805   3.987   1.060   4.357 -0.3157  0.3172 -0.1317
 5449SOL    HW127806   4.058   1.119   4.331  1.5884 -1.6635  0.4879
 5449SOL    HW227807   3.965   1.090   4.446 -0.0975  1.2015 -0.3820
 5450SOL     OW27808   3.579   2.364   4.098 -0.3096 -0.5037  0.3572
 5450SOL    HW127809   3.638   2.335   4.029  1.6022  0.6826  1.4888
 5450SOL    HW227810   3.633   2.345   4.174  0.2985 -0.4789 -0.0698
 5451SOL     OW27811   3.094   3.324  10.970  0.1811 -0.7762 -0.5173
 5451SOL    HW127812   3.088   3.229  10.982  1.0355 -0.9386 -1.4212
 5451SOL    HW227813   3.048   3.345  10.889 -0.3593 -0.5378 -0.1463
 5452SOL     OW27814   3.115   2.629   8.714  0.0347  0.0312  0.0461
 5452SOL    HW127815   3.117   2.659   8.623 -1.1576 -0.4260 -0.1308
 5452SOL    HW227816   3.042   2.686   8.739  0.9316  0.8782  0.7461
 5453SOL     OW27817   2.869   2.476   4.358  0.2486  0.4986  0.5774
 5453SOL    HW127818   2.871   2.404   4.422 -2.2119 -0.0423  0.0472
 5453SOL    HW227819   2.892   2.553   4.411 -1.1383  0.0073  1.8953
 5454SOL     OW27820   1.721   2.660  17.363  0.6625  0.0555 -0.0764
 5454SOL    HW127821   1.720   2.568  17.390 -0.5291  0.2648  0.6035
 5454SOL    HW227822   1.754   2.655  17.274 -0.5386  0.7939 -0.5505
 5455SOL     OW27823   1.238   0.830  15.579 -0.2641 -0.0069  0.0516
 5455SOL    HW127824   1.322   0.824  15.535 -0.8776 -0.2484 -1.0954
 5455SOL    HW227825   1.214   0.920  15.558  1.1692  0.5488  0.8383
 5456SOL     OW27826   0.935   1.122   8.047 -0.3041  0.1225  0.1000
 5456SOL    HW127827   1.012   1.179   8.051 -0.0969 -0.0960 -0.6814
 5456SOL    HW227828   0.967   1.032   8.042 -3.1511 -0.8443 -0.4485
 5457SOL     OW27829   2.350   3.292   1.893  0.1160 -0.3967  0.2452
 5457SOL    HW127830   2.277   3.312   1.835  0.5861 -1.7630 -0.8213
 5457SOL    HW227831   2.416   3.261   1.830 -0.6494 -0.8933 -0.3129
 5458SOL     OW27832   3.184   0.402   6.923  0.2376  0.0015  0.0223
 5458SOL    HW127833   3.205   0.445   7.006 -0.4796 -1.5147  0.9880
 5458SOL    HW227834   3.160   0.476   6.866 -1.0627 -0.1035  0.4257
 5459SOL     OW27835   0.399   4.173   8.004 -0.0683  0.5027 -0.3485
 5459SOL    HW127836   0.363   4.262   8.003  0.1943  0.5929 -3.1927
 5459SOL    HW227837   0.444   4.170   8.088  0.1079  1.1764 -0.4178
 5460SOL     OW27838   1.276   3.072   2.859 -0.2264  0.3080 -0.3609
 5460SOL    HW127839   1.196   3.119   2.882 -1.8422 -1.4553 -2.4141
 5460SOL    HW227840   1.226   3.005   2.813  0.6093  0.1214 -1.0021
 5461SOL     OW27841   0.427   0.073  14.976 -0.0929  0.2252 -0.4717
 5461SOL    HW127842   0.510   0.030  14.957 -0.1210  1.0861 -2.4495
 5461SOL    HW227843   0.383   0.015  15.039  1.9563 -1.0428 -0.2056
 5462SOL     OW27844   0.124   3.947   2.056 -0.3444 -0.0277 -0.2651
 5462SOL    HW127845   0.033   3.959   2.081 -0.5513  0.4468 -1.2732
 5462SOL    HW227846   0.112   3.866   2.007  1.6682 -0.4108 -0.1396
 5463SOL     OW27847   0.570   3.836  16.808 -0.0477 -0.1012 -0.1319
 5463SOL    HW127848   0.605   3.782  16.737  2.1984  1.2032 -0.0118
 5463SOL    HW227849   0.648   3.887  16.828  1.2391 -2.3420  0.5924
 5464SOL     OW27850   0.167   3.000  14.843  0.2837 -0.3564  0.2082
 5464SOL    HW127851   0.082   2.957  14.860 -1.5822  2.5009 -2.0705
 5464SOL    HW227852   0.188   2.958  14.760 -0.5480 -0.4236  0.0319
 5465SOL     OW27853   4.310   1.666   4.228  0.1602 -0.1008 -0.4397
 5465SOL    HW127854   4.372   1.623   4.170 -1.5481 -3.6555  0.4199
 5465SOL    HW227855   4.363   1.664   4.308 -0.4197 -0.2643 -0.0657
 5466SOL     OW27856   3.642   3.919   6.252  0.1246 -0.4877 -0.7414
 5466SOL    HW127857   3.689   3.987   6.203  1.1430 -0.0796  0.8061
 5466SOL    HW227858   3.659   3.960   6.336  1.4550 -2.8405  0.1343
 5467SOL     OW27859   0.429   3.350   2.008  0.3935 -0.3388 -0.6002
 5467SOL    HW127860   0.482   3.425   2.035 -0.0153 -0.1021 -0.4626
 5467SOL    HW227861   0.458   3.285   2.073 -2.5652 -1.0596 -0.0124
 5468SOL     OW27862   0.405   2.174  14.137  0.4525 -0.2088  0.1187
 5468SOL    HW127863   0.355   2.181  14.056 -1.7707  2.2944  1.7303
 5468SOL    HW227864   0.414   2.268  14.152  2.4426  0.0600 -2.7324
 5469SOL     OW27865   1.933   3.624   4.632 -0.2433 -0.2748  0.3957
 5469SOL    HW127866   2.018   3.600   4.595 -0.2035 -0.5553  0.6630
 5469SOL    HW227867   1.891   3.670   4.560  0.4477  1.1688  0.9136
 5470SOL     OW27868   4.258   0.821  17.628  0.0967  0.0591  0.7239
 5470SOL    HW127869   4.334   0.762  17.632  0.2833  0.5044  3.4932
 5470SOL    HW227870   4.180   0.770  17.604 -0.9615  1.5572  1.0067
 5471SOL     OW27871   2.231   4.320   7.430  0.4457 -0.2400 -0.0106
 5471SOL    HW127872   2.249   4.237   7.474 -1.8637  0.4681  2.2436
 5471SOL    HW227873   2.250   4.297   7.339 -2.2010 -1.2357 -0.3319
 5472SOL     OW27874   3.968   2.906  15.467  0.3432  0.0768 -0.1051
 5472SOL    HW127875   4.021   2.975  15.507 -0.1738  1.3663 -1.6217
 5472SOL    HW227876   4.012   2.903  15.382  0.4282  1.2403 -0.1010
 5473SOL     OW27877   3.623   2.511  14.207 -0.5144  0.2967  0.2330
 5473SOL    HW127878   3.706   2.537  14.167 -0.1396 -1.4462 -0.1527
 5473SOL    HW227879   3.636   2.550  14.293 -2.2283  0.5109  0.3948
 5474SOL     OW27880   0.466   3.505  15.887 -0.3518  0.4056 -0.3056
 5474SOL    HW127881   0.515   3.434  15.927 -0.0618  1.1658  0.6817
 5474SOL    HW227882   0.531   3.548  15.831  1.0778 -2.2772 -0.7053
 5475SOL     OW27883   1.008   0.767   8.538  0.2211  0.0872 -0.6339
 5475SOL    HW127884   1.008   0.840   8.476 -0.9645 -0.1208 -0.8825
 5475SOL    HW227885   0.986   0.692   8.482  0.2421 -1.1405  0.9787
 5476SOL     OW27886   4.166   3.134   2.167  0.0858  0.0731 -0.2677
 5476SOL    HW127887   4.186   3.163   2.256 -0.0706  0.8754 -0.4905
 5476SOL    HW227888   4.210   3.197   2.110 -0.3843  0.6761  0.0414
 5477SOL     OW27889   0.396   1.485   7.863  0.1288 -0.5408 -0.5187
 5477SOL    HW127890   0.471   1.542   7.880 -1.1443  0.4988  1.6373
 5477SOL    HW227891   0.404   1.479   7.768 -3.1993  1.4837 -0.9564
 5478SOL     OW27892   1.806   4.602  12.843  0.6368  0.5179  0.4288
 5478SOL    HW127893   1.860   4.676  12.870  2.6727 -1.0096  0.5270
 5478SOL    HW227894   1.868   4.564  12.781 -0.6212  0.5749 -0.8614
 5479SOL     OW27895   3.366   2.544   8.127  0.6330  0.4542 -0.1599
 5479SOL    HW127896   3.398   2.618   8.074  0.1109 -0.7835 -2.2068
 5479SOL    HW227897   3.271   2.561   8.126  0.2870 -1.4626  2.2087
 5480SOL     OW27898   1.232   2.435   6.663  0.5782  0.0995  0.3007
 5480SOL    HW127899   1.306   2.392   6.706  0.8436  0.2284 -0.0276
 5480SOL    HW227900   1.228   2.378   6.586 -2.4775 -1.6887  1.7821
 5481SOL     OW27901   3.425   3.302   2.354  0.2466 -0.1924 -0.3004
 5481SOL    HW127902   3.435   3.207   2.363  0.2922 -0.1532  0.0907
 5481SOL    HW227903   3.381   3.317   2.438 -0.6466 -0.6204 -0.6872
 5482SOL     OW27904   0.217   1.415   4.904  0.5180 -0.1967 -0.1951
 5482SOL    HW127905   0.213   1.510   4.894 -1.8376 -0.2466  0.3251
 5482SOL    HW227906   0.181   1.386   4.820  0.9277  1.7068 -1.0102
 5483SOL     OW27907   4.591   0.261   2.037  0.0806 -0.2900  0.3230
 5483SOL    HW127908   4.496   0.265   2.038  0.0789 -0.1209 -0.4966
 5483SOL    HW227909   4.609   0.196   1.970 -0.2015  0.8496 -0.8457
 5484SOL     OW27910   1.895   1.260   7.103  0.3696 -0.2631  0.4513
 5484SOL    HW127911   1.869   1.205   7.176 -0.8259 -0.3493 -0.0433
 5484SOL    HW227912   1.981   1.227   7.076  0.3744  2.0854 -2.4803
 5485SOL     OW27913   0.605   0.634   8.916  0.6721 -0.0378  0.0500
 5485SOL    HW127914   0.672   0.588   8.967  1.6820  0.5964 -0.7067
 5485SOL    HW227915   0.541   0.650   8.985 -1.1532 -0.7585 -1.4862
 5486SOL     OW27916   1.483   3.215   2.981  0.0448  0.5244 -0.7411
 5486SOL    HW127917   1.435   3.164   2.916 -1.3926  2.4629 -1.1945
 5486SOL    HW227918   1.478   3.297   2.932 -1.7257  0.9513  0.1649
 5487SOL     OW27919   0.927   2.232   4.813 -0.3181 -0.1761  0.6112
 5487SOL    HW127920   0.990   2.212   4.882 -0.7272  0.8491  1.2665
 5487SOL    HW227921   0.945   2.325   4.810  1.1483 -0.4924 -0.3259
 5488SOL     OW27922   0.179   1.999  16.984 -0.2619 -0.4164 -0.1408
 5488SOL    HW127923   0.235   2.056  17.037  0.0030 -0.9479  0.1543
 5488SOL    HW227924   0.246   1.951  16.936  0.1465  0.9905 -0.9834
 5489SOL     OW27925   1.768   4.350   5.045 -0.4028 -0.1742 -0.5064
 5489SOL    HW127926   1.817   4.269   5.059 -0.5243 -0.2253 -0.3782
 5489SOL    HW227927   1.688   4.304   5.018 -1.8358  2.3395 -0.5490
 5490SOL     OW27928   1.221   4.467   2.942  0.6010  0.0702  0.0926
 5490SOL    HW127929   1.236   4.502   2.854 -0.7160 -0.1580 -0.2245
 5490SOL    HW227930   1.256   4.379   2.931  1.2360  0.4006 -0.5157
 5491SOL     OW27931   0.366   2.041   0.296 -0.2460  0.6697  0.4723
 5491SOL    HW127932   0.414   2.035   0.379 -1.9040 -0.7559  1.3298
 5491SOL    HW227933   0.428   2.093   0.245  0.4017 -2.1154 -1.5607
 5492SOL     OW27934   1.839   0.908  11.003  0.3021  0.0271 -1.1462
 5492SOL    HW127935   1.887   0.831  11.034 -2.5324 -1.1083  0.3776
 5492SOL    HW227936   1.883   0.978  11.050  0.0955 -0.5593 -0.0790
 5493SOL     OW27937   0.847   1.892   2.469 -0.6249  0.0586  0.1901
 5493SOL    HW127938   0.781   1.827   2.446 -0.2584 -0.1106 -0.3879
 5493SOL    HW227939   0.909   1.889   2.396 -0.5303 -0.1084  0.2786
 5494SOL     OW27940   3.411   1.305  16.878 -1.3399 -0.5998  0.5852
 5494SOL    HW127941   3.487   1.329  16.931  0.2715 -0.4411 -1.7557
 5494SOL    HW227942   3.453   1.258  16.805 -0.4608  0.3739  0.4656
 5495SOL     OW27943   3.935   1.753   5.756 -0.3021 -0.6299  0.3125
 5495SOL    HW127944   3.900   1.802   5.830  0.3393 -1.0115  0.8630
 5495SOL    HW227945   4.014   1.717   5.794 -1.6052 -2.9777  0.7611
 5496SOL     OW27946   4.553   1.816   6.687 -0.2434  0.3227  0.3026
 5496SOL    HW127947   4.585   1.755   6.754 -1.6278 -0.6945  0.0389
 5496SOL    HW227948   4.586   1.899   6.722 -1.0917  0.4830  0.7089
 5497SOL     OW27949   3.026   0.242   6.756  0.0767 -0.0015 -0.5712
 5497SOL    HW127950   2.955   0.306   6.767  0.2656  0.2965 -1.0755
 5497SOL    HW227951   3.094   0.276   6.814 -1.0420  0.1866  0.6169
 5498SOL     OW27952   0.613   0.037   6.737  0.5938 -0.0423 -0.1828
 5498SOL    HW127953   0.660   4.682   6.696  1.9702 -0.4081  2.0590
 5498SOL    HW227954   0.533   0.044   6.684  0.3111 -3.6059 -0.2517
 5499SOL     OW27955   4.126   3.948  15.429  0.2118 -0.2934 -0.0773
 5499SOL    HW127956   4.036   3.952  15.461 -0.1512  0.6837 -1.2035
 5499SOL    HW227957   4.155   3.863  15.461  1.7386 -0.3085 -1.4836
 5500SOL     OW27958   3.576   0.569  14.111  0.3344  0.6683  0.3293
 5500SOL    HW127959   3.609   0.599  14.027 -1.4249 -2.9758 -1.6649
 5500SOL    HW227960   3.577   0.657  14.150 -1.1413  0.1655  1.4795
 5501SOL     OW27961   0.738   0.368  11.685 -0.0802 -0.3907 -0.1868
 5501SOL    HW127962   0.787   0.307  11.741  0.0494  0.5495  0.7077
 5501SOL    HW227963   0.777   0.358  11.598 -1.5065 -0.1270 -0.8551
 5502SOL     OW27964   1.202   1.976   4.434 -0.0153 -0.8514 -0.1318
 5502SOL    HW127965   1.227   1.970   4.526 -0.4442 -0.3249  0.0207
 5502SOL    HW227966   1.148   2.056   4.430  1.5163  0.1899  0.2436
 5503SOL     OW27967   2.329   0.520   1.807 -0.2216 -0.3150 -0.4148
 5503SOL    HW127968   2.404   0.568   1.772  1.1032 -2.1958 -0.0881
 5503SOL    HW227969   2.289   0.585   1.865  0.0519 -0.4709 -0.0499
 5504SOL     OW27970   0.451   1.475   2.684  0.5467 -0.3546 -0.3212
 5504SOL    HW127971   0.485   1.499   2.770 -0.3818  2.0477 -0.6350
 5504SOL    HW227972   0.421   1.385   2.690 -3.8037  1.0524 -1.1394
 5505SOL     OW27973   0.020   2.583   7.394 -0.3622  0.6710  0.4784
 5505SOL    HW127974   4.647   2.605   7.415 -1.3944  0.3544 -3.7301
 5505SOL    HW227975   0.063   2.598   7.478  0.2328 -1.7250  0.6053
 5506SOL     OW27976   4.129   1.510   0.367  0.0686  0.3856 -0.1074
 5506SOL    HW127977   4.176   1.538   0.446 -0.8560  0.2767  0.4766
 5506SOL    HW227978   4.129   1.415   0.378  0.6008  0.4656  0.6026
 5507SOL     OW27979   4.372   2.387   2.389  0.4519  0.0068 -0.4109
 5507SOL    HW127980   4.374   2.438   2.308 -1.5936 -0.2295 -0.6200
 5507SOL    HW227981   4.458   2.347   2.374  0.5755 -0.2202  0.8610
 5508SOL     OW27982   4.118   3.229   4.974  0.0148 -0.2951  0.5533
 5508SOL    HW127983   4.083   3.311   5.010 -0.3852 -0.2081 -0.0252
 5508SOL    HW227984   4.047   3.170   5.001  1.1395 -0.3601  3.3606
 5509SOL     OW27985   3.189   4.637  12.565  0.2586  0.5777  0.4423
 5509SOL    HW127986   3.103   4.663  12.599  2.1351  2.4235  3.8581
 5509SOL    HW227987   3.196   4.544  12.585 -2.8740  0.4680  0.9761
 5510SOL     OW27988   1.578   0.507  15.166 -0.0212  0.2204 -0.7470
 5510SOL    HW127989   1.597   0.601  15.163  2.1982 -0.2858 -2.0448
 5510SOL    HW227990   1.483   0.494  15.172 -0.2550  2.1935 -0.2481
 5511SOL     OW27991   0.136   2.358   2.518  0.2085 -0.0926 -0.6758
 5511SOL    HW127992   0.084   2.438   2.509 -1.5245 -0.9271  2.0432
 5511SOL    HW227993   0.146   2.344   2.423 -0.5914 -0.3581 -0.7242
 5512SOL     OW27994   4.577   3.470   8.262 -0.8632 -0.8437  0.2498
 5512SOL    HW127995   4.620   3.433   8.339 -0.8466 -0.7382  0.2913
 5512SOL    HW227996   4.638   3.536   8.230 -0.3134 -2.1198 -1.3676
 5513SOL     OW27997   0.182   4.585   1.586 -0.2030  0.2937 -0.2015
 5513SOL    HW127998   0.154   4.502   1.623 -0.1099 -0.5972 -2.1256
 5513SOL    HW227999   0.221   4.562   1.501  1.8999  0.7618  0.6346
 5514SOL     OW28000   3.748   3.481   8.320  0.2700  0.1128  0.5339
 5514SOL    HW128001   3.750   3.549   8.253  0.1730 -0.3219  0.0907
 5514SOL    HW228002   3.769   3.522   8.404 -2.9412  0.2576  1.2821
 5515SOL     OW28003   1.976   1.322   5.153 -0.5716 -0.4269  0.0195
 5515SOL    HW128004   1.960   1.316   5.248  2.0298  0.3856  0.4902
 5515SOL    HW228005   1.993   1.232   5.124 -0.5527 -0.3747 -0.1284
 5516SOL     OW28006   0.820   3.266  13.558 -0.2867 -0.2559 -0.4240
 5516SOL    HW128007   0.909   3.294  13.577  0.1389 -1.5840 -0.4663
 5516SOL    HW228008   0.815   3.202  13.628  1.2369 -0.4763 -0.5190
 5517SOL     OW28009   0.464   4.071   8.631 -0.0460  0.2384 -0.5653
 5517SOL    HW128010   0.533   4.107   8.575 -0.4757  0.1760 -1.1335
 5517SOL    HW228011   0.479   4.115   8.715  1.7373 -1.5623  0.0481
 5518SOL     OW28012   3.925   3.091  16.963 -0.5840 -0.1559  0.0310
 5518SOL    HW128013   3.864   3.135  17.023 -0.6108 -1.1565  0.7286
 5518SOL    HW228014   3.966   3.026  17.020  0.7579  0.7066  0.0432
 5519SOL     OW28015   1.113   0.283   1.128 -0.6861 -0.9119  0.2619
 5519SOL    HW128016   1.084   0.206   1.177 -0.6080 -2.0173 -1.4508
 5519SOL    HW228017   1.167   0.250   1.057 -1.8299 -0.1173 -0.9774
 5520SOL     OW28018   2.330   3.114  14.863 -0.5566  0.5257 -0.2849
 5520SOL    HW128019   2.274   3.037  14.857  1.1136 -0.7576  0.6047
 5520SOL    HW228020   2.389   3.098  14.790 -1.9460  1.6229 -1.6640
 5521SOL     OW28021   1.942   0.208  10.228  0.5401 -0.7431  0.6053
 5521SOL    HW128022   1.886   0.270  10.274 -0.7287 -2.6862  1.7178
 5521SOL    HW228023   1.879   0.188  10.159  0.8556  1.7639 -0.3837
 5522SOL     OW28024   1.010   3.350   5.755  0.1072  0.0683 -0.1422
 5522SOL    HW128025   1.031   3.257   5.757 -1.3110 -0.1588  3.1785
 5522SOL    HW228026   1.073   3.383   5.691 -1.2193  2.6318 -0.1335
 5523SOL     OW28027   4.561   1.799   5.763  0.0205  0.3614 -0.4946
 5523SOL    HW128028   4.567   1.758   5.849 -1.5489  0.2016 -0.4596
 5523SOL    HW228029   4.637   1.857   5.757  2.0530 -2.0127  2.2260
 5524SOL     OW28030   4.397   1.284   1.201 -0.2482  0.0778  0.5379
 5524SOL    HW128031   4.356   1.352   1.147  0.1450 -2.1384 -2.5673
 5524SOL    HW228032   4.486   1.314   1.220 -1.2584  1.4937  3.0325
 5525SOL     OW28033   1.804   1.452   7.729 -0.6017 -0.5415 -0.0845
 5525SOL    HW128034   1.804   1.484   7.819 -1.2535  0.7542 -0.5506
 5525SOL    HW228035   1.723   1.400   7.732 -1.5823  0.9295 -0.9502
 5526SOL     OW28036   1.861   0.052   1.113  0.0993  0.4890 -0.0229
 5526SOL    HW128037   1.889   0.104   1.188  0.7566  0.3369 -0.1636
 5526SOL    HW228038   1.767   0.061   1.124  0.0536  2.2935 -2.0802
 5527SOL     OW28039   3.409   2.337   6.913 -0.1264  0.3564  0.7468
 5527SOL    HW128040   3.314   2.328   6.917  0.0400 -1.4438  0.8838
 5527SOL    HW228041   3.406   2.430   6.936  1.3936  0.7152 -0.4800
 5528SOL     OW28042   2.707   0.654   4.091 -0.3316  0.0914 -0.3740
 5528SOL    HW128043   2.751   0.728   4.133 -0.9441  1.7246 -2.6182
 5528SOL    HW228044   2.622   0.692   4.069 -1.8993 -2.6133  0.9863
 5529SOL     OW28045   2.790   4.443   9.501 -1.0273 -0.0283  0.0258
 5529SOL    HW128046   2.721   4.395   9.546 -0.7173  0.4571  1.0064
 5529SOL    HW228047   2.860   4.378   9.504 -0.8114  0.2185  0.2886
 5530SOL     OW28048   0.711   4.681   4.643 -0.1156  0.1216 -0.1117
 5530SOL    HW128049   0.629   4.652   4.603 -0.1898  0.5351 -0.2616
 5530SOL    HW228050   0.772   4.685   4.569 -1.2537 -1.7179 -1.1510
 5531SOL     OW28051   2.724   1.290  10.953  0.1330  0.3723  0.3092
 5531SOL    HW128052   2.714   1.309  11.046 -3.8919 -0.9874  0.1461
 5531SOL    HW228053   2.692   1.199  10.958  1.0142 -0.0840 -2.3813
 5532SOL     OW28054   3.912   1.123   7.710  0.2309  0.8282 -0.3475
 5532SOL    HW128055   3.947   1.042   7.672  1.6458  0.8266  0.9393
 5532SOL    HW228056   3.819   1.100   7.715 -0.2788  3.1174  0.8401
 5533SOL     OW28057   0.181   2.945   5.861  0.1677  0.8100  0.3690
 5533SOL    HW128058   0.218   2.897   5.935  1.1724 -0.9527 -1.2886
 5533SOL    HW228059   0.238   3.022   5.859  0.4723  0.5592 -0.9711
 5534SOL     OW28060   1.455   3.438   6.145  0.4127  0.0940  0.2214
 5534SOL    HW128061   1.459   3.394   6.060 -0.9328  0.4329 -0.0173
 5534SOL    HW228062   1.366   3.421   6.174  0.7822 -1.0882  0.6496
 5535SOL     OW28063   3.542   4.424   8.099 -0.6638 -0.0412  0.4611
 5535SOL    HW128064   3.523   4.507   8.055  3.0029  0.3705 -0.3557
 5535SOL    HW228065   3.619   4.393   8.051 -0.0122 -0.1764  1.5928
 5536SOL     OW28066   2.868   0.662   9.138  0.4425 -0.0672 -0.5642
 5536SOL    HW128067   2.842   0.676   9.229 -3.5700 -0.9753 -1.5957
 5536SOL    HW228068   2.937   0.726   9.118  1.2347 -1.3485 -1.8991
 5537SOL     OW28069   4.494   3.016   5.272 -0.0928  0.1323  0.2857
 5537SOL    HW128070   4.453   3.093   5.311 -0.6088 -0.2773  0.5355
 5537SOL    HW228071   4.442   3.001   5.193 -1.7411  2.5040  0.9307
 5538SOL     OW28072   1.361   1.275   6.064  0.3342 -1.1269  0.0490
 5538SOL    HW128073   1.403   1.356   6.037  1.9753 -2.1022 -0.2837
 5538SOL    HW228074   1.361   1.289   6.159 -1.6738  0.9112 -0.2571
 5539SOL     OW28075   0.704   3.172   6.413  0.5689  0.1439 -0.4481
 5539SOL    HW128076   0.795   3.148   6.429  0.1894 -1.1762 -0.2709
 5539SOL    HW228077   0.717   3.199   6.323  0.8678  1.7293  0.0702
 5540SOL     OW28078   2.929   4.142   6.031 -0.4494  0.2316 -0.2386
 5540SOL    HW128079   3.004   4.201   6.037  1.1900 -1.7592 -0.9645
 5540SOL    HW228080   2.889   4.199   5.966 -0.3457 -0.6101 -1.0556
 5541SOL     OW28081   2.041   0.563   6.994  0.2999 -0.0244 -0.2861
 5541SOL    HW128082   2.123   0.515   6.977  0.6763  0.7121 -0.5563
 5541SOL    HW228083   2.058   0.606   7.077  1.1354 -3.1088  1.1493
 5542SOL     OW28084   3.193   1.239   1.293 -0.4504 -0.7289  0.4396
 5542SOL    HW128085   3.221   1.228   1.202  2.9853 -0.3287  1.4450
 5542SOL    HW228086   3.167   1.331   1.298  4.8309  0.7668  0.5750
 5543SOL     OW28087   0.853   0.616   0.337 -0.5719  0.6985 -0.5305
 5543SOL    HW128088   0.947   0.606   0.326 -0.4144  0.2831  1.3112
 5543SOL    HW228089   0.849   0.710   0.321  0.4401  0.5751 -1.5416
 5544SOL     OW28090   2.173   0.542   4.126 -0.4182  0.1477 -0.0866
 5544SOL    HW128091   2.229   0.616   4.149 -1.3831  0.8530  0.0265
 5544SOL    HW228092   2.085   0.571   4.151  0.6169  1.8309  1.5743
 5545SOL     OW28093   0.503   4.002   7.831 -0.3004  0.0735  0.1721
 5545SOL    HW128094   0.536   4.075   7.779  0.3655 -0.4361 -0.1239
 5545SOL    HW228095   0.444   4.052   7.888 -1.2391 -1.0795  0.2157
 5546SOL     OW28096   0.007   1.443  12.247 -0.8438  0.2886  0.4278
 5546SOL    HW128097   0.047   1.512  12.194 -1.3253 -0.2073 -0.5711
 5546SOL    HW228098   0.056   1.453  12.329  1.7800 -0.4270 -1.0489
 5547SOL     OW28099   2.782   1.990  16.218 -0.0853 -0.4112  0.4007
 5547SOL    HW128100   2.705   1.996  16.275 -0.0280  0.0433  0.4303
 5547SOL    HW228101   2.826   1.921  16.268 -0.1788 -0.2569  0.7008
 5548SOL     OW28102   0.166   1.826   2.756  0.0473 -0.2093 -0.1552
 5548SOL    HW128103   0.214   1.865   2.683  0.3008 -2.0919 -0.9977
 5548SOL    HW228104   0.073   1.826   2.735  0.3905 -1.4507 -1.6638
 5549SOL     OW28105   2.507   0.754   8.116 -0.0780 -0.6792 -0.4885
 5549SOL    HW128106   2.587   0.741   8.166 -0.7646  2.7474  1.4656
 5549SOL    HW228107   2.473   0.839   8.145  2.4241 -0.2411  1.1551
 5550SOL     OW28108   2.078   2.250   7.595 -0.1701 -0.2223  0.1250
 5550SOL    HW128109   2.066   2.340   7.623  1.6332  0.5293 -1.5185
 5550SOL    HW228110   2.023   2.196   7.651  0.3243 -0.1107  0.7139
 5551SOL     OW28111   0.931   1.566   6.526 -0.2251 -0.4137 -0.3072
 5551SOL    HW128112   0.882   1.543   6.605 -2.2029  1.4371 -0.9917
 5551SOL    HW228113   0.975   1.486   6.498 -1.8034 -1.7453  1.0426
 5552SOL     OW28114   1.773   2.079   7.424 -0.1287  0.0522 -0.1633
 5552SOL    HW128115   1.848   2.134   7.448 -1.1643  0.9644  1.0422
 5552SOL    HW228116   1.759   2.100   7.332 -1.0535 -1.4073 -0.3532
 5553SOL     OW28117   0.870   0.100   4.125 -0.4808 -0.0308 -0.2739
 5553SOL    HW128118   0.847   0.090   4.032 -2.5138  1.4549  0.0768
 5553SOL    HW228119   0.785   0.106   4.167 -1.4280 -3.9945 -1.6510
 5554SOL     OW28120   0.780   4.368   8.919 -0.0390 -0.1663  0.2964
 5554SOL    HW128121   0.700   4.318   8.936  1.7870 -2.9594  0.8264
 5554SOL    HW228122   0.747   4.455   8.899 -0.7701 -0.5699 -0.2711
 5555SOL     OW28123   4.640   0.192   6.554 -0.4952  0.2902 -0.0894
 5555SOL    HW128124   4.570   0.204   6.490 -0.7541  0.7967  0.2921
 5555SOL    HW228125   4.674   0.281   6.563 -2.3900  0.8626  1.2028
 5556SOL     OW28126   3.144   2.736   7.920 -0.3758 -0.2130  0.0548
 5556SOL    HW128127   3.146   2.663   7.981  1.3405  0.5108  0.8402
 5556SOL    HW228128   3.108   2.805   7.975  1.6494  0.5093  0.4442
 5557SOL     OW28129   3.283   3.522   2.246 -0.1532 -0.0369  0.1417
 5557SOL    HW128130   3.317   3.457   2.308 -3.4732 -1.8868  0.0569
 5557SOL    HW228131   3.323   3.606   2.266  1.9339 -1.2201  0.9671
 5558SOL     OW28132   2.624   0.307   7.583 -0.3521  0.3546  0.7276
 5558SOL    HW128133   2.569   0.358   7.643 -1.1314  1.1334 -0.6288
 5558SOL    HW228134   2.556   0.246   7.555 -0.2385  1.0191 -0.9875
 5559SOL     OW28135   3.987   2.196   6.292 -0.3961 -0.1586 -0.2057
 5559SOL    HW128136   3.970   2.134   6.220  1.3690  1.4921 -2.0421
 5559SOL    HW228137   4.045   2.256   6.245  3.4555 -1.4743  2.8799
 5560SOL     OW28138   3.028   1.731   0.579  0.2783  0.3481 -0.5269
 5560SOL    HW128139   3.068   1.808   0.620  1.0719 -0.3461 -0.0069
 5560SOL    HW228140   3.100   1.668   0.583  0.6382  0.6632 -1.9840
 5561SOL     OW28141   0.564   4.492   7.814 -0.1174  0.2784 -0.0660
 5561SOL    HW128142   0.638   4.479   7.755 -0.2636 -1.0185  0.0377
 5561SOL    HW228143   0.589   4.571   7.863  1.9510  0.4588 -1.4459
 5562SOL     OW28144   4.408   1.279  17.432 -0.0321  0.1388  0.5888
 5562SOL    HW128145   4.327   1.244  17.471 -0.9677 -1.3658 -2.7450
 5562SOL    HW228146   4.382   1.331  17.356  2.3267  1.6573  0.8373
 5563SOL     OW28147   2.171   3.820  15.597  0.1471 -0.4639 -0.0166
 5563SOL    HW128148   2.249   3.868  15.568 -0.2930  2.2334  3.2547
 5563SOL    HW228149   2.103   3.884  15.579 -0.3360 -1.6129 -2.3051
 5564SOL     OW28150   2.777   1.574   3.065  0.2788  0.2099 -0.7129
 5564SOL    HW128151   2.809   1.663   3.076  0.8665 -0.1421  0.4127
 5564SOL    HW228152   2.686   1.589   3.093  0.1295 -4.1452  1.2101
 5565SOL     OW28153   3.161   3.604   3.896  0.1715  0.0468  0.1598
 5565SOL    HW128154   3.148   3.642   3.983  0.6021 -1.9453  1.0939
 5565SOL    HW228155   3.173   3.515   3.929  3.5851  0.1041 -1.0083
 5566SOL     OW28156   3.965   3.518   2.991 -0.0796 -0.5426 -0.0513
 5566SOL    HW128157   3.938   3.432   3.023 -0.5796 -0.4500 -0.2258
 5566SOL    HW228158   3.930   3.575   3.059  0.1932 -0.1939 -0.2018
 5567SOL     OW28159   0.972   3.621   8.630 -0.0564  0.3360 -0.8612
 5567SOL    HW128160   1.024   3.564   8.687 -0.8999 -0.5330 -0.9537
 5567SOL    HW228161   1.017   3.705   8.632  3.4184 -1.5832  1.8659
 5568SOL     OW28162   1.756   0.909  11.804 -0.7139  0.4432 -0.5308
 5568SOL    HW128163   1.728   0.843  11.741 -2.8412  1.0427 -0.2019
 5568SOL    HW228164   1.719   0.990  11.770 -1.1803  0.2894 -0.3880
 5569SOL     OW28165   2.447   1.631   3.962 -0.4715  0.0049  0.3091
 5569SOL    HW128166   2.386   1.680   3.908  0.2350  0.4529 -0.0812
 5569SOL    HW228167   2.487   1.704   4.010 -0.9423  0.5426 -0.1265
 5570SOL     OW28168   1.223   4.594   7.983  0.5916 -0.2543 -0.4100
 5570SOL    HW128169   1.171   4.619   7.907 -0.1031  0.4945  0.3117
 5570SOL    HW228170   1.205   4.500   7.974  0.6990 -0.2461 -0.6987
 5571SOL     OW28171   2.750   0.816   8.780  0.2645  0.1875  0.3621
 5571SOL    HW128172   2.830   0.808   8.728 -0.4023  2.1702 -0.9388
 5571SOL    HW228173   2.734   0.725   8.806  0.8964 -0.0050  0.0889
 5572SOL     OW28174   3.466   1.484  13.080  0.1317  0.1617  0.4752
 5572SOL    HW128175   3.513   1.432  13.015  0.6422 -0.7985  1.6229
 5572SOL    HW228176   3.420   1.405  13.109  0.9396 -0.9224 -1.2395
 5573SOL     OW28177   4.601   1.270   1.545 -0.4679 -0.1632  0.4007
 5573SOL    HW128178   4.606   1.208   1.617 -2.1868  0.3156  0.9421
 5573SOL    HW228179   4.507   1.270   1.525 -0.4146 -0.2096  0.1450
 5574SOL     OW28180   4.519   2.915  14.190  0.1843 -0.3035 -0.0015
 5574SOL    HW128181   4.561   2.966  14.259 -0.8056 -1.0877  1.1552
 5574SOL    HW228182   4.475   2.982  14.138 -1.6926 -1.9992 -0.5718
 5575SOL     OW28183   3.105   0.562   7.171  0.2715 -0.3037 -0.4292
 5575SOL    HW128184   3.009   0.563   7.170  0.2839  0.5167 -0.1320
 5575SOL    HW228185   3.116   0.657   7.173  3.1551 -0.6062 -2.1022
 5576SOL     OW28186   2.269   4.018   1.940  0.0227 -0.2733  0.1179
 5576SOL    HW128187   2.175   4.020   1.921 -0.1395  0.1331  0.9886
 5576SOL    HW228188   2.280   3.934   1.986  0.6288  1.2642  2.7559
 5577SOL     OW28189   1.907   3.162   6.494  0.6124 -0.1390  0.0266
 5577SOL    HW128190   1.991   3.142   6.536  0.6207 -0.7266 -0.2841
 5577SOL    HW228191   1.922   3.257   6.488  2.9045 -0.5360 -0.8343
 5578SOL     OW28192   4.300   3.259   5.736 -0.5350  0.1001 -0.1264
 5578SOL    HW128193   4.204   3.256   5.736 -0.5326 -0.4205  1.6495
 5578SOL    HW228194   4.320   3.203   5.811 -1.0545  1.7948  1.2821
 5579SOL     OW28195   1.960   0.547   8.301 -0.2859 -0.0165 -0.7188
 5579SOL    HW128196   1.970   0.468   8.247 -3.2347  0.5413 -2.0765
 5579SOL    HW228197   2.039   0.594   8.273  0.3034  0.6712  2.0616
 5580SOL     OW28198   1.921   2.142   6.237  0.0636 -0.0140  0.0752
 5580SOL    HW128199   2.012   2.139   6.266 -0.3700  1.1530  1.5977
 5580SOL    HW228200   1.874   2.194   6.303  1.4419 -0.8351  1.6808
 5581SOL     OW28201   1.437   4.311   3.672  0.4370 -0.2076 -0.5820
 5581SOL    HW128202   1.517   4.334   3.625  1.0012 -1.7163 -0.3614
 5581SOL    HW228203   1.384   4.273   3.601 -1.2111  1.6415 -0.3274
 5582SOL     OW28204   0.099   0.809  13.691 -0.1977  0.0951 -0.5003
 5582SOL    HW128205   0.119   0.773  13.605 -1.6938  1.4221 -1.3942
 5582SOL    HW228206   0.099   0.730  13.745  1.4899 -0.9390 -2.0086
 5583SOL     OW28207   0.918   2.371   3.296  0.0894  0.0605 -0.3622
 5583SOL    HW128208   1.014   2.379   3.297  0.1257 -0.3627  0.6241
 5583SOL    HW228209   0.916   2.290   3.244  0.7601 -0.8633  1.0404
 5584SOL     OW28210   0.781   0.316   6.448  0.0712 -0.2529  0.5189
 5584SOL    HW128211   0.868   0.352   6.464  0.1675 -0.5806  0.7345
 5584SOL    HW228212   0.753   0.312   6.539  0.4411 -1.2167  0.5822
 5585SOL     OW28213   3.332   4.355   4.430  0.2538  0.2664 -0.1826
 5585SOL    HW128214   3.344   4.344   4.336  1.4213 -0.9831  0.1129
 5585SOL    HW228215   3.406   4.304   4.463  1.5687  1.2889 -1.6069
 5586SOL     OW28216   1.515   0.112   4.236 -0.3114  0.0069 -0.2705
 5586SOL    HW128217   1.451   0.133   4.303 -1.4024 -0.1400 -1.2686
 5586SOL    HW228218   1.477   0.038   4.189  1.0749 -1.7983  1.4851
 5587SOL     OW28219   3.018   3.404  16.307  0.0746  0.8033 -0.1566
 5587SOL    HW128220   3.102   3.409  16.352 -1.1120 -1.0122  2.2618
 5587SOL    HW228221   2.960   3.452  16.366 -0.9170 -0.0198 -0.4531
 5588SOL     OW28222   0.570   1.516   5.455  0.6085 -0.3383 -0.1948
 5588SOL    HW128223   0.495   1.465   5.423 -0.7876  1.3322  0.4014
 5588SOL    HW228224   0.568   1.592   5.397 -0.4768 -1.4697 -1.6541
 5589SOL     OW28225   0.107   2.717   4.924 -0.1194  0.0546 -0.3031
 5589SOL    HW128226   0.088   2.811   4.920 -3.2940 -0.6110 -0.8483
 5589SOL    HW228227   0.195   2.711   4.962  0.7807 -1.3289 -2.5917
 5590SOL     OW28228   3.572   1.335   6.769 -0.2472  0.0206 -0.4406
 5590SOL    HW128229   3.516   1.411   6.755  0.3929  0.8118  1.2954
 5590SOL    HW228230   3.539   1.279   6.699 -1.5855  0.3935 -0.0969
 5591SOL     OW28231   3.499   2.608  17.027  0.1826  0.0854 -0.2085
 5591SOL    HW128232   3.498   2.569  16.940 -1.2814 -0.4031  0.0407
 5591SOL    HW228233   3.565   2.553  17.069  0.8502  1.3586  0.4271
 5592SOL     OW28234   2.363   1.004   8.233 -0.3503 -0.5948  0.8242
 5592SOL    HW128235   2.385   0.940   8.301 -1.9285 -1.6304  0.3750
 5592SOL    HW228236   2.402   1.088   8.257 -2.8667  0.7231  0.3524
 5593SOL     OW28237   4.081   3.274   9.015 -0.3160  0.3915 -0.1156
 5593SOL    HW128238   4.049   3.343   9.072 -1.5672  0.1776 -0.5692
 5593SOL    HW228239   4.105   3.325   8.937  1.1086  0.8160  0.6030
 5594SOL     OW28240   4.583   3.892   8.398 -0.4306  0.4107  0.4051
 5594SOL    HW128241   4.625   3.975   8.419 -0.4973  0.8327 -1.0825
 5594SOL    HW228242   4.611   3.884   8.307  0.0521 -0.0210  0.5942
 5595SOL     OW28243   2.323   4.493   9.254 -0.6485 -0.0299 -0.2833
 5595SOL    HW128244   2.264   4.563   9.284 -1.7724 -2.0760  2.2463
 5595SOL    HW228245   2.367   4.473   9.337 -2.6217  1.8323  1.2419
 5596SOL     OW28246   1.900   4.016   5.561 -0.2331  0.8395 -0.5316
 5596SOL    HW128247   1.830   4.034   5.499  0.3910  1.0704 -1.1657
 5596SOL    HW228248   1.890   3.922   5.576 -1.0208  1.2576  1.6029
 5597SOL     OW28249   4.395   1.514   5.049 -0.2023  0.6129 -0.2205
 5597SOL    HW128250   4.381   1.606   5.027 -0.9213  0.5215 -0.1496
 5597SOL    HW228251   4.397   1.503   5.144 -2.0744 -0.2701 -0.2871
 5598SOL     OW28252   0.877   1.725  12.471  0.3869 -0.3293 -0.2124
 5598SOL    HW128253   0.955   1.706  12.419  0.9391  2.2883 -0.3825
 5598SOL    HW228254   0.820   1.753  12.400 -1.1595 -1.5430  0.5504
 5599SOL     OW28255   2.342   2.791   0.394 -0.2399 -0.1490 -0.2363
 5599SOL    HW128256   2.359   2.864   0.453 -1.2905  0.3831 -0.5865
 5599SOL    HW228257   2.271   2.740   0.431 -0.1240 -0.4860 -0.4771
 5600SOL     OW28258   1.942   2.569  10.440  0.2014 -0.5158  0.1219
 5600SOL    HW128259   1.995   2.532  10.369 -2.9896 -2.3771 -1.2970
 5600SOL    HW228260   1.906   2.638  10.384  2.6286 -0.2290 -1.1086
 5601SOL     OW28261   3.757   2.635   6.127  0.8619  0.1290 -0.2161
 5601SOL    HW128262   3.696   2.561   6.132 -0.6034  1.4295  1.4066
 5601SOL    HW228263   3.836   2.588   6.151 -0.4840 -1.7806  0.4489
 5602SOL     OW28264   4.396   3.342   6.752 -0.4614  0.0273  0.0373
 5602SOL    HW128265   4.322   3.401   6.765  1.2047  1.9153  0.9146
 5602SOL    HW228266   4.468   3.386   6.798  0.2725 -0.6231 -0.4916
 5603SOL     OW28267   3.370   3.291   9.110  0.0194 -0.1154  0.3442
 5603SOL    HW128268   3.459   3.278   9.078 -0.0666  0.3839 -0.0933
 5603SOL    HW228269   3.328   3.230   9.049  0.5266 -0.8440  0.7260
 5604SOL     OW28270   0.814   0.137  15.951  0.1086  0.2109  0.3556
 5604SOL    HW128271   0.788   0.065  15.894 -1.8665  0.6246  0.7265
 5604SOL    HW228272   0.725   0.166  15.972 -0.6768 -2.8696  1.2442
 5605SOL     OW28273   0.705   4.200   2.632  0.2004 -0.2508  0.5031
 5605SOL    HW128274   0.633   4.183   2.571  0.5667 -2.7541  0.7900
 5605SOL    HW228275   0.779   4.219   2.575 -0.4696 -2.2119 -1.0060
 5606SOL     OW28276   2.879   4.065  12.438  0.5043  0.4024 -0.1048
 5606SOL    HW128277   2.883   4.107  12.353  1.3128  5.1337  2.2955
 5606SOL    HW228278   2.786   4.069  12.461  0.9773  0.9079  1.6908
 5607SOL     OW28279   1.413   2.100  12.042 -0.3519 -0.6269 -0.0728
 5607SOL    HW128280   1.418   2.192  12.019 -0.4778 -0.1991  1.6408
 5607SOL    HW228281   1.323   2.090  12.074 -1.1858 -0.9097 -2.4772
 5608SOL     OW28282   0.566   4.593   1.409 -0.3148 -0.2382  0.8687
 5608SOL    HW128283   0.503   4.643   1.357 -0.4066  0.2122  1.4089
 5608SOL    HW228284   0.509   4.519   1.428  0.9362 -1.8427 -1.6130
 5609SOL     OW28285   1.854   4.111  12.390  0.0136  0.5258  0.4968
 5609SOL    HW128286   1.776   4.166  12.399 -2.4043 -3.0467  1.5198
 5609SOL    HW228287   1.804   4.029  12.391  1.4702 -0.3620  0.2771
 5610SOL     OW28288   4.025   4.579  13.671 -0.4431 -0.0727 -0.0468
 5610SOL    HW128289   3.999   4.498  13.715 -1.7470 -0.4798 -1.5674
 5610SOL    HW228290   4.113   4.546  13.656  0.0710  0.6775  1.3218
 5611SOL     OW28291   3.913   2.098  15.270 -0.2528 -0.1401 -0.4800
 5611SOL    HW128292   3.924   2.015  15.222  1.0665  0.5006 -1.2946
 5611SOL    HW228293   3.860   2.070  15.344 -2.5841 -1.3889 -2.6424
 5612SOL     OW28294   4.438   1.116  11.854 -0.3141 -0.2546  0.2607
 5612SOL    HW128295   4.473   1.172  11.924  0.5375  0.4699 -0.7464
 5612SOL    HW228296   4.415   1.178  11.784 -2.1413 -1.4052 -0.1574
 5613SOL     OW28297   4.047   1.996   5.287 -0.1048 -0.1569 -0.1225
 5613SOL    HW128298   3.960   1.995   5.248  0.1235 -2.7109 -0.6358
 5613SOL    HW228299   4.078   2.079   5.250 -0.4546  0.4767  1.0239
 5614SOL     OW28300   1.772   0.351   6.359 -0.0087 -0.0336  0.3456
 5614SOL    HW128301   1.737   0.428   6.404  1.4924  1.0262 -0.3091
 5614SOL    HW228302   1.800   0.291   6.428 -1.4527 -0.4373  0.5771
 5615SOL     OW28303   4.212   3.998   4.521 -0.0024  0.0132  0.1042
 5615SOL    HW128304   4.293   3.965   4.560  0.8399  1.9487  0.0203
 5615SOL    HW228305   4.205   3.948   4.439 -0.7214  3.0955 -1.7049
 5616SOL     OW28306   4.413   1.470   4.706 -0.1478 -0.2124 -0.7960
 5616SOL    HW128307   4.468   1.547   4.720 -0.4568  0.0759 -1.2173
 5616SOL    HW228308   4.422   1.433   4.794 -1.0000 -1.1075 -1.0864
 5617SOL     OW28309   2.592   3.295   1.767  0.6219  0.5030  0.5507
 5617SOL    HW128310   2.633   3.370   1.810  0.6447 -0.0008  1.4183
 5617SOL    HW228311   2.664   3.273   1.709 -0.1420  0.8299 -0.5068
 5618SOL     OW28312   0.200   0.022   6.148  0.8838  0.0237 -0.0115
 5618SOL    HW128313   0.195   0.009   6.243  1.2936  0.9515  0.1408
 5618SOL    HW228314   0.127   0.081   6.128  1.7202  0.6203 -1.2384
 5619SOL     OW28315   0.796   4.586   6.351 -0.5165  0.0902  0.2954
 5619SOL    HW128316   0.745   4.666   6.343 -0.8344 -0.4214 -3.0016
 5619SOL    HW228317   0.797   4.577   6.446 -2.0821 -1.8600  0.1299
 5620SOL     OW28318   4.044   3.874  11.943  0.1113  0.1357 -0.2131
 5620SOL    HW128319   4.048   3.928  12.022 -1.4732  1.7683 -1.2540
 5620SOL    HW228320   4.070   3.950  11.891  0.2854 -0.9380 -1.7009
 5621SOL     OW28321   1.811   2.159   4.950  0.1465 -0.6082 -0.2985
 5621SOL    HW128322   1.903   2.154   4.974  0.0468 -2.5273 -0.3184
 5621SOL    HW228323   1.789   2.229   5.011  0.9792  0.0734 -0.7876
 5622SOL     OW28324   4.434   3.470   5.623  0.3392 -0.1934  0.0805
 5622SOL    HW128325   4.386   3.405   5.673  0.8299  0.8070  1.8727
 5622SOL    HW228326   4.490   3.510   5.690  1.2554  0.5451 -1.1188
 5623SOL     OW28327   0.042   4.439   2.932  0.1095  0.1654  0.4769
 5623SOL    HW128328   0.045   4.519   2.985 -0.8830  1.6450 -1.6855
 5623SOL    HW228329   0.118   4.387   2.960 -0.5893  0.7068  3.4033
 5624SOL     OW28330   1.984   1.432   3.563 -0.0232  0.0020  0.8064
 5624SOL    HW128331   2.045   1.424   3.490  1.9657  3.5691  2.0930
 5624SOL    HW228332   1.947   1.344   3.558  1.7966 -0.8544  2.9385
 5625SOL     OW28333   1.394   1.566   5.951  0.3463 -0.1646 -0.2834
 5625SOL    HW128334   1.490   1.559   5.953  0.3035  0.4139  2.8785
 5625SOL    HW228335   1.385   1.660   5.934 -1.8532 -0.4886 -0.9474
 5626SOL     OW28336   1.021   0.296   4.600  0.5628 -0.5958 -0.1127
 5626SOL    HW128337   1.111   0.328   4.608  0.4733  0.0363 -1.5872
 5626SOL    HW228338   0.992   0.317   4.511 -1.0155  0.1008  0.5634
 5627SOL     OW28339   0.146   4.599   2.580 -0.2990 -0.6108  0.2113
 5627SOL    HW128340   0.216   4.569   2.638  0.5167 -0.8399 -0.8963
 5627SOL    HW228341   0.073   4.544   2.609 -0.3614 -2.3438 -3.1500
 5628SOL     OW28342   0.911   3.082   6.568 -0.5464  0.0572 -0.8904
 5628SOL    HW128343   0.954   3.155   6.613 -1.7823  1.2438 -1.6472
 5628SOL    HW228344   0.884   3.033   6.645  1.7654  0.6307  0.2771
 5629SOL     OW28345   3.804   1.595  11.887 -0.0341  0.3189  0.3097
 5629SOL    HW128346   3.808   1.619  11.979  2.0044  0.2312  0.2429
 5629SOL    HW228347   3.842   1.507  11.890 -0.6345  0.0459 -0.1759
 5630SOL     OW28348   1.418   1.467   5.109 -0.1557  0.2837  0.2351
 5630SOL    HW128349   1.426   1.475   5.204 -0.2442 -0.4623  0.3106
 5630SOL    HW228350   1.396   1.374   5.100  1.3044 -0.2994  2.5185
 5631SOL     OW28351   2.837   0.268   3.377 -0.2738  0.1173  0.5261
 5631SOL    HW128352   2.791   0.292   3.297  2.0960 -0.0114 -0.8787
 5631SOL    HW228353   2.759   0.264   3.432 -1.7755  1.5055 -1.5016
 5632SOL     OW28354   1.648   1.035  15.212  0.5790  0.4398  0.1746
 5632SOL    HW128355   1.688   1.112  15.173 -0.2357  0.5406 -0.4907
 5632SOL    HW228356   1.570   1.067  15.257  1.3798  0.3847  1.5864
 5633SOL     OW28357   0.549   4.243   8.239  0.3985  0.0974 -0.3389
 5633SOL    HW128358   0.600   4.239   8.320  1.1558  3.8674 -0.6302
 5633SOL    HW228359   0.502   4.326   8.239  0.5012  0.1556 -0.2705
 5634SOL     OW28360   3.323   2.348   0.901  0.1894 -0.3814  0.2203
 5634SOL    HW128361   3.337   2.435   0.864  0.1051  0.7772  2.9947
 5634SOL    HW228362   3.396   2.337   0.961 -0.4746  2.2471  1.4652
 5635SOL     OW28363   3.395   4.034   7.062  0.1566 -0.4274 -0.2473
 5635SOL    HW128364   3.485   4.029   7.095 -0.2763 -0.5855  0.9072
 5635SOL    HW228365   3.350   4.099   7.116  2.3069  1.6845 -0.9798
 5636SOL     OW28366   3.932   2.768  10.758 -1.1118 -0.6372 -0.3344
 5636SOL    HW128367   3.972   2.688  10.793  0.8962  0.4926 -0.0369
 5636SOL    HW228368   3.840   2.755  10.783 -1.0750 -3.0946 -1.4977
 5637SOL     OW28369   1.610   2.780   7.607 -0.1249 -0.3375 -0.0696
 5637SOL    HW128370   1.657   2.747   7.683  0.7071  2.6726  0.7086
 5637SOL    HW228371   1.658   2.862   7.600 -0.4434 -0.1392  0.0489
 5638SOL     OW28372   1.456   1.660   9.960  0.6011 -0.2226  0.6560
 5638SOL    HW128373   1.466   1.565   9.961 -0.2972 -0.3396 -1.0356
 5638SOL    HW228374   1.475   1.678   9.868 -1.0417 -2.0428 -0.0429
 5639SOL     OW28375   1.487   0.486  11.600 -0.0515 -0.2638  0.0729
 5639SOL    HW128376   1.501   0.573  11.637 -3.4267 -0.1083  0.9781
 5639SOL    HW228377   1.547   0.478  11.526 -2.9644 -0.8740 -2.2514
 5640SOL     OW28378   4.612   1.751  10.918  0.1929  0.1630  0.1938
 5640SOL    HW128379   4.568   1.760  11.002  0.8576 -0.2207  0.5792
 5640SOL    HW228380   4.582   1.835  10.882  0.0495 -1.0587 -2.5744
 5641SOL     OW28381   2.738   2.590  11.838 -0.4481 -0.0060 -0.8912
 5641SOL    HW128382   2.723   2.670  11.789 -2.1314  1.2269  1.6323
 5641SOL    HW228383   2.729   2.520  11.774 -1.0732 -0.6137 -0.1530
 5642SOL     OW28384   0.787   2.714   6.631 -0.2744  0.0530  0.6860
 5642SOL    HW128385   0.760   2.744   6.544  0.2037 -1.1525  0.1155
 5642SOL    HW228386   0.875   2.683   6.607 -0.5721  0.0802 -0.4220
 5643SOL     OW28387   0.528   1.232  14.173  0.1209 -0.1158  0.1358
 5643SOL    HW128388   0.580   1.270  14.102  0.1048 -0.7869 -0.2331
 5643SOL    HW228389   0.448   1.284  14.185 -0.1861 -0.9705  1.7606
 5644SOL     OW28390   4.418   0.588  11.630 -0.0115  0.5858 -0.6926
 5644SOL    HW128391   4.369   0.615  11.552  0.4895  2.5906 -0.2939
 5644SOL    HW228392   4.429   0.678  11.660  0.2630  0.6459 -0.9647
 5645SOL     OW28393   4.335   2.007   3.653 -0.2584  0.6108  0.1228
 5645SOL    HW128394   4.267   1.941   3.658 -1.8752  2.3118  0.4520
 5645SOL    HW228395   4.277   2.074   3.617  0.3678  1.4429  0.6481
 5646SOL     OW28396   1.856   3.640  11.361  0.0574  0.1667 -0.0907
 5646SOL    HW128397   1.937   3.667  11.404 -0.1329  1.0917 -0.3156
 5646SOL    HW228398   1.816   3.727  11.365 -0.4246 -0.0445 -0.2822
 5647SOL     OW28399   4.421   4.409   2.343 -0.0087 -0.4539  0.0530
 5647SOL    HW128400   4.379   4.366   2.268 -0.3212  1.0494 -0.6351
 5647SOL    HW228401   4.372   4.382   2.421  2.5478  0.8830  2.1174
 5648SOL     OW28402   2.638   3.617   6.095  0.2639  0.4181  0.4717
 5648SOL    HW128403   2.577   3.544   6.084 -0.2616  0.9905 -0.4745
 5648SOL    HW228404   2.685   3.614   6.011 -2.1292 -0.2830 -0.8359
 5649SOL     OW28405   2.679   3.054   3.061  0.1242  1.1128 -0.2951
 5649SOL    HW128406   2.772   3.076   3.057 -0.0239  2.2842  3.0826
 5649SOL    HW228407   2.664   3.102   2.979  3.1243  1.7353 -0.4783
 5650SOL     OW28408   1.736   3.870  14.869  0.2820  0.5172 -0.0073
 5650SOL    HW128409   1.814   3.821  14.843 -0.0654 -1.7316  3.1859
 5650SOL    HW228410   1.726   3.939  14.804 -2.0798 -1.3339 -1.6035
 5651SOL     OW28411   3.826   4.269   3.612  0.7257  0.2743 -0.1505
 5651SOL    HW128412   3.904   4.233   3.654 -0.6350  0.5531  2.5569
 5651SOL    HW228413   3.862   4.295   3.527  3.0164 -0.1109  0.7107
 5652SOL     OW28414   1.054   2.815   0.657  0.4239 -0.6352  0.5387
 5652SOL    HW128415   1.130   2.835   0.711 -1.2929  1.5818  2.1287
 5652SOL    HW228416   1.047   2.896   0.608  1.5831 -1.3343 -0.7865
 5653SOL     OW28417   3.618   1.317   6.341  0.2746 -0.1911 -0.0870
 5653SOL    HW128418   3.692   1.357   6.386 -1.0996  4.0572 -1.5969
 5653SOL    HW228419   3.549   1.290   6.402  2.1443 -2.0998  1.1575
 5654SOL     OW28420   2.494   1.943  11.427  0.0330  0.4723 -0.3507
 5654SOL    HW128421   2.453   1.876  11.481 -0.3792 -0.3944 -1.7447
 5654SOL    HW228422   2.426   2.010  11.433 -2.0757 -1.4587 -3.1762
 5655SOL     OW28423   0.811   0.732   5.285  0.2155  0.3878 -0.5654
 5655SOL    HW128424   0.753   0.807   5.295 -1.1112 -0.4096 -2.3532
 5655SOL    HW228425   0.896   0.776   5.290 -0.7549  2.0813  1.1749
 5656SOL     OW28426   1.089   1.829  17.657  0.3326 -0.2231  0.0721
 5656SOL    HW128427   1.168   1.879  17.636  0.7969 -0.2342  1.7844
 5656SOL    HW228428   1.131   1.747   0.011 -2.1293 -1.5542 -0.1172
 5657SOL     OW28429   4.014   0.251   0.548  0.0872  0.5082 -0.2496
 5657SOL    HW128430   4.101   0.245   0.509  1.6574  3.1832  2.8089
 5657SOL    HW228431   3.976   0.331   0.511 -1.2298 -0.0908 -0.1781
 5658SOL     OW28432   3.524   3.704   4.383  0.2232  0.5163  0.1594
 5658SOL    HW128433   3.454   3.643   4.407  1.1378 -0.5522  0.1121
 5658SOL    HW228434   3.539   3.754   4.462  3.6637 -1.5066  0.7608
 5659SOL     OW28435   3.501   2.379   4.632 -0.0205  0.3302 -0.1995
 5659SOL    HW128436   3.406   2.378   4.616 -0.1476 -2.1943  0.6063
 5659SOL    HW228437   3.506   2.411   4.722  2.1973  0.5960 -0.4358
 5660SOL     OW28438   0.525   2.136  10.799 -0.1092 -0.3216 -0.3861
 5660SOL    HW128439   0.578   2.135  10.879 -0.0173  0.5362 -0.4394
 5660SOL    HW228440   0.464   2.066  10.823  1.4406 -1.7958 -0.7679
 5661SOL     OW28441   0.213   2.274  14.943 -0.1603  0.5119  0.2764
 5661SOL    HW128442   0.148   2.344  14.953 -0.5118  0.1621  0.4289
 5661SOL    HW228443   0.233   2.247  15.032 -1.2597 -0.0897  0.3389
 5662SOL     OW28444   2.837   1.049   4.518 -0.1712  0.1211 -0.4198
 5662SOL    HW128445   2.793   1.130   4.492  1.4529  0.5063 -1.9770
 5662SOL    HW228446   2.928   1.077   4.528  0.1746 -0.8931 -0.7040
 5663SOL     OW28447   3.954   2.298   5.470 -0.2363 -0.3812  0.4293
 5663SOL    HW128448   3.938   2.384   5.509  0.9779  0.5210 -1.0677
 5663SOL    HW228449   4.043   2.289   5.437 -0.9709  0.7549 -1.8171
 5664SOL     OW28450   4.266   1.129   4.091 -0.3402  0.0295  0.1403
 5664SOL    HW128451   4.220   1.187   4.152  2.2697  3.4901 -1.2080
 5664SOL    HW228452   4.355   1.147   4.120 -0.2329  1.9014 -1.3237
 5665SOL     OW28453   1.160   3.521   5.261  0.7204  0.2076 -0.1570
 5665SOL    HW128454   1.122   3.529   5.173  2.5013  1.2826 -0.8123
 5665SOL    HW228455   1.160   3.616   5.274 -1.8818  0.2499 -0.3678
 5666SOL     OW28456   4.557   4.611  14.260  0.2327 -0.4566  0.3015
 5666SOL    HW128457   4.485   4.550  14.241 -0.0619  0.1900 -0.6884
 5666SOL    HW228458   4.522   4.663  14.332  1.1452 -1.2788  1.3378
 5667SOL     OW28459   0.897   1.094   1.702 -0.3001 -0.1481  0.1436
 5667SOL    HW128460   0.928   1.101   1.792  0.4871 -3.2108  0.1116
 5667SOL    HW228461   0.884   1.001   1.682  2.9540 -0.1640 -1.9793
 5668SOL     OW28462   4.195   3.630  17.536  0.2047 -0.0468 -0.2177
 5668SOL    HW128463   4.265   3.689  17.509  1.4670 -0.6567  1.7221
 5668SOL    HW228464   4.222   3.544  17.505 -0.3523 -0.8875  1.6160
 5669SOL     OW28465   3.271   0.036   9.664 -0.4475  0.5958 -0.4784
 5669SOL    HW128466   3.268   4.696   9.587 -1.2990  0.9992 -0.7478
 5669SOL    HW228467   3.307   0.119   9.630  2.0883 -0.8023 -1.2041
 5670SOL     OW28468   4.636   3.370   5.353  0.2000  0.2904  0.0140
 5670SOL    HW128469   4.623   3.417   5.436  1.4673 -0.5479  0.6941
 5670SOL    HW228470   4.566   3.305   5.360 -0.8757  1.4224 -0.3103
 5671SOL     OW28471   3.939   4.193   4.854  0.4630 -0.3305 -0.4078
 5671SOL    HW128472   3.968   4.183   4.763 -1.1379  0.2706 -0.9885
 5671SOL    HW228473   3.883   4.270   4.850 -0.8970 -1.2396  0.9935
 5672SOL     OW28474   2.373   0.124   0.800  0.0572 -0.3454 -0.1818
 5672SOL    HW128475   2.450   0.181   0.800  0.0714 -0.3639 -0.0477
 5672SOL    HW228476   2.319   0.170   0.737  0.5492 -1.8344 -1.6762
 5673SOL     OW28477   4.037   0.716   1.824 -0.4266 -0.5116  0.2480
 5673SOL    HW128478   4.018   0.766   1.904  2.0615 -0.4202  0.7729
 5673SOL    HW228479   4.088   0.768   1.762 -3.2494 -0.9310 -2.4077
 5674SOL     OW28480   1.387   0.011  13.281 -0.4737  0.3391  0.0102
 5674SOL    HW128481   1.375   0.105  13.267 -2.3149 -0.0550 -1.0873
 5674SOL    HW228482   1.301   4.702  13.313 -0.3503  1.6478  1.4036
 5675SOL     OW28483   2.206   3.935   7.308 -0.8921  0.7147  0.0151
 5675SOL    HW128484   2.258   3.881   7.249 -2.8508 -0.6533 -0.4388
 5675SOL    HW228485   2.239   3.895   7.389 -2.5148 -3.1877 -1.2708
 5676SOL     OW28486   1.339   2.418   1.744 -0.0697 -0.2056  0.3636
 5676SOL    HW128487   1.392   2.431   1.666 -1.9722 -1.3191 -1.1229
 5676SOL    HW228488   1.361   2.503   1.782  0.7129 -0.6230  0.8500
 5677SOL     OW28489   0.432   4.586   5.012  0.6202  0.3135 -0.0093
 5677SOL    HW128490   0.526   4.575   5.025  0.7305  1.0751 -0.1555
 5677SOL    HW228491   0.427   4.682   5.014  1.1715  0.3356  0.1204
 5678SOL     OW28492   2.615   3.675   3.382  0.0930 -0.1289 -0.0879
 5678SOL    HW128493   2.609   3.770   3.374 -0.0334 -0.0899  0.4729
 5678SOL    HW228494   2.706   3.662   3.356  0.2942  0.5228  0.2882
 5679SOL     OW28495   1.666   1.574   7.004 -0.3819  0.2721  0.0755
 5679SOL    HW128496   1.697   1.606   7.088  1.7956 -0.9540 -0.2821
 5679SOL    HW228497   1.588   1.523   7.025 -0.5211  0.5290  0.1818
 5680SOL     OW28498   4.276   0.872  15.140 -0.5543  0.2326  0.7105
 5680SOL    HW128499   4.367   0.904  15.138 -0.4216 -0.1909 -0.2100
 5680SOL    HW228500   4.253   0.876  15.047 -0.7229  0.8092  0.7796
 5681SOL     OW28501   4.457   4.079   3.296 -0.3177  0.1358 -0.1624
 5681SOL    HW128502   4.496   4.118   3.218  0.3806  0.7961  0.5161
 5681SOL    HW228503   4.529   4.086   3.358 -0.8157  0.2315  0.4038
 5682SOL     OW28504   2.487   4.314   9.004  0.7346  0.8359  0.4586
 5682SOL    HW128505   2.522   4.318   9.093  1.6649 -0.9655  0.1758
 5682SOL    HW228506   2.566   4.332   8.953  0.4544  4.0582  1.1592
 5683SOL     OW28507   4.216   4.157   1.877 -0.4774  0.0418 -0.5390
 5683SOL    HW128508   4.277   4.098   1.834 -0.2818 -0.0844 -0.0891
 5683SOL    HW228509   4.254   4.242   1.853  1.6109 -0.6079  0.5070
 5684SOL     OW28510   1.939   0.365   7.237 -0.5821  0.3243  0.1701
 5684SOL    HW128511   2.002   0.421   7.190 -1.1991  0.4973 -0.4473
 5684SOL    HW228512   1.917   0.406   7.321 -1.4486  0.4462 -0.1240
 5685SOL     OW28513   2.028   2.783   4.526 -0.5020  0.2729  0.0418
 5685SOL    HW128514   2.107   2.813   4.571  1.2155  0.2092 -2.9501
 5685SOL    HW228515   2.049   2.695   4.494  0.3823  1.0919 -1.6414
 5686SOL     OW28516   0.325   1.771  10.697 -0.5009  0.0778 -0.0615
 5686SOL    HW128517   0.381   1.824  10.754  1.9618 -1.3598 -1.1677
 5686SOL    HW228518   0.271   1.715  10.753  0.5142 -0.6702  0.1498
 5687SOL     OW28519   4.043   3.226   5.772  0.2939  0.3277 -0.1287
 5687SOL    HW128520   3.990   3.286   5.825 -0.4364  1.6925 -2.4086
 5687SOL    HW228521   3.986   3.149   5.769  0.3380  0.3324 -1.0086
 5688SOL     OW28522   2.701   0.464  10.599  0.0606 -0.7850 -0.1175
 5688SOL    HW128523   2.605   0.465  10.599  0.0744  0.2760 -0.6013
 5688SOL    HW228524   2.726   0.399  10.665  2.5227  0.9103  0.5972
 5689SOL     OW28525   3.082   3.842   8.004 -1.2610 -0.1425  0.3946
 5689SOL    HW128526   3.091   3.810   7.914  1.4563  2.2143 -0.1842
 5689SOL    HW228527   3.138   3.919   7.996  0.0198 -1.3281 -2.0235
 5690SOL     OW28528   4.020   0.065   4.445 -0.2032 -0.4279 -0.4122
 5690SOL    HW128529   4.079   0.077   4.370 -1.4469  0.2540 -1.3014
 5690SOL    HW228530   3.984   4.706   4.401 -1.9637  0.0464  0.2214
 5691SOL     OW28531   0.568   3.928   5.535  0.2853  0.0363  0.1717
 5691SOL    HW128532   0.479   3.906   5.563  0.1423  1.2356  0.6651
 5691SOL    HW228533   0.587   4.021   5.547 -1.7111  0.3999  0.5896
 5692SOL     OW28534   3.838   3.324  13.484  0.5149  0.1354  0.1212
 5692SOL    HW128535   3.917   3.377  13.478  0.4565  0.0397 -1.3249
 5692SOL    HW228536   3.768   3.388  13.475  1.6697  1.3142 -0.3057
 5693SOL     OW28537   3.746   2.611   7.407 -0.7675  0.4477 -0.4776
 5693SOL    HW128538   3.805   2.685   7.393 -2.2049  2.0873  2.1373
 5693SOL    HW228539   3.762   2.603   7.501  2.4056 -0.8083 -1.1017
 5694SOL     OW28540   2.420   4.590   8.972  0.3302 -0.0044  0.5523
 5694SOL    HW128541   2.448   4.498   8.975  1.9824  0.4724 -0.1194
 5694SOL    HW228542   2.385   4.611   9.059  0.5219  1.5824  0.2442
 5695SOL     OW28543   1.684   3.508  10.716 -0.3790 -0.7130 -0.2190
 5695SOL    HW128544   1.752   3.565  10.679 -2.6834  1.3325 -1.2678
 5695SOL    HW228545   1.737   3.429  10.731 -0.7144 -0.4836  2.1719
 5696SOL     OW28546   3.951   2.892   4.613 -0.0240  0.0907 -0.4419
 5696SOL    HW128547   3.883   2.959   4.602  2.3314  2.5655  0.1640
 5696SOL    HW228548   3.903   2.813   4.639  0.3172 -0.5329 -1.7436
 5697SOL     OW28549   2.733   1.208   3.368  0.2315  0.1562  0.5602
 5697SOL    HW128550   2.792   1.283   3.378  3.0477 -2.2791  2.0483
 5697SOL    HW228551   2.785   1.137   3.407  1.1141 -0.3425 -1.5165
 5698SOL     OW28552   0.343   0.851  16.176  0.3499 -0.6864 -0.0848
 5698SOL    HW128553   0.375   0.922  16.120  2.4366 -0.8027  0.9386
 5698SOL    HW228554   0.420   0.841  16.232  0.3604 -0.6707 -0.0965
 5699SOL     OW28555   3.401   0.176  15.171  0.2894 -0.5260 -0.0748
 5699SOL    HW128556   3.468   0.244  15.158  1.1088 -1.3291 -0.0833
 5699SOL    HW228557   3.449   0.109  15.122  1.6471  2.6014 -3.0547
 5700SOL     OW28558   1.203   4.018   6.565 -0.2809  0.1367 -0.3349
 5700SOL    HW128559   1.177   4.014   6.473  0.8785 -1.8767 -0.5615
 5700SOL    HW228560   1.154   3.946   6.604  0.2108  0.4286  0.8050
 5701SOL     OW28561   4.678   1.543   8.982  0.3520  0.5431  0.3346
 5701SOL    HW128562   4.597   1.493   8.978  2.0062 -2.1546  0.3403
 5701SOL    HW228563   0.020   1.492   9.038 -1.1090 -2.0098 -0.4114
 5702SOL     OW28564   4.554   1.674  13.158 -0.0951 -0.1244 -0.0652
 5702SOL    HW128565   4.642   1.637  13.153 -0.1288 -0.3836  1.2198
 5702SOL    HW228566   4.517   1.618  13.227  0.0924  1.5968  1.4326
 5703SOL     OW28567   0.827   1.597   4.513  0.1167  0.4316  0.1168
 5703SOL    HW128568   0.896   1.649   4.472  1.1701  0.1340  1.4963
 5703SOL    HW228569   0.891   1.531   4.539 -1.4836 -1.7985 -1.6372
 5704SOL     OW28570   0.013   2.033   0.282  0.0734  0.5466  0.2709
 5704SOL    HW128571   0.054   1.948   0.300 -0.9229  0.0450  0.1714
 5704SOL    HW228572   0.071   2.096   0.325  2.2246 -0.1713 -1.5642
 5705SOL     OW28573   0.267   1.059   9.046 -0.1154 -0.0042 -0.0855
 5705SOL    HW128574   0.256   1.102   8.961  0.4418  3.0122  1.3604
 5705SOL    HW228575   0.323   0.984   9.025  0.1564 -0.1188  1.0527
 5706SOL     OW28576   3.198   1.979   0.711 -0.0516  0.0704 -0.1029
 5706SOL    HW128577   3.185   2.042   0.782 -0.9543 -0.3740  0.1156
 5706SOL    HW228578   3.222   2.052   0.653  1.0702  1.5550  2.2333
 5707SOL     OW28579   1.748   3.338   6.220  0.4063 -0.1758 -0.4349
 5707SOL    HW128580   1.668   3.378   6.254 -0.2267  0.7478 -3.0401
 5707SOL    HW228581   1.774   3.403   6.155 -2.8152  1.5419  0.0128
 5708SOL     OW28582   1.404   0.792   0.492  0.1319 -1.0761  0.3333
 5708SOL    HW128583   1.440   0.869   0.447 -1.2212 -1.1983 -0.9546
 5708SOL    HW228584   1.486   0.747   0.513  0.1008 -1.2519  0.0778
 5709SOL     OW28585   1.670   0.310   4.083 -0.2746 -0.1317  0.5126
 5709SOL    HW128586   1.608   0.313   4.010  0.4707 -0.0116 -0.1092
 5709SOL    HW228587   1.625   0.263   4.153 -0.1534 -1.2839 -0.1840
 5710SOL     OW28588   1.563   3.214   5.284 -0.1088 -0.4286 -0.2887
 5710SOL    HW128589   1.572   3.304   5.252 -0.6502 -0.4370 -0.4700
 5710SOL    HW228590   1.468   3.209   5.297 -0.6049  2.8198 -2.6800
 5711SOL     OW28591   1.356   3.040   3.582  0.1232  0.4325  0.5823
 5711SOL    HW128592   1.378   2.965   3.638 -0.1845  1.5946  2.2564
 5711SOL    HW228593   1.428   3.101   3.599  0.4461  0.2021  0.0584
 5712SOL     OW28594   0.282   0.125   2.791 -0.0905 -0.4879 -0.2587
 5712SOL    HW128595   0.242   0.132   2.704  0.1833  2.6858 -0.1440
 5712SOL    HW228596   0.310   0.034   2.781  0.4250 -0.2195 -1.2713
 5713SOL     OW28597   2.694   0.288   0.347  0.0091  0.2246  0.5413
 5713SOL    HW128598   2.698   0.272   0.253  0.8496 -1.6299  0.8844
 5713SOL    HW228599   2.688   0.202   0.389 -0.0472 -0.9095 -1.8127
 5714SOL     OW28600   4.245   1.057   1.180  0.0076 -0.5635  0.0683
 5714SOL    HW128601   4.337   1.074   1.162  0.3839 -0.7528  1.8662
 5714SOL    HW228602   4.230   1.121   1.249  4.3289  1.3200 -0.7333
 5715SOL     OW28603   2.283   0.669   6.842 -0.2113  0.2160 -0.7297
 5715SOL    HW128604   2.330   0.696   6.921  0.3171  0.1905 -1.0341
 5715SOL    HW228605   2.247   0.751   6.808 -0.3496  0.4916  0.0811
 5716SOL     OW28606   1.614   2.438   7.729 -0.6432  0.0547  0.0661
 5716SOL    HW128607   1.639   2.501   7.797 -0.2691 -0.6846  0.6093
 5716SOL    HW228608   1.537   2.400   7.771  1.7377 -5.7147 -0.7871
 5717SOL     OW28609   3.994   0.695   2.325  0.8672 -0.6238 -0.7416
 5717SOL    HW128610   4.058   0.740   2.379  0.3319 -0.3433 -0.3372
 5717SOL    HW228611   3.917   0.686   2.381  1.9228  2.3412  1.2039
 5718SOL     OW28612   4.238   2.893   1.819 -0.0234 -0.3659  0.0398
 5718SOL    HW128613   4.174   2.923   1.755  0.5374 -1.2047 -0.9125
 5718SOL    HW228614   4.222   2.799   1.810 -0.7044 -0.3370  1.0160
 5719SOL     OW28615   3.779   3.347   3.723  0.4312 -0.1653 -0.3331
 5719SOL    HW128616   3.841   3.402   3.771 -1.4503  1.7807 -0.1388
 5719SOL    HW228617   3.781   3.262   3.767 -1.7300  0.1914  0.4481
 5720SOL     OW28618   3.451   2.068   0.204 -0.2071  0.0152 -0.0806
 5720SOL    HW128619   3.534   2.083   0.159  1.0741 -0.9757  1.9390
 5720SOL    HW228620   3.426   2.156   0.232 -2.4774 -0.8515  0.6415
 5721SOL     OW28621   0.515   1.240   7.850  0.0174  0.8067  0.5838
 5721SOL    HW128622   0.481   1.326   7.875 -0.7822  0.9166 -0.8545
 5721SOL    HW228623   0.459   1.187   7.907  1.7709 -2.5555 -0.8302
 5722SOL     OW28624   0.679   3.803   4.882  0.0458  1.1862  0.2603
 5722SOL    HW128625   0.717   3.716   4.877 -1.7501  0.4363 -0.4402
 5722SOL    HW228626   0.686   3.830   4.973  3.4119 -0.9189  0.6290
 5723SOL     OW28627   1.144   0.904  11.772 -0.2827  0.1119 -0.2448
 5723SOL    HW128628   1.090   0.984  11.772  1.2200  1.0872  3.7276
 5723SOL    HW228629   1.229   0.946  11.781 -0.1385 -0.0130 -0.9811
 5724SOL     OW28630   1.348   0.292   0.547 -0.2076 -0.7242 -0.6735
 5724SOL    HW128631   1.424   0.343   0.576 -1.4403  0.4654  0.4113
 5724SOL    HW228632   1.292   0.291   0.624 -1.1888 -1.1385 -1.3853
 5725SOL     OW28633   1.550   3.267   0.456 -0.3913  0.0145  0.1977
 5725SOL    HW128634   1.554   3.183   0.410 -0.1684  1.5819 -2.6505
 5725SOL    HW228635   1.481   3.310   0.405  0.8989  2.7178  0.7402
 5726SOL     OW28636   2.478   0.606   5.300  0.1573  0.5228 -0.1204
 5726SOL    HW128637   2.485   0.679   5.239  1.6764 -1.4345 -2.2795
 5726SOL    HW228638   2.554   0.554   5.274 -1.0707 -1.1518 -0.4220
 5727SOL     OW28639   3.565   2.697   5.841 -0.0700  0.2042  0.3104
 5727SOL    HW128640   3.547   2.764   5.907  0.0509 -0.1517  0.7057
 5727SOL    HW228641   3.497   2.632   5.858  0.0430 -0.4719 -1.8444
 5728SOL     OW28642   3.425   0.740   1.597  0.1573  0.1865 -0.1797
 5728SOL    HW128643   3.466   0.663   1.558  0.8916 -0.8365  2.5682
 5728SOL    HW228644   3.346   0.700   1.633 -0.0598  0.5217 -0.2824
 5729SOL     OW28645   1.215   4.443  13.293  0.3379 -0.7651  0.3934
 5729SOL    HW128646   1.156   4.450  13.218  2.7122  1.6427 -1.2462
 5729SOL    HW228647   1.295   4.466  13.247 -0.1794  3.4062  1.5611
 5730SOL     OW28648   2.106   1.652  17.183  0.5570 -0.1665 -0.0702
 5730SOL    HW128649   2.133   1.665  17.092 -0.3066 -0.5446 -0.3850
 5730SOL    HW228650   2.063   1.567  17.172  0.6916 -0.2095 -0.2537
 5731SOL     OW28651   1.777   4.392   9.430  0.2007 -0.0051  0.0090
 5731SOL    HW128652   1.685   4.412   9.446  0.2971 -0.2199  0.8003
 5731SOL    HW228653   1.769   4.315   9.374  2.7780 -0.6194  0.4797
 5732SOL     OW28654   3.487   4.177   3.381  0.4697  0.3436 -0.3273
 5732SOL    HW128655   3.582   4.176   3.370  0.6654 -1.6051  1.5815
 5732SOL    HW228656   3.456   4.212   3.298 -0.6552 -2.3349 -1.0571
 5733SOL     OW28657   4.401   3.992  11.516  0.0396  0.5082  0.2455
 5733SOL    HW128658   4.364   3.937  11.446  0.1956  0.0041  0.5596
 5733SOL    HW228659   4.457   3.933  11.567 -0.9609 -0.4959  0.2018
 5734SOL     OW28660   0.293   3.927  12.196 -0.1512  0.8838  0.3249
 5734SOL    HW128661   0.362   3.877  12.151 -1.0216 -0.4942  0.5190
 5734SOL    HW228662   0.229   3.934  12.125  2.4931 -0.8503 -2.2570
 5735SOL     OW28663   0.856   4.098   2.848 -0.0932  0.3361 -0.5134
 5735SOL    HW128664   0.796   4.131   2.781 -1.7511  0.2386  0.9036
 5735SOL    HW228665   0.928   4.074   2.790  0.2256 -0.9126  0.4076
 5736SOL     OW28666   0.838   3.335   2.146  0.2944 -0.4651 -0.3277
 5736SOL    HW128667   0.849   3.242   2.166  0.5783  0.4572  3.7712
 5736SOL    HW228668   0.887   3.370   2.220 -0.5787  0.9414 -0.4067
 5737SOL     OW28669   1.546   3.354   3.997 -0.1002  0.3242 -0.2688
 5737SOL    HW128670   1.587   3.407   4.065  1.5771 -2.9544  1.3197
 5737SOL    HW228671   1.620   3.315   3.950  0.5670  1.1567  0.1009
 5738SOL     OW28672   1.856   1.560   5.083  0.3417 -0.4935  0.2674
 5738SOL    HW128673   1.900   1.476   5.100  2.0941  0.5927  1.0178
 5738SOL    HW228674   1.905   1.586   5.006 -0.1363  2.5196  0.9898
 5739SOL     OW28675   3.097   2.393   1.802 -0.2325 -0.1394  0.6890
 5739SOL    HW128676   3.072   2.460   1.866 -1.1605  0.9779 -0.8514
 5739SOL    HW228677   3.017   2.370   1.754  1.5418 -1.0583 -1.7839
 5740SOL     OW28678   0.200   2.418   8.806  0.0079  0.2443  0.0201
 5740SOL    HW128679   0.277   2.470   8.782 -1.1675  2.2595  0.5603
 5740SOL    HW228680   0.141   2.431   8.732 -0.3642  0.3766  0.3397
 5741SOL     OW28681   0.424   3.812   8.231  0.5397  0.0234 -0.1867
 5741SOL    HW128682   0.388   3.785   8.146 -0.2212  0.1972  0.0740
 5741SOL    HW228683   0.343   3.828   8.280 -0.2151 -1.2788 -0.9985
 5742SOL     OW28684   3.608   1.368   1.001  0.2105  0.2871 -0.0252
 5742SOL    HW128685   3.639   1.378   1.091  3.5848 -2.7585 -0.8542
 5742SOL    HW228686   3.647   1.450   0.970 -0.2769 -0.0988 -1.6510
 5743SOL     OW28687   2.030   0.509   9.921 -0.5031  0.6048 -0.6609
 5743SOL    HW128688   1.946   0.464   9.911  1.3107 -3.2097  1.3626
 5743SOL    HW228689   2.032   0.526  10.016 -1.3169 -0.6871 -0.4187
 5744SOL     OW28690   3.700   2.111   9.540  0.5651  0.1704  0.3471
 5744SOL    HW128691   3.605   2.098   9.543  0.8425 -1.4726  1.4914
 5744SOL    HW228692   3.717   2.147   9.453 -1.6438 -0.2118 -0.2433
 5745SOL     OW28693   3.766   2.998  16.743 -0.5820  0.2144 -0.6807
 5745SOL    HW128694   3.714   2.938  16.796 -0.1717 -0.7563 -1.3979
 5745SOL    HW228695   3.829   3.025  16.810  0.7178  1.2220 -2.3062
 5746SOL     OW28696   2.163   3.734   3.610 -0.0015  0.1792 -0.1401
 5746SOL    HW128697   2.160   3.646   3.648  0.4388  0.2554  0.0741
 5746SOL    HW228698   2.121   3.706   3.528  0.7923 -0.8301 -0.2068
 5747SOL     OW28699   3.415   3.551  11.379  0.8004  0.5532 -0.2688
 5747SOL    HW128700   3.424   3.480  11.443  4.5190  1.2761  0.0363
 5747SOL    HW228701   3.503   3.588  11.369  0.9682  0.5615  1.1909
 5748SOL     OW28702   0.269   1.275   7.084 -0.0944 -0.5097 -0.3506
 5748SOL    HW128703   0.335   1.284   7.153 -1.5643 -2.3113  1.2921
 5748SOL    HW228704   0.327   1.301   7.012  0.3066 -1.5805 -0.4091
 5749SOL     OW28705   3.416   1.782   6.398  0.2750  0.1035  0.2854
 5749SOL    HW128706   3.437   1.864   6.443  2.2378 -0.8420  1.0910
 5749SOL    HW228707   3.331   1.801   6.359  0.2672  1.8805  1.1668
 5750SOL     OW28708   2.581   0.419   4.975  0.1047 -0.0480 -0.0262
 5750SOL    HW128709   2.551   0.364   4.903  0.4923 -0.1647 -0.0969
 5750SOL    HW228710   2.676   0.411   4.968 -0.1458 -2.8122  0.1017
 5751SOL     OW28711   3.326   0.599   2.497 -0.7163  0.4546  0.0420
 5751SOL    HW128712   3.345   0.593   2.404 -1.5085  1.8760 -0.2100
 5751SOL    HW228713   3.308   0.690   2.520  1.3173  0.3341  2.2261
 5752SOL     OW28714   0.987   4.365   2.569 -0.3250 -0.2629 -0.0406
 5752SOL    HW128715   1.050   4.436   2.555  2.0325 -2.0168  1.7668
 5752SOL    HW228716   0.957   4.353   2.479 -3.1558 -0.1232  0.8799
 5753SOL     OW28717   3.974   3.419  17.593  0.2789 -0.1907  0.2851
 5753SOL    HW128718   4.029   3.497  17.591  0.7692 -0.5329  0.3564
 5753SOL    HW228719   4.017   3.357  17.652  0.2733 -0.8561 -0.4036
 5754SOL     OW28720   0.050   0.517   0.195 -0.2941  0.6443  0.4858
 5754SOL    HW128721   0.065   0.536   0.287 -1.7120  1.2387  0.5803
 5754SOL    HW228722   0.037   0.603   0.155 -0.1697  0.3922 -0.0933
 5755SOL     OW28723   4.140   0.329   0.954 -0.3780 -0.1809 -0.5315
 5755SOL    HW128724   4.100   0.245   0.934  0.1748 -0.4915 -0.3542
 5755SOL    HW228725   4.213   0.322   0.892  0.0417  0.8495 -0.1635
 5756SOL     OW28726   3.694   4.268   5.203  0.0665 -0.2915  0.0289
 5756SOL    HW128727   3.629   4.249   5.271 -1.7333  0.8442 -1.3986
 5756SOL    HW228728   3.644   4.257   5.122  1.0974 -2.9347 -0.2608
 5757SOL     OW28729   1.721   1.194   7.333 -0.0008  0.3564 -0.0376
 5757SOL    HW128730   1.661   1.263   7.307 -1.0518 -1.3511 -2.1991
 5757SOL    HW228731   1.735   1.210   7.426 -2.0754 -1.9269  0.6822
 5758SOL     OW28732   1.030   4.281   5.731  0.0754  0.3695  0.1099
 5758SOL    HW128733   1.115   4.247   5.704  1.1836  2.9757  0.3298
 5758SOL    HW228734   1.012   4.357   5.674  2.8135  1.4905  0.7101
 5759SOL     OW28735   2.916   4.637  13.828  0.0337  0.1990 -0.3458
 5759SOL    HW128736   2.954   4.629  13.916  0.4296 -1.1560 -0.6470
 5759SOL    HW228737   2.875   0.006  13.831 -0.6953 -0.1983  1.3400
 5760SOL     OW28738   3.687   3.660   6.967 -0.0234 -0.3365 -0.0811
 5760SOL    HW128739   3.706   3.585   6.912  0.5992  0.0667 -0.4059
 5760SOL    HW228740   3.694   3.611   7.049 -2.3336  0.1275  0.4088
 5761SOL     OW28741   4.153   1.708   9.522 -0.0826  0.2030 -0.0273
 5761SOL    HW128742   4.196   1.793   9.524  1.8396 -0.7388 -0.8702
 5761SOL    HW228743   4.081   1.721   9.460  1.6302 -1.4957 -2.4087
 5762SOL     OW28744   3.593   1.215   4.055  0.0587 -0.5254  0.2666
 5762SOL    HW128745   3.579   1.228   3.962  0.3110  2.1019  0.6065
 5762SOL    HW228746   3.654   1.142   4.061  1.0346  0.1707 -1.4353
 5763SOL     OW28747   0.580   2.891  12.575  0.0218 -1.1386  0.3504
 5763SOL    HW128748   0.533   2.811  12.552 -2.8520 -0.2188  3.1540
 5763SOL    HW228749   0.614   2.868  12.661  0.4677 -0.4164  0.3652
 5764SOL     OW28750   2.362   2.181  12.395  0.1711 -0.3401 -0.0127
 5764SOL    HW128751   2.302   2.255  12.389  1.8282  0.8834 -1.5170
 5764SOL    HW228752   2.428   2.206  12.330 -3.9497  2.7100 -3.0137
 5765SOL     OW28753   1.424   2.279   5.096  0.0821 -0.0019 -0.1337
 5765SOL    HW128754   1.467   2.359   5.065  0.1930  0.3384  0.9095
 5765SOL    HW228755   1.393   2.308   5.181 -1.5002  0.1436 -0.7522
 5766SOL     OW28756   0.513   3.623  12.897  0.0896 -0.2627  0.1886
 5766SOL    HW128757   0.457   3.545  12.898 -0.8491  0.3910 -0.9642
 5766SOL    HW228758   0.579   3.598  12.832 -1.3240 -1.7548 -0.6991
 5767SOL     OW28759   0.025   1.412   4.009  0.4769  0.4009 -0.0999
 5767SOL    HW128760   0.048   1.504   4.023  0.9564  0.5764 -2.1462
 5767SOL    HW228761   0.099   1.370   4.053  0.0387 -0.5494 -0.2787
 5768SOL     OW28762   1.845   0.565   1.363  0.6720 -0.2532  0.0646
 5768SOL    HW128763   1.836   0.474   1.391  1.2185  0.1966  1.7306
 5768SOL    HW228764   1.941   0.564   1.353  0.5735  0.1786 -0.8882
 5769SOL     OW28765   1.357   0.776   5.941  0.2850  0.0015 -0.5601
 5769SOL    HW128766   1.378   0.683   5.950 -0.3350 -0.1105 -0.2876
 5769SOL    HW228767   1.346   0.788   5.847  2.4131 -0.8831 -0.9188
 5770SOL     OW28768   3.131   2.299  11.445 -0.1738 -0.6492 -0.1372
 5770SOL    HW128769   3.173   2.331  11.365 -0.8413 -0.0516 -0.2557
 5770SOL    HW228770   3.066   2.249  11.396  0.0972 -0.9757 -0.1618
 5771SOL     OW28771   2.756   0.584   2.358 -0.9981 -0.1867  0.0463
 5771SOL    HW128772   2.761   0.663   2.411  0.2948  0.2142 -0.6777
 5771SOL    HW228773   2.661   0.578   2.353 -1.1600  1.0955  1.6312
 5772SOL     OW28774   4.196   2.152   4.967 -0.3893  0.4514  0.0252
 5772SOL    HW128775   4.265   2.153   5.033 -2.0717  0.7068  1.7902
 5772SOL    HW228776   4.186   2.247   4.956  0.7326  0.3465 -1.9077
 5773SOL     OW28777   1.785   3.930   4.309 -0.1834  0.4696  0.4186
 5773SOL    HW128778   1.747   4.001   4.362  1.7563  0.1282  2.2301
 5773SOL    HW228779   1.787   3.985   4.230  1.6371 -0.6438 -0.2838
 5774SOL     OW28780   0.997   0.168  14.539 -0.2863  0.4071  0.1102
 5774SOL    HW128781   0.909   0.205  14.543 -0.9341 -1.1355  0.4298
 5774SOL    HW228782   0.982   0.077  14.512  2.9312  0.4858 -1.8819
 5775SOL     OW28783   1.154   0.723   7.605  0.3932 -0.6818 -0.0017
 5775SOL    HW128784   1.155   0.770   7.522  4.1133 -1.2120 -0.2926
 5775SOL    HW228785   1.082   0.762   7.654 -0.2949 -1.2107 -0.6092
 5776SOL     OW28786   2.632   0.770   8.498 -0.6348 -0.3394  0.1827
 5776SOL    HW128787   2.716   0.778   8.543 -0.5979  4.0284 -0.7270
 5776SOL    HW228788   2.576   0.757   8.574  3.2604  0.2271  3.1592
 5777SOL     OW28789   3.697   0.679   5.729 -0.0465 -0.1552 -0.9481
 5777SOL    HW128790   3.637   0.699   5.657 -2.1815 -2.4031  0.2295
 5777SOL    HW228791   3.630   0.658   5.794  1.9047  1.9371  1.7284
 5778SOL     OW28792   4.446   0.867  11.725  0.1499  0.1028 -0.1167
 5778SOL    HW128793   4.435   0.899  11.636 -0.0065 -0.0443 -0.1491
 5778SOL    HW228794   4.437   0.948  11.776  2.0924 -0.4005  1.0321
 5779SOL     OW28795   0.928   0.801   9.585  0.0210 -0.0810  0.1649
 5779SOL    HW128796   0.943   0.809   9.680  1.9544  0.0189 -0.1426
 5779SOL    HW228797   1.019   0.794   9.557 -0.6454  0.3032 -2.0601
 5780SOL     OW28798   2.204   2.582   6.010 -0.7238  0.0924  0.6225
 5780SOL    HW128799   2.183   2.554   6.099 -0.6629  1.9301  1.2176
 5780SOL    HW228800   2.118   2.569   5.971  1.0475  0.9431 -3.5144
 5781SOL     OW28801   1.585   1.212   5.750 -0.2116 -0.4772  0.5366
 5781SOL    HW128802   1.679   1.202   5.763  0.2466  2.2494 -0.6312
 5781SOL    HW228803   1.569   1.153   5.676 -0.7534  0.9141 -0.4689
 5782SOL     OW28804   0.490   2.286  17.308  0.2285 -0.3243  0.0889
 5782SOL    HW128805   0.437   2.317  17.381  0.0815 -2.7725  1.0507
 5782SOL    HW228806   0.567   2.342  17.317  1.6661 -2.5248  1.6579
 5783SOL     OW28807   1.872   1.239  11.879 -0.2869 -0.5055  0.7249
 5783SOL    HW128808   1.831   1.282  11.954  1.0073  1.0281  0.5679
 5783SOL    HW228809   1.801   1.224  11.817  0.7342  2.5040 -1.1605
 5784SOL     OW28810   3.623   1.766   0.129 -0.1542 -0.2022 -0.3809
 5784SOL    HW128811   3.590   1.738   0.044 -0.6310 -0.2867 -0.1739
 5784SOL    HW228812   3.545   1.803   0.171 -0.0531  1.3611 -1.5978
 5785SOL     OW28813   0.208   2.790  16.668  0.2004  0.3268 -0.6200
 5785SOL    HW128814   0.164   2.862  16.622  0.8487 -0.5206 -2.5714
 5785SOL    HW228815   0.164   2.788  16.752  0.9205  0.6249 -0.2342
 5786SOL     OW28816   4.314   0.152   4.744 -0.1350  0.3177  0.1708
 5786SOL    HW128817   4.344   0.123   4.830  1.3765 -0.9804 -0.7984
 5786SOL    HW228818   4.242   0.091   4.730  0.3791 -0.1205 -0.5373
 5787SOL     OW28819   1.137   1.327   6.697  0.2516  0.3214 -0.2959
 5787SOL    HW128820   1.138   1.326   6.602  1.4257 -0.3024 -0.2779
 5787SOL    HW228821   1.057   1.281   6.721  0.7283 -1.6538 -2.5407
 5788SOL     OW28822   4.073   2.195   1.035  0.3296 -0.1642 -0.0747
 5788SOL    HW128823   3.980   2.214   1.020  1.4119  3.4404 -2.1804
 5788SOL    HW228824   4.062   2.138   1.111  1.0227 -0.9778 -0.5868
 5789SOL     OW28825   0.906   4.471   6.992 -0.2949 -0.0097  0.3306
 5789SOL    HW128826   0.851   4.549   6.988 -1.1402 -0.5477  1.6418
 5789SOL    HW228827   0.831   4.415   7.012 -0.5616  0.4193  0.5183
 5790SOL     OW28828   3.075   3.249   3.805  0.2228  0.3761 -0.3713
 5790SOL    HW128829   3.135   3.255   3.879  0.3019 -1.8063 -0.2560
 5790SOL    HW228830   3.124   3.308   3.747 -1.8175  2.9686  0.5789
 5791SOL     OW28831   0.098   3.108   9.244  0.0562 -0.4609  0.0466
 5791SOL    HW128832   0.091   3.150   9.158  0.8670 -1.9163 -0.7294
 5791SOL    HW228833   0.191   3.104   9.265  0.3467 -0.3674 -1.2445
 5792SOL     OW28834   1.216   3.627   3.608 -0.5436 -0.3227  0.2778
 5792SOL    HW128835   1.247   3.563   3.544  1.3802 -0.6199  1.5313
 5792SOL    HW228836   1.270   3.704   3.588 -0.0417 -0.9941 -0.9357
 5793SOL     OW28837   2.374   0.736   4.178 -0.2537 -0.5376 -0.3793
 5793SOL    HW128838   2.368   0.784   4.096  0.0939  2.3761  1.3127
 5793SOL    HW228839   2.346   0.801   4.243  0.3240 -0.2210 -0.4511
 5794SOL     OW28840   0.292   3.219   2.413 -0.0872  0.2714 -0.1830
 5794SOL    HW128841   0.295   3.124   2.423 -0.5178  0.5043  2.1318
 5794SOL    HW228842   0.201   3.236   2.387 -0.0151  2.1388  0.7787
 5795SOL     OW28843   2.621   1.514   1.175 -0.2464 -0.3784  0.2301
 5795SOL    HW128844   2.547   1.540   1.120 -0.7643 -1.5610  0.3761
 5795SOL    HW228845   2.609   1.422   1.198  2.3628 -1.0410 -1.0141
 5796SOL     OW28846   2.178   2.674   7.657  0.2099 -0.1212 -0.4364
 5796SOL    HW128847   2.094   2.631   7.643 -0.1490  0.4589 -0.0851
 5796SOL    HW228848   2.233   2.601   7.686 -2.8153 -2.1888  0.1825
 5797SOL     OW28849   4.688   4.689  15.058 -0.4810  0.1976  0.0858
 5797SOL    HW128850   4.618   4.716  15.000 -1.4603  0.4425  1.3709
 5797SOL    HW228851   0.027   4.640  14.999  0.6527  0.0007  1.3244
 5798SOL     OW28852   1.008   1.269   0.157 -0.0877  0.0687 -0.5556
 5798SOL    HW128853   0.933   1.246   0.102 -0.0721 -0.1536 -0.4854
 5798SOL    HW228854   1.075   1.292   0.093  1.4183 -3.1693 -0.1303
 5799SOL     OW28855   0.930   3.978   5.100  0.1561 -0.5156 -0.0767
 5799SOL    HW128856   0.881   4.023   5.169 -0.8217  2.1917 -2.5470
 5799SOL    HW228857   0.971   4.056   5.061 -2.6287  0.6122 -0.6992
 5800SOL     OW28858   1.320   1.337   8.572  0.7542 -0.2894  0.4031
 5800SOL    HW128859   1.411   1.361   8.557 -0.1899  2.5464 -0.8235
 5800SOL    HW228860   1.329   1.257   8.521  0.4210 -0.8605  1.2338
 5801SOL     OW28861   2.282   1.503   7.156  0.4041  0.6632  0.1186
 5801SOL    HW128862   2.213   1.522   7.093  1.4944 -2.0363 -1.8742
 5801SOL    HW228863   2.271   1.579   7.213  1.9245 -1.5580  3.3910
 5802SOL     OW28864   3.709   3.176  11.263  0.1806  0.1523  0.3100
 5802SOL    HW128865   3.698   3.081  11.257 -1.7236  0.3546  0.5218
 5802SOL    HW228866   3.616   3.198  11.254  0.3654  1.1088  0.7251
 5803SOL     OW28867   4.155   1.043  17.561  0.6549 -0.5760 -0.0413
 5803SOL    HW128868   4.113   1.071  17.643 -2.9767 -2.0153 -1.4470
 5803SOL    HW228869   4.202   0.967  17.594  2.6251 -0.3393 -2.3363
 5804SOL     OW28870   2.787   4.377   0.720  0.0893 -0.4084 -0.8391
 5804SOL    HW128871   2.811   4.422   0.801 -3.5150  0.6003 -0.2962
 5804SOL    HW228872   2.724   4.433   0.674 -0.1341 -0.7154 -0.9084
 5805SOL     OW28873   4.342   0.083   5.373  0.0746 -0.0696 -0.0389
 5805SOL    HW128874   4.290   0.117   5.300  1.6733  1.4863 -0.4596
 5805SOL    HW228875   4.289   0.100   5.450 -2.4442 -2.4535 -1.2341
 5806SOL     OW28876   0.580   3.942   2.957 -0.8505  0.3614 -0.2002
 5806SOL    HW128877   0.666   3.979   2.939 -0.4965  0.4113  1.5460
 5806SOL    HW228878   0.537   3.965   2.875  0.3468 -0.6745 -1.1190
 5807SOL     OW28879   4.606   2.389   7.005  0.4335  0.6124  0.1797
 5807SOL    HW128880   4.606   2.477   7.042  1.6502 -0.1988  2.1128
 5807SOL    HW228881   4.609   2.406   6.911 -0.3317  0.3205  0.1035
 5808SOL     OW28882   0.106   0.646   6.456  0.1725  0.4976 -0.8430
 5808SOL    HW128883   0.120   0.626   6.364  2.5688  1.7878 -0.7653
 5808SOL    HW228884   0.181   0.703   6.474  0.2140 -0.0968  0.8256
 5809SOL     OW28885   4.340   2.548  10.782 -0.1121  0.3894 -0.1726
 5809SOL    HW128886   4.244   2.540  10.786  0.0679 -0.8848  1.8667
 5809SOL    HW228887   4.349   2.636  10.820  0.4714  0.8938 -1.5003
 5810SOL     OW28888   2.104   4.438   9.072 -0.1259  0.2716 -0.2284
 5810SOL    HW128889   2.184   4.476   9.109  1.3769  0.0308 -3.2984
 5810SOL    HW228890   2.097   4.353   9.116  0.0996  1.0465  1.3046
 5811SOL     OW28891   0.739   0.181   8.060 -0.1058  0.4435 -0.0886
 5811SOL    HW128892   0.686   0.260   8.051 -2.0807 -0.6028  2.4317
 5811SOL    HW228893   0.713   0.141   7.977 -0.6971  1.2960 -0.3139
 5812SOL     OW28894   1.637   3.840   7.990  0.7582 -0.4680 -0.1393
 5812SOL    HW128895   1.631   3.851   7.895  0.3061  0.8446  0.0310
 5812SOL    HW228896   1.579   3.914   8.011 -0.5630 -2.2598  2.5413
 5813SOL     OW28897   4.117   1.458   4.122  0.0229 -0.2236  0.4773
 5813SOL    HW128898   4.126   1.391   4.190 -1.3395  0.0549  0.9275
 5813SOL    HW228899   4.099   1.540   4.168 -1.7942 -1.0516  1.2720
 5814SOL     OW28900   1.487   0.506   2.673  0.1809  0.5757 -0.2967
 5814SOL    HW128901   1.550   0.476   2.738 -1.6055 -3.8918 -0.5508
 5814SOL    HW228902   1.536   0.511   2.591 -0.5121 -0.1358 -0.7636
 5815SOL     OW28903   2.311   4.167   8.551  0.4364  0.1839  0.3899
 5815SOL    HW128904   2.345   4.257   8.549  1.8444 -0.3426  0.2152
 5815SOL    HW228905   2.257   4.163   8.473  0.1466 -1.8262  0.6940
 5816SOL     OW28906   4.357   1.745  12.983 -0.0361  0.0359 -0.6251
 5816SOL    HW128907   4.421   1.766  12.915  0.4191  2.4972  0.5755
 5816SOL    HW228908   4.418   1.701  13.043  0.3981 -2.3004 -2.7664
 5817SOL     OW28909   4.009   1.186  10.512  0.0368 -0.0697 -0.2087
 5817SOL    HW128910   3.916   1.208  10.518 -0.2881 -1.5904  0.3275
 5817SOL    HW228911   4.018   1.113  10.451 -0.0678 -0.5183  0.3198
 5818SOL     OW28912   0.705   4.652   4.955 -0.0596 -0.2367  0.1201
 5818SOL    HW128913   0.645   0.001   4.921  0.3570 -0.2966 -0.7383
 5818SOL    HW228914   0.761   4.647   4.877 -0.5569 -1.4030 -0.1665
 5819SOL     OW28915   0.334   4.465  14.736 -0.3007 -0.0647 -0.1795
 5819SOL    HW128916   0.398   4.431  14.798  0.8162 -0.5322 -1.5929
 5819SOL    HW228917   0.381   4.531  14.684  0.8423 -1.9852 -1.5735
 5820SOL     OW28918   0.535   4.212  12.769 -0.1260  0.3392  0.0407
 5820SOL    HW128919   0.445   4.241  12.784  0.5213  2.5548 -0.3900
 5820SOL    HW228920   0.535   4.189  12.676  1.2993 -1.7681  0.5667
 5821SOL     OW28921   1.705   0.482   1.010  0.0650 -0.2045 -0.5519
 5821SOL    HW128922   1.629   0.539   1.000  0.3913  0.1967 -0.7769
 5821SOL    HW228923   1.780   0.538   1.032 -1.8332  1.3079  2.0230
 5822SOL     OW28924   4.471   2.540   3.302 -0.4270 -0.2746  0.3448
 5822SOL    HW128925   4.560   2.507   3.314 -0.3016  0.4774  1.4732
 5822SOL    HW228926   4.456   2.546   3.208 -1.4165  0.2318  0.5382
 5823SOL     OW28927   0.229   2.963  17.462 -0.5875 -0.3798  0.5779
 5823SOL    HW128928   0.208   3.033  17.400 -0.0882  0.0019  0.8442
 5823SOL    HW228929   0.169   2.976  17.535 -0.5076  1.3258  0.3394
 5824SOL     OW28930   1.599   4.243  14.342 -0.5093  0.2428  0.0309
 5824SOL    HW128931   1.543   4.297  14.398  0.7142  1.1782  0.3614
 5824SOL    HW228932   1.689   4.265  14.366 -1.0984 -0.9611  3.3358
 5825SOL     OW28933   2.209   1.874  13.444  0.6276  0.1890  0.0599
 5825SOL    HW128934   2.296   1.912  13.452  0.8523 -0.4461  0.6287
 5825SOL    HW228935   2.153   1.942  13.482  1.3317  1.7029 -1.6336
 5826SOL     OW28936   3.690   2.231   6.259  0.1513 -0.1538 -0.3087
 5826SOL    HW128937   3.686   2.202   6.168  1.9492  0.5148 -0.5872
 5826SOL    HW228938   3.781   2.256   6.275 -0.4263  2.8574 -1.8124
 5827SOL     OW28939   0.497   0.310   8.607 -0.1106 -0.2898  0.0758
 5827SOL    HW128940   0.529   0.322   8.517  2.7106  0.2648  1.1648
 5827SOL    HW228941   0.455   0.225   8.594  0.2827 -0.4341 -0.2695
 5828SOL     OW28942   2.132   3.355  16.110 -0.2597 -0.4446 -0.1599
 5828SOL    HW128943   2.096   3.298  16.042 -1.1334 -0.0412 -0.0272
 5828SOL    HW228944   2.227   3.341  16.103 -0.4118 -1.0710 -0.9288
 5829SOL     OW28945   2.873   0.033   7.420 -0.3536  0.2717 -0.1675
 5829SOL    HW128946   2.793   0.016   7.470  0.3281  0.6988  1.0480
 5829SOL    HW228947   2.938   0.010   7.486  1.8247  2.3822 -1.5933
 5830SOL     OW28948   3.267   2.399   2.040 -0.2596  0.2972 -0.2018
 5830SOL    HW128949   3.233   2.400   1.950  0.2087 -0.6266 -0.3891
 5830SOL    HW228950   3.313   2.315   2.036 -0.7458  0.0851 -1.4734
 5831SOL     OW28951   0.380   2.074   2.086 -0.2265  0.1297  0.3666
 5831SOL    HW128952   0.377   1.980   2.106 -2.1785  0.1266  0.0482
 5831SOL    HW228953   0.473   2.085   2.066 -0.8112 -0.8564 -2.9505
 5832SOL     OW28954   4.366   1.299   3.007  0.2729  0.3440 -0.2555
 5832SOL    HW128955   4.378   1.311   3.101 -1.9168  1.7933 -0.1666
 5832SOL    HW228956   4.366   1.204   3.000  0.1829  0.2244  1.4407
 5833SOL     OW28957   3.335   1.908   8.301  0.7184  0.2622  0.8348
 5833SOL    HW128958   3.364   1.838   8.359 -0.7139 -0.6701  0.4190
 5833SOL    HW228959   3.400   1.904   8.230  1.8867  2.4280  1.7788
 5834SOL     OW28960   3.583   2.603   3.730 -0.0374 -0.5023  0.4158
 5834SOL    HW128961   3.598   2.509   3.741  0.1315 -0.4997  0.2052
 5834SOL    HW228962   3.489   2.616   3.743 -0.2067  1.3957 -2.6131
 5835SOL     OW28963   2.251   0.587   2.442 -0.1577  0.4976  0.5048
 5835SOL    HW128964   2.160   0.605   2.421 -0.2822  0.5363  1.0775
 5835SOL    HW228965   2.255   0.587   2.538  1.5626 -1.2420  0.4258
 5836SOL     OW28966   3.240   3.971   8.382 -0.0734 -0.0964 -0.0440
 5836SOL    HW128967   3.218   3.976   8.476  3.2150  0.5340  0.6873
 5836SOL    HW228968   3.161   3.927   8.351 -1.1354  0.3425  1.9903
 5837SOL     OW28969   2.266   3.572   4.761 -0.4147  0.3987 -0.3124
 5837SOL    HW128970   2.261   3.667   4.772  2.0890  0.2784  1.8737
 5837SOL    HW228971   2.251   3.575   4.666 -0.7072  0.1752 -0.2747
 5838SOL     OW28972   0.629   4.656  11.040  0.4796  0.2245  0.4535
 5838SOL    HW128973   0.587   4.681  10.958  0.7617 -1.2054 -0.1295
 5838SOL    HW228974   0.573   4.584  11.068 -0.2015 -0.8528 -3.6096
 5839SOL     OW28975   2.772   3.197   2.431  0.4230 -0.1852  0.4328
 5839SOL    HW128976   2.783   3.273   2.374 -0.8508 -0.0225  0.4165
 5839SOL    HW228977   2.851   3.193   2.485 -0.5017 -0.3892  1.7528
 5840SOL     OW28978   3.366   3.939   2.853 -0.0844  0.3145 -0.2492
 5840SOL    HW128979   3.361   4.013   2.792 -2.3424 -0.4982 -1.0563
 5840SOL    HW228980   3.330   3.870   2.796  0.0882  1.1753 -1.4132
 5841SOL     OW28981   1.275   3.447  11.113  0.1311  0.2563 -0.2820
 5841SOL    HW128982   1.196   3.486  11.150 -0.0028 -0.3936  0.1234
 5841SOL    HW228983   1.344   3.505  11.144 -0.0928  0.7855 -0.7768
 5842SOL     OW28984   3.457   1.810   7.330  0.5769  0.3496 -0.6248
 5842SOL    HW128985   3.511   1.745   7.376 -0.5130  0.0710  0.2644
 5842SOL    HW228986   3.478   1.894   7.370 -0.3440  1.5090 -2.5849
 5843SOL     OW28987   2.576   0.279   4.757 -0.0638  0.2140  0.3630
 5843SOL    HW128988   2.563   0.355   4.700  1.6205 -0.0186 -0.3375
 5843SOL    HW228989   2.574   0.208   4.692 -2.1032  1.8718 -1.3601
 5844SOL     OW28990   1.987   3.499   5.777 -0.3493  0.6114  0.8114
 5844SOL    HW128991   1.915   3.435   5.778 -1.5665  1.9467 -1.7914
 5844SOL    HW228992   2.045   3.472   5.848  0.7186  1.2131  0.1636
 5845SOL     OW28993   0.379   1.608   1.935  0.2806 -0.4229  0.0517
 5845SOL    HW128994   0.445   1.553   1.977 -2.9401 -2.8332  2.0233
 5845SOL    HW228995   0.296   1.559   1.939  0.4152 -0.5382  1.4635
 5846SOL     OW28996   0.103   2.112   4.965  0.4205 -0.4150  0.5811
 5846SOL    HW128997   0.089   2.164   5.044 -1.0885 -1.7290  1.1729
 5846SOL    HW228998   0.169   2.158   4.914  0.0336 -0.7720 -0.2421
 5847SOL     OW28999   3.574   2.539   9.514  0.0555  0.2863  0.3058
 5847SOL    HW129000   3.484   2.545   9.546 -0.2907 -0.3322 -0.5863
 5847SOL    HW229001   3.616   2.480   9.577 -0.2395 -0.4182 -0.1624
 5848SOL     OW29002   1.378   0.124   3.954 -0.0703 -0.2579 -0.0526
 5848SOL    HW129003   1.389   0.036   3.991 -1.5242 -0.1655  0.6112
 5848SOL    HW229004   1.300   0.159   3.997  0.5243 -0.5811  1.2589
 5849SOL     OW29005   1.677   2.778  13.257  0.2256 -0.5090  0.3313
 5849SOL    HW129006   1.605   2.831  13.290 -2.2610 -2.8022 -1.3877
 5849SOL    HW229007   1.627   2.698  13.239  1.6033 -1.4307  0.6042
 5850SOL     OW29008   0.008   2.679   4.535 -0.3124  0.1274  0.0258
 5850SOL    HW129009   0.051   2.764   4.539  2.2263 -1.0926 -1.3868
 5850SOL    HW229010   0.067   2.626   4.482 -0.5407  2.4295 -2.5170
 5851SOL     OW29011   2.141   0.793  12.564  0.3894 -0.4475 -0.1505
 5851SOL    HW129012   2.175   0.785  12.654 -2.3232  0.5402  0.9745
 5851SOL    HW229013   2.060   0.843  12.576  0.6281 -0.1646  0.3077
 5852SOL     OW29014   0.465   1.421  10.271  0.2928 -0.2603 -0.4890
 5852SOL    HW129015   0.428   1.498  10.227  4.5238  1.0485 -1.8518
 5852SOL    HW229016   0.462   1.459  10.358  0.3198 -0.1636 -0.5297
 5853SOL     OW29017   1.891   4.495   3.380  0.3443 -0.0791 -0.2759
 5853SOL    HW129018   1.911   4.586   3.358  0.8036 -0.2220 -0.4380
 5853SOL    HW229019   1.933   4.456   3.303  0.1607  0.2248 -0.5301
 5854SOL     OW29020   0.907   4.619   7.858 -0.1350 -0.6029  0.1958
 5854SOL    HW129021   0.961   4.667   7.795 -0.2686 -1.1355 -0.3240
 5854SOL    HW229022   0.828   4.673   7.858 -1.2138 -2.1744 -0.5081
 5855SOL     OW29023   2.834   4.282   1.799 -0.6439  0.1977 -0.0371
 5855SOL    HW129024   2.849   4.191   1.773 -0.1184  0.5326 -0.9021
 5855SOL    HW229025   2.902   4.338   1.760 -0.3008 -0.7666 -0.8255
 5856SOL     OW29026   3.086   4.491  17.490 -0.1381  0.1933  0.1569
 5856SOL    HW129027   3.162   4.487  17.548  0.9180  1.4315 -1.1487
 5856SOL    HW229028   3.128   4.506  17.405 -1.4622 -0.0060 -0.5385
 5857SOL     OW29029   4.166   4.372  13.963 -0.8791  0.1073 -0.0467
 5857SOL    HW129030   4.140   4.291  14.006 -0.9896  0.7584  1.0926
 5857SOL    HW229031   4.097   4.377  13.896 -1.4476 -0.2348  0.5194
 5858SOL     OW29032   1.442   2.836   6.184  0.0307 -0.3516  0.2581
 5858SOL    HW129033   1.479   2.842   6.272 -0.6955  2.0378  0.4183
 5858SOL    HW229034   1.523   2.852   6.136  0.5203 -1.3300  0.7543
 5859SOL     OW29035   4.288   0.465   7.227 -0.0183  0.2897 -0.5374
 5859SOL    HW129036   4.300   0.453   7.321  0.8915  2.4524 -0.3846
 5859SOL    HW229037   4.336   0.392   7.188  1.8796  0.9392  0.6332
 5860SOL     OW29038   3.712   1.055   6.309 -0.2010 -0.2461 -0.5042
 5860SOL    HW129039   3.768   1.012   6.244  0.9485  1.0186 -0.3478
 5860SOL    HW229040   3.683   1.139   6.273  3.6357  2.9389  3.8378
 5861SOL     OW29041   2.892   1.525   3.693  0.2352 -0.2764 -0.0519
 5861SOL    HW129042   2.863   1.613   3.719  1.4507 -0.1067  0.7170
 5861SOL    HW229043   2.974   1.514   3.740 -0.6150  1.9385  1.9559
 5862SOL     OW29044   3.292   2.240   5.195  0.0437 -0.8024  0.3058
 5862SOL    HW129045   3.319   2.153   5.226  2.5985 -0.7049 -1.6231
 5862SOL    HW229046   3.375   2.288   5.191  0.3260 -1.3326 -0.2129
 5863SOL     OW29047   0.938   4.306  14.959 -0.2395 -0.4926 -0.9210
 5863SOL    HW129048   1.013   4.364  14.967  1.5571 -3.0339  0.4297
 5863SOL    HW229049   0.867   4.371  14.961 -1.1963 -1.5343 -0.6333
 5864SOL     OW29050   4.608   3.240   5.028  0.2802 -0.4595 -0.2226
 5864SOL    HW129051   4.683   3.296   5.050  0.6351 -1.3864  0.8704
 5864SOL    HW229052   4.536   3.299   5.052 -0.6915 -1.5321 -0.4786
 5865SOL     OW29053   3.805   2.561   0.949 -0.2976  0.1178  0.8945
 5865SOL    HW129054   3.864   2.510   1.003 -1.2878 -0.9987  0.9192
 5865SOL    HW229055   3.864   2.632   0.925 -0.9456 -0.1777 -1.5764
 5866SOL     OW29056   4.666   3.468   1.937 -0.8481 -0.0603  0.2764
 5866SOL    HW129057   4.637   3.462   1.846 -0.6135  1.6564  0.1021
 5866SOL    HW229058   4.702   3.379   1.940  0.8391  0.6324  0.9475
 5867SOL     OW29059   2.883   0.358   7.664  0.0149  0.3690  0.7165
 5867SOL    HW129060   2.898   0.354   7.759 -2.2991 -0.5791  1.0336
 5867SOL    HW229061   2.789   0.343   7.658  0.5378 -2.8667  0.6809
 5868SOL     OW29062   0.800   2.516   4.455 -0.0771 -0.4536 -0.0350
 5868SOL    HW129063   0.723   2.459   4.464  0.0908 -0.8930 -1.2967
 5868SOL    HW229064   0.817   2.509   4.361 -1.5048 -1.2494 -0.2367
 5869SOL     OW29065   1.784   1.964   4.064  0.1001  0.7292 -0.0554
 5869SOL    HW129066   1.782   1.886   4.119  0.6734  0.3044 -0.6463
 5869SOL    HW229067   1.825   1.927   3.986  0.6150  1.9555 -0.3575
 5870SOL     OW29068   3.511   4.670  10.473  0.1756 -0.5728  0.5225
 5870SOL    HW129069   3.459   4.700  10.399  0.3025  1.0086  1.0614
 5870SOL    HW229070   3.476   0.001  10.548  0.7691  0.2060  0.2898
 5871SOL     OW29071   2.227   0.423   5.182  0.3770  0.6717  0.4376
 5871SOL    HW129072   2.304   0.369   5.199  0.4556  0.7909  0.4519
 5871SOL    HW229073   2.271   0.503   5.155 -1.3733  0.1649 -3.9266
 5872SOL     OW29074   1.398   3.800   4.425 -0.9361 -0.2913  0.5423
 5872SOL    HW129075   1.405   3.749   4.344  0.2172 -0.1073  0.5280
 5872SOL    HW229076   1.336   3.869   4.398 -0.5566  0.0418  0.5143
 5873SOL     OW29077   1.521   3.472  11.375 -0.1585  0.9241 -0.2612
 5873SOL    HW129078   1.523   3.521  11.293 -1.6556 -2.3818 -2.2692
 5873SOL    HW229079   1.543   3.546  11.431  0.4685  0.1822  0.4611
 5874SOL     OW29080   4.299   2.560   4.221 -0.0396  0.4213 -0.5727
 5874SOL    HW129081   4.356   2.583   4.295 -3.6035 -0.1796  2.3569
 5874SOL    HW229082   4.346   2.488   4.180 -1.1741  0.0933 -1.2699
 5875SOL     OW29083   1.691   0.030   4.878  0.3752  0.1196 -0.4915
 5875SOL    HW129084   1.625   0.099   4.871 -1.2649 -1.1982  2.0876
 5875SOL    HW229085   1.658   4.687   4.944 -2.5597  2.4808  0.2101
 5876SOL     OW29086   2.524   1.428   4.145 -0.1115 -0.1638 -0.0055
 5876SOL    HW129087   2.465   1.357   4.122  2.1007 -2.3588  1.1513
 5876SOL    HW229088   2.484   1.500   4.095 -2.0782  0.3423  2.3230
 5877SOL     OW29089   0.902   1.740   8.578  0.0050  0.1781  0.1396
 5877SOL    HW129090   0.923   1.647   8.582 -0.8180 -0.0244 -0.1786
 5877SOL    HW229091   0.814   1.736   8.540  0.3635 -2.9677 -0.3825
 5878SOL     OW29092   3.508   4.626  17.340  0.0547  0.7048  0.5048
 5878SOL    HW129093   3.470   4.547  17.301  4.1879  0.1993 -2.4985
 5878SOL    HW229094   3.553   4.669  17.267  0.5837  0.8022  0.8850
 5879SOL     OW29095   0.788   0.566   1.163  0.1450 -0.4481  0.1815
 5879SOL    HW129096   0.834   0.488   1.135 -0.1050 -1.3621  2.3450
 5879SOL    HW229097   0.702   0.555   1.121  0.8393 -0.1855 -1.3181
 5880SOL     OW29098   1.269   0.170   7.288  0.0602  0.6585 -0.4183
 5880SOL    HW129099   1.205   0.196   7.222 -1.5048  1.3196  1.3714
 5880SOL    HW229100   1.299   0.089   7.246  0.9692  1.3791 -1.1672
 5881SOL     OW29101   2.490   3.093  14.637  0.3478 -0.6043  0.2307
 5881SOL    HW129102   2.527   3.006  14.622 -1.1094 -1.4540  1.5602
 5881SOL    HW229103   2.562   3.151  14.614 -0.5887 -0.0136 -1.2240
 5882SOL     OW29104   1.386   1.380   2.483  0.3694 -0.9530 -0.0208
 5882SOL    HW129105   1.346   1.386   2.396 -0.8340 -1.5103  0.4964
 5882SOL    HW229106   1.345   1.298   2.510  0.5891 -0.7030  1.0679
 5883SOL     OW29107   2.937   3.652  12.871 -0.4479  0.2644 -0.0480
 5883SOL    HW129108   2.858   3.599  12.877 -0.0975 -0.4391 -1.8942
 5883SOL    HW229109   2.929   3.693  12.785  2.8303 -1.3548 -1.1358
 5884SOL     OW29110   3.515   0.583   3.199  0.3238  0.2733  0.3439
 5884SOL    HW129111   3.531   0.674   3.226 -2.0593  0.4571  1.1244
 5884SOL    HW229112   3.510   0.538   3.284 -1.6966 -2.5929 -1.3023
 5885SOL     OW29113   2.916   2.880  17.609  0.1207 -0.0269 -0.1706
 5885SOL    HW129114   2.962   2.861   0.017  0.7880 -2.8940 -1.2306
 5885SOL    HW229115   2.888   2.970  17.629  1.7074  0.6160 -0.8274
 5886SOL     OW29116   2.233   2.058  12.024 -0.3585 -0.6683 -0.1155
 5886SOL    HW129117   2.191   1.972  12.021 -1.3216 -0.2333  0.8206
 5886SOL    HW229118   2.296   2.034  12.093  1.0008 -0.2454 -1.2121
 5887SOL     OW29119   0.849   3.928   4.680 -0.7753 -0.5388 -0.1142
 5887SOL    HW129120   0.814   3.999   4.626  0.4569 -0.0349 -0.2472
 5887SOL    HW229121   0.794   3.915   4.757 -1.3218 -1.0809 -0.5947
 5888SOL     OW29122   0.473   3.374   9.587 -0.3358  0.5670 -0.1643
 5888SOL    HW129123   0.527   3.369   9.667 -1.7537  2.4096  0.9104
 5888SOL    HW229124   0.458   3.280   9.578 -1.6718  0.6958  0.7052
 5889SOL     OW29125   3.114   3.772   7.735  0.4258  0.0545 -0.1265
 5889SOL    HW129126   3.163   3.705   7.686 -0.7782 -1.2813  0.5044
 5889SOL    HW229127   3.141   3.855   7.696  3.2456 -0.8723 -0.1439
 5890SOL     OW29128   3.517   3.464   6.777 -0.1207  0.3576 -0.5433
 5890SOL    HW129129   3.588   3.478   6.715 -1.3949  0.9468 -1.8447
 5890SOL    HW229130   3.443   3.488   6.721 -0.0625 -0.0713 -0.8008
 5891SOL     OW29131   0.622   2.046   2.674  0.2776  0.6840 -0.2294
 5891SOL    HW129132   0.669   2.067   2.755 -1.9117 -0.5462  1.3838
 5891SOL    HW229133   0.689   2.055   2.607  2.8854  0.6704  2.3379
 5892SOL     OW29134   1.789   2.515  12.887 -0.2519  0.3372 -0.0434
 5892SOL    HW129135   1.738   2.596  12.887  1.0513  1.1574  0.3764
 5892SOL    HW229136   1.748   2.464  12.957 -1.3919 -0.4820 -1.3333
 5893SOL     OW29137   3.117   4.168   4.986  0.5056 -0.1415  0.0004
 5893SOL    HW129138   3.066   4.168   5.068  1.0859  1.8153  0.3616
 5893SOL    HW229139   3.056   4.143   4.917  0.8145 -1.2113  0.1040
 5894SOL     OW29140   1.457   0.725  13.227  0.3295 -0.3391 -0.7985
 5894SOL    HW129141   1.441   0.815  13.199 -1.2089 -0.5617 -0.6542
 5894SOL    HW229142   1.514   0.726  13.304 -1.1175 -0.8180  0.2937
 5895SOL     OW29143   3.867   1.141  14.434 -0.0546 -0.2050 -0.0805
 5895SOL    HW129144   3.946   1.086  14.433  2.0722  2.7966  1.2615
 5895SOL    HW229145   3.858   1.140  14.529 -2.0484 -1.7379 -0.2987
 5896SOL     OW29146   2.746   0.872  12.469  0.1586 -0.3512 -0.5324
 5896SOL    HW129147   2.806   0.910  12.404  0.3011  0.2984 -0.0179
 5896SOL    HW229148   2.677   0.938  12.468  0.1643 -0.3204  1.5564
 5897SOL     OW29149   0.019   1.142   4.615 -0.4583  0.3461 -0.0788
 5897SOL    HW129150   0.104   1.103   4.595 -0.1367  1.2728 -0.5156
 5897SOL    HW229151   4.712   1.101   4.698  1.2519 -0.4332  0.0528
 5898SOL     OW29152   1.666   3.545   0.521 -0.2608  0.0084  0.1290
 5898SOL    HW129153   1.635   3.469   0.471 -1.7490  0.7350 -0.0665
 5898SOL    HW229154   1.745   3.571   0.474  0.2484 -2.4312 -0.3788
 5899SOL     OW29155   1.550   3.695   3.453  0.0805 -0.7496 -0.1223
 5899SOL    HW129156   1.596   3.756   3.396 -0.1087  0.5427  1.1274
 5899SOL    HW229157   1.470   3.740   3.480  1.8230  1.3844  1.4589
 5900SOL     OW29158   0.791   4.323   2.343  0.2909 -0.2197  0.0006
 5900SOL    HW129159   0.805   4.417   2.336 -1.8543 -0.0956 -2.6004
 5900SOL    HW229160   0.704   4.321   2.303 -1.0015 -1.0577  2.9008
 5901SOL     OW29161   0.509   0.308   2.041 -0.0689  0.3391 -0.4202
 5901SOL    HW129162   0.457   0.232   2.068  0.5099 -0.3165 -1.1617
 5901SOL    HW229163   0.561   0.261   1.975 -0.7182 -1.2672  0.1935
 5902SOL     OW29164   0.566   1.297   3.633 -0.1266  0.1646 -0.1522
 5902SOL    HW129165   0.540   1.373   3.580 -0.4808 -0.2428 -0.5626
 5902SOL    HW229166   0.640   1.333   3.683  0.4765  1.1476 -1.7430
 5903SOL     OW29167   1.574   0.351  12.686  0.3820  0.2086  0.1424
 5903SOL    HW129168   1.656   0.390  12.657  1.3375 -1.6654  0.3670
 5903SOL    HW229169   1.604   0.281  12.744 -0.9225  1.1619  1.9637
 5904SOL     OW29170   3.773   4.604   6.014  0.1572 -0.2944  0.0002
 5904SOL    HW129171   3.709   4.618   5.943  2.0754 -0.6536 -1.8129
 5904SOL    HW229172   3.746   4.678   6.069  2.7232 -0.4360  1.4023
 5905SOL     OW29173   2.148   3.177   3.926  0.4957 -0.3771 -0.6334
 5905SOL    HW129174   2.128   3.176   3.832 -1.3592  2.3495 -0.2722
 5905SOL    HW229175   2.131   3.267   3.955  0.4405 -0.2025 -1.1983
 5906SOL     OW29176   4.314   2.700   9.654 -0.3514  0.1362 -0.2551
 5906SOL    HW129177   4.335   2.694   9.561  0.0927  1.4251 -0.2302
 5906SOL    HW229178   4.337   2.790   9.674 -0.0124  0.0855 -0.4318
 5907SOL     OW29179   1.308   3.442   7.270 -0.6399  0.5648  0.0608
 5907SOL    HW129180   1.356   3.435   7.352  1.5503 -1.4082 -1.3790
 5907SOL    HW229181   1.273   3.353   7.259  0.2544  0.2989 -0.7034
 5908SOL     OW29182   4.298   4.007   3.748 -0.1732 -0.0767  0.6178
 5908SOL    HW129183   4.316   3.928   3.697  0.7486 -0.3927  1.4160
 5908SOL    HW229184   4.387   4.032   3.774  0.7765 -1.8440 -0.9222
 5909SOL     OW29185   1.569   0.809   1.185 -0.0067  0.1476 -0.3921
 5909SOL    HW129186   1.557   0.894   1.228  1.3625 -1.1711  2.5663
 5909SOL    HW229187   1.537   0.751   1.254 -1.9083  1.3095 -0.2921
 5910SOL     OW29188   4.433   2.962   9.805 -0.0877  0.2815 -0.1298
 5910SOL    HW129189   4.499   2.978   9.737 -1.6555  1.8885 -1.2826
 5910SOL    HW229190   4.447   3.040   9.859 -0.9825  1.6401 -1.8554
 5911SOL     OW29191   0.139   2.399   5.839  0.5409 -1.2860  0.5082
 5911SOL    HW129192   0.112   2.491   5.841 -3.6773 -2.5479  0.5896
 5911SOL    HW229193   0.196   2.388   5.762  1.0063  0.6691  0.5840
 5912SOL     OW29194   3.305   4.161   9.733  0.1473  0.0438  0.1914
 5912SOL    HW129195   3.255   4.243   9.737 -0.4135 -0.1625 -2.2604
 5912SOL    HW229196   3.347   4.179   9.648 -0.5725 -0.2486 -0.2308
 5913SOL     OW29197   1.708   1.879   2.993  0.2742  0.7368  0.4514
 5913SOL    HW129198   1.650   1.954   3.010  1.6515  2.0251 -0.4599
 5913SOL    HW229199   1.729   1.875   2.899  0.1028  0.2456  0.4350
 5914SOL     OW29200   3.076   3.665   5.128 -0.2802  0.2768  0.0163
 5914SOL    HW129201   3.135   3.732   5.164  0.9021 -0.7428 -0.0565
 5914SOL    HW229202   3.081   3.693   5.036 -2.8448 -1.4194 -0.6243
 5915SOL     OW29203   1.324   2.053   1.261 -0.3433  1.1919 -0.0053
 5915SOL    HW129204   1.394   2.046   1.196  0.3395  0.5680  0.8008
 5915SOL    HW229205   1.261   2.019   1.198  1.4198  0.0819 -1.1595
 5916SOL     OW29206   4.429   2.559   5.739  0.0445 -0.1076  0.2815
 5916SOL    HW129207   4.473   2.520   5.663  0.6095  2.7745 -0.8696
 5916SOL    HW229208   4.335   2.553   5.720  0.0235 -1.5759  0.7930
 5917SOL     OW29209   1.662   0.010   3.833  0.4844  0.3194 -0.5853
 5917SOL    HW129210   1.624   0.046   3.753  0.9139  1.8805 -0.0969
 5917SOL    HW229211   1.698   4.649   3.792 -0.3982  1.1785 -2.9797
 5918SOL     OW29212   4.168   3.401   8.006 -0.0914  0.0776  0.2323
 5918SOL    HW129213   4.110   3.477   8.013  0.2855  0.5014 -1.1349
 5918SOL    HW229214   4.145   3.366   7.919  0.6336 -0.0952  0.1095
 5919SOL     OW29215   1.940   1.598   8.422 -0.8110  0.2822 -0.0059
 5919SOL    HW129216   1.861   1.623   8.469  0.0970 -0.6682  2.0508
 5919SOL    HW229217   1.975   1.684   8.399 -1.1069  0.5648  0.6092
 5920SOL     OW29218   4.478   4.593  16.479  0.3298  0.9520  0.2126
 5920SOL    HW129219   4.426   4.666  16.444 -0.4539  0.0821 -0.4335
 5920SOL    HW229220   4.415   4.522  16.486 -0.0701  1.6613  3.9544
 5921SOL     OW29221   4.438   1.810   8.683 -0.3261  0.5284  0.8250
 5921SOL    HW129222   4.375   1.743   8.656  1.1090  0.4891 -2.4658
 5921SOL    HW229223   4.468   1.850   8.602  0.2294 -1.0081  0.2667
 5922SOL     OW29224   1.398   3.790   6.789  0.0280  0.5799  0.0213
 5922SOL    HW129225   1.487   3.811   6.818 -0.6873  0.8521  1.9847
 5922SOL    HW229226   1.367   3.718   6.843 -2.1405 -0.6986 -2.9270
 5923SOL     OW29227   4.186   1.234   5.296  0.0343  0.0408  0.1173
 5923SOL    HW129228   4.166   1.141   5.311  1.6547 -0.3338 -0.0831
 5923SOL    HW229229   4.280   1.246   5.307 -0.6679  4.4703  0.9597
 5924SOL     OW29230   1.293   1.145   7.220 -0.1249  0.0120  0.6233
 5924SOL    HW129231   1.359   1.160   7.154 -2.0120 -1.1762 -1.5380
 5924SOL    HW229232   1.221   1.104   7.172  0.7519  0.1948 -0.8262
 5925SOL     OW29233   0.298   3.430   8.408 -0.6914 -0.0629 -0.0325
 5925SOL    HW129234   0.355   3.424   8.331 -1.6116  1.8769 -0.8612
 5925SOL    HW229235   0.362   3.447   8.477 -1.4377  0.5654  0.4989
 5926SOL     OW29236   2.224   2.642   7.313 -0.0422  0.3899 -0.0229
 5926SOL    HW129237   2.226   2.737   7.310  0.9108  0.3479 -0.4868
 5926SOL    HW229238   2.273   2.624   7.393 -0.2057 -2.6366 -0.5783
 5927SOL     OW29239   4.335   3.427  14.529 -0.2541  0.0201 -0.0069
 5927SOL    HW129240   4.423   3.429  14.567 -0.7010 -2.3218  1.2010
 5927SOL    HW229241   4.360   3.425  14.437  0.6497 -0.3623  0.2455
 5928SOL     OW29242   4.389   3.208   6.176 -0.0550 -0.2086 -0.0112
 5928SOL    HW129243   4.400   3.151   6.099 -1.1648  0.3832 -0.5987
 5928SOL    HW229244   4.294   3.202   6.181 -0.1724  0.3961 -1.5604
 5929SOL     OW29245   3.359   3.928   5.546  0.2573  0.4212 -0.4346
 5929SOL    HW129246   3.360   3.975   5.629 -0.7892 -0.6505  0.1793
 5929SOL    HW229247   3.386   3.995   5.483  1.0197 -0.1527 -0.7253
 5930SOL     OW29248   4.183   1.650   8.585 -0.2965 -0.5447  0.1717
 5930SOL    HW129249   4.104   1.596   8.591 -0.8479  0.0755 -1.4754
 5930SOL    HW229250   4.158   1.723   8.641  0.0951 -0.5772  0.3878
 5931SOL     OW29251   0.241   1.194   5.986  0.3370  0.0786  0.7978
 5931SOL    HW129252   0.243   1.205   5.891 -0.7519  1.8779  0.9775
 5931SOL    HW229253   0.147   1.205   5.995  0.2218 -0.1537 -0.1352
 5932SOL     OW29254   3.322   2.669   0.811  0.3054  0.0681 -0.2423
 5932SOL    HW129255   3.307   2.717   0.730  1.0262  0.9071  0.1196
 5932SOL    HW229256   3.289   2.730   0.876  0.2592  0.5988 -0.7723
 5933SOL     OW29257   3.983   0.712  14.107  0.3793  0.6112 -0.3908
 5933SOL    HW129258   3.999   0.789  14.162 -1.0805  0.6673 -0.0453
 5933SOL    HW229259   3.979   0.642  14.172 -3.3034  0.8398 -0.3784
 5934SOL     OW29260   3.996   0.996  10.322 -0.0299 -0.8755  0.3584
 5934SOL    HW129261   4.078   0.946  10.318  0.4940 -0.0099  0.4574
 5934SOL    HW229262   3.992   0.993  10.226 -0.4118 -1.0265  0.3753
 5935SOL     OW29263   4.700   4.004   3.385  0.1105 -0.3895 -0.2194
 5935SOL    HW129264   0.024   3.976   3.467 -1.4434  1.2978  1.1510
 5935SOL    HW229265   0.020   3.942   3.322  0.2789 -1.4081  0.8942
 5936SOL     OW29266   0.310   3.560   4.852 -0.2590  0.6882  0.0673
 5936SOL    HW129267   0.278   3.638   4.899 -1.6040  0.9211 -1.2359
 5936SOL    HW229268   0.366   3.523   4.920 -1.3478  2.7489  2.1347
 5937SOL     OW29269   0.543   3.686   4.000 -0.3303 -0.3599 -0.2913
 5937SOL    HW129270   0.592   3.726   3.928  1.9753 -2.8862 -0.1296
 5937SOL    HW229271   0.617   3.656   4.052 -1.8190 -3.0932  0.2232
 5938SOL     OW29272   4.198   1.846   6.699  0.2219  0.3983  0.8273
 5938SOL    HW129273   4.160   1.761   6.718  2.1529 -0.5644  0.3808
 5938SOL    HW229274   4.292   1.834   6.713  0.0664 -1.8972 -0.1208
 5939SOL     OW29275   4.622   2.629   8.650  0.3391  0.0760 -0.4388
 5939SOL    HW129276   4.646   2.537   8.661 -1.3706 -0.2896  0.1600
 5939SOL    HW229277   4.587   2.645   8.563  1.1332 -1.8157 -1.1035
 5940SOL     OW29278   1.651   0.633  11.954 -0.2250 -0.4387 -0.1036
 5940SOL    HW129279   1.732   0.610  11.908  0.4565 -2.1363  1.9566
 5940SOL    HW229280   1.679   0.664  12.039 -0.1976 -0.3141 -0.1583
 5941SOL     OW29281   1.128   3.060   0.096  0.0832 -0.0164  0.8424
 5941SOL    HW129282   1.039   3.093   0.087  1.5191  3.6667  0.2850
 5941SOL    HW229283   1.158   3.085   0.009  0.6638 -0.6331  0.8626
 5942SOL     OW29284   3.058   3.368   8.988 -0.2547 -0.1214 -0.8992
 5942SOL    HW129285   2.987   3.359   9.051  0.9857 -1.1889  0.3349
 5942SOL    HW229286   3.064   3.275   8.966  2.9362 -0.0556 -0.2063
 5943SOL     OW29287   4.685   0.627   3.048  0.2599 -0.0865  0.0025
 5943SOL    HW129288   4.691   0.561   2.978 -3.7816  0.0972 -0.5136
 5943SOL    HW229289   0.011   0.705   3.013 -1.7583  0.7459 -0.6084
 5944SOL     OW29290   0.209   3.647   8.703  0.1807 -0.2557 -0.1604
 5944SOL    HW129291   0.182   3.619   8.791 -0.9028 -2.4865 -1.2039
 5944SOL    HW229292   0.275   3.585   8.674  2.3211  2.4263 -0.9837
 5945SOL     OW29293   4.090   3.180   3.861  0.4758 -0.0074 -0.2339
 5945SOL    HW129294   4.015   3.135   3.900  1.7243 -0.6070  1.4949
 5945SOL    HW229295   4.118   3.102   3.814  0.0902 -1.9950  2.8090
 5946SOL     OW29296   0.953   3.431   2.367  0.3554 -0.1911 -0.0991
 5946SOL    HW129297   1.029   3.480   2.335 -0.5278  0.6151 -0.9877
 5946SOL    HW229298   0.975   3.459   2.456  3.1782 -2.8008 -0.0012
 5947SOL     OW29299   0.829   2.627   5.952 -0.1981  0.0381 -0.1036
 5947SOL    HW129300   0.858   2.550   5.999 -1.8372 -0.7116 -0.3053
 5947SOL    HW229301   0.903   2.639   5.893 -1.5061 -0.4223 -1.8372
 5948SOL     OW29302   3.139   2.443   2.915 -0.1444  0.0848 -0.7079
 5948SOL    HW129303   3.047   2.444   2.942 -0.0683  0.7325 -0.4810
 5948SOL    HW229304   3.180   2.480   2.993  0.5172  0.6493 -1.3244
 5949SOL     OW29305   3.370   1.183   4.924 -0.9192 -0.2178  0.5882
 5949SOL    HW129306   3.390   1.104   4.973  1.2976  0.4496  0.7311
 5949SOL    HW229307   3.321   1.145   4.850 -1.6236  0.0017  0.9369
 5950SOL     OW29308   2.127   1.064   9.791 -0.2561  0.2555  0.1951
 5950SOL    HW129309   2.056   1.094   9.734  0.5628 -1.3846 -1.7031
 5950SOL    HW229310   2.086   1.011   9.859 -0.8904 -1.2807 -1.3650
 5951SOL     OW29311   2.941   4.537   5.966  0.3382  0.3725  0.5301
 5951SOL    HW129312   2.915   4.544   6.058  2.7480 -1.3335  1.3239
 5951SOL    HW229313   2.931   4.630   5.942 -0.0146 -0.2378 -1.6459
 5952SOL     OW29314   3.917   2.478   6.520 -0.0720  0.1707  0.3703
 5952SOL    HW129315   3.961   2.431   6.591 -1.9634 -2.9417 -0.4791
 5952SOL    HW229316   3.825   2.452   6.530  0.0444 -0.5999 -0.5335
 5953SOL     OW29317   1.170   0.446  14.129  0.0823  0.6379 -0.6924
 5953SOL    HW129318   1.181   0.412  14.040 -1.1120  2.4228 -1.5199
 5953SOL    HW229319   1.087   0.409  14.159 -0.1945  1.2309 -0.7180
 5954SOL     OW29320   4.465   0.058   1.427 -0.0049  0.0518  0.3592
 5954SOL    HW129321   4.522   0.022   1.495  2.5556  0.0577 -1.7623
 5954SOL    HW229322   4.525   0.093   1.361  0.7695 -0.8252  0.5890
 5955SOL     OW29323   2.768   3.534  12.484 -0.2516 -0.1310 -0.1090
 5955SOL    HW129324   2.763   3.628  12.470  0.1831  0.1705  1.7066
 5955SOL    HW229325   2.723   3.515  12.402 -0.7111 -1.1594  0.3764
 5956SOL     OW29326   3.944   3.645   6.257  0.2402  0.1125 -0.0522
 5956SOL    HW129327   3.974   3.722   6.208  0.2261 -0.8548 -1.5687
 5956SOL    HW229328   3.850   3.657   6.260 -0.0589 -1.8563 -1.7187
 5957SOL     OW29329   4.294   4.314   2.585 -0.5058  0.3086 -0.6239
 5957SOL    HW129330   4.263   4.401   2.610 -0.5976  0.2387 -0.4963
 5957SOL    HW229331   4.320   4.289   2.673 -0.2052 -1.9742 -1.3613
 5958SOL     OW29332   0.225   0.093   9.680  0.3774 -0.1156 -0.0540
 5958SOL    HW129333   0.320   0.097   9.689  0.3355 -1.0554  0.8185
 5958SOL    HW229334   0.208   0.182   9.648  1.8987  0.3769  0.5016
 5959SOL     OW29335   0.987   3.543   6.449  0.5301  0.2555  0.7250
 5959SOL    HW129336   1.025   3.525   6.363  0.5913 -0.7335  0.9623
 5959SOL    HW229337   0.907   3.490   6.445 -1.0019  2.6747 -1.1182
 5960SOL     OW29338   3.172   0.454   5.919 -0.2992 -0.2436 -0.2816
 5960SOL    HW129339   3.170   0.437   6.013  1.6556 -0.7003 -0.3330
 5960SOL    HW229340   3.165   0.549   5.927  0.0628 -0.2710  0.3586
 5961SOL     OW29341   0.428   0.430   4.560  0.8590  0.5593 -0.1976
 5961SOL    HW129342   0.471   0.409   4.477 -1.1833  0.2703 -1.2061
 5961SOL    HW229343   0.347   0.471   4.528 -0.4210 -1.5220  0.3397
 5962SOL     OW29344   3.629   2.740  11.435  0.2157 -0.4970 -0.3681
 5962SOL    HW129345   3.659   2.651  11.449  0.2408 -0.3951  0.2129
 5962SOL    HW229346   3.696   2.793  11.479 -0.0721 -1.1510  0.8241
 5963SOL     OW29347   3.345   0.613  10.398  0.1080 -0.0503  0.1350
 5963SOL    HW129348   3.399   0.583  10.471  2.4285  2.4903 -0.5167
 5963SOL    HW229349   3.277   0.665  10.439 -0.8769 -2.1838  1.1752
 5964SOL     OW29350   3.043   3.575   9.628  0.2534  0.2882  0.1567
 5964SOL    HW129351   3.021   3.498   9.681 -2.0569  0.7994 -0.0459
 5964SOL    HW229352   3.092   3.632   9.688 -0.3603 -0.9307  1.8249
 5965SOL     OW29353   0.681   1.414   2.391 -0.4021  0.4179  0.3957
 5965SOL    HW129354   0.697   1.334   2.441  2.8426 -0.7278 -2.4506
 5965SOL    HW229355   0.602   1.446   2.435  0.2835  1.5909  0.7608
 5966SOL     OW29356   1.793   2.790   6.399 -0.3926 -0.3573  0.4542
 5966SOL    HW129357   1.709   2.834   6.409  0.4844  1.4052  0.1628
 5966SOL    HW229358   1.770   2.741   6.320 -2.3163  0.9853  0.1700
 5967SOL     OW29359   0.747   3.563   4.133  0.2126 -0.3946  0.2033
 5967SOL    HW129360   0.839   3.544   4.147  0.1344  0.3593  1.7069
 5967SOL    HW229361   0.715   3.479   4.164 -2.8677  0.1640 -1.4294
 5968SOL     OW29362   2.867   2.365  16.115  0.0709  0.3047 -0.0068
 5968SOL    HW129363   2.928   2.324  16.054 -0.1181 -1.9056  1.2938
 5968SOL    HW229364   2.840   2.438  16.058 -0.6067 -0.4763 -0.6887
 5969SOL     OW29365   3.350   3.651   5.810 -0.2094  0.3718  0.3658
 5969SOL    HW129366   3.401   3.600   5.873  0.2473 -1.2603 -1.3421
 5969SOL    HW229367   3.270   3.667   5.860  0.4950  0.8809  1.3356
 5970SOL     OW29368   2.209   1.685   2.571  0.2371  0.1148 -0.3094
 5970SOL    HW129369   2.241   1.622   2.507 -1.5973 -0.6481 -0.4724
 5970SOL    HW229370   2.289   1.695   2.622  0.6512 -2.7678 -0.4086
 5971SOL     OW29371   2.192   2.077   8.377 -0.3393 -0.2093  0.0955
 5971SOL    HW129372   2.227   2.021   8.308 -0.5528 -1.2529  0.8326
 5971SOL    HW229373   2.184   2.015   8.450  3.5602 -0.1620  0.5205
 5972SOL     OW29374   3.488   3.344  17.559  0.9234 -0.2223  0.1627
 5972SOL    HW129375   3.498   3.352  17.654 -2.0799 -0.1623  0.4647
 5972SOL    HW229376   3.561   3.287  17.532 -0.4030 -1.2081 -1.3951
 5973SOL     OW29377   0.374   2.400   8.559 -0.7820 -0.1195  0.2151
 5973SOL    HW129378   0.427   2.478   8.575  0.4149 -1.0256  0.6045
 5973SOL    HW229379   0.407   2.341   8.626 -0.0014  0.4609  0.3369
 5974SOL     OW29380   3.118   1.932   8.143 -0.4904  0.3416  0.5950
 5974SOL    HW129381   3.147   1.879   8.069 -0.7654 -0.3353  0.9761
 5974SOL    HW229382   3.196   1.934   8.198  0.0464  1.2193 -0.1941
 5975SOL     OW29383   2.366   1.144   0.652 -0.5397  0.0473  0.5269
 5975SOL    HW129384   2.335   1.193   0.728  0.4077 -0.9333  1.5431
 5975SOL    HW229385   2.432   1.086   0.689 -0.8481 -1.1372 -0.7629
 5976SOL     OW29386   2.158   0.546   6.210 -0.0563 -0.1867  0.8713
 5976SOL    HW129387   2.128   0.495   6.285  2.5693  1.4885  3.0858
 5976SOL    HW229388   2.232   0.493   6.178 -1.7009  0.3751 -3.9016
 5977SOL     OW29389   0.547   3.250  15.991  0.0386 -0.1305  0.2583
 5977SOL    HW129390   0.638   3.271  15.973  0.3477  0.0811  2.0808
 5977SOL    HW229391   0.530   3.174  15.936 -0.8215 -0.0646  0.4333
 5978SOL     OW29392   2.542   2.565  15.935  0.1880 -0.6849 -0.9892
 5978SOL    HW129393   2.541   2.629  16.006 -0.3808  0.4454 -2.0264
 5978SOL    HW229394   2.633   2.536  15.942  0.7016  1.8461  2.8326
 5979SOL     OW29395   3.283   2.954  12.921 -0.4359  0.0873 -0.2046
 5979SOL    HW129396   3.243   3.040  12.934 -0.1923 -0.0543  1.4932
 5979SOL    HW229397   3.240   2.928  12.839  0.7975  2.0267 -1.4703
 5980SOL     OW29398   0.459   1.366   6.876 -0.2726  0.1249 -0.5665
 5980SOL    HW129399   0.447   1.272   6.893  2.0997  0.6298  3.9456
 5980SOL    HW229400   0.429   1.376   6.786  0.9943 -0.6213 -1.0764
 5981SOL     OW29401   2.163   1.682   5.502 -0.1363 -0.0806 -0.2179
 5981SOL    HW129402   2.174   1.758   5.559  0.7224  0.0426 -0.5459
 5981SOL    HW229403   2.071   1.663   5.520  0.4604 -2.8391 -0.1296
 5982SOL     OW29404   1.486   0.921   8.705  0.2277 -0.7885  0.7263
 5982SOL    HW129405   1.511   0.933   8.797 -2.6097  0.8780  1.2835
 5982SOL    HW229406   1.398   0.883   8.708 -0.3795  0.3873 -2.7169
 5983SOL     OW29407   2.211   2.532   0.462  0.3218 -0.6072  0.5098
 5983SOL    HW129408   2.119   2.547   0.482  0.5832  3.3898 -1.1730
 5983SOL    HW229409   2.209   2.507   0.370  0.9093  0.5283  0.1933
 5984SOL     OW29410   1.704   2.899  15.424 -0.4824 -0.4226 -1.1455
 5984SOL    HW129411   1.613   2.898  15.454 -0.8864 -0.6186 -2.4110
 5984SOL    HW229412   1.687   2.864  15.337  0.4062  0.8483 -1.8170
 5985SOL     OW29413   2.903   3.782   3.502 -0.4749  0.2211  0.1240
 5985SOL    HW129414   2.892   3.863   3.552 -0.4741 -0.2348  0.8657
 5985SOL    HW229415   2.937   3.724   3.570  0.9816  1.9156  0.8152
 5986SOL     OW29416   4.027   1.931   7.779  0.3995 -0.3150 -0.2392
 5986SOL    HW129417   4.056   1.985   7.706 -0.9293 -1.1941 -1.4109
 5986SOL    HW229418   4.109   1.914   7.826 -0.3226 -0.8962  0.8061
 5987SOL     OW29419   1.514   1.185   5.413  0.7656  0.3178  0.1206
 5987SOL    HW129420   1.428   1.224   5.433 -0.2235 -0.6984 -2.1018
 5987SOL    HW229421   1.492   1.123   5.343  1.4818  0.1261  0.0654
 5988SOL     OW29422   1.936   3.901  13.912  0.3382  0.4871 -0.0701
 5988SOL    HW129423   1.871   3.836  13.939  0.7122 -0.5595 -1.7428
 5988SOL    HW229424   1.883   3.969  13.869 -1.3755  0.1647  1.5003
 5989SOL     OW29425   1.591   2.778  16.482  0.5305 -0.5681  0.1319
 5989SOL    HW129426   1.515   2.831  16.458  1.4981  0.2536 -1.1161
 5989SOL    HW229427   1.554   2.718  16.546 -0.8385 -1.6643 -1.6638
 5990SOL     OW29428   1.857   2.357  12.690  0.1125 -0.5623 -0.5579
 5990SOL    HW129429   1.837   2.427  12.751  1.8955  0.0540 -0.6625
 5990SOL    HW229430   1.933   2.320  12.735 -0.0739  0.2459  0.3937
 5991SOL     OW29431   3.003   3.502   2.498  0.0103  0.4555 -0.1366
 5991SOL    HW129432   2.949   3.473   2.424 -1.7318  1.3676  0.7671
 5991SOL    HW229433   3.025   3.590   2.469  0.4158 -0.3567 -2.2848
 5992SOL     OW29434   3.296   1.485   8.656  0.5010  0.4896 -0.5331
 5992SOL    HW129435   3.218   1.520   8.699 -1.0251  0.0865 -2.9410
 5992SOL    HW229436   3.327   1.563   8.608  2.9997 -0.6472 -0.8006
 5993SOL     OW29437   3.603   0.809  12.096 -0.1846 -0.2864 -0.2760
 5993SOL    HW129438   3.535   0.750  12.061 -0.4131 -0.7119  0.8836
 5993SOL    HW229439   3.642   0.844  12.017  1.7453 -1.8434 -0.0121
 5994SOL     OW29440   2.022   1.018   7.597 -0.0013 -0.0313  0.2433
 5994SOL    HW129441   2.043   1.085   7.662 -1.1366  1.0255 -0.4962
 5994SOL    HW229442   1.933   1.000   7.626 -0.3228 -0.5357 -1.0831
 5995SOL     OW29443   1.336   0.039  11.579 -0.1738  0.4246 -0.3094
 5995SOL    HW129444   1.365   0.029  11.488  0.1933 -0.1836 -0.1190
 5995SOL    HW229445   1.386   0.117  11.605  0.6376 -0.5047  0.8557
 5996SOL     OW29446   4.400   3.425   2.433  0.3750  0.0519 -0.2043
 5996SOL    HW129447   4.445   3.427   2.349  1.1382 -0.4386  0.2000
 5996SOL    HW229448   4.403   3.520   2.447  1.8933 -0.0373  0.0214
 5997SOL     OW29449   2.755   3.405  17.366 -0.1953 -0.6256 -0.1498
 5997SOL    HW129450   2.788   3.332  17.314 -2.2075 -0.2097 -2.0337
 5997SOL    HW229451   2.787   3.480  17.316  0.0814 -0.1302  0.7740
 5998SOL     OW29452   3.976   2.597   1.161 -1.0248  0.1480 -0.6522
 5998SOL    HW129453   3.988   2.544   1.240  0.9832  1.6272  0.0399
 5998SOL    HW229454   4.055   2.575   1.113  1.4414  2.4707  2.3217
 5999SOL     OW29455   0.408   0.927   8.807 -0.2693 -0.4449 -0.5485
 5999SOL    HW129456   0.383   0.862   8.742  0.1080  1.8569 -2.9994
 5999SOL    HW229457   0.341   0.993   8.787  0.1814  0.1955  0.0700
 6000SOL     OW29458   1.290   2.971   9.532  0.1639 -0.2394  0.4469
 6000SOL    HW129459   1.347   2.964   9.608 -1.6460 -2.6202  1.5891
 6000SOL    HW229460   1.264   2.879   9.527  1.2158 -0.4320 -1.4735
 6001SOL     OW29461   4.668   0.950   4.296 -0.5366 -0.5167 -0.0715
 6001SOL    HW129462   4.637   1.025   4.346  0.8638 -1.6291  2.4946
 6001SOL    HW229463   0.023   0.986   4.245 -0.9178 -1.5147 -1.3074
 6002SOL     OW29464   2.413   2.325  14.388 -0.0475  0.1109  0.8590
 6002SOL    HW129465   2.368   2.405  14.415 -0.2299  1.1159 -2.4829
 6002SOL    HW229466   2.454   2.343  14.304  0.0842  0.4327  0.9908
 6003SOL     OW29467   1.857   0.342   5.355 -0.2991  0.1494 -0.1225
 6003SOL    HW129468   1.912   0.269   5.384  0.9789  1.5177  0.8742
 6003SOL    HW229469   1.929   0.395   5.320  0.1760 -1.5022 -1.6539
 6004SOL     OW29470   4.251   2.107   8.541 -1.2959 -0.2860 -0.2010
 6004SOL    HW129471   4.209   2.183   8.582 -0.1388  0.2068  0.0850
 6004SOL    HW229472   4.291   2.144   8.462 -1.2427 -2.4206 -1.1552
 6005SOL     OW29473   0.775   1.146   4.503  0.7643 -0.1191  0.1185
 6005SOL    HW129474   0.733   1.231   4.488 -1.8674 -1.2982  0.8922
 6005SOL    HW229475   0.799   1.127   4.412 -2.6380  1.1840 -1.0538
 6006SOL     OW29476   0.889   1.297   3.531  0.1441 -0.0024  0.7793
 6006SOL    HW129477   0.890   1.249   3.615 -2.2123  1.5287  1.6756
 6006SOL    HW229478   0.875   1.385   3.565  0.5832  0.3213  0.1026
 6007SOL     OW29479   2.584   1.245   1.208 -0.2205  0.2154 -0.1740
 6007SOL    HW129480   2.499   1.221   1.246  0.2984 -2.4019 -0.6594
 6007SOL    HW229481   2.620   1.158   1.222 -0.1744  0.5260  1.6108
 6008SOL     OW29482   0.733   2.569   3.200  0.5607  0.3313 -0.5320
 6008SOL    HW129483   0.819   2.537   3.229  0.1836  0.5962  0.9026
 6008SOL    HW229484   0.722   2.514   3.123 -1.0897 -0.1721  0.0744
 6009SOL     OW29485   4.319   1.025   1.988  0.5142  0.0585  0.1883
 6009SOL    HW129486   4.341   0.963   2.058  1.0824 -0.0505 -0.0845
 6009SOL    HW229487   4.257   1.077   2.038 -2.2422 -2.0143 -1.0257
 6010SOL     OW29488   2.204   0.720   6.501 -0.1466 -0.5160  0.3933
 6010SOL    HW129489   2.137   0.786   6.517  0.0151 -0.4224  0.6925
 6010SOL    HW229490   2.158   0.662   6.440  2.8310 -1.5625 -0.8706
 6011SOL     OW29491   4.188   4.207   0.687 -0.4756 -0.2717  0.3484
 6011SOL    HW129492   4.219   4.118   0.706 -0.3799 -0.9081 -2.8374
 6011SOL    HW229493   4.272   4.253   0.693 -0.0431 -0.6796 -2.7044
 6012SOL     OW29494   0.678   1.793   1.294  0.3572  0.1387  0.1627
 6012SOL    HW129495   0.585   1.792   1.271  0.7576 -0.9844 -1.3604
 6012SOL    HW229496   0.671   1.814   1.388  1.2385 -1.2880  0.5417
 6013SOL     OW29497   3.053   0.921   7.689 -0.3265 -0.2947 -0.6516
 6013SOL    HW129498   3.075   0.860   7.759 -0.1080  0.8620  0.2982
 6013SOL    HW229499   3.133   0.923   7.637 -1.6705  1.7135 -2.6653
 6014SOL     OW29500   3.794   3.549   1.025  0.7177 -0.2199 -0.1353
 6014SOL    HW129501   3.835   3.631   1.001  0.6249 -0.5840 -1.5488
 6014SOL    HW229502   3.865   3.497   1.063 -0.3717 -0.0718  2.1058
 6015SOL     OW29503   1.791   1.656   7.239  0.2815  0.3672 -0.2935
 6015SOL    HW129504   1.734   1.724   7.275 -1.7316 -0.8822 -1.1170
 6015SOL    HW229505   1.785   1.592   7.309 -0.5423  0.7446 -0.0197
 6016SOL     OW29506   2.444   0.980   2.781  0.3408  0.2665 -0.1724
 6016SOL    HW129507   2.357   0.952   2.750  0.0314  2.0438 -0.9212
 6016SOL    HW229508   2.427   0.985   2.875 -1.5701  2.7315 -0.6425
 6017SOL     OW29509   0.977   0.889   5.689  0.6250 -0.4549  0.1982
 6017SOL    HW129510   1.041   0.885   5.760  2.7881  1.7556 -1.6456
 6017SOL    HW229511   0.902   0.882   5.748  0.8466  1.5170  0.7245
 6018SOL     OW29512   0.735   4.340   3.009  0.2603 -0.0714 -0.5474
 6018SOL    HW129513   0.667   4.308   3.069  1.0201 -1.3333 -0.3664
 6018SOL    HW229514   0.689   4.356   2.926  0.4281  0.6101 -0.5068
 6019SOL     OW29515   1.320   2.758   6.610  0.6707 -0.0317  0.2208
 6019SOL    HW129516   1.240   2.705   6.610 -0.8606  2.2582 -0.1352
 6019SOL    HW229517   1.270   2.838   6.591  1.0818  0.0004 -0.7366
 6020SOL     OW29518   4.420   4.394   5.316  0.1722  0.2257 -0.2212
 6020SOL    HW129519   4.441   4.302   5.327  0.6638  0.6664  2.5356
 6020SOL    HW229520   4.325   4.384   5.317  0.3544 -1.3860 -0.1326
 6021SOL     OW29521   3.502   4.073   4.891 -0.6656 -0.2937 -0.2971
 6021SOL    HW129522   3.454   4.116   4.961 -0.3608  1.4308 -1.1444
 6021SOL    HW229523   3.587   4.043   4.922 -1.3862  0.2087  2.1344
 6022SOL     OW29524   0.736   2.253   2.311  0.4224 -0.1258 -0.1543
 6022SOL    HW129525   0.727   2.221   2.401  0.6176  1.8640  0.5564
 6022SOL    HW229526   0.802   2.192   2.279  2.8013  3.9828 -3.0671
 6023SOL     OW29527   0.861   3.675   1.866  0.0665  0.1401 -0.6877
 6023SOL    HW129528   0.849   3.700   1.958  0.9051  0.2554 -0.6090
 6023SOL    HW229529   0.915   3.749   1.840  1.7072  0.0219  2.4040
 6024SOL     OW29530   4.499   0.792   6.358  0.3102 -0.4889  0.2479
 6024SOL    HW129531   4.562   0.849   6.314 -0.6763  1.7585  1.7866
 6024SOL    HW229532   4.431   0.854   6.383  0.9439 -0.0908  0.9755
 6025SOL     OW29533   4.427   1.303   2.494 -0.2558 -0.4001 -0.2675
 6025SOL    HW129534   4.364   1.362   2.534 -2.2724 -0.9668 -2.5813
 6025SOL    HW229535   4.390   1.295   2.406  0.9613 -0.6171 -0.7622
 6026SOL     OW29536   4.046   2.765  14.884 -0.6620 -0.1646 -0.0240
 6026SOL    HW129537   4.020   2.824  14.955  2.4138 -2.3220  2.9101
 6026SOL    HW229538   3.958   2.743  14.854 -0.4133  2.2429 -2.4936
 6027SOL     OW29539   3.346   4.303   1.213 -0.1469 -0.0051  0.2034
 6027SOL    HW129540   3.269   4.318   1.157  0.6830 -1.8584 -1.4572
 6027SOL    HW229541   3.381   4.226   1.169  2.4067  1.2600  0.0299
 6028SOL     OW29542   0.387   0.404  14.970  0.0103  0.1527 -0.4298
 6028SOL    HW129543   0.439   0.358  15.037  0.1668 -0.5817 -1.0592
 6028SOL    HW229544   0.304   0.362  14.993  1.0831 -2.3174 -1.0665
 6029SOL     OW29545   4.455   1.704   2.293 -0.0644 -0.6119  0.2029
 6029SOL    HW129546   4.489   1.623   2.330  0.5601 -0.4766 -0.0761
 6029SOL    HW229547   4.539   1.748   2.283 -1.1656  1.6574  0.9636
 6030SOL     OW29548   2.288   3.744   6.389 -0.6487  0.4411  0.1003
 6030SOL    HW129549   2.354   3.708   6.448 -0.4593  2.0554  0.8566
 6030SOL    HW229550   2.224   3.762   6.457 -1.1986  1.6822 -0.7405
 6031SOL     OW29551   4.715   4.159  12.078 -0.0678  0.1356 -0.0788
 6031SOL    HW129552   4.693   4.222  12.010 -0.8391  0.1107  0.1492
 6031SOL    HW229553   0.090   4.140  12.061 -0.0269  1.6925 -1.5728
 6032SOL     OW29554   1.545   3.478   5.226  0.1446  0.7386 -0.3664
 6032SOL    HW129555   1.536   3.500   5.133  0.4241 -0.8570 -0.7720
 6032SOL    HW229556   1.476   3.534   5.261 -0.8335  0.4250 -1.7873
 6033SOL     OW29557   4.250   3.235   1.072 -0.0774 -0.1482 -0.0369
 6033SOL    HW129558   4.249   3.322   1.032  1.1843  0.3972  1.1209
 6033SOL    HW229559   4.200   3.242   1.153  1.0781 -0.8157  0.7197
 6034SOL     OW29560   1.056   1.733   4.402  0.3280 -0.0379  0.0405
 6034SOL    HW129561   1.076   1.821   4.436  1.8934 -0.4883  0.2809
 6034SOL    HW229562   1.137   1.698   4.439  0.1172 -0.7121 -0.1404
 6035SOL     OW29563   4.672   0.887   4.846  0.1206 -0.4475 -0.4190
 6035SOL    HW129564   4.656   0.856   4.757  2.1510  1.7907 -1.5492
 6035SOL    HW229565   4.591   0.936   4.865  0.1454 -0.7731  0.5408
 6036SOL     OW29566   0.799   3.528   4.884  0.4007  0.6587  0.2160
 6036SOL    HW129567   0.776   3.510   4.793 -0.4653  1.0050  0.3607
 6036SOL    HW229568   0.795   3.441   4.924 -1.5216  1.4927  1.8463
 6037SOL     OW29569   1.787   3.238  14.958 -0.0081  0.0810  0.5455
 6037SOL    HW129570   1.870   3.252  14.912 -0.6505  0.0385 -0.6343
 6037SOL    HW229571   1.756   3.163  14.906  2.2193 -0.4380 -0.0549
 6038SOL     OW29572   3.181   4.321   1.993 -0.3395  0.2651  0.2037
 6038SOL    HW129573   3.189   4.292   1.902  0.8225 -2.6966  1.2600
 6038SOL    HW229574   3.220   4.241   2.028  1.5605  0.7384 -0.8128
 6039SOL     OW29575   0.636   3.534   2.136  0.3892 -0.2287 -0.6110
 6039SOL    HW129576   0.685   3.451   2.141 -1.6996 -1.3807  0.7238
 6039SOL    HW229577   0.712   3.590   2.117 -0.6689  1.1347 -0.7561
 6040SOL     OW29578   3.671   2.464  11.416  0.4250  0.4137 -0.2514
 6040SOL    HW129579   3.656   2.370  11.419 -0.6511  0.6220  0.8893
 6040SOL    HW229580   3.668   2.477  11.321 -1.3490 -2.9453 -0.6218
 6041SOL     OW29581   3.905   4.249  15.800  0.0622  0.1187  0.1469
 6041SOL    HW129582   3.914   4.268  15.894  0.4155 -1.5854  0.4591
 6041SOL    HW229583   3.984   4.289  15.764  0.2142  1.2761  1.7482
 6042SOL     OW29584   0.679   1.295  13.939 -0.0339 -0.5166 -0.0298
 6042SOL    HW129585   0.612   1.239  13.900  1.4345 -1.3002 -1.3926
 6042SOL    HW229586   0.717   1.339  13.864 -0.4407  0.4122  0.3024
 6043SOL     OW29587   3.475   0.042   5.164 -0.3115  0.0977 -0.1998
 6043SOL    HW129588   3.524   0.087   5.095  0.4544  0.2768  0.4646
 6043SOL    HW229589   3.448   4.678   5.121 -0.8124 -0.4971  1.2478
 6044SOL     OW29590   0.039   3.202   1.841  0.0188 -0.2174  0.3013
 6044SOL    HW129591   0.001   3.120   1.808  0.2175 -0.0415 -0.3689
 6044SOL    HW229592   0.129   3.192   1.808  0.4449  2.2083  0.7418
 6045SOL     OW29593   3.162   2.466   1.153 -0.5760  0.0887  0.4532
 6045SOL    HW129594   3.147   2.391   1.211  0.2020 -0.9048 -0.6058
 6045SOL    HW229595   3.206   2.422   1.079  1.0289  0.0322  1.4484
 6046SOL     OW29596   2.951   3.481  17.007 -0.3999  0.1019  0.1653
 6046SOL    HW129597   2.995   3.507  17.088  1.3694  1.1811 -1.1582
 6046SOL    HW229598   2.870   3.532  17.015  1.5170  2.9861  1.1581
 6047SOL     OW29599   1.052   2.280  15.238 -0.4086  0.6085 -0.2572
 6047SOL    HW129600   1.005   2.327  15.169  1.2232  3.3032  0.4896
 6047SOL    HW229601   0.987   2.284  15.308 -0.6334 -0.7321 -0.3941
 6048SOL     OW29602   2.501   2.550  13.924  0.0729  0.3307  0.5611
 6048SOL    HW129603   2.565   2.506  13.981  1.8334 -0.4891 -2.0467
 6048SOL    HW229604   2.444   2.587  13.992 -1.0628 -1.2417  0.4769
 6049SOL     OW29605   0.605   0.486   6.116  0.0946  0.3569 -0.4258
 6049SOL    HW129606   0.540   0.554   6.104 -3.5128 -3.0049  0.0543
 6049SOL    HW229607   0.634   0.512   6.203  0.1147  1.3325 -0.7277
 6050SOL     OW29608   3.644   1.123   7.338 -0.0819 -0.5323 -0.3324
 6050SOL    HW129609   3.661   1.182   7.411 -0.2078 -3.1059  1.7561
 6050SOL    HW229610   3.718   1.064   7.341 -1.2844 -2.0295 -0.1100
 6051SOL     OW29611   0.030   0.489   2.082  0.1197 -0.5509 -0.2179
 6051SOL    HW129612   0.016   0.414   2.025 -1.9236 -0.8942  0.7353
 6051SOL    HW229613   0.125   0.480   2.085  0.1710 -0.6338 -2.4731
 6052SOL     OW29614   4.022   3.946   7.810 -0.0679 -0.3534 -0.0426
 6052SOL    HW129615   4.090   3.925   7.875  0.2979  0.0907 -0.2875
 6052SOL    HW229616   4.038   3.878   7.745 -0.7138  0.5158 -1.0979
 6053SOL     OW29617   1.809   0.244   9.248  0.0707  0.1958 -0.0048
 6053SOL    HW129618   1.866   0.321   9.245  1.9192 -1.2211 -2.3689
 6053SOL    HW229619   1.873   0.178   9.276  1.5595  2.3842  1.7328
 6054SOL     OW29620   0.801   4.607   2.370  0.4581  0.2707  0.0887
 6054SOL    HW129621   0.759   4.632   2.288 -2.3083  1.8141  1.9863
 6054SOL    HW229622   0.882   4.656   2.359  1.3419 -1.2753 -0.2759
 6055SOL     OW29623   0.855   1.796   1.965  0.0463  0.5926  0.5403
 6055SOL    HW129624   0.948   1.777   1.970 -0.3957 -1.6792  0.1149
 6055SOL    HW229625   0.849   1.833   1.877  1.3725 -0.4650  0.0119
 6056SOL     OW29626   2.391   1.788  11.625  0.1004 -0.7477  0.1284
 6056SOL    HW129627   2.446   1.765  11.700  1.0301  0.8016 -0.0858
 6056SOL    HW229628   2.328   1.716  11.633 -0.7349  0.3167  3.3646
 6057SOL     OW29629   3.089   3.971   6.533  0.0947 -0.3897 -0.1680
 6057SOL    HW129630   3.104   3.889   6.487 -0.6148 -0.6693  0.0979
 6057SOL    HW229631   3.023   4.011   6.476 -1.6124 -0.2708  1.9079
 6058SOL     OW29632   0.903   3.272   7.752  0.3282  0.7491  0.2922
 6058SOL    HW129633   0.922   3.186   7.788 -1.1698  0.3415  0.1290
 6058SOL    HW229634   0.810   3.269   7.776  0.3551 -0.2776  0.2736
 6059SOL     OW29635   1.506   2.086   4.290 -0.4423 -0.2416 -0.0492
 6059SOL    HW129636   1.551   2.142   4.226 -0.0943  0.3201  0.6989
 6059SOL    HW229637   1.419   2.080   4.249 -0.6244 -2.3647  0.6555
 6060SOL     OW29638   1.254   0.664   3.145 -0.3282 -0.1084 -0.4359
 6060SOL    HW129639   1.210   0.730   3.091  0.0162  0.7633  0.3657
 6060SOL    HW229640   1.191   0.665   3.217  0.9009 -1.0744  0.6438
 6061SOL     OW29641   1.426   1.757   6.220 -0.2760  0.3738 -0.5108
 6061SOL    HW129642   1.397   1.775   6.130 -0.7884 -1.5039 -0.7210
 6061SOL    HW229643   1.362   1.812   6.266 -0.0235 -1.4002  1.9340
 6062SOL     OW29644   3.255   3.502   9.242  0.2391 -0.4641  0.0929
 6062SOL    HW129645   3.321   3.571   9.254  0.2488 -0.9953  2.9956
 6062SOL    HW229646   3.297   3.440   9.182 -0.3586  0.0857 -0.8986
 6063SOL     OW29647   3.781   4.080   3.367 -0.0019 -0.1207  0.0635
 6063SOL    HW129648   3.819   4.040   3.446  0.1720 -1.8595 -0.8875
 6063SOL    HW229649   3.854   4.134   3.336  0.0310 -0.4615 -0.4581
 6064SOL     OW29650   1.855   1.181   3.592  0.2980 -0.2045  0.5192
 6064SOL    HW129651   1.787   1.114   3.601  0.2772 -0.2718 -0.1563
 6064SOL    HW229652   1.908   1.138   3.524  0.8856  0.0919  0.7911
 6065SOL     OW29653   3.282   0.981  14.993 -0.2628  0.0621  0.0273
 6065SOL    HW129654   3.269   0.933  15.075  1.1149  1.1342  0.8738
 6065SOL    HW229655   3.371   1.015  15.001 -0.6185  0.8361  0.7510
 6066SOL     OW29656   3.433   3.267   5.061 -0.4339 -0.1842  0.1457
 6066SOL    HW129657   3.475   3.206   5.121 -2.0655 -0.6926  0.7596
 6066SOL    HW229658   3.366   3.219   5.012 -1.5171 -0.2474  1.6944
 6067SOL     OW29659   0.149   4.306  16.229  0.0830 -0.2286  0.5453
 6067SOL    HW129660   0.220   4.371  16.233  0.5658 -0.6073 -1.4629
 6067SOL    HW229661   0.086   4.359  16.278  1.6785  1.2811  0.9903
 6068SOL     OW29662   2.833   3.050   8.916  0.8641 -0.3172  0.3568
 6068SOL    HW129663   2.753   3.090   8.949 -0.5018 -2.2286 -0.6250
 6068SOL    HW229664   2.887   3.055   8.994 -1.0435  1.9423  1.5362
 6069SOL     OW29665   2.605   2.832   4.576 -0.3454 -0.2840  0.1997
 6069SOL    HW129666   2.601   2.830   4.481  1.1473  2.3305  0.0964
 6069SOL    HW229667   2.575   2.922   4.593  1.9578  0.7319 -1.2032
 6070SOL     OW29668   1.035   0.625   3.335 -0.3749  0.1382 -0.3059
 6070SOL    HW129669   0.962   0.621   3.397 -1.2284 -0.4095 -1.3516
 6070SOL    HW229670   1.067   0.536   3.345 -0.5534  0.0869 -0.1883
 6071SOL     OW29671   1.480   0.774  12.365  0.5216  0.1724  0.3408
 6071SOL    HW129672   1.511   0.719  12.436 -2.2893 -1.3679  0.3434
 6071SOL    HW229673   1.489   0.862  12.402  0.6700  0.6527 -0.8137
 6072SOL     OW29674   0.787   0.108  11.194 -0.5193 -0.0265 -0.1260
 6072SOL    HW129675   0.855   0.151  11.142  1.4650 -1.7910  0.9944
 6072SOL    HW229676   0.753   0.053  11.123 -1.9236  0.3702  0.2419
 6073SOL     OW29677   2.896   0.854   8.014 -0.5629  0.4983 -0.1439
 6073SOL    HW129678   2.965   0.788   8.024 -2.0235 -1.2454 -1.5542
 6073SOL    HW229679   2.921   0.908   8.089 -1.2458 -0.1369  0.5452
 6074SOL     OW29680   3.619   3.579   2.519 -0.3387  0.0802 -0.1450
 6074SOL    HW129681   3.658   3.501   2.480  1.5946  0.7270  0.5098
 6074SOL    HW229682   3.641   3.566   2.612  1.0040  1.7756 -0.2320
 6075SOL     OW29683   1.120   3.529   3.277  0.6040 -0.4178  0.2177
 6075SOL    HW129684   1.192   3.523   3.339  0.3986  0.6960  0.5736
 6075SOL    HW229685   1.105   3.435   3.269  0.3667 -0.2750 -1.0453
 6076SOL     OW29686   0.846   0.185   1.971 -0.0169  0.2229 -0.5988
 6076SOL    HW129687   0.753   0.186   1.950 -0.4693 -1.9203  1.3045
 6076SOL    HW229688   0.887   0.160   1.888  0.6495  0.1586 -0.2551
 6077SOL     OW29689   3.402   2.072   9.546  0.2025 -0.2109  0.5510
 6077SOL    HW129690   3.352   2.132   9.491  0.8014  0.7323  1.0339
 6077SOL    HW229691   3.387   2.122   9.626  0.0022  1.6678 -0.6483
 6078SOL     OW29692   1.310   0.147   4.412  0.1171  0.3159 -0.2569
 6078SOL    HW129693   1.218   0.166   4.397 -0.1130 -1.1915 -0.7877
 6078SOL    HW229694   1.306   0.076   4.477 -1.8981 -0.5187 -1.2861
 6079SOL     OW29695   3.077   1.334   7.247 -0.2824  0.6527 -0.1566
 6079SOL    HW129696   3.102   1.426   7.249 -1.2313  0.8933  0.9918
 6079SOL    HW229697   3.014   1.337   7.319  1.0439 -0.5414  1.0597
 6080SOL     OW29698   4.370   0.476   5.628  0.4390  0.3166 -0.1801
 6080SOL    HW129699   4.297   0.448   5.573 -1.1744 -0.4796  2.3482
 6080SOL    HW229700   4.333   0.528   5.699 -1.2379 -1.3434  0.1786
 6081SOL     OW29701   1.387   1.471   4.008 -0.2208 -0.3870  0.7278
 6081SOL    HW129702   1.366   1.456   4.100 -0.9806 -0.2807  0.5733
 6081SOL    HW229703   1.376   1.566   4.000 -2.6473 -0.6208  1.2212
 6082SOL     OW29704   4.170   0.377   4.862  0.1164  0.2034 -0.0804
 6082SOL    HW129705   4.218   0.354   4.942  0.6847  1.4937 -0.0508
 6082SOL    HW229706   4.198   0.312   4.797 -2.6939 -0.1767 -0.9284
 6083SOL     OW29707   2.675   3.564   8.232 -0.5225  0.8766 -0.1036
 6083SOL    HW129708   2.725   3.517   8.299  1.6669  1.5537 -1.2928
 6083SOL    HW229709   2.704   3.654   8.246  1.2609  0.3659 -0.6234
 6084SOL     OW29710   4.021   0.082   5.240 -0.3488 -0.3089  0.3824
 6084SOL    HW129711   4.038   0.079   5.146  1.1816  0.0062  0.6463
 6084SOL    HW229712   4.057   0.165   5.272 -0.9650  0.2541 -0.3858
 6085SOL     OW29713   2.924   2.631  10.868 -0.4055  0.1145 -0.1639
 6085SOL    HW129714   2.848   2.593  10.913 -0.9793  0.2541 -1.0050
 6085SOL    HW229715   2.900   2.723  10.875 -2.6598 -0.5636  0.9303
 6086SOL     OW29716   2.723   0.694   9.369  0.8819 -0.1724 -0.2230
 6086SOL    HW129717   2.763   0.764   9.420 -2.3712  2.4842 -1.3387
 6086SOL    HW229718   2.637   0.685   9.410 -0.8032  0.7542 -3.5443
 6087SOL     OW29719   2.786   2.168   6.319  0.3383 -0.2872  0.3197
 6087SOL    HW129720   2.837   2.241   6.284 -1.0928 -0.9130 -3.0933
 6087SOL    HW229721   2.719   2.163   6.251  1.0758 -0.0057 -0.4157
 6088SOL     OW29722   2.211   2.441   0.227  0.2200  0.4732 -0.5274
 6088SOL    HW129723   2.135   2.383   0.228  0.9779 -0.5223 -0.2755
 6088SOL    HW229724   2.170   2.506   0.170  1.0810  0.4868 -1.1265
 6089SOL     OW29725   2.610   0.311   3.127 -0.3234  0.3853 -0.5643
 6089SOL    HW129726   2.543   0.324   3.194  1.1796  0.2331  0.9864
 6089SOL    HW229727   2.580   0.235   3.077  0.5261 -1.2561  1.3956
 6090SOL     OW29728   0.921   0.699   1.380  0.1279  0.1090  0.0483
 6090SOL    HW129729   0.853   0.678   1.316  1.3943 -1.0435 -0.9233
 6090SOL    HW229730   0.951   0.611   1.403 -3.6987 -1.2247 -0.1803
 6091SOL     OW29731   2.052   2.853   8.712 -0.0597 -0.2399 -0.0207
 6091SOL    HW129732   2.008   2.805   8.643  1.9103 -3.2998  0.8524
 6091SOL    HW229733   1.979   2.878   8.769  0.1297 -2.0759  1.0429
 6092SOL     OW29734   2.924   3.321   6.301 -0.9403 -0.3048  0.0610
 6092SOL    HW129735   2.862   3.392   6.283 -0.6301 -0.6195 -2.1810
 6092SOL    HW229736   2.874   3.249   6.262  0.0172 -1.8636  1.7105
 6093SOL     OW29737   3.722   4.012   7.072 -0.3378 -0.2705  0.4221
 6093SOL    HW129738   3.685   3.992   6.986  2.1388 -2.9358 -0.0234
 6093SOL    HW229739   3.763   4.098   7.065 -0.7473 -0.3079 -2.3667
 6094SOL     OW29740   1.583   3.003   0.747  0.1683  0.1260  0.4446
 6094SOL    HW129741   1.593   3.095   0.724 -2.5981  0.0340 -1.0779
 6094SOL    HW229742   1.489   2.990   0.734  0.2621  0.7536 -0.7994
 6095SOL     OW29743   3.078   0.098   5.857  0.0464  1.1311 -0.0109
 6095SOL    HW129744   3.089   0.103   5.762 -0.2592  0.5883 -0.0784
 6095SOL    HW229745   3.153   0.041   5.876  0.6575  1.8859 -0.1677
 6096SOL     OW29746   1.891   2.949  13.482  0.0148 -0.4069  0.0881
 6096SOL    HW129747   1.905   2.900  13.563 -0.6211 -0.4559  0.1720
 6096SOL    HW229748   1.872   2.879  13.420  3.1004 -1.3699  0.2523
 6097SOL     OW29749   2.011   1.627   7.706  0.2803  0.2926  0.1795
 6097SOL    HW129750   2.067   1.551   7.723  1.7854  0.8682 -2.1092
 6097SOL    HW229751   1.925   1.586   7.711  0.9479 -1.1663 -0.0751
 6098SOL     OW29752   3.514   4.190  11.286  0.1270  0.0699  0.3334
 6098SOL    HW129753   3.460   4.216  11.212  0.0628  2.6648  1.2836
 6098SOL    HW229754   3.446   4.167  11.349 -1.8088 -0.8588 -2.1030
 6099SOL     OW29755   0.208   0.111  11.817  0.0197  0.2461  0.1108
 6099SOL    HW129756   0.260   0.178  11.774 -0.4284  0.1468 -0.5908
 6099SOL    HW229757   0.197   0.030  11.767 -1.5634  0.4573  0.1197
 6100SOL     OW29758   3.053   0.619   5.521 -0.3736 -0.6772  0.0997
 6100SOL    HW129759   2.995   0.579   5.586  1.9516  0.6161  2.9249
 6100SOL    HW229760   3.032   0.558   5.449  1.7804  1.3255 -2.2079
 6101SOL     OW29761   2.084   1.131   3.781 -0.1028 -0.1194  0.0229
 6101SOL    HW129762   2.098   1.197   3.849 -0.0981  1.8288 -1.8612
 6101SOL    HW229763   1.993   1.155   3.764 -0.6763 -1.5254  1.0917
 6102SOL     OW29764   4.039   0.154   7.096 -0.2020 -0.4083  0.0575
 6102SOL    HW129765   3.994   0.221   7.148 -0.0887  0.1850 -0.6127
 6102SOL    HW229766   4.054   0.202   7.014  0.5440  2.1225  1.6456
 6103SOL     OW29767   0.628   0.219  10.984  0.6719 -0.2584  0.4413
 6103SOL    HW129768   0.654   0.145  11.040  0.5021  0.4593  1.4529
 6103SOL    HW229769   0.533   0.207  10.982  0.6431  0.7497 -3.0318
 6104SOL     OW29770   4.153   2.194   4.383  0.2384  0.1846 -0.7833
 6104SOL    HW129771   4.187   2.176   4.295  0.8096 -1.9163 -0.1368
 6104SOL    HW229772   4.127   2.108   4.416 -0.4888  0.1571 -1.4319
 6105SOL     OW29773   0.011   0.446   4.167  0.3896  0.3665  0.1239
 6105SOL    HW129774   0.070   0.519   4.188  1.2905 -0.7036  1.3052
 6105SOL    HW229775   4.716   0.407   4.253  1.1536  0.6432  0.3678
 6106SOL     OW29776   4.011   3.474   9.296 -0.7661 -0.1621 -0.0445
 6106SOL    HW129777   4.010   3.561   9.338  1.4000  1.1608 -2.7277
 6106SOL    HW229778   4.071   3.425   9.352 -0.5646  2.2988  1.9291
 6107SOL     OW29779   4.363   2.504  13.115 -0.1334  0.2693  0.1178
 6107SOL    HW129780   4.367   2.576  13.178  1.1326 -0.3227  0.7299
 6107SOL    HW229781   4.319   2.449  13.180  0.2013  1.2389  1.1673
 6108SOL     OW29782   4.158   3.028  14.099 -0.3613  0.3959  0.6473
 6108SOL    HW129783   4.150   3.075  14.181  0.5847  2.8304 -0.6494
 6108SOL    HW229784   4.233   3.078  14.066  0.4395 -0.2183  1.5401
 6109SOL     OW29785   3.910   2.566   6.972 -0.7423  0.0064 -0.4808
 6109SOL    HW129786   3.961   2.515   7.035  0.4500  0.7024 -0.8733
 6109SOL    HW229787   3.829   2.516   6.963 -0.4540 -0.8536  1.7174
 6110SOL     OW29788   1.842   4.217   0.573  0.4164 -0.4396  0.2687
 6110SOL    HW129789   1.784   4.149   0.609  0.3297 -0.8579 -0.6769
 6110SOL    HW229790   1.916   4.218   0.634  0.9813  0.5714 -0.4376
 6111SOL     OW29791   3.091   1.053   2.176 -0.5678 -0.0836  0.1919
 6111SOL    HW129792   3.076   1.114   2.249  0.6407  1.2154 -0.6577
 6111SOL    HW229793   3.103   1.101   2.094 -0.3974  2.5730  1.7406
 6112SOL     OW29794   4.577   4.701   0.846 -0.1192 -0.1817  0.7089
 6112SOL    HW129795   4.594   0.045   0.775 -0.2892  1.1600  1.8412
 6112SOL    HW229796   4.590   4.620   0.796  3.4059  0.9266 -0.1445
 6113SOL     OW29797   0.255   0.101   5.384 -0.5027 -0.3791 -0.4764
 6113SOL    HW129798   0.168   0.062   5.387  0.7468 -3.2484 -0.9773
 6113SOL    HW229799   0.302   0.027   5.345 -1.9471 -0.9973 -1.0257
 6114SOL     OW29800   4.157   3.690   7.359  0.0496 -0.4317  0.0083
 6114SOL    HW129801   4.109   3.685   7.277  0.2841 -0.5997 -0.1184
 6114SOL    HW229802   4.238   3.735   7.333 -0.9572  1.5302  0.2516
 6115SOL     OW29803   2.226   3.005   6.900  0.0562  0.3194  0.5311
 6115SOL    HW129804   2.230   2.909   6.899 -0.6797  0.2891  0.6727
 6115SOL    HW229805   2.313   3.022   6.936  0.9807  1.0959 -2.1350
 6116SOL     OW29806   2.888   0.461  17.237  0.0869  0.1447  0.2399
 6116SOL    HW129807   2.874   0.444  17.144 -0.2241  0.5381  0.2171
 6116SOL    HW229808   2.816   0.521  17.252 -0.0097  0.4027 -1.2592
 6117SOL     OW29809   3.571   2.999   7.713 -0.1673  0.1499 -0.3475
 6117SOL    HW129810   3.577   2.904   7.708 -0.4476  0.0759  0.7435
 6117SOL    HW229811   3.648   3.031   7.666 -0.7845  4.5507  1.6264
 6118SOL     OW29812   1.731   4.091   2.142  0.4910 -0.0976  0.0467
 6118SOL    HW129813   1.723   4.108   2.236 -1.4057 -0.9430  0.0372
 6118SOL    HW229814   1.745   3.997   2.135 -1.8694 -0.3675 -1.1800
 6119SOL     OW29815   3.563   2.041   4.998  0.3280 -0.2974  0.4040
 6119SOL    HW129816   3.634   2.026   4.936  2.0374  1.9796  1.8085
 6119SOL    HW229817   3.605   2.102   5.059  0.1509  0.2877 -0.0522
 6120SOL     OW29818   1.666   4.026  16.258  0.3079  0.1182  0.4288
 6120SOL    HW129819   1.585   4.042  16.210  0.6497 -0.5811 -0.3708
 6120SOL    HW229820   1.642   4.072  16.339  0.8417 -0.7355  1.0654
 6121SOL     OW29821   3.906   4.591   3.769  0.2413  0.0105  0.0606
 6121SOL    HW129822   3.846   4.664   3.786  0.2225 -0.3954  1.7238
 6121SOL    HW229823   3.916   4.598   3.674  0.2295 -0.4182  0.0285
 6122SOL     OW29824   2.516   2.963   5.388  0.2620  0.9382  0.0647
 6122SOL    HW129825   2.564   3.045   5.377  0.1979  0.7909 -1.3100
 6122SOL    HW229826   2.585   2.914   5.431 -0.0947  1.6977  1.4989
 6123SOL     OW29827   1.550   4.556   8.190  0.1162 -0.5362  0.0573
 6123SOL    HW129828   1.482   4.502   8.229  0.0932 -0.7218 -0.2433
 6123SOL    HW229829   1.609   4.490   8.152  1.0910 -0.1581  0.9004
 6124SOL     OW29830   3.513   0.057  14.179  0.1215  0.1471  0.5004
 6124SOL    HW129831   3.425   0.044  14.145 -0.1751  3.0544  0.1207
 6124SOL    HW229832   3.499   0.150  14.196 -1.5244  0.1375 -0.8372
 6125SOL     OW29833   1.381   0.127   2.047  0.3803 -0.2409  0.1841
 6125SOL    HW129834   1.340   0.156   2.128 -1.6071  0.6180 -1.1195
 6125SOL    HW229835   1.318   0.071   2.003  2.2431 -1.3115 -1.1410
 6126SOL     OW29836   1.900   3.057   4.057  0.0399  0.4086  0.2144
 6126SOL    HW129837   1.971   3.101   4.009  1.0755 -0.3041  1.0891
 6126SOL    HW229838   1.937   3.016   4.135  1.4222  2.1817  0.5054
 6127SOL     OW29839   2.540   1.246  15.048  0.5186 -0.2481  0.3340
 6127SOL    HW129840   2.455   1.260  15.007  0.7355 -0.2834 -0.1258
 6127SOL    HW229841   2.526   1.154  15.070  2.0163  0.0734  2.7091
 6128SOL     OW29842   1.487   2.893  11.801  0.0103 -0.2472  0.2691
 6128SOL    HW129843   1.479   2.800  11.823 -3.8271 -0.5159 -2.1855
 6128SOL    HW229844   1.540   2.897  11.722 -3.7771 -0.8791 -2.3294
 6129SOL     OW29845   2.455   4.254   5.225  0.1981 -0.0660 -0.1812
 6129SOL    HW129846   2.421   4.310   5.295 -0.9573  0.1300 -0.9059
 6129SOL    HW229847   2.400   4.178   5.241  0.2343  0.3754  2.0527
 6130SOL     OW29848   2.357   2.597  14.494 -0.3753 -0.1207  0.0651
 6130SOL    HW129849   2.332   2.670  14.550 -1.1379  0.1193 -0.5753
 6130SOL    HW229850   2.323   2.538  14.561 -1.6039  0.5049 -0.0015
 6131SOL     OW29851   0.457   4.289  15.140 -0.4423  0.1234  1.3841
 6131SOL    HW129852   0.453   4.305  15.046  1.2811  0.1981  1.3238
 6131SOL    HW229853   0.364   4.304  15.160 -0.2627  0.6629  1.8283
 6132SOL     OW29854   3.376   2.546   0.075 -0.1260 -0.9796 -0.0108
 6132SOL    HW129855   3.400   2.633   0.045 -2.6123 -1.0104 -2.0654
 6132SOL    HW229856   3.285   2.551   0.046 -0.3152  1.9859  1.1785
 6133SOL     OW29857   4.591   3.471   2.195 -0.1758  0.6884  0.1956
 6133SOL    HW129858   4.602   3.565   2.210  0.6904  0.1865  2.7163
 6133SOL    HW229859   4.636   3.464   2.111  2.2966  1.1116  1.4668
 6134SOL     OW29860   4.140   0.120   5.626  0.0467 -0.1744 -0.0178
 6134SOL    HW129861   4.138   0.033   5.586 -0.5294 -0.9276  1.6436
 6134SOL    HW229862   4.046   0.132   5.639 -0.2507  0.0736 -2.3423
 6135SOL     OW29863   4.103   0.644   1.500  0.1773  0.2213 -0.0096
 6135SOL    HW129864   4.018   0.686   1.490  0.5192  0.9515  0.1461
 6135SOL    HW229865   4.152   0.714   1.541 -1.4383  0.0939  2.1818
 6136SOL     OW29866   3.844   2.673   4.738 -0.5466  0.1918  0.0399
 6136SOL    HW129867   3.867   2.581   4.746 -0.3746  0.1674 -0.6925
 6136SOL    HW229868   3.843   2.697   4.830 -1.3606 -1.3911  0.4466
 6137SOL     OW29869   2.073   4.261   0.266  0.0972 -0.6037  0.5999
 6137SOL    HW129870   2.068   4.270   0.170  1.6719  1.0491  0.6789
 6137SOL    HW229871   2.166   4.259   0.288 -0.2449 -2.5304  1.8523
 6138SOL     OW29872   1.753   4.443   8.472 -0.1350 -0.8496 -0.0926
 6138SOL    HW129873   1.741   4.518   8.530 -0.0027 -0.5916 -0.3980
 6138SOL    HW229874   1.838   4.415   8.503 -1.1918 -2.1666  1.5889
 6139SOL     OW29875   0.941   1.109   1.969  0.0955 -0.1234  0.7185
 6139SOL    HW129876   0.876   1.063   2.022 -0.3333 -0.1612  0.1601
 6139SOL    HW229877   1.017   1.126   2.025  1.0403 -1.1159 -0.2682
 6140SOL     OW29878   1.949   2.606   0.522  0.9935  0.2419  0.1005
 6140SOL    HW129879   1.885   2.566   0.464  2.8721  0.2903 -2.0317
 6140SOL    HW229880   1.963   2.696   0.490 -1.1746  0.2306 -0.8920
 6141SOL     OW29881   3.485   3.999   3.957 -0.2122  0.2776 -0.4254
 6141SOL    HW129882   3.462   4.085   3.923  1.1603  0.5678 -0.6482
 6141SOL    HW229883   3.517   3.963   3.874  0.5578 -1.8899  0.8092
 6142SOL     OW29884   2.837   4.334   4.937 -0.3515 -0.7241  0.0738
 6142SOL    HW129885   2.790   4.318   4.854  0.7813  1.7417 -1.0213
 6142SOL    HW229886   2.791   4.265   4.984 -0.5050  0.4204  1.5824
 6143SOL     OW29887   2.024   4.214   8.699  0.2304  0.1986 -0.4146
 6143SOL    HW129888   1.993   4.263   8.775 -0.5685 -0.6474 -0.1889
 6143SOL    HW229889   2.021   4.298   8.653  1.4563  0.5175  0.0835
 6144SOL     OW29890   1.392   4.611   4.114 -0.2581 -0.2304  0.2023
 6144SOL    HW129891   1.320   4.573   4.165  0.1564  0.2037  1.1261
 6144SOL    HW229892   1.419   4.537   4.061 -4.1748 -0.9655 -0.8153
 6145SOL     OW29893   2.496   3.932  15.343  0.3587  0.5350  0.4591
 6145SOL    HW129894   2.538   4.017  15.328  1.7330 -0.1950  0.1011
 6145SOL    HW229895   2.444   3.918  15.263 -0.2674 -0.3495  1.0217
 6146SOL     OW29896   4.229   0.877  10.304  0.4954  0.0146 -0.1210
 6146SOL    HW129897   4.294   0.864  10.235 -1.6748  1.0280 -2.3485
 6146SOL    HW229898   4.281   0.843  10.377  1.0065 -1.0803 -1.0106
 6147SOL     OW29899   2.947   1.220   2.364 -1.3423 -0.3235  0.1791
 6147SOL    HW129900   2.939   1.260   2.450  1.3522  0.7553 -0.0670
 6147SOL    HW229901   2.873   1.160   2.357 -0.6079 -1.1822 -0.1328
 6148SOL     OW29902   4.327   2.420   7.186 -0.7327 -0.0327  0.0004
 6148SOL    HW129903   4.370   2.495   7.146 -0.2946 -0.0827  0.3630
 6148SOL    HW229904   4.356   2.352   7.126 -0.7266 -0.2592  0.2565
 6149SOL     OW29905   3.525   2.344   3.520  0.1652 -0.0587 -0.1649
 6149SOL    HW129906   3.434   2.359   3.545  0.3429  0.7350  0.0177
 6149SOL    HW229907   3.556   2.306   3.602  1.2393  2.3341  0.5606
 6150SOL     OW29908   0.074   2.568  16.282 -0.0134  0.4336  0.7026
 6150SOL    HW129909   0.098   2.477  16.265 -2.9055 -0.8223  3.3382
 6150SOL    HW229910   0.157   2.591  16.325  1.4547 -2.0560 -0.8381
 6151SOL     OW29911   4.267   2.205  12.645 -0.3609 -0.2855  0.2921
 6151SOL    HW129912   4.182   2.170  12.617 -1.0000 -0.2697  2.2071
 6151SOL    HW229913   4.302   2.136  12.703  0.2474 -1.6898 -1.7602
 6152SOL     OW29914   3.242   2.763  17.016  0.2794 -0.0387 -0.3242
 6152SOL    HW129915   3.296   2.730  17.089  1.2548  0.6168 -0.7485
 6152SOL    HW229916   3.273   2.699  16.952  0.6529  1.7119 -1.8857
 6153SOL     OW29917   4.569   4.225  17.647  0.0967 -0.1754  0.0417
 6153SOL    HW129918   4.543   4.285   0.043  0.0870 -1.4746  1.1575
 6153SOL    HW229919   4.489   4.230  17.594  0.3658 -1.6014 -0.4834
 6154SOL     OW29920   3.061   0.865  13.748  0.4586 -0.2316 -1.0230
 6154SOL    HW129921   3.002   0.821  13.809 -1.4645  1.5455 -1.6377
 6154SOL    HW229922   3.072   0.953  13.784  1.3718 -1.4216  1.6955
 6155SOL     OW29923   2.717   3.486   1.947 -0.6724  0.2521  0.1703
 6155SOL    HW129924   2.805   3.478   1.986  0.6249  0.5919 -2.7192
 6155SOL    HW229925   2.737   3.559   1.888 -0.9628 -1.9165 -2.5621
 6156SOL     OW29926   2.714   0.254   6.478  0.1003  0.2318 -0.0324
 6156SOL    HW129927   2.687   0.238   6.568 -0.5829  1.0481 -0.0919
 6156SOL    HW229928   2.643   0.313   6.450 -1.9686 -2.6336 -0.7973
 6157SOL     OW29929   1.043   2.413  16.208  0.0850  0.0175 -0.3209
 6157SOL    HW129930   0.988   2.400  16.286  0.8757 -0.4633  0.1571
 6157SOL    HW229931   1.101   2.485  16.234 -2.5997  2.3888 -0.8710
 6158SOL     OW29932   4.465   0.729  16.200 -0.0429 -0.1773 -0.3377
 6158SOL    HW129933   4.393   0.683  16.157 -1.4661  0.2068  1.6030
 6158SOL    HW229934   4.538   0.690  16.152  0.3820 -1.9044  1.6679
 6159SOL     OW29935   3.292   3.080   6.300  0.0514  0.6425 -0.4831
 6159SOL    HW129936   3.306   3.002   6.354  1.1489  0.4697 -1.0065
 6159SOL    HW229937   3.310   3.034   6.217  1.2826 -0.6254  0.4866
 6160SOL     OW29938   2.300   2.817   2.818 -0.1832  0.6341  0.0448
 6160SOL    HW129939   2.207   2.824   2.839  0.2574  0.0851  2.2097
 6160SOL    HW229940   2.296   2.834   2.724 -1.0500  2.7814  0.4591
 6161SOL     OW29941   0.136   1.111   6.333 -0.3545 -0.0502  0.2779
 6161SOL    HW129942   0.102   1.082   6.249 -0.6972  0.8672  0.0937
 6161SOL    HW229943   0.228   1.120   6.307 -0.7703  0.3359 -1.0392
 6162SOL     OW29944   3.801   2.727   5.005  0.1824  0.5338 -0.0193
 6162SOL    HW129945   3.727   2.784   4.988 -0.5716 -0.1207  1.0443
 6162SOL    HW229946   3.853   2.784   5.061 -1.1769  0.4537  1.3421
 6163SOL     OW29947   2.703   0.039   6.302  0.2743  0.0024  0.5208
 6163SOL    HW129948   2.794   0.011   6.290  0.0971 -0.6606  0.7404
 6163SOL    HW229949   2.708   0.109   6.367  1.5964  0.3293  0.0665
 6164SOL     OW29950   4.573   4.192   6.647 -0.1741 -0.6867 -0.8628
 6164SOL    HW129951   4.645   4.254   6.657 -0.5552 -0.2772 -0.6535
 6164SOL    HW229952   4.511   4.258   6.616 -0.5281 -0.3528  0.5385
 6165SOL     OW29953   2.728   2.843   8.527 -0.2855  0.0751 -0.1606
 6165SOL    HW129954   2.674   2.848   8.606 -0.8507  2.6500 -0.6903
 6165SOL    HW229955   2.662   2.808   8.468 -0.9623  2.6950 -0.9265
 6166SOL     OW29956   1.482   4.559   5.295 -0.1421 -0.2513 -0.3393
 6166SOL    HW129957   1.458   4.514   5.376  1.6676 -0.7134 -0.0451
 6166SOL    HW229958   1.576   4.548   5.313  0.2291  0.4340 -1.8950
 6167SOL     OW29959   0.345   3.557   4.146 -0.3015  0.0636 -0.3686
 6167SOL    HW129960   0.275   3.622   4.155 -2.4412 -1.9440 -2.5095
 6167SOL    HW229961   0.421   3.600   4.106  0.5336 -0.7740  0.3249
 6168SOL     OW29962   0.296   3.132   5.100  0.4685  0.1028 -0.0812
 6168SOL    HW129963   0.284   3.084   5.018 -0.2375 -2.7262  1.6750
 6168SOL    HW229964   0.368   3.082   5.139  0.8661  0.0964 -0.8252
 6169SOL     OW29965   0.807   4.373   1.678  0.4452  0.2307 -0.1725
 6169SOL    HW129966   0.838   4.283   1.675 -0.1408  0.0173  0.1748
 6169SOL    HW229967   0.849   4.407   1.599 -0.6901  0.0449 -0.8579
 6170SOL     OW29968   3.005   2.772  17.381  0.1975  0.4277 -0.9667
 6170SOL    HW129969   3.096   2.759  17.407 -0.1910 -0.4419 -0.0254
 6170SOL    HW229970   2.966   2.800  17.464 -0.2205 -1.9046 -0.3810
 6171SOL     OW29971   0.935   0.809  15.597  0.0702 -0.5697 -0.2776
 6171SOL    HW129972   0.960   0.729  15.644 -0.7557 -0.9378 -0.4751
 6171SOL    HW229973   1.019   0.855  15.601  0.2998 -0.9037 -1.4552
 6172SOL     OW29974   3.491   0.548   6.699  0.8440 -0.2034 -0.6043
 6172SOL    HW129975   3.580   0.538   6.666  0.6713  0.2707 -1.1911
 6172SOL    HW229976   3.510   0.594   6.781 -0.8764  0.2680 -0.4792
 6173SOL     OW29977   3.796   3.637   7.880  0.7139  0.8820 -0.5291
 6173SOL    HW129978   3.763   3.698   7.813  0.5661 -1.7221 -2.8272
 6173SOL    HW229979   3.775   3.557   7.833 -0.0013  0.3082  0.7826
 6174SOL     OW29980   4.687   2.239   1.935 -0.4178 -0.2406 -0.1641
 6174SOL    HW129981   0.020   2.275   1.862  0.2129  0.9644  0.8578
 6174SOL    HW229982   0.009   2.152   1.945 -1.3111 -0.4750  1.2853
 6175SOL     OW29983   2.388   4.288  14.995  0.3069 -0.3725 -0.4153
 6175SOL    HW129984   2.440   4.210  15.017  0.3460 -0.9605 -2.5954
 6175SOL    HW229985   2.311   4.278  15.050  0.1695 -1.0844 -0.7349
 6176SOL     OW29986   0.764   3.816  11.114  0.4472  0.0550 -0.1155
 6176SOL    HW129987   0.840   3.860  11.152  0.5048 -0.1036 -0.0475
 6176SOL    HW229988   0.800   3.731  11.092  0.8603 -0.2921  1.9335
 6177SOL     OW29989   2.999   2.263   6.008  0.4154 -0.1798  0.1908
 6177SOL    HW129990   3.064   2.195   6.024  0.1081  0.1607  2.7869
 6177SOL    HW229991   3.057   2.327   5.966  0.1888 -0.6082 -0.7736
 6178SOL     OW29992   2.834   1.044   7.321  0.0493 -0.8576  0.0543
 6178SOL    HW129993   2.866   1.042   7.411 -0.7597  0.0651  0.3576
 6178SOL    HW229994   2.755   1.096   7.333  2.0254  1.1660  4.0533
 6179SOL     OW29995   1.831   4.285   2.676  0.6239  0.6228 -0.0479
 6179SOL    HW129996   1.787   4.250   2.599 -0.8226 -2.3182  2.0956
 6179SOL    HW229997   1.912   4.312   2.633  0.4113 -0.3944 -1.0961
 6180SOL     OW29998   2.226   3.108   6.282  0.2327  0.5190  0.6198
 6180SOL    HW129999   2.167   3.074   6.350  1.3072 -1.1076  0.7362
 6180SOL    HW230000   2.155   3.146   6.229  0.8856  1.0629  0.1433
 6181SOL     OW30001   1.134   3.215  11.344 -0.2152  0.0394  0.3692
 6181SOL    HW130002   1.225   3.206  11.373 -0.7339 -0.1424  1.9092
 6181SOL    HW230003   1.097   3.171  11.420 -1.2918 -0.5697 -0.5008
 6182SOL     OW30004   0.463   4.342   1.866  0.3868 -0.7245  0.5350
 6182SOL    HW130005   0.477   4.316   1.775 -0.1866  1.4663 -0.1733
 6182SOL    HW230006   0.397   4.278   1.893  0.7406 -0.8894  1.0057
 6183SOL     OW30007   2.409   2.794   8.021  0.3417 -0.6845 -0.1498
 6183SOL    HW130008   2.456   2.808   7.939 -0.6424 -0.1172 -0.6270
 6183SOL    HW230009   2.323   2.826   7.994  1.3212 -0.4980 -3.0370
 6184SOL     OW30010   3.419   0.348  14.948 -0.2330 -0.1042  0.1453
 6184SOL    HW130011   3.369   0.430  14.946 -1.3809 -0.7504  3.2359
 6184SOL    HW230012   3.362   0.280  14.910  0.8639 -0.7723 -0.3044
 6185SOL     OW30013   1.527   4.476   9.467 -0.4469  0.1496  0.3134
 6185SOL    HW130014   1.450   4.440   9.424  0.4038 -0.0938 -1.0245
 6185SOL    HW230015   1.495   4.534   9.535  0.6682 -0.3891  1.3196
 6186SOL     OW30016   1.325   3.289  13.549 -0.0092 -0.1900 -0.3421
 6186SOL    HW130017   1.393   3.244  13.499 -1.4799 -1.1587 -1.4712
 6186SOL    HW230018   1.306   3.368  13.499  1.0193 -0.6853 -1.5306
 6187SOL     OW30019   0.409   1.986   4.855  0.1352  0.5708  0.5554
 6187SOL    HW130020   0.337   1.984   4.792  1.6328  0.8003 -1.1679
 6187SOL    HW230021   0.487   1.993   4.800 -0.5598 -0.6088 -0.6113
 6188SOL     OW30022   3.374   0.207   4.047  0.0778 -0.2971  0.7098
 6188SOL    HW130023   3.380   0.113   4.061  1.8120 -0.2527  0.1591
 6188SOL    HW230024   3.282   0.204   4.019  0.5760  1.5663 -1.1087
 6189SOL     OW30025   3.169   3.713   4.147 -0.3801  0.1074  0.4162
 6189SOL    HW130026   3.222   3.784   4.181 -0.2775 -0.3276  1.1544
 6189SOL    HW230027   3.098   3.709   4.211 -0.4523  2.0220  0.4484
 6190SOL     OW30028   3.962   3.405   2.458 -0.3708  0.2096 -0.3239
 6190SOL    HW130029   3.909   3.333   2.492  0.7321 -0.7336 -0.6010
 6190SOL    HW230030   3.959   3.469   2.529 -2.3030  0.4750 -0.6592
 6191SOL     OW30031   1.313   2.263   4.728 -0.2668  0.0045 -0.5410
 6191SOL    HW130032   1.252   2.244   4.656  0.2445 -1.4813 -0.5878
 6191SOL    HW230033   1.266   2.225   4.802  0.1734 -0.6067 -0.5792
 6192SOL     OW30034   4.297   1.344   2.236 -0.0885  0.5607  0.3930
 6192SOL    HW130035   4.268   1.259   2.200  0.4565  0.2084  0.7939
 6192SOL    HW230036   4.331   1.372   2.151  2.0742 -0.3787  0.9614
 6193SOL     OW30037   2.295   0.029  13.954 -0.1516  0.1811  0.0252
 6193SOL    HW130038   2.351   4.670  13.938 -0.3552  0.3458 -1.5132
 6193SOL    HW230039   2.335   0.090  13.892  0.1939 -1.0951 -1.0061
 6194SOL     OW30040   1.510   1.951  17.099 -0.2368  0.0692 -0.0432
 6194SOL    HW130041   1.581   1.923  17.042  2.4010  1.8722  2.3501
 6194SOL    HW230042   1.468   2.019  17.047 -0.4629 -1.0407 -1.2985
 6195SOL     OW30043   4.008   2.338  15.739  0.0107  0.4223 -0.1794
 6195SOL    HW130044   4.071   2.410  15.730 -1.1548  1.4371 -0.2249
 6195SOL    HW230045   3.965   2.368  15.819 -0.3260 -1.9506  0.5377
 6196SOL     OW30046   2.816   3.016   5.660 -0.3547  0.0238 -0.3947
 6196SOL    HW130047   2.813   3.101   5.616  1.3497 -0.1599 -0.8755
 6196SOL    HW230048   2.850   3.034   5.748  1.5619  2.1364 -1.5753
 6197SOL     OW30049   1.139   4.700   1.529 -0.3730  0.4530 -0.1718
 6197SOL    HW130050   1.220   4.669   1.568 -0.9821 -0.9861 -0.0640
 6197SOL    HW230051   1.087   4.623   1.509 -0.5348  0.2528  1.0019
 6198SOL     OW30052   4.569   1.774  12.737  0.2087  0.7176 -0.3772
 6198SOL    HW130053   4.570   1.730  12.652 -2.4308  0.1961 -0.1403
 6198SOL    HW230054   4.656   1.749  12.770  0.5931  0.1703 -1.8194
 6199SOL     OW30055   2.345   0.714  13.040  0.5649 -1.0255  0.2843
 6199SOL    HW130056   2.422   0.721  12.983 -0.4263  0.8497 -0.7990
 6199SOL    HW230057   2.326   0.620  13.034  1.3393 -1.1607 -0.1288
 6200SOL     OW30058   2.546   2.400   3.178 -0.2111  0.2200 -0.1366
 6200SOL    HW130059   2.560   2.305   3.181 -1.8207  0.0136  0.7361
 6200SOL    HW230060   2.464   2.411   3.129  0.2948  1.2408 -0.7439
 6201SOL     OW30061   4.639   1.180   2.269 -0.0211 -0.4189  0.8345
 6201SOL    HW130062   0.003   1.229   2.254 -0.5584  0.0374 -0.5393
 6201SOL    HW230063   4.676   1.093   2.260  1.9315  0.5965 -1.0270
 6202SOL     OW30064   2.896   1.863   9.678  0.0671 -0.0076  0.0819
 6202SOL    HW130065   2.824   1.914   9.713  0.5524  2.5176 -2.5010
 6202SOL    HW230066   2.964   1.927   9.702  0.4739 -0.8287  1.1128
 6203SOL     OW30067   3.189   4.082   4.570 -0.2891  0.1065  0.1985
 6203SOL    HW130068   3.264   4.130   4.606 -1.0143  2.7432 -1.8048
 6203SOL    HW230069   3.226   4.024   4.503 -0.1672 -0.2471  0.5743
 6204SOL     OW30070   1.773   4.713   1.712 -0.3673 -0.1444  0.3339
 6204SOL    HW130071   1.715   0.057   1.756 -1.4056 -0.7274 -0.2223
 6204SOL    HW230072   1.772   4.648   1.782  0.3601 -1.3357 -0.7594
 6205SOL     OW30073   0.074   0.010   8.825 -0.4605  0.1191  0.1159
 6205SOL    HW130074   0.047   4.648   8.781 -0.7111 -0.1026  0.6728
 6205SOL    HW230075   0.169   0.012   8.813 -0.5571  1.6805 -0.4435
 6206SOL     OW30076   2.521   1.963   5.042 -0.0556  0.4389  0.3069
 6206SOL    HW130077   2.552   1.874   5.060 -0.4645  0.0649 -0.9125
 6206SOL    HW230078   2.435   1.964   5.084  0.2923 -1.5199  1.0558
 6207SOL     OW30079   2.595   2.462   3.443  0.2370 -0.0002  0.0713
 6207SOL    HW130080   2.524   2.405   3.472 -0.5284  0.6294 -0.5638
 6207SOL    HW230081   2.577   2.452   3.349  0.8787  0.7206 -0.1319
 6208SOL     OW30082   0.839   0.038   8.262 -0.3120  0.1363  0.2203
 6208SOL    HW130083   0.803   0.091   8.191  0.9339  0.7812  0.0619
 6208SOL    HW230084   0.929   0.024   8.233 -0.7253 -0.8699 -0.6071
 6209SOL     OW30085   0.290   3.540   3.072  0.0641 -0.3650 -0.0222
 6209SOL    HW130086   0.322   3.627   3.095 -0.4732 -0.1989  0.0981
 6209SOL    HW230087   0.247   3.555   2.988  0.0015  0.1051  0.0943
 6210SOL     OW30088   0.400   4.594   0.649  0.0563  0.5647  0.6821
 6210SOL    HW130089   0.479   4.601   0.703  0.1897  0.5736  0.4851
 6210SOL    HW230090   0.439   4.595   0.561  0.7133 -3.2486  0.9236
 6211SOL     OW30091   4.427   2.940   7.747  0.2159  0.0803  0.0851
 6211SOL    HW130092   4.510   2.940   7.700  0.8978  0.7349  1.2995
 6211SOL    HW230093   4.414   2.848   7.770  0.3235 -0.6182 -2.6660
 6212SOL     OW30094   2.967   4.690   6.372  0.2795 -0.6357 -0.1722
 6212SOL    HW130095   3.020   4.623   6.328 -1.2583 -1.9866  0.0489
 6212SOL    HW230096   3.000   4.678   6.461  1.0276 -0.9006 -0.4783
 6213SOL     OW30097   2.001   0.742  13.853  0.4385  0.1331  0.0400
 6213SOL    HW130098   2.061   0.670  13.831 -0.8155 -1.5796  2.2277
 6213SOL    HW230099   2.074   0.795  13.884  1.3464 -0.6717 -0.7029
 6214SOL     OW30100   1.340   4.679   7.131 -0.5730  0.2285 -0.1478
 6214SOL    HW130101   1.397   4.621   7.180 -0.2359  0.0617 -0.7393
 6214SOL    HW230102   1.256   4.633   7.138 -0.6754  0.7602  2.1284
 6215SOL     OW30103   4.222   2.905   4.867 -0.1095 -0.1081  0.3726
 6215SOL    HW130104   4.309   2.945   4.873  0.1834 -0.8147  0.7731
 6215SOL    HW230105   4.238   2.825   4.818  0.5626  0.5209 -0.4370
 6216SOL     OW30106   0.727   0.882   8.210 -0.4800  0.5370 -0.0880
 6216SOL    HW130107   0.792   0.812   8.220  0.8724  1.7577 -0.3783
 6216SOL    HW230108   0.692   0.884   8.299  0.2667  1.1459  0.1843
 6217SOL     OW30109   1.415   2.161   3.578  0.2036  0.1814 -0.8824
 6217SOL    HW130110   1.492   2.168   3.634  0.4304  1.5695 -1.3827
 6217SOL    HW230111   1.352   2.140   3.647  0.8793 -1.8805 -0.8928
 6218SOL     OW30112   2.142   3.528   5.010 -0.1207 -0.4644 -0.3047
 6218SOL    HW130113   2.173   3.545   4.921 -0.8917 -0.3279 -0.5492
 6218SOL    HW230114   2.203   3.574   5.068  0.4222  1.2853 -2.2691
 6219SOL     OW30115   0.728   4.577  17.667  0.3295  0.2180  0.1905
 6219SOL    HW130116   0.662   4.511  17.644 -1.4418  1.9876  0.2133
 6219SOL    HW230117   0.808   4.525  17.657 -0.0657 -0.2757 -0.3770
 6220SOL     OW30118   3.132   3.556   8.227  0.2396  0.3275 -0.2441
 6220SOL    HW130119   3.123   3.502   8.306  0.8803 -0.8433 -0.9795
 6220SOL    HW230120   3.224   3.541   8.206 -0.5362 -0.9133 -2.6945
 6221SOL     OW30121   3.925   4.494   8.156  0.6506  0.0167  0.3678
 6221SOL    HW130122   3.937   4.570   8.212 -3.1640  0.2560  0.8445
 6221SOL    HW230123   3.901   4.429   8.222  0.9870  0.6362  1.1015
 6222SOL     OW30124   4.202   0.929   4.771  0.4632 -0.5287 -0.0265
 6222SOL    HW130125   4.184   0.877   4.692  2.3991 -0.2804 -0.6508
 6222SOL    HW230126   4.113   0.952   4.795  0.6462 -0.3763  0.4938
 6223SOL     OW30127   1.202   2.089   3.770  0.2622  0.3818 -0.1424
 6223SOL    HW130128   1.117   2.120   3.800  1.5640  1.5516  2.3931
 6223SOL    HW230129   1.172   2.004   3.738  0.1083 -0.2346  1.6604
 6224SOL     OW30130   3.150   2.307  11.718 -0.3848 -0.1688 -0.0335
 6224SOL    HW130131   3.144   2.298  11.623  1.5932 -0.4380 -0.1462
 6224SOL    HW230132   3.243   2.325  11.729 -0.7074  1.4031  0.0413
 6225SOL     OW30133   2.824   1.779  12.467 -0.7352 -0.1580  0.4802
 6225SOL    HW130134   2.843   1.872  12.454  0.6585 -0.5449 -0.2374
 6225SOL    HW230135   2.867   1.770  12.552 -0.7579 -0.6554  0.4397
 6226SOL     OW30136   4.093   3.100   3.323  0.2003  0.0527 -0.7684
 6226SOL    HW130137   4.021   3.157   3.349 -2.0427 -3.7107  1.4372
 6226SOL    HW230138   4.152   3.160   3.279  0.6023 -0.4055 -0.8540
 6227SOL     OW30139   2.941   2.309  10.015 -0.2052  0.4199 -0.2268
 6227SOL    HW130140   2.887   2.237   9.983  1.0177  0.4755 -2.4520
 6227SOL    HW230141   2.925   2.372   9.944 -0.9661 -2.3019 -2.4977
 6228SOL     OW30142   3.972   0.616   4.028 -0.0126  0.2066 -0.2339
 6228SOL    HW130143   4.010   0.530   4.044  0.6722  0.5498 -0.0323
 6228SOL    HW230144   3.961   0.647   4.118  0.0948 -1.4448  0.3493
 6229SOL     OW30145   3.172   4.229   6.395  0.2283  0.6122  0.1756
 6229SOL    HW130146   3.229   4.282   6.452  0.4820  1.3050 -0.7274
 6229SOL    HW230147   3.163   4.156   6.456 -1.7044 -0.1741 -1.0449
 6230SOL     OW30148   1.363   1.060   4.250  0.2343 -0.0332 -0.1733
 6230SOL    HW130149   1.295   1.004   4.287 -0.3453  0.6466 -0.2106
 6230SOL    HW230150   1.371   1.127   4.318 -1.8608 -2.1214  2.1231
 6231SOL     OW30151   0.915   1.245   7.370 -0.0828 -0.1428 -0.0978
 6231SOL    HW130152   0.990   1.235   7.428 -0.4351  1.0188  0.5446
 6231SOL    HW230153   0.926   1.175   7.304 -0.4759 -0.4025  0.1115
 6232SOL     OW30154   1.000   2.885   5.323 -0.2695 -0.4055 -0.0535
 6232SOL    HW130155   1.067   2.822   5.348  0.0307  0.2464  0.7730
 6232SOL    HW230156   1.061   2.955   5.302 -4.0205  3.0699  0.5428
 6233SOL     OW30157   2.183   4.370  11.194 -0.3970  0.8353  0.3927
 6233SOL    HW130158   2.125   4.441  11.166  0.2005  1.9590  1.9838
 6233SOL    HW230159   2.210   4.353  11.103  2.0138  0.5219  1.1622
 6234SOL     OW30160   0.921   3.733   5.919 -0.9911  0.0516  0.5324
 6234SOL    HW130161   0.983   3.806   5.920 -0.5591 -0.3425  2.0928
 6234SOL    HW230162   0.857   3.757   5.852 -1.1969  1.7252  1.3311
 6235SOL     OW30163   1.120   3.770   5.511  0.4623  0.4193 -0.2155
 6235SOL    HW130164   1.176   3.787   5.586  1.1098  2.8558 -1.2627
 6235SOL    HW230165   1.134   3.838   5.445 -0.9571 -1.0164 -1.9906
 6236SOL     OW30166   1.879   1.059   5.583  0.7364  0.0936 -0.0350
 6236SOL    HW130167   1.866   0.981   5.638 -0.7527 -0.4890 -1.2077
 6236SOL    HW230168   1.959   1.090   5.626  0.0762  1.4828  0.2067
 6237SOL     OW30169   0.377   1.027   3.943  0.4524 -0.5335  0.6903
 6237SOL    HW130170   0.359   0.972   4.019 -1.0899 -1.2535 -0.2083
 6237SOL    HW230171   0.438   0.972   3.894 -1.6837 -0.7286 -1.7803
 6238SOL     OW30172   0.333   1.117   4.582  0.5307 -0.0339  0.1547
 6238SOL    HW130173   0.371   1.088   4.665  1.1675  0.5820  0.0776
 6238SOL    HW230174   0.349   1.211   4.574  0.2036  0.0091  0.0060
 6239SOL     OW30175   2.276   3.242   3.386 -0.8226  0.8161 -0.3350
 6239SOL    HW130176   2.297   3.333   3.411 -1.4923  0.8545  0.0777
 6239SOL    HW230177   2.363   3.209   3.364 -0.6318  0.4232  1.0147
 6240SOL     OW30178   1.284   4.222   5.612  0.2560  0.0601 -0.3103
 6240SOL    HW130179   1.322   4.306   5.586 -0.1097 -0.0537 -1.1913
 6240SOL    HW230180   1.362   4.167   5.615  0.7089  0.8001  1.4375
 6241SOL     OW30181   0.575   3.644  13.168 -0.0688 -0.4891  0.3539
 6241SOL    HW130182   0.546   3.602  13.086  0.0915 -0.7337  0.4218
 6241SOL    HW230183   0.612   3.725  13.133 -0.0681 -0.7744 -0.3106
 6242SOL     OW30184   3.878   1.446   7.716 -0.2087 -0.1748 -0.1403
 6242SOL    HW130185   3.919   1.360   7.701 -0.7053 -0.5695  0.8137
 6242SOL    HW230186   3.949   1.506   7.690 -1.1265  1.6147  1.5548
 6243SOL     OW30187   4.399   0.689   7.411  0.3799  0.3840  0.1090
 6243SOL    HW130188   4.306   0.685   7.431  0.2152  1.2849 -0.4765
 6243SOL    HW230189   4.458   0.627   7.455 -0.8980 -0.5416  0.5104
 6244SOL     OW30190   3.854   4.417  16.365 -0.2109 -0.4418  0.2366
 6244SOL    HW130191   3.880   4.499  16.408 -0.5863 -0.7514  1.0593
 6244SOL    HW230192   3.783   4.396  16.426  0.0990 -0.1159  0.7126
 6245SOL     OW30193   4.599   4.412  16.661  0.8598  0.7092  0.5080
 6245SOL    HW130194   4.549   4.477  16.612  3.8376  2.4455 -0.2732
 6245SOL    HW230195   4.540   4.338  16.652  0.4771  1.0400  0.3149
 6246SOL     OW30196   4.163   4.366   7.342 -0.3353 -0.2639  0.7076
 6246SOL    HW130197   4.068   4.371   7.333 -0.3272 -0.4357  0.5208
 6246SOL    HW230198   4.188   4.458   7.345  1.6727 -0.7069 -1.8147
 6247SOL     OW30199   1.867   0.930  12.613 -0.0405 -0.3289 -0.5375
 6247SOL    HW130200   1.856   0.877  12.692 -0.3771 -1.8728 -1.6038
 6247SOL    HW230201   1.818   1.008  12.638  1.3330  0.6807 -1.0297
 6248SOL     OW30202   4.086   1.372   7.007  0.6642 -0.5205 -0.1919
 6248SOL    HW130203   3.994   1.389   6.986  0.3655 -0.5109  1.1085
 6248SOL    HW230204   4.079   1.280   7.031 -0.6653 -0.7663 -1.5306
 6249SOL     OW30205   2.940   2.781  16.934  0.6075 -0.1515  0.0518
 6249SOL    HW130206   3.030   2.803  16.956  0.4545 -0.9923  1.4774
 6249SOL    HW230207   2.918   2.711  16.995  1.9766  0.8480  1.6987
 6250SOL     OW30208   0.350   1.903  15.566  0.2003  0.0631 -0.0790
 6250SOL    HW130209   0.306   1.979  15.605 -0.5763  0.5041 -1.8048
 6250SOL    HW230210   0.396   1.883  15.647 -0.4077 -0.4383  0.1386
 6251SOL     OW30211   3.677   0.969   7.688  0.0416 -0.3719 -0.1505
 6251SOL    HW130212   3.667   0.935   7.599  2.2008 -0.2566 -0.4372
 6251SOL    HW230213   3.588   0.964   7.724  1.4085 -2.4873  2.8642
 6252SOL     OW30214   4.056   3.361  16.036 -0.0416 -0.0120 -0.1966
 6252SOL    HW130215   4.115   3.434  16.055 -0.9536  1.1383 -1.8467
 6252SOL    HW230216   4.025   3.351  16.126 -0.9703 -0.0020 -0.5189
 6253SOL     OW30217   0.352   3.126  13.367 -0.6882 -0.3312 -0.2046
 6253SOL    HW130218   0.423   3.189  13.358 -1.4300  0.7196  1.1929
 6253SOL    HW230219   0.360   3.109  13.461 -1.7039  0.5685  0.0456
 6254SOL     OW30220   1.946   1.738   3.162 -0.3110 -0.2783 -0.9114
 6254SOL    HW130221   1.861   1.779   3.176  0.5634  1.8620 -1.8148
 6254SOL    HW230222   1.992   1.818   3.136  1.3684 -0.9810 -0.0904
 6255SOL     OW30223   0.595   2.985   5.019  0.7416  0.1406 -0.1265
 6255SOL    HW130224   0.650   2.913   4.988  0.8489  1.0617 -2.1358
 6255SOL    HW230225   0.635   3.009   5.102  0.0910  0.1103  0.1931
 6256SOL     OW30226   4.108   3.645  11.800  0.0457  0.0945 -0.1110
 6256SOL    HW130227   4.086   3.729  11.759 -0.2008  0.4808  0.8152
 6256SOL    HW230228   4.084   3.669  11.890  1.4256 -0.5235  0.4276
 6257SOL     OW30229   4.375   1.844  14.283 -0.5283  0.4554 -0.2008
 6257SOL    HW130230   4.293   1.802  14.258  1.1505 -1.3251 -2.6388
 6257SOL    HW230231   4.348   1.934  14.266 -1.7734  0.1049 -0.0798
 6258SOL     OW30232   1.652   4.376   8.826  0.1158  0.0971  0.4509
 6258SOL    HW130233   1.645   4.462   8.785 -0.0188  0.2883  0.8748
 6258SOL    HW230234   1.746   4.370   8.843  0.5009  3.5267 -0.4701
 6259SOL     OW30235   4.502   3.465  10.444  0.2359 -0.9909 -0.0609
 6259SOL    HW130236   4.552   3.542  10.469 -0.6996  0.1821 -1.7457
 6259SOL    HW230237   4.520   3.402  10.514  1.3055 -0.2468  0.3365
 6260SOL     OW30238   0.461   1.044   6.599  0.4813 -0.1153  0.2048
 6260SOL    HW130239   0.526   1.114   6.591 -3.1514  3.3026  0.5719
 6260SOL    HW230240   0.430   1.060   6.688  0.0113  2.4612 -0.4129
 6261SOL     OW30241   3.738   2.436   4.540 -0.2770 -0.4198 -0.1463
 6261SOL    HW130242   3.651   2.409   4.570 -1.7932  3.6927 -0.8528
 6261SOL    HW230243   3.727   2.531   4.547  3.4314 -0.0586  1.0162
 6262SOL     OW30244   2.182   0.830   7.795  0.0577  0.3672  0.6500
 6262SOL    HW130245   2.096   0.790   7.795 -0.4941  1.5523  0.5225
 6262SOL    HW230246   2.167   0.913   7.750 -0.2683  0.9889  1.8867
 6263SOL     OW30247   2.846   4.015   3.665  0.1411 -0.3074 -0.3585
 6263SOL    HW130248   2.895   4.081   3.715 -1.5042  1.4435 -1.0689
 6263SOL    HW230249   2.761   4.058   3.657 -0.1011 -0.7330 -0.0250
 6264SOL     OW30250   0.892   1.866   8.832  0.4984 -0.1327  0.1663
 6264SOL    HW130251   0.850   1.787   8.866  0.1952  0.2241  0.6208
 6264SOL    HW230252   0.945   1.832   8.760  0.4180  1.3966 -0.6193
 6265SOL     OW30253   0.084   4.473   8.127 -0.1056  0.2395  0.1730
 6265SOL    HW130254   0.038   4.428   8.198  0.6237  1.7005  1.5707
 6265SOL    HW230255   0.159   4.418   8.104  0.3126  0.9111 -0.0905
 6266SOL     OW30256   4.132   4.604   1.663  0.4610 -0.2636  0.5442
 6266SOL    HW130257   4.219   4.589   1.701  0.0147 -0.3856  1.5078
 6266SOL    HW230258   4.143   4.690   1.622 -0.5728 -0.8348 -0.9139
 6267SOL     OW30259   3.749   4.684   6.499 -0.6606 -0.3374  0.9915
 6267SOL    HW130260   3.831   4.674   6.450 -1.3763 -3.4573  0.4612
 6267SOL    HW230261   3.760   0.057   6.529  4.2164  0.5385 -3.5387
 6268SOL     OW30262   3.056   4.317   4.374  0.0704  0.1887 -0.1438
 6268SOL    HW130263   3.148   4.326   4.399  0.5946  1.0464 -2.3929
 6268SOL    HW230264   3.054   4.290   4.282  0.1994  2.8411 -0.9277
 6269SOL     OW30265   3.788   3.659   5.558 -0.0274 -0.0366 -0.0108
 6269SOL    HW130266   3.696   3.685   5.552 -0.2020 -0.7251 -0.3672
 6269SOL    HW230267   3.824   3.725   5.616 -1.0382 -2.1612  3.0564
 6270SOL     OW30268   1.901   1.359   4.200  0.5368  0.2203 -0.4594
 6270SOL    HW130269   1.974   1.399   4.151 -0.3516  0.4974 -1.5553
 6270SOL    HW230270   1.845   1.431   4.227  0.5709  0.1536 -0.2124
 6271SOL     OW30271   0.493   1.578   8.309 -0.0370  0.1780 -0.2736
 6271SOL    HW130272   0.530   1.539   8.230 -1.3331  0.4301 -0.9990
 6271SOL    HW230273   0.397   1.576   8.308 -0.1100  0.9891  3.3358
 6272SOL     OW30274   3.937   0.828  14.354  0.2940 -0.2372  0.0174
 6272SOL    HW130275   3.983   0.903  14.393  1.3204 -0.5283 -0.6532
 6272SOL    HW230276   3.966   0.753  14.406  1.3571 -0.1646 -0.4671
 6273SOL     OW30277   0.165   3.830   7.231  0.7329 -0.2481 -0.3720
 6273SOL    HW130278   0.196   3.742   7.252  1.3925  0.0715 -0.0145
 6273SOL    HW230279   0.248   3.858   7.193 -0.7094  2.8430 -1.3081
 6274SOL     OW30280   1.059   1.675  13.459 -0.1353  0.1438 -0.1538
 6274SOL    HW130281   0.976   1.712  13.428 -0.3403  1.1156  1.5254
 6274SOL    HW230282   1.080   1.647  13.370 -1.5770 -0.5491 -0.2636
 6275SOL     OW30283   4.571   1.885   5.464 -0.4847 -0.0420 -0.2479
 6275SOL    HW130284   4.566   1.792   5.488 -0.0635 -1.2786 -4.8520
 6275SOL    HW230285   4.646   1.881   5.404  0.8852  1.8821  1.3610
 6276SOL     OW30286   3.532   4.092   9.867 -0.2238  0.0216 -0.4642
 6276SOL    HW130287   3.443   4.106   9.836 -0.3749  0.9508  0.3919
 6276SOL    HW230288   3.534   4.162   9.933 -0.7202  1.0826 -1.5735
 6277SOL     OW30289   0.764   2.387  13.795 -0.3918 -0.6316  0.3010
 6277SOL    HW130290   0.670   2.386  13.809 -0.8022  0.2845 -2.4752
 6277SOL    HW230291   0.782   2.337  13.715 -0.9234 -1.7031  0.8602
 6278SOL     OW30292   0.835   2.373   8.954  0.1377 -0.3977 -0.0612
 6278SOL    HW130293   0.782   2.302   8.990  0.2515 -0.3970  0.1118
 6278SOL    HW230294   0.921   2.348   8.989  0.6285 -0.2210 -1.1421
 6279SOL     OW30295   3.589   2.575   6.640  0.8022 -0.0315  0.4840
 6279SOL    HW130296   3.495   2.572   6.656  0.7415  0.4009  0.2098
 6279SOL    HW230297   3.610   2.507   6.577 -0.0946 -0.8938  1.1199
 6280SOL     OW30298   0.768   2.470  14.394  0.4363 -0.1011 -0.1146
 6280SOL    HW130299   0.818   2.389  14.394  1.9967  0.8807  0.8188
 6280SOL    HW230300   0.699   2.449  14.330 -1.5088  0.2608  1.8831
 6281SOL     OW30301   3.626   3.448   9.947  0.2454 -0.3972 -0.3659
 6281SOL    HW130302   3.568   3.504   9.999  0.7805  2.6322 -3.0631
 6281SOL    HW230303   3.580   3.456   9.864  0.0926  1.0632 -0.1453
 6282SOL     OW30304   3.150   1.525   1.660 -0.3246  0.3093  0.2819
 6282SOL    HW130305   3.200   1.576   1.724 -0.3184  1.7187 -0.8232
 6282SOL    HW230306   3.062   1.560   1.676  0.4225  1.2341  2.2996
 6283SOL     OW30307   4.212   2.648   2.926 -0.3756 -0.2576 -0.2626
 6283SOL    HW130308   4.235   2.581   2.861  0.0842  0.0972 -0.4701
 6283SOL    HW230309   4.219   2.729   2.876  0.9257  0.0094  0.3511
 6284SOL     OW30310   0.858   2.833  16.618  0.5846  0.5488  0.5704
 6284SOL    HW130311   0.946   2.844  16.583  1.2830 -3.1340  1.1583
 6284SOL    HW230312   0.867   2.870  16.706  0.3845 -0.5920  1.0621
 6285SOL     OW30313   1.628   4.274   8.271  0.0724 -0.0324 -0.3433
 6285SOL    HW130314   1.694   4.332   8.308 -1.6895  0.4109  2.0990
 6285SOL    HW230315   1.684   4.217   8.219  1.4853  2.6922 -1.8192
 6286SOL     OW30316   4.136   1.729   5.264 -0.3587 -0.5623  0.7634
 6286SOL    HW130317   4.088   1.802   5.302 -0.3087 -1.0258  1.7133
 6286SOL    HW230318   4.177   1.693   5.342 -1.7250  1.1935  2.2797
 6287SOL     OW30319   0.424   0.894   4.735  0.0653  0.2064 -0.6945
 6287SOL    HW130320   0.513   0.878   4.768  0.2789  0.7946 -0.9707
 6287SOL    HW230321   0.406   0.963   4.800  0.3722 -0.8996  0.5737
 6288SOL     OW30322   3.885   4.354   7.338  0.4995  0.3325 -0.4606
 6288SOL    HW130323   3.837   4.273   7.355 -0.1877  0.6718 -0.7676
 6288SOL    HW230324   3.845   4.415   7.400 -1.5584 -0.3308 -1.1302
 6289SOL     OW30325   1.154   4.515  12.305 -1.0900 -0.1286  0.2107
 6289SOL    HW130326   1.086   4.479  12.248  0.3780 -0.2199 -1.4620
 6289SOL    HW230327   1.107   4.527  12.388 -2.9095  0.3979 -0.8981
 6290SOL     OW30328   1.270   3.819   6.186 -0.3405 -0.2145 -0.5587
 6290SOL    HW130329   1.208   3.884   6.217 -1.6922 -0.8510 -1.9036
 6290SOL    HW230330   1.322   3.810   6.266  3.2270  1.2030 -2.6990
 6291SOL     OW30331   3.176   4.449   9.694 -0.3018 -0.5846  0.1622
 6291SOL    HW130332   3.217   4.527   9.657  2.3603 -1.1501  1.9107
 6291SOL    HW230333   3.144   4.487   9.775 -1.7738  0.8836 -1.1168
 6292SOL     OW30334   2.005   4.530  13.015  0.0188 -0.5817 -0.0662
 6292SOL    HW130335   2.095   4.516  13.046  0.1755  1.1992  0.2714
 6292SOL    HW230336   2.021   4.621  12.992  1.3039 -0.5622  0.8568
 6293SOL     OW30337   2.731   2.738   9.528 -0.0140  0.1715  0.0443
 6293SOL    HW130338   2.661   2.787   9.571 -0.0841  0.3179 -0.2403
 6293SOL    HW230339   2.741   2.660   9.584  1.4310 -0.6397 -1.3460
 6294SOL     OW30340   1.087   3.427   2.907 -0.4484 -0.5103 -0.4105
 6294SOL    HW130341   1.079   3.357   2.971 -2.0917 -0.5020 -0.6130
 6294SOL    HW230342   1.170   3.391   2.876  0.7192  0.9961  0.9279
 6295SOL     OW30343   0.356   3.025   8.417  0.2460 -0.4513 -0.7784
 6295SOL    HW130344   0.274   2.977   8.411 -0.3387  0.6701 -1.5832
 6295SOL    HW230345   0.354   3.080   8.339  0.6532  1.9395  0.8767
 6296SOL     OW30346   1.239   2.664   4.931  0.0610 -0.7765 -0.7142
 6296SOL    HW130347   1.312   2.620   4.887  2.3193  0.0572  2.1419
 6296SOL    HW230348   1.220   2.605   5.004 -3.7562  1.8112  0.4368
 6297SOL     OW30349   0.511   3.399  16.224 -0.3450 -0.3449 -0.6402
 6297SOL    HW130350   0.500   3.344  16.146  1.4769 -0.9495 -0.4742
 6297SOL    HW230351   0.455   3.475  16.210  0.3121  0.2532  0.0024
 6298SOL     OW30352   0.674   1.786   3.596  0.1061 -0.0775  0.2220
 6298SOL    HW130353   0.596   1.752   3.552 -1.5269  1.9453  1.5447
 6298SOL    HW230354   0.706   1.854   3.537  2.2320  0.5944  2.1228
 6299SOL     OW30355   0.648   1.507   1.954  0.4401  0.6342 -0.0994
 6299SOL    HW130356   0.690   1.503   2.039  0.0413 -1.3604  0.0069
 6299SOL    HW230357   0.649   1.416   1.923  0.7573  0.3745  0.6904
 6300SOL     OW30358   4.228   4.400   6.772  0.1141  0.2229  0.0459
 6300SOL    HW130359   4.309   4.406   6.721 -0.3777  0.8847 -0.6466
 6300SOL    HW230360   4.268   4.405   6.859 -1.0800 -1.1403  0.6860
 6301SOL     OW30361   0.427   4.474   8.294  0.4336  0.4331 -0.2967
 6301SOL    HW130362   0.441   4.546   8.356 -0.8449  0.2790  0.1891
 6301SOL    HW230363   0.341   4.451   8.329 -0.4343  2.3663 -1.1207
 6302SOL     OW30364   1.516   2.302   0.584 -0.7714 -0.5758  0.2474
 6302SOL    HW130365   1.494   2.254   0.663 -0.9877  0.9241  1.0926
 6302SOL    HW230366   1.544   2.386   0.621 -3.2381 -0.1620  1.1698
 6303SOL     OW30367   4.387   4.581   4.126  0.6171 -0.1749 -0.2824
 6303SOL    HW130368   4.325   4.543   4.064  0.5471 -0.4180 -0.0617
 6303SOL    HW230369   4.388   4.524   4.203 -0.4690  1.3052  0.8394
 6304SOL     OW30370   3.296   0.604   5.678 -0.0810  0.9062 -0.2353
 6304SOL    HW130371   3.226   0.638   5.622 -0.5486  2.3021  1.2096
 6304SOL    HW230372   3.297   0.512   5.649  0.5047  0.1323  2.2944
 6305SOL     OW30373   2.659   1.297  16.351  0.7383  0.0454 -0.0120
 6305SOL    HW130374   2.712   1.303  16.271 -0.5491  1.0932 -0.7827
 6305SOL    HW230375   2.725   1.329  16.412 -0.2416  1.0743  0.5049
 6306SOL     OW30376   2.192   0.034   2.214 -0.1513 -0.2831 -0.3956
 6306SOL    HW130377   2.210   0.121   2.248 -0.5218  0.6773 -2.6062
 6306SOL    HW230378   2.142   4.714   2.286 -0.5899  1.3674  0.1605
 6307SOL     OW30379   3.485   1.212   1.697  0.0063 -0.2382 -0.2658
 6307SOL    HW130380   3.399   1.220   1.656 -0.0579  1.3854  0.1912
 6307SOL    HW230381   3.467   1.198   1.790  0.3803 -3.2505 -0.6610
 6308SOL     OW30382   2.846   3.796   7.717 -0.0795 -0.2553 -0.3013
 6308SOL    HW130383   2.938   3.774   7.727 -0.4020  0.1676  3.6470
 6308SOL    HW230384   2.837   3.882   7.758 -0.0753 -0.5846  0.3777
 6309SOL     OW30385   1.973   3.456  12.805  0.0703 -0.0878 -0.6307
 6309SOL    HW130386   2.045   3.453  12.742 -1.8572 -0.2317 -2.8191
 6309SOL    HW230387   1.991   3.382  12.863  4.1788  1.7541  0.4800
 6310SOL     OW30388   3.374   0.593   1.965 -0.2868  0.5563  0.3241
 6310SOL    HW130389   3.450   0.540   1.943 -1.5553 -0.3512 -1.8455
 6310SOL    HW230390   3.347   0.562   2.051 -0.2116 -3.5108 -1.1413
 6311SOL     OW30391   3.689   2.278   6.985 -0.2615  0.1590  0.2198
 6311SOL    HW130392   3.596   2.277   6.962  0.0801 -0.2901 -1.1193
 6311SOL    HW230393   3.700   2.356   7.040  1.6545 -0.0306  0.1180
 6312SOL     OW30394   3.768   0.018  15.147  0.3039  0.1370  0.4325
 6312SOL    HW130395   3.693   4.697  15.192  1.3423 -1.9360  0.4030
 6312SOL    HW230396   3.741   0.017  15.055  2.1707 -2.6454 -0.0812
 6313SOL     OW30397   3.706   1.981   7.110  0.7510 -0.0954 -0.2908
 6313SOL    HW130398   3.781   1.961   7.166  1.2334 -0.6506 -1.1469
 6313SOL    HW230399   3.713   2.077   7.110  1.3279 -0.1417  0.6115
 6314SOL     OW30400   4.217   3.600  10.658  0.0289 -0.4148 -0.3405
 6314SOL    HW130401   4.282   3.566  10.597  0.9474  0.9412 -0.0958
 6314SOL    HW230402   4.267   3.627  10.735  2.2587  0.4416 -2.1072
 6315SOL     OW30403   1.900   1.654   5.589  0.0735  0.3980 -0.4244
 6315SOL    HW130404   1.897   1.576   5.534 -0.5763 -0.0587  0.2520
 6315SOL    HW230405   1.805   1.663   5.601  0.3903  3.9994 -0.4886
 6316SOL     OW30406   3.607   0.201   4.440 -0.7058  0.3707  0.3031
 6316SOL    HW130407   3.690   0.153   4.449 -0.2410  1.0777 -0.2383
 6316SOL    HW230408   3.576   0.186   4.351  0.0544 -2.1024  0.4305
 6317SOL     OW30409   0.554   4.646   8.466  0.2720 -0.3701  0.2519
 6317SOL    HW130410   0.635   4.685   8.499  0.9994 -0.9492 -0.8450
 6317SOL    HW230411   0.493   4.705   8.511  0.2852  2.1297 -2.9873
 6318SOL     OW30412   0.800   2.259  14.679  0.1295 -0.8467  0.3049
 6318SOL    HW130413   0.889   2.246  14.646  0.2194 -1.1573  0.6695
 6318SOL    HW230414   0.766   2.334  14.631  0.3797 -0.8380  0.1401
 6319SOL     OW30415   2.021   1.367   4.848  0.2241 -0.1118 -0.2361
 6319SOL    HW130416   2.059   1.454   4.857 -0.4564  0.1971 -0.3385
 6319SOL    HW230417   2.096   1.325   4.807  0.1826 -0.3052 -0.1142
 6320SOL     OW30418   2.890   4.308  17.589  0.3300  0.2119 -0.1515
 6320SOL    HW130419   2.859   4.274  17.673  1.5020 -0.0698  0.1590
 6320SOL    HW230420   2.945   4.383  17.608  0.9411 -0.6587  1.4624
 6321SOL     OW30421   3.336   0.247   2.519  0.0065  0.0183 -0.1563
 6321SOL    HW130422   3.353   0.341   2.507 -0.3349 -0.1449 -1.8653
 6321SOL    HW230423   3.350   0.220   2.428  0.4712  2.5024 -0.8494
 6322SOL     OW30424   4.454   1.516   6.188 -0.1163  0.0220 -0.4167
 6322SOL    HW130425   4.502   1.580   6.136 -0.0800  0.7693  0.5394
 6322SOL    HW230426   4.383   1.489   6.129 -1.8502  2.1127  0.7118
 6323SOL     OW30427   2.654   2.320   3.727 -0.1986  0.6234  0.1014
 6323SOL    HW130428   2.674   2.391   3.788 -2.5019  2.1403 -0.9579
 6323SOL    HW230429   2.561   2.330   3.710 -0.1671  0.7957  0.0344
 6324SOL     OW30430   1.132   1.946   7.492 -0.3449  0.1614  0.3701
 6324SOL    HW130431   1.165   2.002   7.563  1.7215 -1.3763  0.6511
 6324SOL    HW230432   1.183   1.865   7.503 -1.0397 -0.3010  0.1844
 6325SOL     OW30433   2.350   3.857  12.870  0.3478 -0.6984 -0.1518
 6325SOL    HW130434   2.303   3.909  12.805  1.2962 -0.6243 -0.7844
 6325SOL    HW230435   2.299   3.776  12.876 -1.6671  0.6475  0.7896
 6326SOL     OW30436   1.143   0.315   3.723 -0.0965 -0.1433 -0.3316
 6326SOL    HW130437   1.155   0.410   3.723 -1.8295  0.0682 -0.0969
 6326SOL    HW230438   1.236   0.291   3.721  0.6908  2.7657  0.3150
 6327SOL     OW30439   4.095   2.067  15.798 -0.1553 -0.0750  0.2109
 6327SOL    HW130440   4.066   2.147  15.755 -1.6785  0.0686  1.5176
 6327SOL    HW230441   4.173   2.096  15.846 -0.0720  0.5730 -0.3162
 6328SOL     OW30442   2.516   4.326   3.500 -0.0403  0.0859 -0.1933
 6328SOL    HW130443   2.538   4.370   3.418  2.1626 -0.1142  0.2832
 6328SOL    HW230444   2.600   4.322   3.545  0.6324  0.2160 -1.4515
 6329SOL     OW30445   3.570   3.425   3.067  0.9168 -0.8050 -0.5085
 6329SOL    HW130446   3.600   3.464   2.984 -1.4732 -0.1799 -1.0714
 6329SOL    HW230447   3.521   3.493   3.113  2.4805  0.3566 -0.5313
 6330SOL     OW30448   3.704   3.573   7.241  0.2721  1.2567  0.2141
 6330SOL    HW130449   3.643   3.562   7.315 -0.5364  0.7393 -0.5243
 6330SOL    HW230450   3.757   3.493   7.241 -1.7471 -0.0890  2.0251
 6331SOL     OW30451   0.373   0.514   1.764 -0.2112 -0.2901  0.0975
 6331SOL    HW130452   0.427   0.491   1.689  0.4035  1.6950 -0.0750
 6331SOL    HW230453   0.395   0.606   1.773  0.0779 -0.3544  0.0239
 6332SOL     OW30454   4.114   0.580   2.796  0.2218  0.0998 -0.0944
 6332SOL    HW130455   4.110   0.655   2.855 -1.8826 -2.1463  2.6279
 6332SOL    HW230456   4.205   0.579   2.768 -0.7935 -3.1658 -3.2530
 6333SOL     OW30457   3.544   3.121  16.610 -0.5512  0.1732 -0.4298
 6333SOL    HW130458   3.614   3.070  16.649 -0.9862  0.4528  0.7175
 6333SOL    HW230459   3.557   3.088  16.521 -0.8001  2.2280 -1.2538
 6334SOL     OW30460   2.838   1.656  14.783 -0.0615 -0.2106 -0.7354
 6334SOL    HW130461   2.768   1.689  14.840 -0.3988 -0.6757 -0.8848
 6334SOL    HW230462   2.791   1.661  14.700 -2.0377  0.3151  0.4178
 6335SOL     OW30463   2.273   4.097   7.584  0.4644 -0.0259  0.0765
 6335SOL    HW130464   2.353   4.045   7.578  1.0985  0.8703  0.6045
 6335SOL    HW230465   2.221   4.039   7.639  1.8917 -2.6191 -1.3454
 6336SOL     OW30466   1.257   4.549  16.693 -0.4094  0.0269 -0.1459
 6336SOL    HW130467   1.257   4.624  16.632 -0.6679  1.2733  1.3895
 6336SOL    HW230468   1.256   4.597  16.776  1.1922  0.0961 -0.1802
 6337SOL     OW30469   2.860   0.971   7.060 -0.7472 -0.4273  0.1766
 6337SOL    HW130470   2.917   1.045   7.039 -2.2671  0.1192 -2.0318
 6337SOL    HW230471   2.840   0.988   7.151 -0.9993  1.0848 -0.1658
 6338SOL     OW30472   3.999   0.444   2.177 -0.6628 -0.9126  0.0366
 6338SOL    HW130473   3.904   0.433   2.169 -0.8989 -0.9196  2.9836
 6338SOL    HW230474   3.999   0.527   2.225 -1.5518 -0.2082 -1.1987
 6339SOL     OW30475   4.134   3.194  10.953 -0.5416 -0.1034  0.2160
 6339SOL    HW130476   4.111   3.251  10.879 -1.0810  1.0144  1.2426
 6339SOL    HW230477   4.069   3.124  10.944 -0.7374  0.1718 -0.5191
 6340SOL     OW30478   0.148   4.480  10.612  0.3298 -0.0409  0.2031
 6340SOL    HW130479   0.114   4.391  10.626  1.0528 -0.5705 -1.3526
 6340SOL    HW230480   0.144   4.523  10.697 -1.6004  0.2600 -0.0502
 6341SOL     OW30481   1.242   2.099  15.526  0.0236 -0.5250 -0.1465
 6341SOL    HW130482   1.304   2.084  15.598  0.5497 -1.5574 -0.8130
 6341SOL    HW230483   1.161   2.124  15.571  0.2920  0.3576 -0.1490
 6342SOL     OW30484   1.322   2.971   1.853 -0.3277 -0.2136  0.3295
 6342SOL    HW130485   1.246   2.991   1.798 -1.1220  0.9533  1.8717
 6342SOL    HW230486   1.290   2.998   1.939  2.4332 -2.7953  2.1753
 6343SOL     OW30487   0.562   0.830   8.414  0.4639 -0.0482 -0.2979
 6343SOL    HW130488   0.470   0.844   8.393  0.3181  1.4171  1.3125
 6343SOL    HW230489   0.573   0.736   8.431 -1.5899 -0.4263 -0.9962
 6344SOL     OW30490   0.018   2.672  12.570  0.3257 -0.8747 -0.4945
 6344SOL    HW130491   4.692   2.610  12.511 -1.6518  1.3870 -1.3915
 6344SOL    HW230492   4.687   2.646  12.648  1.6810  1.0755  1.0028
 6345SOL     OW30493   2.397   2.695   3.693  0.5280  0.4436  0.2299
 6345SOL    HW130494   2.471   2.698   3.633  1.4127 -0.3458  1.2922
 6345SOL    HW230495   2.405   2.784   3.725  0.7917 -0.0239  1.4471
 6346SOL     OW30496   1.002   4.040   7.555  0.3747  0.0392 -0.1556
 6346SOL    HW130497   1.013   3.992   7.473  2.0281 -1.1534  0.7474
 6346SOL    HW230498   0.913   4.008   7.569  0.0750  0.4705 -1.1065
 6347SOL     OW30499   2.287   2.951   5.896  0.2567 -0.3417 -0.0189
 6347SOL    HW130500   2.336   2.876   5.860  2.2304  0.3463  1.2355
 6347SOL    HW230501   2.323   2.944   5.984 -0.0362 -0.3213  0.1003
 6348SOL     OW30502   0.004   3.170   3.309 -0.2443  0.1810  0.0223
 6348SOL    HW130503   4.710   3.140   3.219  0.4051 -0.0720  0.0287
 6348SOL    HW230504   0.074   3.114   3.342 -0.6074  1.2410  2.6304
 6349SOL     OW30505   4.135   0.982   0.387  0.3949  0.4138  0.5293
 6349SOL    HW130506   4.060   0.958   0.333  1.1923 -0.4700 -0.1909
 6349SOL    HW230507   4.200   0.986   0.317 -1.7364 -0.2770 -1.4652
 6350SOL     OW30508   4.267   3.358   2.022  0.1873  0.0952  0.7024
 6350SOL    HW130509   4.361   3.352   2.006 -0.3852 -1.8233 -2.0071
 6350SOL    HW230510   4.258   3.449   2.050  1.7904  0.2212  0.7947
 6351SOL     OW30511   0.628   0.908   0.472 -0.3382 -0.0100  0.2223
 6351SOL    HW130512   0.656   0.954   0.551 -2.1727  1.1425  0.2193
 6351SOL    HW230513   0.556   0.968   0.451  0.8145  0.8004 -1.4731
 6352SOL     OW30514   2.020   2.800   5.024  0.1546  0.2796 -0.5240
 6352SOL    HW130515   1.986   2.880   5.063  0.9914  0.4980 -0.2573
 6352SOL    HW230516   2.091   2.835   4.970 -0.8391  1.2944 -1.1759
 6353SOL     OW30517   1.649   0.415   1.680  0.1948  0.1100 -0.3926
 6353SOL    HW130518   1.575   0.390   1.623 -1.3031  0.5811  1.3548
 6353SOL    HW230519   1.651   0.510   1.675 -1.1681  0.2486  1.9419
 6354SOL     OW30520   3.886   0.709   9.239 -0.0844  0.6147 -0.6331
 6354SOL    HW130521   3.962   0.650   9.239 -0.9573 -0.5275  1.9286
 6354SOL    HW230522   3.852   0.682   9.153 -2.8104 -0.0123  0.6415
 6355SOL     OW30523   2.554   4.057   0.550 -0.3360 -0.3114 -0.6664
 6355SOL    HW130524   2.576   3.968   0.523 -0.4039 -0.0874 -1.4560
 6355SOL    HW230525   2.624   4.085   0.610 -0.5578 -0.3221 -0.4036
 6356SOL     OW30526   0.300   4.308   2.949 -0.8145  0.4199  0.1946
 6356SOL    HW130527   0.344   4.298   3.033  0.0710 -1.1140 -0.4768
 6356SOL    HW230528   0.285   4.219   2.919 -1.0182  0.2851  0.6992
 6357SOL     OW30529   2.338   4.017   4.849  0.0310 -0.7313  0.3046
 6357SOL    HW130530   2.258   4.063   4.822  1.4614  1.3160 -0.4226
 6357SOL    HW230531   2.306   3.971   4.927  0.4535  1.1194  1.5663
 6358SOL     OW30532   1.216   2.264   3.432 -0.2504  0.1421 -0.7597
 6358SOL    HW130533   1.282   2.210   3.475 -1.4787 -1.3034 -0.6815
 6358SOL    HW230534   1.234   2.349   3.474  1.9396 -0.9687  0.5437
 6359SOL     OW30535   0.674   3.033   2.400 -0.1255 -0.1359  0.6063
 6359SOL    HW130536   0.680   2.943   2.429  2.1821 -0.6334 -1.3785
 6359SOL    HW230537   0.737   3.027   2.328 -2.3377  0.4965 -1.3898
 6360SOL     OW30538   4.137   0.876   2.507 -0.0457  0.2266 -0.5282
 6360SOL    HW130539   4.054   0.894   2.552  0.1199  0.8419 -0.4765
 6360SOL    HW230540   4.199   0.941   2.541  1.2057 -0.6256 -1.1777
 6361SOL     OW30541   2.559   4.576   3.025 -0.3017 -0.3948  0.3626
 6361SOL    HW130542   2.653   4.585   3.043 -0.0003 -0.0706 -1.4014
 6361SOL    HW230543   2.531   4.658   2.986 -3.2880 -0.9003  1.4544
 6362SOL     OW30544   2.596   0.178   6.035 -0.3117 -0.0741 -0.1828
 6362SOL    HW130545   2.598   0.240   5.963 -0.3775 -1.2641 -1.2238
 6362SOL    HW230546   2.683   0.174   6.076  0.1453 -0.0712 -1.1424
 6363SOL     OW30547   1.212   3.301   8.987 -0.4019  0.6747  0.5345
 6363SOL    HW130548   1.249   3.213   8.982 -2.3708 -0.0836 -0.5924
 6363SOL    HW230549   1.122   3.288   9.017 -0.9044 -0.1493 -1.3239
 6364SOL     OW30550   2.603   2.623  13.676  0.3697 -0.7582  0.0336
 6364SOL    HW130551   2.529   2.608  13.617  0.5149 -1.0750 -0.0668
 6364SOL    HW230552   2.560   2.625  13.762 -0.7479 -2.7018 -0.4584
 6365SOL     OW30553   0.462   2.998   5.308 -0.3865  0.2033 -1.4117
 6365SOL    HW130554   0.554   2.973   5.297  0.5096  2.8035  0.0723
 6365SOL    HW230555   0.422   2.914   5.333 -0.7326  0.2758 -1.7197
 6366SOL     OW30556   4.355   4.356   8.987  0.2891 -0.2807  0.0510
 6366SOL    HW130557   4.300   4.425   8.951  3.6464  1.1096 -2.3436
 6366SOL    HW230558   4.310   4.348   9.071  1.4292 -0.0653  0.6852
 6367SOL     OW30559   1.847   3.791   9.013 -0.2846 -0.1520  0.2211
 6367SOL    HW130560   1.883   3.850   8.946 -0.1093 -0.6192 -0.0963
 6367SOL    HW230561   1.851   3.712   8.959  0.3934  0.6749 -0.9481
 6368SOL     OW30562   3.363   2.147   2.003  0.4288  0.3779 -0.3044
 6368SOL    HW130563   3.333   2.090   1.932  1.1970 -0.9351  0.4398
 6368SOL    HW230564   3.407   2.080   2.054  0.2134  0.2001 -0.3505
 6369SOL     OW30565   2.741   2.427  16.386  0.3529 -0.1095 -0.2016
 6369SOL    HW130566   2.805   2.467  16.445  0.0294 -0.7163  0.5561
 6369SOL    HW230567   2.799   2.406  16.313  0.6658  0.2510 -0.0609
 6370SOL     OW30568   3.982   1.364  14.368 -0.9316  0.2157  0.5037
 6370SOL    HW130569   3.907   1.399  14.320 -1.7639  0.1592  1.7693
 6370SOL    HW230570   3.955   1.272  14.375  2.4234 -0.8499 -0.7085
 6371SOL     OW30571   2.195   0.796   1.742  0.0703 -0.5575  0.8372
 6371SOL    HW130572   2.193   0.811   1.648 -0.4063 -1.3224  0.7289
 6371SOL    HW230573   2.144   0.872   1.771 -0.9259 -1.7911  2.3445
 6372SOL     OW30574   2.774   2.296   5.611  0.4516 -0.4079  0.0151
 6372SOL    HW130575   2.717   2.234   5.657  2.1389 -0.7858  1.6009
 6372SOL    HW230576   2.720   2.303   5.533  0.2537 -2.3805 -0.0388
 6373SOL     OW30577   4.055   4.374  12.287  0.4750  0.0010 -0.8190
 6373SOL    HW130578   3.994   4.301  12.278  0.6442 -0.0734 -1.3584
 6373SOL    HW230579   4.085   4.368  12.378  2.2040 -1.6058 -1.4906
 6374SOL     OW30580   3.636   0.626   7.761  0.7381 -0.3260 -0.1660
 6374SOL    HW130581   3.684   0.563   7.709  0.5166  1.1296 -2.1326
 6374SOL    HW230582   3.684   0.614   7.843 -0.5637 -1.5438  0.4170
 6375SOL     OW30583   3.295   1.147   7.571 -0.0750  0.1193 -0.6419
 6375SOL    HW130584   3.298   1.051   7.567  1.3286  0.1925 -1.4624
 6375SOL    HW230585   3.304   1.170   7.479  0.2921  1.9682 -0.1285
 6376SOL     OW30586   3.342   0.341  16.515  0.2670 -0.5581 -0.2546
 6376SOL    HW130587   3.391   0.411  16.471  0.3664 -0.1752  0.4595
 6376SOL    HW230588   3.345   0.267  16.454 -0.3797 -1.6876  1.1201
 6377SOL     OW30589   2.814   1.448   4.110 -0.0301  0.8481  0.6903
 6377SOL    HW130590   2.836   1.505   4.184 -1.2726 -0.3212  1.9592
 6377SOL    HW230591   2.721   1.441   4.128  0.1802 -0.7997  1.1582
 6378SOL     OW30592   2.065   0.776  14.255  0.1168  0.2134  0.3438
 6378SOL    HW130593   2.133   0.807  14.196 -0.1732 -1.4663 -0.8851
 6378SOL    HW230594   2.123   0.726  14.313 -2.7855 -0.9741  2.2235
 6379SOL     OW30595   0.318   2.182  17.130 -0.2555 -0.5639 -0.5308
 6379SOL    HW130596   0.399   2.204  17.175 -0.9836  0.6910  0.1562
 6379SOL    HW230597   0.301   2.259  17.076  1.0130 -0.4023 -0.6831
 6380SOL     OW30598   3.215   3.344  12.479  0.2413  0.3875 -0.2080
 6380SOL    HW130599   3.310   3.354  12.480  0.4323 -1.5079  1.4509
 6380SOL    HW230600   3.208   3.389  12.563  1.6098  0.3241 -0.0540
 6381SOL     OW30601   0.654   0.416   5.692 -0.5427 -0.0442 -0.4343
 6381SOL    HW130602   0.714   0.411   5.766 -0.7619 -3.5359 -0.4818
 6381SOL    HW230603   0.691   0.488   5.641 -0.6065  0.0547 -0.3390
 6382SOL     OW30604   0.688   1.276   6.266  0.4575 -0.4072 -0.1778
 6382SOL    HW130605   0.655   1.193   6.230  1.3780 -0.7881 -0.1566
 6382SOL    HW230606   0.737   1.305   6.189 -1.8998 -0.7306 -1.8161
 6383SOL     OW30607   3.203   2.960   8.726  0.6329  0.1798  0.1784
 6383SOL    HW130608   3.149   3.000   8.657 -1.4310 -0.5512  1.3585
 6383SOL    HW230609   3.129   2.904   8.751  1.0481  0.2741  1.6230
 6384SOL     OW30610   1.298   4.291  16.527  0.1437  0.1295 -0.0082
 6384SOL    HW130611   1.305   4.359  16.594 -0.7964 -0.3740  0.6007
 6384SOL    HW230612   1.203   4.292  16.517  0.1059 -1.3387  0.2184
 6385SOL     OW30613   4.657   0.287   3.608 -0.5998 -0.4889  0.2184
 6385SOL    HW130614   4.629   0.196   3.619  0.0018 -0.4882  1.7539
 6385SOL    HW230615   4.590   0.324   3.550  0.7379  2.8777  0.8408
 6386SOL     OW30616   2.358   1.021  14.298 -0.0480 -0.3020  0.4604
 6386SOL    HW130617   2.271   1.032  14.259 -1.1257 -2.2146  2.3390
 6386SOL    HW230618   2.378   0.935  14.261  0.4247  0.0445 -0.0774
 6387SOL     OW30619   1.291   3.515   5.816 -0.2163 -0.2123  0.0954
 6387SOL    HW130620   1.196   3.516   5.827 -0.6634 -0.0536 -3.7962
 6387SOL    HW230621   1.318   3.590   5.868 -1.5248 -0.4946  1.1770
 6388SOL     OW30622   0.849   2.934   6.787 -0.3986  0.5737  0.2136
 6388SOL    HW130623   0.819   2.857   6.738  0.3115 -0.0313  0.7174
 6388SOL    HW230624   0.893   2.891   6.861 -0.9890 -0.4081 -0.0028
 6389SOL     OW30625   3.118   3.025   8.474 -0.4024  0.3534 -0.3096
 6389SOL    HW130626   3.031   3.059   8.449 -0.0731 -0.4205 -2.4688
 6389SOL    HW230627   3.178   3.063   8.409  0.1926  2.0579  1.2394
 6390SOL     OW30628   2.850   2.063  10.496  0.1708  0.2773  0.3940
 6390SOL    HW130629   2.756   2.078  10.502 -0.5181 -2.8872 -3.0303
 6390SOL    HW230630   2.865   2.093  10.407  0.3733  2.0986  1.0387
 6391SOL     OW30631   1.508   4.578   6.155  0.2269  0.0063 -0.4080
 6391SOL    HW130632   1.572   4.649   6.147  1.2096 -0.7401  0.8446
 6391SOL    HW230633   1.430   4.626   6.182 -1.4583 -1.4839 -2.6769
 6392SOL     OW30634   2.840   1.153   8.128 -0.0921 -0.1626 -0.6352
 6392SOL    HW130635   2.775   1.094   8.165 -1.3032  1.0112 -0.9058
 6392SOL    HW230636   2.906   1.148   8.197  0.0338  1.3638 -0.6501
 6393SOL     OW30637   1.090   1.030   2.399  0.5544  0.0901 -0.5793
 6393SOL    HW130638   1.073   0.938   2.417 -1.8971  0.5086 -0.7537
 6393SOL    HW230639   1.135   1.070   2.473 -0.1679 -2.9747  1.4827
 6394SOL     OW30640   4.458   4.642  14.877  0.3876 -0.6722 -0.4079
 6394SOL    HW130641   4.368   4.667  14.853  0.1003 -1.6594 -0.3587
 6394SOL    HW230642   4.499   4.636  14.791 -2.0548 -0.0694 -1.6245
 6395SOL     OW30643   2.726   2.541   3.888 -0.6692 -0.6517 -0.1619
 6395SOL    HW130644   2.753   2.537   3.979  2.1878  1.2633 -0.9115
 6395SOL    HW230645   2.664   2.613   3.888  0.7305  0.5682 -1.8994
 6396SOL     OW30646   0.415   3.830  12.744 -0.5646  0.4662  0.6386
 6396SOL    HW130647   0.444   3.773  12.815  1.1333  0.2818 -0.1989
 6396SOL    HW230648   0.370   3.893  12.801  0.6213  0.9984  0.9828
 6397SOL     OW30649   3.012   0.150   3.664  0.6335  0.0202 -0.0505
 6397SOL    HW130650   2.988   0.242   3.676 -1.5899 -0.8889  2.4413
 6397SOL    HW230651   3.101   0.163   3.634  1.4561 -0.2624  2.2557
 6398SOL     OW30652   3.718   4.300  12.997 -0.0970  0.3879 -0.1139
 6398SOL    HW130653   3.754   4.341  12.918  0.8287  0.0151  0.1094
 6398SOL    HW230654   3.658   4.368  13.028 -2.7278 -1.3700 -1.4436
 6399SOL     OW30655   0.725   4.243   6.279  0.1307 -0.8418  0.6515
 6399SOL    HW130656   0.807   4.286   6.253  0.0250  0.8423  3.0724
 6399SOL    HW230657   0.666   4.317   6.288  0.2907 -1.0870  3.6487
 6400SOL     OW30658   2.190   4.091   4.391 -0.1479  0.3612  0.5653
 6400SOL    HW130659   2.099   4.103   4.419  0.0020 -0.0702  1.2302
 6400SOL    HW230660   2.196   4.137   4.307 -0.2324 -1.5332 -0.4783
 6401SOL     OW30661   1.974   1.541   6.055  0.2016 -0.0016  0.4312
 6401SOL    HW130662   1.920   1.487   6.113 -1.9519 -1.2406 -2.7519
 6401SOL    HW230663   1.977   1.621   6.108  1.1054  0.3385 -0.1425
 6402SOL     OW30664   2.726   1.720   6.267 -0.3919 -0.1540 -0.0121
 6402SOL    HW130665   2.723   1.654   6.336  0.9549 -0.2392 -0.0429
 6402SOL    HW230666   2.767   1.795   6.310  0.4741  0.4511 -1.9031
 6403SOL     OW30667   4.314   4.565  16.948  0.0587  0.1468 -0.1164
 6403SOL    HW130668   4.305   4.543  16.855  0.5235 -0.0617 -0.1158
 6403SOL    HW230669   4.402   4.532  16.969  0.6458  2.3310  0.8888
 6404SOL     OW30670   0.780   2.735   7.881 -0.5972 -0.0452  0.5069
 6404SOL    HW130671   0.692   2.698   7.890  0.5596 -2.7244  0.9134
 6404SOL    HW230672   0.816   2.696   7.801  1.2763  1.0198  0.8180
 6405SOL     OW30673   4.481   3.278   4.036  0.4397 -0.1582  0.7386
 6405SOL    HW130674   4.445   3.196   4.000  0.2104  0.7192 -1.0231
 6405SOL    HW230675   4.498   3.325   3.955 -1.1624  0.1155  0.5557
 6406SOL     OW30676   2.983   2.638   1.950 -0.0001 -0.2511  0.5443
 6406SOL    HW130677   2.939   2.644   2.035 -1.6681 -2.1822 -0.2072
 6406SOL    HW230678   3.009   2.729   1.938 -1.3915 -0.1605 -1.7235
 6407SOL     OW30679   1.932   0.178   6.790  0.2797 -0.0804 -0.5641
 6407SOL    HW130680   1.877   0.100   6.791  1.9318 -1.2496  0.1719
 6407SOL    HW230681   2.001   0.152   6.851 -0.6147 -0.0656  0.4442
 6408SOL     OW30682   2.703   1.105   2.296  0.4433  0.2651 -0.0689
 6408SOL    HW130683   2.663   1.066   2.219 -2.0547 -0.0248  1.3490
 6408SOL    HW230684   2.625   1.096   2.351  0.4897 -1.2631 -0.2697
 6409SOL     OW30685   3.139   4.179   5.763  0.8621 -0.2109 -0.9248
 6409SOL    HW130686   3.155   4.238   5.836 -1.0309  0.2368 -0.8719
 6409SOL    HW230687   3.089   4.111   5.808 -0.0001 -1.8126 -4.2650
 6410SOL     OW30688   1.828   4.638   2.906 -0.1917 -0.7039 -0.1027
 6410SOL    HW130689   1.903   4.580   2.890 -0.3186 -1.0358  0.4976
 6410SOL    HW230690   1.857   0.003   2.868 -0.1912 -0.2001  0.9839
 6411SOL     OW30691   4.110   1.245   0.462  0.1035 -0.0230  0.2310
 6411SOL    HW130692   4.095   1.161   0.418  0.9085  0.0994 -0.2875
 6411SOL    HW230693   4.201   1.234   0.488  0.1702  1.6033  0.7084
 6412SOL     OW30694   3.955   4.142  10.862  0.0532 -0.1194 -0.6016
 6412SOL    HW130695   3.938   4.236  10.871  0.6868 -0.1334  0.8006
 6412SOL    HW230696   3.863   4.119  10.877  1.1890 -2.7622  2.3083
 6413SOL     OW30697   3.520   4.690   8.746 -0.3086  0.5203 -0.2060
 6413SOL    HW130698   3.559   0.057   8.727  0.2095  0.3325  0.0426
 6413SOL    HW230699   3.528   4.652   8.658  0.4968 -0.2835  0.2235
 6414SOL     OW30700   0.002   1.535   2.597 -0.2814  1.1977  0.6491
 6414SOL    HW130701   0.066   1.597   2.561 -1.4972  2.5469  0.8311
 6414SOL    HW230702   4.682   1.488   2.522  2.6372  0.6052 -0.4405
 6415SOL     OW30703   0.398   1.122   2.211  0.2188  0.3316 -0.2992
 6415SOL    HW130704   0.444   1.053   2.258  1.1283 -0.7108 -2.7209
 6415SOL    HW230705   0.346   1.061   2.159 -1.3452 -0.0474  1.7098
 6416SOL     OW30706   2.105   1.337   5.407  1.1166 -0.3740  0.3566
 6416SOL    HW130707   2.160   1.260   5.418  1.4776 -0.5115 -2.4289
 6416SOL    HW230708   2.062   1.340   5.493  0.8417  1.5284  0.1627
 6417SOL     OW30709   0.993   3.170   8.315  0.0788 -0.4838 -0.6035
 6417SOL    HW130710   0.998   3.075   8.304  1.0394 -0.5432  0.3543
 6417SOL    HW230711   0.992   3.165   8.411 -2.2943 -2.9684 -0.7421
 6418SOL     OW30712   1.327   4.398   5.149  0.2329  0.5672  0.0801
 6418SOL    HW130713   1.254   4.458   5.136  0.4257  0.4138 -1.7717
 6418SOL    HW230714   1.386   4.442   5.210 -0.3528 -0.3239  1.2703
 6419SOL     OW30715   1.889   4.327   7.369  0.2135  0.5735 -0.2759
 6419SOL    HW130716   1.961   4.291   7.317  0.5001  0.9186 -0.1193
 6419SOL    HW230717   1.931   4.369   7.444  1.5067 -1.1530 -0.0329
 6420SOL     OW30718   1.306   4.629  15.089 -0.0816  0.2122  0.1826
 6420SOL    HW130719   1.306   4.693  15.160  1.9959 -0.1965  0.5468
 6420SOL    HW230720   1.391   4.649  15.050 -1.9209  4.4385 -1.6822
 6421SOL     OW30721   2.984   3.024   9.866 -0.0706 -0.0981  0.2733
 6421SOL    HW130722   2.941   3.045   9.783  1.3187  1.1009 -0.1372
 6421SOL    HW230723   3.079   3.024   9.852  0.1674 -0.1196  1.8530
 6422SOL     OW30724   3.135   1.662   5.215  0.1728  0.3273 -0.2255
 6422SOL    HW130725   3.077   1.606   5.164  0.5063 -0.5297  0.3398
 6422SOL    HW230726   3.210   1.620   5.172 -1.1918  0.8878 -3.2049
 6423SOL     OW30727   0.930   4.140   6.822 -0.0067 -0.0798  0.5514
 6423SOL    HW130728   0.959   4.049   6.813 -0.1758 -0.1826  1.0557
 6423SOL    HW230729   0.872   4.141   6.898  0.3527  0.9526  0.8087
 6424SOL     OW30730   3.296   0.481   7.525 -0.2599 -0.4473 -0.1877
 6424SOL    HW130731   3.325   0.552   7.584 -0.3414 -0.4979 -0.0856
 6424SOL    HW230732   3.294   0.400   7.576  0.3533 -1.2157 -1.3994
 6425SOL     OW30733   0.225   0.112   7.230 -0.6542 -0.1188 -0.2201
 6425SOL    HW130734   0.243   0.157   7.312  0.9167 -0.0406 -0.6041
 6425SOL    HW230735   0.132   0.133   7.227 -0.8950 -0.9314  1.6886
 6426SOL     OW30736   1.995   0.557   2.404  0.3244  0.0255 -0.0613
 6426SOL    HW130737   1.954   0.471   2.395  2.0780 -0.7624 -0.4856
 6426SOL    HW230738   1.919   0.613   2.422 -0.1699  0.0825 -2.3974
 6427SOL     OW30739   0.378   2.442   3.739 -0.2665  0.0941  0.4458
 6427SOL    HW130740   0.461   2.440   3.786 -0.2537  0.3839  0.4351
 6427SOL    HW230741   0.367   2.534   3.718  0.2244 -0.1542 -0.9172
 6428SOL     OW30742   2.576   2.236  10.333 -0.2488  0.1541  0.0443
 6428SOL    HW130743   2.566   2.173  10.404  1.9013 -1.6833 -1.2612
 6428SOL    HW230744   2.485   2.232  10.303 -0.1029  1.4099 -0.5659
 6429SOL     OW30745   0.890   2.631   7.662 -0.1809  0.2209  0.1284
 6429SOL    HW130746   0.857   2.590   7.582  0.5806 -0.0106 -0.0700
 6429SOL    HW230747   0.933   2.711   7.634  0.2662  0.4556  1.4698
 6430SOL     OW30748   4.008   3.717   6.776 -0.2274 -0.0940  0.0989
 6430SOL    HW130749   4.016   3.810   6.796 -1.9717 -0.1304  0.9778
 6430SOL    HW230750   3.924   3.717   6.729 -0.2197 -0.0238  0.0860
 6431SOL     OW30751   0.713   2.325  10.261 -0.6426 -0.3503 -0.3609
 6431SOL    HW130752   0.790   2.382  10.257 -1.3826  0.5668 -1.7374
 6431SOL    HW230753   0.653   2.396  10.240 -0.3882  0.4007  1.4514
 6432SOL     OW30754   3.391   2.085   5.414 -0.6475 -0.1031 -0.3773
 6432SOL    HW130755   3.475   2.039   5.421  0.1530  1.4798  0.3314
 6432SOL    HW230756   3.332   2.009   5.413  0.1327 -0.7586  1.9046
 6433SOL     OW30757   3.062   2.242   4.002 -0.0020 -0.1649 -0.4994
 6433SOL    HW130758   3.157   2.236   4.010  0.1807  1.0314 -1.8374
 6433SOL    HW230759   3.044   2.322   4.050 -1.3510 -1.1869  0.7160
 6434SOL     OW30760   4.714   4.110  12.386  0.1708  0.3465  0.0584
 6434SOL    HW130761   0.021   4.149  12.302  0.9270 -1.0300 -0.3624
 6434SOL    HW230762   4.647   4.176  12.405 -1.4293 -1.4603  0.7780
 6435SOL     OW30763   0.899   1.672   7.600 -0.5944  0.0557 -0.1251
 6435SOL    HW130764   0.995   1.670   7.591 -0.6349 -1.3769 -0.2995
 6435SOL    HW230765   0.884   1.755   7.555 -0.9708  0.6296  1.0331
 6436SOL     OW30766   0.286   0.773  15.119  0.3315 -0.1375  0.3488
 6436SOL    HW130767   0.291   0.680  15.142  1.0757 -0.7412 -2.2254
 6436SOL    HW230768   0.356   0.768  15.053 -0.7265 -0.9545 -0.7285
 6437SOL     OW30769   3.583   2.112  16.931 -0.1863 -0.7812 -0.3010
 6437SOL    HW130770   3.630   2.189  16.965  0.5558 -0.4853 -1.9772
 6437SOL    HW230771   3.629   2.089  16.850 -2.1279 -0.3526 -1.5249
 6438SOL     OW30772   2.951   2.377   3.264 -0.6100  0.4173 -0.3159
 6438SOL    HW130773   2.911   2.307   3.212 -2.2291  2.6975 -2.1440
 6438SOL    HW230774   2.951   2.333   3.349 -1.5266  0.4148 -0.3200
 6439SOL     OW30775   4.118   2.685   7.461  0.2929  0.2921 -0.1363
 6439SOL    HW130776   4.039   2.724   7.500  0.6242  1.4391 -0.6045
 6439SOL    HW230777   4.147   2.765   7.418  0.5057 -0.7595 -1.9385
 6440SOL     OW30778   3.057   1.888   7.624  0.3290 -0.1106  0.4183
 6440SOL    HW130779   3.016   1.974   7.633 -0.0888 -0.2847  0.1567
 6440SOL    HW230780   2.983   1.832   7.650  2.4262 -1.9405  2.5178
 6441SOL     OW30781   4.327   4.513   1.138 -0.1109  0.2626 -0.7119
 6441SOL    HW130782   4.383   4.481   1.067  2.4819  2.2180  0.4330
 6441SOL    HW230783   4.249   4.553   1.099 -1.1976 -1.5036 -0.3278
 6442SOL     OW30784   0.688   2.627   9.473 -0.3696 -0.4035  0.7324
 6442SOL    HW130785   0.689   2.549   9.529 -1.6644  0.6468  2.2324
 6442SOL    HW230786   0.776   2.616   9.436 -1.0969  3.0127 -1.9563
 6443SOL     OW30787   2.330   2.273  15.032  0.3088  0.6291  0.0963
 6443SOL    HW130788   2.331   2.243  14.941  0.9417  0.8928  0.0145
 6443SOL    HW230789   2.246   2.318  15.041 -1.8112 -3.5900  1.3097
 6444SOL     OW30790   0.940   1.094   4.284 -0.1777  0.0514  0.6639
 6444SOL    HW130791   1.023   1.066   4.324  0.1632 -2.7194 -1.9344
 6444SOL    HW230792   0.974   1.172   4.240  2.0826 -2.5156 -2.1791
 6445SOL     OW30793   0.130   2.854  16.932  0.2794  0.6257  0.2537
 6445SOL    HW130794   0.192   2.805  16.986 -0.4252 -1.3130 -0.7164
 6445SOL    HW230795   0.045   2.846  16.975  0.3316  0.0060  0.2356
 6446SOL     OW30796   0.023   2.380   8.610 -0.0740  0.3392 -0.1227
 6446SOL    HW130797   0.009   2.286   8.600 -1.0740  0.4405  0.3883
 6446SOL    HW230798   0.079   2.386   8.532 -0.5464 -0.1381 -0.4969
 6447SOL     OW30799   0.064   3.215   4.771  0.6529 -0.5124 -0.3350
 6447SOL    HW130800   0.125   3.285   4.745 -1.0715  0.8623 -0.6742
 6447SOL    HW230801   4.703   3.266   4.792  1.2406 -0.0645  0.7847
 6448SOL     OW30802   2.355   4.690   4.622  0.7093 -0.4299  0.3861
 6448SOL    HW130803   2.316   0.017   4.697  2.8458  1.3608  0.4466
 6448SOL    HW230804   2.280   4.675   4.565  2.1308  2.2745 -2.1969
 6449SOL     OW30805   2.022   2.024   0.041 -0.0111  0.3786  0.3540
 6449SOL    HW130806   1.967   1.957   0.083  0.3305  1.4919  2.5641
 6449SOL    HW230807   2.102   1.973   0.028 -0.2885 -0.3711  1.6176
 6450SOL     OW30808   3.070   0.631   8.046  0.0286 -0.2694  0.3184
 6450SOL    HW130809   3.072   0.609   7.953  1.1960  0.7639  0.0901
 6450SOL    HW230810   3.147   0.688   8.052 -0.0697 -0.0121 -1.0776
 6451SOL     OW30811   2.969   1.786   0.865  0.7421  0.2062 -0.0121
 6451SOL    HW130812   3.052   1.824   0.833  0.7943  0.4352  0.4079
 6451SOL    HW230813   2.927   1.855   0.916  1.8771  0.1727  0.9681
 6452SOL     OW30814   4.411   3.129   1.905 -0.4353  0.1356 -0.1900
 6452SOL    HW130815   4.472   3.095   1.840  2.2272  2.0877  1.2415
 6452SOL    HW230816   4.324   3.108   1.871 -0.5343  0.4814 -0.1428
 6453SOL     OW30817   1.407   2.510   4.753  0.3044 -0.3516 -0.4687
 6453SOL    HW130818   1.374   2.529   4.665  1.6255  1.7685 -0.4926
 6453SOL    HW230819   1.379   2.418   4.758 -1.1455  0.1390  0.8172
 6454SOL     OW30820   4.123   1.075   5.870  0.0966 -0.0526  0.4089
 6454SOL    HW130821   4.078   1.157   5.849 -0.4008 -0.4307  0.0333
 6454SOL    HW230822   4.214   1.093   5.847 -0.3671  0.4312 -1.0377
 6455SOL     OW30823   4.358   0.390   6.577 -0.1079 -0.0774  0.2352
 6455SOL    HW130824   4.404   0.372   6.659 -0.3893  1.3036  0.6946
 6455SOL    HW230825   4.410   0.464   6.547  0.9783 -1.0845 -0.3230
 6456SOL     OW30826   3.762   3.872  11.850  0.5920  0.2147 -0.0102
 6456SOL    HW130827   3.762   3.816  11.928 -0.7974 -1.3471 -1.1319
 6456SOL    HW230828   3.853   3.900  11.862  0.1602  1.1729  1.0733
 6457SOL     OW30829   4.599   0.614   1.454  0.2546 -0.3326  0.1755
 6457SOL    HW130830   4.691   0.624   1.479  0.3749  0.3975 -0.5657
 6457SOL    HW230831   4.596   0.590   1.362  0.7356  0.4234 -0.0465
 6458SOL     OW30832   1.969   4.286  13.118 -0.4104  0.4259 -0.5551
 6458SOL    HW130833   1.915   4.312  13.193 -0.1391 -2.7496  0.7312
 6458SOL    HW230834   1.984   4.371  13.076 -1.4807  1.2726  0.7620
 6459SOL     OW30835   1.333   1.208   5.176 -0.2818 -0.2263  0.1936
 6459SOL    HW130836   1.346   1.114   5.166 -0.0636 -0.3893  1.9517
 6459SOL    HW230837   1.239   1.211   5.193 -0.4825  1.3281 -1.1454
 6460SOL     OW30838   4.670   3.656  16.283  0.1403 -0.3883 -0.1158
 6460SOL    HW130839   4.673   3.560  16.274  0.9790 -0.3899  0.1121
 6460SOL    HW230840   0.038   3.666  16.326  0.3370  0.2127 -0.6481
 6461SOL     OW30841   1.522   0.919   3.793  0.1845  0.1189  0.1514
 6461SOL    HW130842   1.483   0.942   3.877 -2.5666  0.2712 -1.1643
 6461SOL    HW230843   1.514   0.824   3.790  0.5359  0.0779  0.4652
 6462SOL     OW30844   3.942   0.185   7.546 -0.2037  0.7853 -0.0861
 6462SOL    HW130845   3.961   0.092   7.558 -2.1033  0.5330  1.0140
 6462SOL    HW230846   3.848   0.186   7.565 -0.3500 -1.2891 -0.6526
 6463SOL     OW30847   4.635   3.014   7.964 -0.3192  0.4982 -0.2433
 6463SOL    HW130848   4.664   2.926   7.986  0.4534  0.5528 -1.0390
 6463SOL    HW230849   4.628   3.002   7.869  0.2780  1.0248 -0.3504
 6464SOL     OW30850   2.246   2.724   6.941  0.2586 -0.0349 -0.2752
 6464SOL    HW130851   2.288   2.639   6.950 -1.2555 -0.4550  2.9768
 6464SOL    HW230852   2.162   2.693   6.907 -0.9103  1.2986  1.3846
 6465SOL     OW30853   3.171   0.870   5.497  0.1672 -0.0115  0.3485
 6465SOL    HW130854   3.128   0.789   5.524  0.6781 -0.0489  1.0484
 6465SOL    HW230855   3.106   0.905   5.435 -0.2160  1.6693  1.7020
 6466SOL     OW30856   4.444   2.131  16.182 -0.2167 -1.0328 -0.4516
 6466SOL    HW130857   4.522   2.160  16.133  0.2606 -1.1871  0.2132
 6466SOL    HW230858   4.378   2.192  16.149 -0.7196 -0.6011  1.4109
 6467SOL     OW30859   2.289   2.082   5.390  0.3871  0.1350  0.6433
 6467SOL    HW130860   2.384   2.083   5.375 -0.0335 -1.0974 -2.0270
 6467SOL    HW230861   2.282   2.014   5.457  0.4534 -0.8300 -0.3442
 6468SOL     OW30862   0.038   0.734   3.307  0.1330 -0.2870 -0.0788
 6468SOL    HW130863   0.045   0.642   3.335 -0.3113  0.2179  1.6817
 6468SOL    HW230864   4.704   0.720   3.228  1.3516  1.3340 -1.1728
 6469SOL     OW30865   4.431   0.314   6.856 -0.6051  0.1317 -0.1522
 6469SOL    HW130866   4.523   0.290   6.841 -0.6059 -0.1922  0.3614
 6469SOL    HW230867   4.440   0.348   6.945 -1.9475  1.0295 -0.3608
 6470SOL     OW30868   0.795   3.443   4.593  0.6711  0.1099 -0.2312
 6470SOL    HW130869   0.812   3.409   4.505  0.0295 -0.0163 -0.3053
 6470SOL    HW230870   0.750   3.523   4.568 -2.2841 -1.1284  1.1056
 6471SOL     OW30871   0.472   0.018  15.658 -0.0516 -0.3594  0.3611
 6471SOL    HW130872   0.469   4.655  15.709 -1.9517 -1.0453 -0.8498
 6471SOL    HW230873   0.386   0.055  15.679  0.0959  0.4481 -0.4568
 6472SOL     OW30874   3.574   4.311   1.404 -0.2584 -0.2908 -0.2502
 6472SOL    HW130875   3.505   4.295   1.339 -0.5073  3.5351 -0.8972
 6472SOL    HW230876   3.643   4.257   1.366 -1.4850 -0.4807 -2.2061
 6473SOL     OW30877   3.689   0.530  11.901  0.5863 -0.7875 -0.3682
 6473SOL    HW130878   3.719   0.482  11.978  2.3054 -0.7953 -1.0459
 6473SOL    HW230879   3.596   0.518  11.922  0.3299 -0.5132 -1.3479
 6474SOL     OW30880   3.682   3.938   5.051  0.4228  0.1161 -0.0284
 6474SOL    HW130881   3.611   3.884   5.085  1.0790 -1.3390 -0.9621
 6474SOL    HW230882   3.738   3.938   5.128 -2.2403  0.3152  1.8985
 6475SOL     OW30883   0.627   2.316   5.158  0.1975 -0.7033  0.0546
 6475SOL    HW130884   0.630   2.363   5.074 -0.3473 -0.3223  0.2483
 6475SOL    HW230885   0.543   2.271   5.149  1.3984 -2.7191 -1.2445
 6476SOL     OW30886   3.147   2.943   3.819  0.4693 -0.0391 -0.2369
 6476SOL    HW130887   3.124   2.876   3.883 -1.7124 -0.2116 -1.1958
 6476SOL    HW230888   3.061   2.983   3.811 -0.0205 -1.2109 -0.7676
 6477SOL     OW30889   2.525   1.942  16.390  0.0557 -0.1593 -0.1772
 6477SOL    HW130890   2.449   1.944  16.332  0.9036 -0.5780 -1.3069
 6477SOL    HW230891   2.528   2.029  16.430  0.2083  0.0355 -0.6085
 6478SOL     OW30892   1.017   2.511   6.183  0.1236 -0.1721 -0.3246
 6478SOL    HW130893   1.042   2.602   6.167  2.7027 -0.7021  0.7181
 6478SOL    HW230894   1.069   2.476   6.110 -0.1632  0.6698 -0.9261
 6479SOL     OW30895   3.514   4.146   1.096  0.2282 -0.2051  0.2579
 6479SOL    HW130896   3.500   4.147   1.001 -2.4056  0.8288  0.6456
 6479SOL    HW230897   3.609   4.150   1.109 -0.2319 -1.5389  4.1217
 6480SOL     OW30898   3.221   2.612  11.184  0.2367 -0.0803  0.4248
 6480SOL    HW130899   3.192   2.521  11.191  0.8796 -0.2966  0.3173
 6480SOL    HW230900   3.147   2.649  11.137  0.4876  1.3606  1.1491
 6481SOL     OW30901   2.004   1.329   5.682  0.4351 -0.3105 -0.2076
 6481SOL    HW130902   1.950   1.292   5.751 -0.1093  4.0275  1.6940
 6481SOL    HW230903   2.062   1.390   5.728  0.7847 -2.0614  1.6995
 6482SOL     OW30904   2.504   3.560   7.989  0.4713 -0.1539  0.2492
 6482SOL    HW130905   2.588   3.605   7.985 -1.0588  2.7117  0.4895
 6482SOL    HW230906   2.493   3.526   8.078 -2.8484  0.8207  0.2358
 6483SOL     OW30907   2.125   3.481   3.712  0.0121  0.3948  0.3396
 6483SOL    HW130908   2.118   3.393   3.675 -1.0323  0.0861  1.2668
 6483SOL    HW230909   2.179   3.457   3.787  0.2753  0.1318  0.0697
 6484SOL     OW30910   0.474   3.596   3.317 -0.1620 -0.1608 -0.1311
 6484SOL    HW130911   0.386   3.558   3.327  0.1536 -1.2895 -1.5649
 6484SOL    HW230912   0.459   3.679   3.273 -1.3232  0.5882  1.6709
 6485SOL     OW30913   4.352   0.827   3.684 -0.2601 -0.0555 -0.1160
 6485SOL    HW130914   4.374   0.734   3.690 -1.1435 -0.1376  1.9082
 6485SOL    HW230915   4.411   0.871   3.746  1.5967 -0.6094 -1.5032
 6486SOL     OW30916   3.094   3.301   9.879 -0.2548  0.5548  0.3203
 6486SOL    HW130917   3.109   3.245   9.803  2.6657  0.6982  0.8034
 6486SOL    HW230918   3.184   3.325   9.902  0.3230 -2.0121  0.7172
 6487SOL     OW30919   0.393   3.829   8.538 -0.3185  0.1878  0.1493
 6487SOL    HW130920   0.456   3.890   8.577 -0.7742  2.7803 -3.1659
 6487SOL    HW230921   0.380   3.772   8.614  1.9897 -0.2308  0.2387
 6488SOL     OW30922   3.997   4.133   4.566 -0.5234 -0.4337  0.3097
 6488SOL    HW130923   4.082   4.103   4.532 -0.4846  0.9209 -0.8136
 6488SOL    HW230924   3.966   4.191   4.496  1.1407  1.0832  0.8165
 6489SOL     OW30925   1.278   2.438   0.483  0.4007  0.0105  0.1201
 6489SOL    HW130926   1.326   2.442   0.400 -0.1685 -2.8468 -0.3374
 6489SOL    HW230927   1.335   2.390   0.543  1.1033  0.6951  0.0101
 6490SOL     OW30928   2.771   0.487   3.886  0.1049 -0.0464  0.0214
 6490SOL    HW130929   2.763   0.564   3.943 -2.4365  0.1033 -0.5554
 6490SOL    HW230930   2.683   0.455   3.870 -0.3196 -0.5436  3.3288
 6491SOL     OW30931   1.935   1.990   5.205  0.3216 -0.4639  0.0610
 6491SOL    HW130932   1.981   1.907   5.195 -0.0835 -0.4676 -1.7326
 6491SOL    HW230933   1.992   2.039   5.147 -1.8491  1.3384 -0.5530
 6492SOL     OW30934   4.277   3.933  15.747 -0.2705 -0.3069  0.5877
 6492SOL    HW130935   4.228   3.851  15.757  0.7574 -1.0108 -0.1088
 6492SOL    HW230936   4.238   3.993  15.810  2.1027  0.5383  1.2472
 6493SOL     OW30937   3.034   4.536   5.549 -0.3127  0.1161 -0.3910
 6493SOL    HW130938   2.965   4.587   5.592  0.7864  1.5425 -0.2901
 6493SOL    HW230939   3.001   4.447   5.541 -1.1596  0.4281 -0.3392
 6494SOL     OW30940   2.990   1.045   3.018 -0.0206 -0.1633  0.5266
 6494SOL    HW130941   2.941   0.969   3.047  2.6876 -0.6861  3.8036
 6494SOL    HW230942   3.035   1.025   2.936 -1.5575 -1.0458 -0.0958
 6495SOL     OW30943   2.143   0.905   6.808 -0.2019 -0.1724 -0.5288
 6495SOL    HW130944   2.211   0.966   6.780 -1.2745  1.1749 -0.1404
 6495SOL    HW230945   2.074   0.968   6.828 -0.7457 -0.7327 -0.6426
 6496SOL     OW30946   3.584   2.336   2.272  0.2618 -0.0061  0.2951
 6496SOL    HW130947   3.532   2.262   2.240  0.9457  0.6078 -2.2081
 6496SOL    HW230948   3.655   2.344   2.208  0.3748  1.6828  0.6502
 6497SOL     OW30949   3.009   0.143   2.410 -0.4822 -0.6320  0.7937
 6497SOL    HW130950   3.044   0.097   2.487  0.2263 -2.0670 -0.3774
 6497SOL    HW230951   3.013   0.236   2.431 -0.5811 -0.5607  0.4894
 6498SOL     OW30952   0.973   2.387   6.421  0.4917  0.4246  0.3279
 6498SOL    HW130953   1.006   2.428   6.341  3.1425  1.4974  1.9748
 6498SOL    HW230954   1.049   2.330   6.433  0.0974 -0.4515 -1.3432
 6499SOL     OW30955   0.225   3.483   2.148 -0.2001  0.4963 -0.2049
 6499SOL    HW130956   0.255   3.571   2.127 -0.1619  0.2815 -1.0680
 6499SOL    HW230957   0.285   3.427   2.099  0.1615  0.2410  0.5400
 6500SOL     OW30958   3.188   1.724   2.933  0.7279 -0.1219 -0.6170
 6500SOL    HW130959   3.166   1.679   3.014  2.4401  0.2838  0.0739
 6500SOL    HW230960   3.281   1.705   2.917  0.5041 -1.2991 -0.5105
 6501SOL     OW30961   1.421   1.441  16.097  0.0863  0.7004 -0.5851
 6501SOL    HW130962   1.361   1.516  16.101 -0.6729  0.0896 -0.6024
 6501SOL    HW230963   1.461   1.457  16.183  0.6397  0.8393 -0.8685
 6502SOL     OW30964   2.641   0.379  14.908  0.6791 -0.1864  0.5785
 6502SOL    HW130965   2.668   0.402  14.997 -0.4812 -2.0986  1.4306
 6502SOL    HW230966   2.553   0.416  14.906  0.4608 -0.7609 -0.3890
 6503SOL     OW30967   3.093   3.108   3.270 -0.4490  0.0085  0.2061
 6503SOL    HW130968   3.066   3.018   3.283  0.6370 -0.2023  1.0786
 6503SOL    HW230969   3.099   3.143   3.359 -0.3932  0.7451 -0.0844
 6504SOL     OW30970   3.198   2.826   5.882  0.0512  0.3562 -0.5999
 6504SOL    HW130971   3.234   2.737   5.878 -1.8872 -0.4789  0.3758
 6504SOL    HW230972   3.108   2.806   5.857  0.9548 -0.4954 -3.2465
 6505SOL     OW30973   4.419   3.478   4.215 -0.5270 -0.6052 -0.1880
 6505SOL    HW130974   4.327   3.498   4.197 -0.1867  0.1460 -1.1366
 6505SOL    HW230975   4.436   3.418   4.142  2.4273 -0.5430  0.4312
 6506SOL     OW30976   3.465   0.842   1.965  0.1233 -0.1239 -0.4749
 6506SOL    HW130977   3.554   0.826   1.993 -0.7815 -1.5626  1.5409
 6506SOL    HW230978   3.437   0.752   1.948 -4.1183  1.0939  0.0454
 6507SOL     OW30979   1.771   4.583  13.162 -0.1547 -0.0111 -0.4664
 6507SOL    HW130980   1.838   4.539  13.108 -0.2472  0.6509 -1.1171
 6507SOL    HW230981   1.699   4.608  13.104  0.2893  1.2280 -0.4680
 6508SOL     OW30982   3.142   3.318  16.077 -0.1242 -0.1678 -0.1418
 6508SOL    HW130983   3.128   3.226  16.053 -0.0114  0.3344 -2.0603
 6508SOL    HW230984   3.098   3.327  16.162 -0.5256 -0.6901 -0.2920
 6509SOL     OW30985   1.540   3.742   2.586  0.5250 -0.3637  0.4941
 6509SOL    HW130986   1.450   3.716   2.603  0.9238 -1.8236  0.3522
 6509SOL    HW230987   1.568   3.754   2.677 -0.2633 -0.7267  0.7777
 6510SOL     OW30988   1.991   0.174   3.423  0.1536  0.0040 -0.3908
 6510SOL    HW130989   1.975   0.261   3.386  1.6574 -0.5393 -2.2870
 6510SOL    HW230990   1.963   0.120   3.349 -1.2221 -1.3086  1.0917
 6511SOL     OW30991   3.643   2.294   3.291 -0.3610 -0.7001 -0.0446
 6511SOL    HW130992   3.648   2.383   3.256 -2.2256 -0.4365  0.3889
 6511SOL    HW230993   3.605   2.309   3.377 -0.3451 -0.3658 -0.0925
 6512SOL     OW30994   0.590   2.377   3.034 -0.3553 -0.1139  0.3239
 6512SOL    HW130995   0.517   2.353   2.978  0.5207 -0.5935 -0.6187
 6512SOL    HW230996   0.577   2.305   3.096 -0.1441  0.1419  0.6682
 6513SOL     OW30997   3.152   3.280   5.214 -0.0209 -0.1907  0.5313
 6513SOL    HW130998   3.209   3.252   5.286  1.0443 -1.1887 -0.7239
 6513SOL    HW230999   3.160   3.208   5.152 -0.6069  0.2580 -0.0609
 6514SOL     OW31000   0.801   3.856   6.536 -0.8759 -0.8019  0.5699
 6514SOL    HW131001   0.745   3.927   6.567  1.8752  1.0038  1.4246
 6514SOL    HW231002   0.766   3.848   6.447  0.8882  1.9354 -0.3822
 6515SOL     OW31003   4.081   1.877  15.500  0.1584  0.2921 -0.1887
 6515SOL    HW131004   4.159   1.922  15.467  0.5290 -0.0479  0.2152
 6515SOL    HW231005   4.020   1.950  15.497 -0.5939 -0.3728 -1.2748
 6516SOL     OW31006   3.613   2.788   8.330  0.2021 -0.0395  0.5265
 6516SOL    HW131007   3.546   2.840   8.285  0.4660  0.5005  0.7503
 6516SOL    HW231008   3.564   2.739   8.396 -0.3808 -1.5011 -1.0076
 6517SOL     OW31009   1.048   1.922   7.874  0.4611 -0.6716 -0.0275
 6517SOL    HW131010   1.023   1.968   7.954  0.9101 -1.9239  0.8260
 6517SOL    HW231011   0.993   1.844   7.874 -0.1159 -0.2502  2.9155
 6518SOL     OW31012   0.873   0.278   5.569 -0.5104 -0.3014 -0.2778
 6518SOL    HW131013   0.807   0.304   5.634 -1.1436  1.4343 -1.6031
 6518SOL    HW231014   0.842   0.339   5.502 -2.4078 -0.5528  0.3693
 6519SOL     OW31015   0.396   0.362   1.046 -0.2629  0.1277  0.6366
 6519SOL    HW131016   0.422   0.329   1.132 -2.7038 -0.6851  1.0669
 6519SOL    HW231017   0.332   0.430   1.066 -0.6308  0.3063 -1.1136
 6520SOL     OW31018   3.888   4.565   8.604 -0.2810 -0.0870  0.4076
 6520SOL    HW131019   3.813   4.505   8.591  0.0477 -0.3716 -0.1946
 6520SOL    HW231020   3.938   4.526   8.675 -0.8817 -1.2588  0.2088
 6521SOL     OW31021   0.816   3.767   2.115 -0.2667  0.1391  0.3456
 6521SOL    HW131022   0.787   3.793   2.202  0.8123 -0.8937  1.0134
 6521SOL    HW231023   0.893   3.823   2.108  0.3461 -0.7143  0.2917
 6522SOL     OW31024   2.603   1.334  12.582  0.7468  0.4101  1.2489
 6522SOL    HW131025   2.523   1.324  12.633 -1.3149  1.2538 -1.8220
 6522SOL    HW231026   2.606   1.429  12.580 -0.9607  0.4427  0.3165
 6523SOL     OW31027   1.083   3.877   8.691  0.3162  0.2306  0.2100
 6523SOL    HW131028   1.166   3.898   8.648  0.2078 -0.4477 -0.3324
 6523SOL    HW231029   1.106   3.903   8.781 -0.9513 -1.3093  0.9912
 6524SOL     OW31030   1.691   2.234   7.945 -0.1910 -0.1935 -0.1374
 6524SOL    HW131031   1.616   2.175   7.946 -1.0465  0.8912 -0.6386
 6524SOL    HW231032   1.652   2.296   8.006  0.2419 -0.0874  0.0306
 6525SOL     OW31033   1.524   0.871   7.548 -0.0460  0.2604  0.5223
 6525SOL    HW131034   1.554   0.810   7.616  0.6154 -0.4167 -0.3739
 6525SOL    HW231035   1.433   0.844   7.532  0.0276  0.8620 -0.9062
 6526SOL     OW31036   1.499   2.259   2.658 -0.2566  0.4393 -0.1551
 6526SOL    HW131037   1.480   2.245   2.565 -0.4688 -1.5855  0.1995
 6526SOL    HW231038   1.474   2.350   2.669 -2.7389 -0.2607 -0.0630
 6527SOL     OW31039   0.877   3.498   7.928  0.4346 -0.4243  0.4209
 6527SOL    HW131040   0.918   3.426   7.878 -0.0333 -1.0130  0.8809
 6527SOL    HW231041   0.902   3.471   8.016 -0.1404  1.3211  1.1034
 6528SOL     OW31042   1.786   2.337  11.532  0.1704  0.0166 -0.5459
 6528SOL    HW131043   1.799   2.354  11.439 -0.7123  1.8443 -0.3322
 6528SOL    HW231044   1.862   2.282  11.548  1.0008  0.6278 -2.4442
 6529SOL     OW31045   1.602   1.581   2.686  0.3039  0.5212 -0.4505
 6529SOL    HW131046   1.597   1.667   2.643 -0.6276  1.7199  2.0934
 6529SOL    HW231047   1.524   1.538   2.650  0.6026 -2.2990  2.2801
 6530SOL     OW31048   3.083   2.823   7.411  0.1825  0.5026  0.1771
 6530SOL    HW131049   3.126   2.738   7.404 -1.5434 -0.3008 -0.9384
 6530SOL    HW231050   3.087   2.836   7.505  0.1702  0.7171  0.1500
 6531SOL     OW31051   0.736   2.469   3.673 -0.2490 -0.3529 -0.6054
 6531SOL    HW131052   0.821   2.489   3.634  0.7742 -0.6010  1.4853
 6531SOL    HW231053   0.716   2.391   3.621 -2.5858 -1.4421  1.9123
 6532SOL     OW31054   1.833   2.894   2.963 -0.1870  0.2720  0.1619
 6532SOL    HW131055   1.761   2.865   3.018 -0.8209 -1.3091 -1.5181
 6532SOL    HW231056   1.798   2.979   2.937  0.4261  1.1635  2.2423
 6533SOL     OW31057   2.358   0.186   5.429  0.1840 -0.3454 -0.2299
 6533SOL    HW131058   2.403   0.264   5.395  1.2585 -0.9368 -0.1566
 6533SOL    HW231059   2.367   0.213   5.521  3.0492 -2.1046  0.0122
 6534SOL     OW31060   2.728   4.128   5.356 -0.1474  0.2835 -0.9239
 6534SOL    HW131061   2.665   4.164   5.294 -1.5013  1.1729  0.9808
 6534SOL    HW231062   2.672   4.059   5.390 -0.7009  1.8734  1.4113
 6535SOL     OW31063   0.298   0.151   3.342  0.1548  0.0655  0.4273
 6535SOL    HW131064   0.321   0.127   3.252 -1.4758  1.1873 -0.2793
 6535SOL    HW231065   0.206   0.177   3.344  0.1079 -0.2108  1.6882
 6536SOL     OW31066   4.161   4.064   1.032  0.0041 -0.0278  0.3760
 6536SOL    HW131067   4.167   4.116   0.952  1.1817  1.4310  1.4209
 6536SOL    HW231068   4.237   4.008   1.018 -1.0191 -0.6248 -2.9084
 6537SOL     OW31069   3.482   4.585   3.643  0.8433  0.0409 -0.3848
 6537SOL    HW131070   3.503   4.510   3.699 -1.4024  0.9633  1.6896
 6537SOL    HW231071   3.505   4.658   3.700 -0.8821  1.8573 -2.0359
 6538SOL     OW31072   0.898   1.030   9.899  0.7331  0.1834 -0.5185
 6538SOL    HW131073   0.846   1.071   9.968 -0.7398  0.6845 -1.9068
 6538SOL    HW231074   0.873   0.938   9.898  1.5125 -0.0429  1.2768
 6539SOL     OW31075   1.555   0.584   9.286 -0.2236 -0.5200 -0.3415
 6539SOL    HW131076   1.510   0.501   9.301 -1.8451  0.5700  0.7628
 6539SOL    HW231077   1.582   0.608   9.375  0.6045  1.0655 -1.0249
 6540SOL     OW31078   0.135   0.674  14.392 -0.2020 -0.1607 -1.0900
 6540SOL    HW131079   0.161   0.582  14.379  0.7253 -0.0674  0.1427
 6540SOL    HW231080   0.223   0.711  14.400  0.5434 -1.5140 -2.8421
 6541SOL     OW31081   1.512   0.109   8.289  0.2475  0.2628 -0.3645
 6541SOL    HW131082   1.594   0.156   8.278 -0.4662  1.0169 -2.2783
 6541SOL    HW231083   1.551   0.031   8.248  1.1433  1.0998 -1.1085
 6542SOL     OW31084   0.174   0.083  16.788  0.0374 -0.8724 -0.6810
 6542SOL    HW131085   0.120   0.088  16.708  1.1337  0.5047 -1.3226
 6542SOL    HW231086   0.231   0.012  16.760 -0.0251 -1.4964  0.7690
 6543SOL     OW31087   2.976   0.251   9.685 -0.3019  0.0796  0.0282
 6543SOL    HW131088   2.961   0.334   9.731 -0.9091 -0.0528  0.0628
 6543SOL    HW231089   2.887   0.229   9.660 -0.5226  1.4439 -0.4100
 6544SOL     OW31090   0.071   0.293   2.956 -0.2353 -0.5441 -0.3627
 6544SOL    HW131091   0.059   0.354   2.884 -1.0772  0.0151  0.2504
 6544SOL    HW231092   0.155   0.257   2.928  0.3499 -1.1477  2.1040
 6545SOL     OW31093   2.386   2.465   4.062 -0.2748 -0.0114 -0.1737
 6545SOL    HW131094   2.423   2.553   4.049  0.1203 -0.3117 -1.0814
 6545SOL    HW231095   2.457   2.426   4.114  0.4493  2.6354  0.8377
 6546SOL     OW31096   3.543   4.516   7.276 -0.0468  0.0752 -0.0973
 6546SOL    HW131097   3.548   4.440   7.217  2.1322 -0.3035  0.5685
 6546SOL    HW231098   3.498   4.479   7.352  0.9416  1.3651  1.1142
 6547SOL     OW31099   3.084   3.544  14.173 -0.0513 -0.6525 -0.1663
 6547SOL    HW131100   3.076   3.638  14.191  2.1385 -0.5807  0.4103
 6547SOL    HW231101   3.091   3.548  14.078  1.0696 -0.6721 -0.0836
 6548SOL     OW31102   1.689   4.281   3.132  0.3430 -0.1429  0.1029
 6548SOL    HW131103   1.641   4.360   3.106 -0.3338 -0.1555  1.3245
 6548SOL    HW231104   1.706   4.228   3.054  0.5694  3.2467 -2.1685
 6549SOL     OW31105   0.571   2.633   8.266 -0.0365  0.6454  0.0215
 6549SOL    HW131106   0.484   2.648   8.228 -0.0506  4.8062  1.6690
 6549SOL    HW231107   0.567   2.711   8.322 -0.4009  0.4005  0.3362
 6550SOL     OW31108   2.853   1.044   7.587 -0.5395 -0.1280 -0.3519
 6550SOL    HW131109   2.928   0.994   7.620 -0.4813  0.8371  1.0169
 6550SOL    HW231110   2.828   1.069   7.676  0.6151  1.1717 -0.3860
 6551SOL     OW31111   1.683   3.775   6.574  0.5718  0.1032 -0.3156
 6551SOL    HW131112   1.633   3.842   6.528 -0.9548 -0.2457  0.8459
 6551SOL    HW231113   1.632   3.696   6.560  0.9597 -0.3957  1.0343
 6552SOL     OW31114   1.510   0.081   3.314 -0.1470  0.5623  0.2423
 6552SOL    HW131115   1.452   0.009   3.293 -0.9841  1.9389 -2.1030
 6552SOL    HW231116   1.446   0.149   3.337 -1.4217 -0.6464  0.2372
 6553SOL     OW31117   0.140   2.935   4.533  0.1997 -0.0691 -0.9298
 6553SOL    HW131118   0.160   2.995   4.461 -1.5432  1.2156 -0.3376
 6553SOL    HW231119   0.225   2.945   4.576 -1.6856  0.0849  2.7758
 6554SOL     OW31120   3.908   0.973   6.785  0.3624 -0.2518  0.8195
 6554SOL    HW131121   3.860   1.040   6.736 -0.0953 -1.1368  0.0483
 6554SOL    HW231122   3.983   0.964   6.728  0.6882  1.2237  1.0193
 6555SOL     OW31123   2.976   1.567  12.369 -0.1201  0.2903  0.1715
 6555SOL    HW131124   2.927   1.641  12.404  1.5376  0.8639  1.3059
 6555SOL    HW231125   3.062   1.609  12.374  0.7831 -1.5101 -0.2910
 6556SOL     OW31126   0.711   2.769   2.465 -0.4737 -0.0231 -0.1003
 6556SOL    HW131127   0.728   2.680   2.435 -0.0372  0.3577 -0.9792
 6556SOL    HW231128   0.734   2.765   2.558 -0.7025 -1.7495 -0.1273
 6557SOL     OW31129   2.768   1.364   7.021 -0.4138  0.1502  0.1391
 6557SOL    HW131130   2.800   1.276   7.041  0.6829  0.3472 -0.6739
 6557SOL    HW231131   2.748   1.410   7.103 -0.3554 -1.2250  0.9088
 6558SOL     OW31132   4.123   2.072   8.174  0.0904  0.3782  0.4113
 6558SOL    HW131133   4.028   2.071   8.162 -0.2208  0.5331  2.8506
 6558SOL    HW231134   4.149   2.150   8.124  0.7778  0.8396  1.4951
 6559SOL     OW31135   1.473   3.246   3.264  0.6262  0.1915  0.2374
 6559SOL    HW131136   1.499   3.338   3.265  0.3921  0.2624 -0.0346
 6559SOL    HW231137   1.476   3.229   3.170  1.0330 -0.5972  0.3977
 6560SOL     OW31138   0.163   2.185   1.348 -0.5211 -0.0313 -0.1691
 6560SOL    HW131139   0.136   2.116   1.288  1.2400  0.6316 -1.7517
 6560SOL    HW231140   0.241   2.144   1.386  0.0787 -0.0874 -1.4459
 6561SOL     OW31141   4.054   1.394   4.516 -0.0048  0.5312 -0.0708
 6561SOL    HW131142   4.087   1.476   4.554 -1.7524  0.3058  1.9780
 6561SOL    HW231143   4.037   1.342   4.595  0.7953  0.6095  0.1586
 6562SOL     OW31144   2.160   2.288  10.321 -0.0020 -0.4661 -0.0921
 6562SOL    HW131145   2.204   2.312  10.239 -2.2499  2.5599 -0.3958
 6562SOL    HW231146   2.107   2.213  10.294 -2.7258  0.8961  1.4865
 6563SOL     OW31147   0.433   1.684   1.535  0.4491  0.0410  0.1391
 6563SOL    HW131148   0.347   1.694   1.577  1.1874  0.9264  1.4234
 6563SOL    HW231149   0.494   1.704   1.606  2.5304  0.1243 -1.7148
 6564SOL     OW31150   4.207   3.014  15.100 -0.1134  0.2230 -1.0524
 6564SOL    HW131151   4.256   2.936  15.072 -2.8941 -2.6089  2.0530
 6564SOL    HW231152   4.122   2.994  15.060 -0.6701  0.4970  0.0155
 6565SOL     OW31153   0.666   2.081  17.256  0.3797  0.3061 -0.6715
 6565SOL    HW131154   0.605   2.147  17.288  1.5409  0.6947  0.7490
 6565SOL    HW231155   0.651   2.003  17.309  1.9697 -1.5032 -2.8631
 6566SOL     OW31156   2.506   0.440   4.536  0.2709 -0.1161 -0.4276
 6566SOL    HW131157   2.457   0.519   4.513 -1.6401 -0.1539  3.4279
 6566SOL    HW231158   2.510   0.411   4.445  1.7649 -3.0584  0.5639
 6567SOL     OW31159   0.731   3.045  16.516  0.2254 -0.4462 -0.0741
 6567SOL    HW131160   0.663   3.012  16.575  1.0381  1.3558  1.8515
 6567SOL    HW231161   0.794   2.974  16.527  1.7979  0.8594 -0.5381
 6568SOL     OW31162   0.630   3.276   6.668  0.3209 -0.1206  0.0209
 6568SOL    HW131163   0.655   3.249   6.579  0.3829  0.0132 -0.0026
 6568SOL    HW231164   0.587   3.199   6.706 -1.6479  0.9339 -0.1191
 6569SOL     OW31165   4.333   3.669   1.643  0.4133 -0.3902  0.2921
 6569SOL    HW131166   4.242   3.643   1.659 -0.0392  0.0643 -1.6531
 6569SOL    HW231167   4.374   3.596   1.690  0.2379 -0.9204 -0.3831
 6570SOL     OW31168   4.340   2.977   3.919 -0.4453  0.0861 -0.0171
 6570SOL    HW131169   4.400   2.902   3.911 -2.6585 -1.9196  2.3096
 6570SOL    HW231170   4.268   2.930   3.962 -1.1133  1.9130  0.8433
 6571SOL     OW31171   3.971   2.134  15.536  0.0926 -0.2059  0.1042
 6571SOL    HW131172   4.056   2.175  15.551  0.9871 -2.1185  0.1981
 6571SOL    HW231173   3.915   2.180  15.599 -1.1748  2.0774 -2.6851
 6572SOL     OW31174   3.178   2.423  17.128 -0.6728 -0.3115  0.0272
 6572SOL    HW131175   3.242   2.376  17.075 -0.3709  0.4422 -0.2800
 6572SOL    HW231176   3.155   2.355  17.192  0.0537 -0.4029  0.1913
 6573SOL     OW31177   3.297   2.159   6.498  0.1189  0.2946  0.5964
 6573SOL    HW131178   3.250   2.085   6.459  0.1009  1.4272 -1.4831
 6573SOL    HW231179   3.381   2.141   6.455 -0.6289 -0.7459 -0.4417
 6574SOL     OW31180   0.135   3.826   5.254  0.6239  0.0298 -0.3432
 6574SOL    HW131181   0.132   3.820   5.349  0.9044  1.2730 -0.2475
 6574SOL    HW231182   0.136   3.732   5.236 -0.6123  0.0682 -0.6002
 6575SOL     OW31183   4.437   3.126   6.581 -0.1665 -0.1443 -0.9632
 6575SOL    HW131184   4.427   3.158   6.491 -0.3561  1.8149 -0.2459
 6575SOL    HW231185   4.404   3.202   6.629  1.2564 -0.9207  1.2187
 6576SOL     OW31186   3.723   3.882   8.386 -0.1296  0.1491  0.0071
 6576SOL    HW131187   3.786   3.886   8.314  0.9351 -0.6910  0.8891
 6576SOL    HW231188   3.725   3.795   8.426  1.1083  0.7624  1.2848
 6577SOL     OW31189   0.267   4.007  10.381  0.3106 -0.0993 -0.4201
 6577SOL    HW131190   0.205   4.074  10.352  0.8125 -0.5663 -2.5536
 6577SOL    HW231191   0.263   3.940  10.313  0.9566 -0.5280 -0.0342
 6578SOL     OW31192   4.466   3.912   9.942  0.2957  0.7249 -0.4167
 6578SOL    HW131193   4.491   3.849   9.875  0.1541  1.8502 -1.5209
 6578SOL    HW231194   4.500   3.865  10.018 -0.8116 -1.4526 -1.2860
 6579SOL     OW31195   3.522   1.831   4.122 -0.0314  0.9432  0.9621
 6579SOL    HW131196   3.530   1.875   4.207 -0.3592  2.2969  0.2887
 6579SOL    HW231197   3.591   1.766   4.130 -0.1412  0.8877  1.4508
 6580SOL     OW31198   0.402   2.888   3.023 -0.0887  0.3737  0.1340
 6580SOL    HW131199   0.360   2.936   3.094  0.5356  0.6884  0.2910
 6580SOL    HW231200   0.366   2.941   2.952 -1.0264 -0.1430  0.2243
 6581SOL     OW31201   2.261   2.015   2.788 -0.7326 -0.0938 -0.3974
 6581SOL    HW131202   2.276   2.067   2.867 -1.6988  1.8469 -1.4644
 6581SOL    HW231203   2.336   1.957   2.784  0.7201  1.5916  2.3559
 6582SOL     OW31204   0.441   3.550   5.104  0.5111  0.1396 -0.2628
 6582SOL    HW131205   0.361   3.520   5.147  1.0108 -0.1998  0.4357
 6582SOL    HW231206   0.501   3.490   5.149  0.7070 -0.3408 -1.1561
 6583SOL     OW31207   1.824   1.591  16.536 -0.0770  0.2217  0.0532
 6583SOL    HW131208   1.789   1.670  16.495 -0.2473 -0.7230 -1.6243
 6583SOL    HW231209   1.918   1.599  16.552 -0.2848 -1.1521  1.9415
 6584SOL     OW31210   2.754   2.714   4.867  0.4273 -0.0869 -0.1608
 6584SOL    HW131211   2.771   2.738   4.958  1.9946  0.8043 -0.6876
 6584SOL    HW231212   2.681   2.774   4.852  1.0291  0.6428 -0.1450
 6585SOL     OW31213   3.141   4.345   7.522 -0.1952  0.2179  0.1553
 6585SOL    HW131214   3.129   4.292   7.601 -0.3211  0.4929  0.3211
 6585SOL    HW231215   3.094   4.425   7.546 -1.0993 -0.4868  0.7477
 6586SOL     OW31216   0.795   1.101  11.827  0.3042  0.5681  0.4869
 6586SOL    HW131217   0.887   1.121  11.842  0.5743 -0.6667  0.5439
 6586SOL    HW231218   0.796   1.018  11.779  0.3742  0.7276  0.2144
 6587SOL     OW31219   0.109   2.109  14.119 -0.0110 -0.1439  0.1372
 6587SOL    HW131220   0.186   2.064  14.155  0.7771  0.7541 -0.4137
 6587SOL    HW231221   0.061   2.030  14.094 -3.4026  1.8904  0.2033
 6588SOL     OW31222   3.628   3.367   7.504 -0.3594 -0.2804  0.1472
 6588SOL    HW131223   3.618   3.287   7.451 -1.5994 -0.8114  1.1864
 6588SOL    HW231224   3.540   3.396   7.479 -0.3153 -0.9353 -0.7929
 6589SOL     OW31225   1.138   1.666   0.563  0.1429 -0.1160 -0.0879
 6589SOL    HW131226   1.076   1.596   0.542  0.5175 -0.3049 -0.5492
 6589SOL    HW231227   1.202   1.604   0.600  0.5180 -0.6080 -1.5596
 6590SOL     OW31228   4.407   3.147  14.047  0.3337  0.8005  0.3415
 6590SOL    HW131229   4.456   3.156  13.966 -0.2058  1.8118  0.1226
 6590SOL    HW231230   4.469   3.184  14.111  1.3503 -0.5991  0.1695
 6591SOL     OW31231   3.920   0.826   5.800 -0.3926 -0.3162  0.1436
 6591SOL    HW131232   3.850   0.762   5.811  1.5191 -2.3777  0.2531
 6591SOL    HW231233   3.868   0.900   5.768  0.3856 -0.2473 -0.9564
 6592SOL     OW31234   2.560   2.941   5.737  0.0556  0.4399 -0.1443
 6592SOL    HW131235   2.627   2.912   5.674 -1.4868 -0.0957 -1.5295
 6592SOL    HW231236   2.524   2.856   5.763 -0.6125  0.7475 -0.0836
 6593SOL     OW31237   1.801   1.319   2.103 -0.4839 -0.4078 -0.2856
 6593SOL    HW131238   1.808   1.408   2.138  2.7687 -1.7909  2.5572
 6593SOL    HW231239   1.846   1.323   2.019 -1.1451 -1.1257 -0.6751
 6594SOL     OW31240   3.164   2.100   3.434 -0.7435  0.0195  0.4865
 6594SOL    HW131241   3.157   2.111   3.339  0.2627 -0.6211  0.3355
 6594SOL    HW231242   3.077   2.063   3.449 -0.8421 -0.1533 -0.4880
 6595SOL     OW31243   0.458   1.068  16.382 -0.4839 -0.2803 -0.5837
 6595SOL    HW131244   0.507   0.989  16.405  0.4714  0.3914 -0.3210
 6595SOL    HW231245   0.406   1.098  16.457 -1.8860 -2.2548 -0.7894
 6596SOL     OW31246   2.357   3.592   1.250  0.1966 -0.1273  0.1947
 6596SOL    HW131247   2.329   3.678   1.281 -3.6310 -0.1683 -3.1621
 6596SOL    HW231248   2.376   3.561   1.339  0.1547  1.4836  0.7569
 6597SOL     OW31249   0.072   2.273  16.281 -0.2871  0.2310 -0.2395
 6597SOL    HW131250   4.701   2.267  16.246  0.6058  1.8221 -2.7452
 6597SOL    HW231251   0.112   2.206  16.225  1.5796  1.2595 -0.1283
 6598SOL     OW31252   2.261   1.838   8.173 -0.5586 -0.0384  0.0819
 6598SOL    HW131253   2.313   1.760   8.155 -1.4773 -0.0074 -2.7353
 6598SOL    HW231254   2.264   1.884   8.090  0.1684  0.8162  0.5818
 6599SOL     OW31255   0.658   1.253   1.732  0.3050 -0.2462 -0.0589
 6599SOL    HW131256   0.645   1.249   1.826  0.4550 -1.8053 -0.1084
 6599SOL    HW231257   0.727   1.188   1.718  0.2306 -0.3493  0.0483
 6600SOL     OW31258   0.434   2.559  10.453  0.1063  0.7721  0.4447
 6600SOL    HW131259   0.465   2.483  10.501  0.8294  1.6474  1.3538
 6600SOL    HW231260   0.341   2.536  10.447  0.4022 -0.7009  1.9139
 6601SOL     OW31261   3.695   4.601   9.910  0.0501 -0.5838 -0.3955
 6601SOL    HW131262   3.641   4.673   9.878  0.7888 -0.7957 -2.1127
 6601SOL    HW231263   3.648   4.580   9.991  0.4662 -0.1822 -0.0524
 6602SOL     OW31264   2.664   4.669   8.848  0.0227 -0.2170  0.5610
 6602SOL    HW131265   2.710   0.030   8.876 -0.2348 -0.1619  0.8325
 6602SOL    HW231266   2.587   4.672   8.906 -1.6309 -2.7574 -1.4667
 6603SOL     OW31267   0.483   2.126   3.711 -0.5936  0.5926  0.2089
 6603SOL    HW131268   0.417   2.067   3.748 -0.8917  1.5768  1.2322
 6603SOL    HW231269   0.439   2.145   3.628  0.7351  0.5032 -0.5136
 6604SOL     OW31270   3.058   0.273   8.091  0.4476  0.0206  0.4447
 6604SOL    HW131271   3.100   0.294   8.174  1.4845 -1.7412  0.3800
 6604SOL    HW231272   3.009   0.349   8.061  0.1827  1.0135  3.3354
 6605SOL     OW31273   3.635   2.685   5.553  0.4062 -0.0387  0.9191
 6605SOL    HW131274   3.621   2.714   5.643 -0.1034  2.0076  0.1633
 6605SOL    HW231275   3.551   2.664   5.513  0.5526  2.2257 -0.5415
 6606SOL     OW31276   4.473   3.451   1.733 -0.1804 -0.3973  0.0787
 6606SOL    HW131277   4.431   3.365   1.726  3.6323 -2.2563  0.1019
 6606SOL    HW231278   4.557   3.438   1.688  0.1022  1.1473  0.1429
 6607SOL     OW31279   2.999   0.394   1.040 -0.2347  0.5848  0.1416
 6607SOL    HW131280   2.998   0.379   1.135 -0.2313  1.4178  0.2693
 6607SOL    HW231281   2.939   0.468   1.034 -1.7170 -0.5505  0.8524
 6608SOL     OW31282   2.336   3.849   6.154 -0.2978 -0.7087 -0.0265
 6608SOL    HW131283   2.350   3.810   6.240  1.1526 -1.2993 -0.5259
 6608SOL    HW231284   2.244   3.873   6.142 -0.1628 -0.3045 -0.2638
 6609SOL     OW31285   2.453   1.388  11.102 -0.0056 -0.2338  0.2818
 6609SOL    HW131286   2.472   1.413  11.011  0.0541  0.2263  0.4249
 6609SOL    HW231287   2.364   1.424  11.110 -0.1934 -1.3081  3.0354
 6610SOL     OW31288   0.324   4.228   4.426  0.6228  0.0898  0.2929
 6610SOL    HW131289   0.399   4.287   4.415  1.9380 -1.3548  1.6859
 6610SOL    HW231290   0.362   4.158   4.373  2.2350  1.5091 -0.4232
 6611SOL     OW31291   0.284   1.864  11.127  0.0943 -0.1086  0.1360
 6611SOL    HW131292   0.264   1.957  11.118 -0.5309 -0.3007 -0.4025
 6611SOL    HW231293   0.223   1.834  11.194  0.0537  0.2146  0.2421
 6612SOL     OW31294   2.976   4.260   9.566  0.2133 -0.0824  0.2678
 6612SOL    HW131295   3.062   4.300   9.553  0.5433 -1.1498 -0.8108
 6612SOL    HW231296   2.978   4.181   9.512  2.1136 -0.4691  0.8954
 6613SOL     OW31297   2.427   1.124   8.719 -0.3241 -0.1780  0.1233
 6613SOL    HW131298   2.445   1.065   8.792  0.2753 -0.0574  0.0797
 6613SOL    HW231299   2.333   1.136   8.729 -0.2969  0.2988 -0.2045
 6614SOL     OW31300   2.950   4.497   0.153 -0.1489 -0.0458  0.1290
 6614SOL    HW131301   2.991   4.565   0.208  1.4681  0.1296 -1.2789
 6614SOL    HW231302   2.890   4.462   0.219  1.1987  0.3486  1.5629
 6615SOL     OW31303   3.140   3.687   3.285  0.0489  0.2101 -0.4942
 6615SOL    HW131304   3.228   3.649   3.292  0.3587  1.2146  1.3484
 6615SOL    HW231305   3.085   3.611   3.303  0.6188  0.1894  1.1676
 6616SOL     OW31306   1.210   2.316   1.256  0.0415 -0.5721  0.5397
 6616SOL    HW131307   1.295   2.332   1.298  0.6205 -0.8284 -0.5250
 6616SOL    HW231308   1.222   2.226   1.224  0.8986  0.1300 -1.1465
 6617SOL     OW31309   1.626   3.904   6.212 -0.4031  0.2165 -0.7163
 6617SOL    HW131310   1.701   3.913   6.271 -1.0439  2.2010 -0.2124
 6617SOL    HW231311   1.624   3.808   6.206 -1.8775  0.1815  0.1835
 6618SOL     OW31312   0.710   1.162   7.677 -0.3265 -0.0456 -0.2039
 6618SOL    HW131313   0.644   1.160   7.745 -0.6658  1.6736 -0.4757
 6618SOL    HW231314   0.717   1.258   7.677  1.0159 -0.1359 -0.2289
 6619SOL     OW31315   3.426   1.756   3.834  0.0884 -0.1516 -0.1195
 6619SOL    HW131316   3.454   1.829   3.779 -0.6735 -0.4734 -0.9179
 6619SOL    HW231317   3.435   1.791   3.923 -0.3294  0.2840 -0.2496
 6620SOL     OW31318   3.553   0.238   1.838 -0.4181  0.1295 -0.3495
 6620SOL    HW131319   3.482   0.248   1.901  0.6553  3.0529  0.4090
 6620SOL    HW231320   3.537   0.148   1.811  0.6191  0.2712 -1.4348
 6621SOL     OW31321   1.073   2.169   8.887 -0.1991  0.1737  0.5248
 6621SOL    HW131322   1.083   2.093   8.829 -0.5136  0.4859  0.0667
 6621SOL    HW231323   1.071   2.120   8.970  0.8983 -0.4090  0.2129
 6622SOL     OW31324   3.189   3.114   5.500  0.0805  0.4947  0.0691
 6622SOL    HW131325   3.110   3.091   5.452 -0.8746  2.0044  0.9161
 6622SOL    HW231326   3.224   3.025   5.508 -2.4201 -0.4595  0.2033
 6623SOL     OW31327   3.731   0.352   7.955  0.8028  1.1493  0.1785
 6623SOL    HW131328   3.801   0.291   7.935 -2.8351 -2.7908 -0.5166
 6623SOL    HW231329   3.783   0.425   7.988  1.1449  1.2755 -0.6211
 6624SOL     OW31330   0.541   4.033   4.480  0.3438  0.1273  0.3410
 6624SOL    HW131331   0.582   4.085   4.549  0.5560 -1.9633  1.7910
 6624SOL    HW231332   0.470   3.982   4.520 -1.1614  1.0440 -1.1514
 6625SOL     OW31333   0.651   4.152  17.448 -0.4359 -0.1726  0.6037
 6625SOL    HW131334   0.679   4.221  17.389 -1.3546 -0.3306 -0.0175
 6625SOL    HW231335   0.692   4.069  17.426 -3.2183 -1.5398  0.4874
 6626SOL     OW31336   1.198   3.658   4.062 -0.0025  0.1602 -0.3153
 6626SOL    HW131337   1.224   3.593   3.996 -1.7618 -0.1388 -0.7185
 6626SOL    HW231338   1.281   3.667   4.109 -0.0681 -1.3795  0.1003
 6627SOL     OW31339   4.284   0.784  15.760  0.0239  0.2925  0.4370
 6627SOL    HW131340   4.355   0.729  15.791 -0.9149  0.5569  3.0824
 6627SOL    HW231341   4.250   0.826  15.839  1.7086 -0.3065  1.4526
 6628SOL     OW31342   3.745   3.174  12.382  0.3850 -0.6485  0.1039
 6628SOL    HW131343   3.753   3.269  12.382 -0.5952 -0.5685 -1.3775
 6628SOL    HW231344   3.723   3.146  12.293  0.7306  2.4641 -0.9472
 6629SOL     OW31345   1.781   4.469  15.356  0.2504  0.5011 -0.3331
 6629SOL    HW131346   1.818   4.556  15.368 -0.7435  0.4723  2.8333
 6629SOL    HW231347   1.701   4.481  15.306 -1.2894  0.3196  2.1126
 6630SOL     OW31348   2.605   1.864   6.829  0.1451 -0.2846 -0.1181
 6630SOL    HW131349   2.686   1.825   6.862  1.1448  2.9334  1.2490
 6630SOL    HW231350   2.641   1.952   6.822 -1.4716  0.4345  0.6544
 6631SOL     OW31351   4.454   1.348  12.304  0.4459 -0.4517  0.1430
 6631SOL    HW131352   4.543   1.359  12.270  0.2430 -1.5144 -0.7288
 6631SOL    HW231353   4.423   1.439  12.307 -0.8420 -0.8942  0.2941
 6632SOL     OW31354   0.330   0.258   7.859 -0.0990  0.2998 -0.2714
 6632SOL    HW131355   0.394   0.221   7.919 -1.3268 -1.5705 -0.1030
 6632SOL    HW231356   0.248   0.218   7.888  0.2851 -1.4145 -1.5911
 6633SOL     OW31357   2.494   1.696  11.891  0.4003  1.4444 -0.1218
 6633SOL    HW131358   2.514   1.712  11.983  1.7866  1.0002 -0.3580
 6633SOL    HW231359   2.494   1.600  11.887 -0.5572  1.4641 -0.7685
 6634SOL     OW31360   3.693   2.738  14.417 -0.5158 -0.1990 -0.4807
 6634SOL    HW131361   3.612   2.775  14.379 -0.8619 -0.9482 -0.4620
 6634SOL    HW231362   3.757   2.809  14.406 -1.4532  0.8900  1.0243
 6635SOL     OW31363   4.209   1.772   0.775  0.1213 -0.5642  0.4229
 6635SOL    HW131364   4.285   1.763   0.833 -0.5122 -0.9358  1.2102
 6635SOL    HW231365   4.195   1.864   0.795  0.5377 -0.6679  1.2082
 6636SOL     OW31366   3.362   2.090   5.741  0.3217 -0.3757 -0.2602
 6636SOL    HW131367   3.346   2.149   5.667 -2.3947  1.0286  1.4249
 6636SOL    HW231368   3.283   2.036   5.734 -0.5140  0.9562 -1.0617
 6637SOL     OW31369   1.104   0.509  12.313 -0.0851 -0.0336 -0.0186
 6637SOL    HW131370   1.148   0.425  12.325  1.7378  0.8421 -0.5052
 6637SOL    HW231371   1.145   0.530  12.229  1.6256  2.5773  1.4635
 6638SOL     OW31372   4.001   4.023  11.211 -0.3689  0.0772  0.4538
 6638SOL    HW131373   3.964   4.017  11.300 -2.4185  0.7400 -0.3605
 6638SOL    HW231374   3.924   4.036  11.155 -0.8847 -3.9156  0.2169
 6639SOL     OW31375   1.486   4.024   2.840 -0.5886  0.5011 -0.2194
 6639SOL    HW131376   1.466   4.000   2.750 -1.6349  1.4978 -0.2516
 6639SOL    HW231377   1.414   4.084   2.855 -0.9283  0.3214 -1.1376
 6640SOL     OW31378   4.605   4.700   4.318  0.0936  0.7865 -0.3884
 6640SOL    HW131379   4.523   0.029   4.338 -1.7224 -2.0179 -1.2625
 6640SOL    HW231380   4.568   4.612   4.327 -0.6349  1.0107 -1.1721
 6641SOL     OW31381   2.003   2.861  14.971  0.3404 -0.9194  0.0342
 6641SOL    HW131382   1.921   2.858  14.923  0.3196  1.6799 -0.0783
 6641SOL    HW231383   2.069   2.883  14.904 -3.0037 -0.4809 -3.1097
 6642SOL     OW31384   0.529   1.007  13.393 -0.2349  0.0699 -0.4462
 6642SOL    HW131385   0.605   1.028  13.447  0.1159  0.5122 -1.1117
 6642SOL    HW231386   0.547   0.918  13.361  3.5923 -0.0069  1.9574
 6643SOL     OW31387   1.670   1.470  14.688 -0.3175  0.4939  0.3054
 6643SOL    HW131388   1.596   1.524  14.717 -1.3865 -1.2180  0.7604
 6643SOL    HW231389   1.653   1.390  14.738  0.9568 -0.0500 -0.1297
 6644SOL     OW31390   1.389   2.099   8.442  0.0954  0.0199 -0.0528
 6644SOL    HW131391   1.355   2.011   8.457 -3.1318  0.6902 -3.5242
 6644SOL    HW231392   1.462   2.086   8.503  1.0146 -1.4052 -1.4665
 6645SOL     OW31393   0.866   1.205   3.078 -0.0192 -0.9251 -0.2606
 6645SOL    HW131394   0.929   1.215   3.007 -0.6482 -0.1204 -0.7165
 6645SOL    HW231395   0.828   1.121   3.051  0.1385 -1.2608  0.5620
 6646SOL     OW31396   1.715   0.654   8.274 -0.4114  0.0677 -0.2327
 6646SOL    HW131397   1.801   0.618   8.296  0.8904  3.0082 -0.3938
 6646SOL    HW231398   1.674   0.572   8.246 -0.3335  0.3623 -1.2289
 6647SOL     OW31399   3.548   1.482   1.609  0.3193 -0.1960 -0.8543
 6647SOL    HW131400   3.519   1.418   1.674  1.0791 -0.3369 -0.6630
 6647SOL    HW231401   3.563   1.425   1.533  0.5389  0.0951 -1.0259
 6648SOL     OW31402   2.466   0.648   0.957  0.4908 -0.3661 -0.4852
 6648SOL    HW131403   2.433   0.677   0.872 -2.3813 -0.6688  0.5040
 6648SOL    HW231404   2.478   0.558   0.926  1.6132 -0.5666  0.5185
 6649SOL     OW31405   4.647   4.656  17.551 -0.0218 -0.1638 -0.2032
 6649SOL    HW131406   4.652   0.003  17.621  1.7459  2.5736 -2.8841
 6649SOL    HW231407   4.630   4.709  17.474 -1.7697  1.2005  1.1136
 6650SOL     OW31408   2.745   1.219   2.623  0.5060  0.0430  0.2357
 6650SOL    HW131409   2.699   1.277   2.563  0.8923  1.7009  1.5147
 6650SOL    HW231410   2.820   1.267   2.659 -0.0057  0.7644  0.3430
 6651SOL     OW31411   4.171   2.610   3.777  0.2346  0.2974 -0.1742
 6651SOL    HW131412   4.220   2.593   3.696 -0.9144  2.5016 -1.3293
 6651SOL    HW231413   4.082   2.612   3.742  0.4753  2.7730 -0.6495
 6652SOL     OW31414   0.162   4.689   0.554 -0.1008 -0.0259  0.5435
 6652SOL    HW131415   0.239   4.649   0.593  0.5161 -1.8529 -2.5216
 6652SOL    HW231416   0.175   0.060   0.588  1.8082 -0.4482  0.8826
 6653SOL     OW31417   1.180   3.931  12.413 -0.1173  0.1802  0.0578
 6653SOL    HW131418   1.150   3.895  12.329  0.1904 -0.9702  0.4461
 6653SOL    HW231419   1.270   3.942  12.383  0.3997 -1.3844  1.0589
 6654SOL     OW31420   1.613   3.968  15.084  0.0922  0.1278 -0.3441
 6654SOL    HW131421   1.656   3.961  14.999 -1.7258 -1.7620 -1.0874
 6654SOL    HW231422   1.588   3.877  15.100  0.4000  0.3877  1.6931
 6655SOL     OW31423   1.334   0.834  12.119  0.2639 -0.4918  0.0281
 6655SOL    HW131424   1.376   0.822  12.204  0.9438 -0.1775 -0.2689
 6655SOL    HW231425   1.302   0.744  12.112  0.0598 -0.3813 -0.4578
 6656SOL     OW31426   3.061   2.367   8.776  0.4811 -0.1650  0.3922
 6656SOL    HW131427   3.063   2.442   8.717 -0.1369  1.4257  2.4046
 6656SOL    HW231428   3.153   2.341   8.783 -0.2591 -2.8411  0.2226
 6657SOL     OW31429   1.250   3.699  11.292  0.0748 -0.6501  0.0431
 6657SOL    HW131430   1.171   3.729  11.247  0.2884  0.5415  0.4525
 6657SOL    HW231431   1.204   3.633  11.344  1.4153  0.1292  2.2088
 6658SOL     OW31432   4.372   1.409   3.432  0.3492 -0.4227  0.2018
 6658SOL    HW131433   4.459   1.398   3.392  0.5626 -0.5227  0.6908
 6658SOL    HW231434   4.397   1.458   3.510  1.2226 -2.5722  1.2496
 6659SOL     OW31435   2.036   4.451   3.663  0.1314  0.1519  0.0261
 6659SOL    HW131436   2.119   4.442   3.615  0.4290 -3.4159  1.2522
 6659SOL    HW231437   1.996   4.364   3.659 -2.0494  1.2517 -2.3891
 6660SOL     OW31438   2.988   0.193  17.372 -0.2476  0.1154 -0.1017
 6660SOL    HW131439   2.997   0.278  17.329 -1.6663  1.0111  1.3510
 6660SOL    HW231440   3.020   0.130  17.307  2.9744  1.7622 -0.1173
 6661SOL     OW31441   0.922   0.994   7.653 -0.3303  0.0267 -0.1628
 6661SOL    HW131442   0.844   1.047   7.669 -0.1186  0.6694 -1.2485
 6661SOL    HW231443   0.930   0.939   7.731 -3.5897  0.0799  0.2081
 6662SOL     OW31444   0.023   3.268   6.493  0.3517 -0.0567 -0.7819
 6662SOL    HW131445   0.097   3.210   6.505  0.2739  0.5970  2.8593
 6662SOL    HW231446   0.010   3.254   6.399 -2.6253  0.1165 -0.4110
 6663SOL     OW31447   3.486   3.020  10.775  0.6385 -0.4191 -0.0653
 6663SOL    HW131448   3.445   2.973  10.847 -0.3104  0.6362  0.0770
 6663SOL    HW231449   3.409   3.044  10.723 -0.0567 -1.6793  0.3869
 6664SOL     OW31450   3.466   2.657  13.118 -0.1612 -0.1834  0.2394
 6664SOL    HW131451   3.519   2.579  13.105 -0.0107 -0.0712  0.1750
 6664SOL    HW231452   3.391   2.615  13.161  0.7308 -1.4046  0.5799
 6665SOL     OW31453   4.220   3.063  15.363  0.4869  0.2794 -0.3646
 6665SOL    HW131454   4.198   3.058  15.270 -1.3442 -1.4206  0.1774
 6665SOL    HW231455   4.295   3.005  15.373 -0.3277 -0.8077 -0.6139
 6666SOL     OW31456   1.787   3.477   5.356  0.5141 -0.1084 -0.3747
 6666SOL    HW131457   1.736   3.454   5.434  0.6997  0.2373 -0.1516
 6666SOL    HW231458   1.717   3.469   5.291 -0.3419  0.8638  0.4420
 6667SOL     OW31459   4.262   4.068   8.409 -0.3023 -0.0291 -0.2642
 6667SOL    HW131460   4.228   3.997   8.355 -1.7262 -1.1066  2.0357
 6667SOL    HW231461   4.352   4.057   8.379 -0.7022 -2.4881 -0.5785
 6668SOL     OW31462   0.899   3.179   4.655 -0.1956  0.1366 -0.0928
 6668SOL    HW131463   0.927   3.259   4.611  1.0791  0.6239  1.6012
 6668SOL    HW231464   0.962   3.115   4.622 -1.7466 -1.5788  0.2446
 6669SOL     OW31465   4.646   2.409   8.951  0.5240 -0.2149 -0.6991
 6669SOL    HW131466   4.592   2.353   8.895  1.4752 -0.4977 -1.3395
 6669SOL    HW231467   0.004   2.351   8.958 -0.7352 -1.7353  0.2955
 6670SOL     OW31468   1.807   3.263   5.723 -0.0017  0.2111 -0.1414
 6670SOL    HW131469   1.718   3.267   5.687 -0.8297 -0.9748  1.7488
 6670SOL    HW231470   1.801   3.205   5.800 -0.9124 -0.3052 -0.5967
 6671SOL     OW31471   4.515   0.357   7.128  0.0411 -0.6672  0.2164
 6671SOL    HW131472   4.585   0.396   7.076 -0.8941 -0.4540 -0.8925
 6671SOL    HW231473   4.572   0.306   7.185  0.9504 -0.3330 -0.3962
 6672SOL     OW31474   2.261   3.578   4.499  0.1304  0.1065 -0.2223
 6672SOL    HW131475   2.264   3.499   4.445 -1.2813  1.3398 -2.0881
 6672SOL    HW231476   2.273   3.652   4.440 -1.7501 -1.0197 -2.0323
 6673SOL     OW31477   3.910   3.516   9.053 -0.4181  0.1177 -0.1449
 6673SOL    HW131478   3.827   3.469   9.060 -0.4258  0.3840  1.5135
 6673SOL    HW231479   3.931   3.532   9.145 -3.0005  0.9816  0.2939
 6674SOL     OW31480   2.734   4.001   7.223  0.5944  0.0735  0.0908
 6674SOL    HW131481   2.652   4.044   7.247  0.3218 -1.7889  2.5428
 6674SOL    HW231482   2.742   3.946   7.301 -0.1578  2.6151  1.9311
 6675SOL     OW31483   4.529   2.352  12.830  0.2464 -0.0674 -0.1993
 6675SOL    HW131484   4.529   2.260  12.856 -0.9587  0.4636  1.6057
 6675SOL    HW231485   4.554   2.389  12.914  1.8348 -1.9473  0.1691
 6676SOL     OW31486   1.652   0.690   0.532  0.2555  0.6681  0.2945
 6676SOL    HW131487   1.703   0.673   0.452 -1.1962 -1.3102 -0.2256
 6676SOL    HW231488   1.719   0.708   0.598  0.1117 -1.2601  0.9935
 6677SOL     OW31489   3.007   0.084  11.870  0.1009  0.0322  0.1827
 6677SOL    HW131490   2.986   0.048  11.956 -0.5981  0.3457  0.1431
 6677SOL    HW231491   3.026   0.170  11.910 -0.5547  0.4691 -0.4511
 6678SOL     OW31492   3.135   1.105  12.126 -0.1209 -0.1073 -0.0672
 6678SOL    HW131493   3.141   1.010  12.132  0.0795 -0.0086  1.3273
 6678SOL    HW231494   3.084   1.126  12.205  0.6188 -0.0076  0.3875
 6679SOL     OW31495   4.630   1.873   3.096 -0.3903  0.0857  0.3062
 6679SOL    HW131496   4.678   1.815   3.155  0.6230  0.5259 -0.0976
 6679SOL    HW231497   4.554   1.818   3.074 -1.2808  0.8938  1.3847
 6680SOL     OW31498   2.006   4.117  17.386 -0.0864 -0.5506 -0.1915
 6680SOL    HW131499   1.982   4.098  17.477 -1.5088 -1.8564 -0.8535
 6680SOL    HW231500   1.952   4.193  17.364  0.3163 -0.4690 -0.8907
 6681SOL     OW31501   4.426   3.630  17.211  0.6382  0.6515 -0.2501
 6681SOL    HW131502   4.331   3.619  17.199  0.4814  3.7515 -1.9469
 6681SOL    HW231503   4.428   3.651  17.304  1.0429 -0.3965 -0.0297
 6682SOL     OW31504   2.399   1.226   2.645  0.4706  0.2018 -0.3848
 6682SOL    HW131505   2.441   1.160   2.699  2.5370  0.4353 -1.7295
 6682SOL    HW231506   2.461   1.246   2.575 -0.0890 -0.8701 -1.1909
 6683SOL     OW31507   4.397   3.520  14.259  0.4021 -0.3114  0.0298
 6683SOL    HW131508   4.350   3.568  14.192  1.3294  1.7997  0.9020
 6683SOL    HW231509   4.485   3.520  14.221  1.1679 -0.7061  1.7956
 6684SOL     OW31510   0.173   3.141  17.036  0.0115  0.1658  0.2687
 6684SOL    HW131511   0.264   3.136  17.062 -0.5194 -0.4841  2.0198
 6684SOL    HW231512   0.156   3.067  16.978 -0.7727  0.6654 -0.1440
 6685SOL     OW31513   3.643   4.579  16.083  0.1761  0.3779 -0.1350
 6685SOL    HW131514   3.584   4.647  16.050 -0.7302 -1.0444 -1.4369
 6685SOL    HW231515   3.591   4.545  16.155 -0.4183 -0.1054 -0.7827
 6686SOL     OW31516   3.759   1.213   1.661 -0.3871 -0.3356  0.1732
 6686SOL    HW131517   3.704   1.149   1.615 -1.8799  0.8410  0.3491
 6686SOL    HW231518   3.692   1.257   1.712 -1.3124 -2.5846  0.9212
 6687SOL     OW31519   0.351   2.117   1.690 -0.2401 -0.2499  0.0746
 6687SOL    HW131520   0.336   2.024   1.709 -0.7419  0.0791  1.3201
 6687SOL    HW231521   0.353   2.124   1.595 -0.3927 -0.8170  0.0265
 6688SOL     OW31522   3.053   0.531   2.153  0.3837 -0.1964  0.1428
 6688SOL    HW131523   2.981   0.588   2.180  0.6202  0.0595  0.2248
 6688SOL    HW231524   2.999   0.465   2.109  0.5594 -0.6003  0.5335
 6689SOL     OW31525   0.968   3.424   9.505 -0.0810 -0.2828 -0.0583
 6689SOL    HW131526   0.966   3.408   9.599  1.1055 -0.8646 -0.1314
 6689SOL    HW231527   1.050   3.472   9.489 -1.3913  2.1004  0.2575
 6690SOL     OW31528   3.406   0.832   7.006 -0.2783 -0.7012 -0.1734
 6690SOL    HW131529   3.322   0.826   6.961 -0.3556  0.3047 -0.1768
 6690SOL    HW231530   3.455   0.885   6.944 -2.1581 -0.9904 -1.8791
 6691SOL     OW31531   4.358   4.415   0.704 -0.1009  0.5720 -0.4112
 6691SOL    HW131532   4.426   4.428   0.769 -0.5216 -0.1276  0.1739
 6691SOL    HW231533   4.327   4.505   0.712 -3.3757 -0.3568 -2.3479
 6692SOL     OW31534   2.397   1.589  13.512  0.4976  0.0271  0.4406
 6692SOL    HW131535   2.350   1.672  13.503 -1.4224 -1.0514  0.6007
 6692SOL    HW231536   2.487   1.612  13.533  0.3471  1.3553 -0.3964
 6693SOL     OW31537   2.388   3.351   4.737  0.8436  0.5709 -0.7748
 6693SOL    HW131538   2.336   3.427   4.764 -1.5669 -0.1775 -3.2060
 6693SOL    HW231539   2.477   3.375   4.762  1.4050 -1.0179 -1.2243
 6694SOL     OW31540   3.514   3.382   3.804 -0.1673  0.3879 -0.3333
 6694SOL    HW131541   3.552   3.374   3.892 -3.7331  0.2935  1.2118
 6694SOL    HW231542   3.598   3.385   3.760  0.1019 -1.0374  0.1071
 6695SOL     OW31543   4.543   3.560   5.907  0.5894 -0.0210 -0.0225
 6695SOL    HW131544   4.595   3.591   5.981  1.4309  0.6015 -0.8798
 6695SOL    HW231545   4.461   3.539   5.952  1.5592 -0.7078  1.4192
 6696SOL     OW31546   4.386   4.679  11.451  0.0476  0.2781 -0.3934
 6696SOL    HW131547   4.384   4.589  11.418  0.4317  1.7153 -4.2194
 6696SOL    HW231548   4.477   4.684  11.478  0.1194  3.8917 -1.3667
 6697SOL     OW31549   0.431   3.957   8.933 -0.3042  0.4366 -0.0397
 6697SOL    HW131550   0.398   3.890   8.994  0.4711  1.6054  1.6650
 6697SOL    HW231551   0.349   3.963   8.883 -0.6465  1.9535  0.7081
 6698SOL     OW31552   2.703   0.674   3.348 -0.2269 -1.2816 -0.4365
 6698SOL    HW131553   2.620   0.658   3.392  0.9273 -0.3834  2.0771
 6698SOL    HW231554   2.757   0.646   3.422 -1.3533  0.4109  1.0018
 6699SOL     OW31555   0.732   4.015   5.992 -0.3101  1.0503  0.3600
 6699SOL    HW131556   0.660   4.011   5.929 -0.2365 -1.0286  0.3981
 6699SOL    HW231557   0.767   4.101   5.969 -0.2147 -0.0196 -3.5621
 6700SOL     OW31558   3.560   0.285   4.865  0.5647 -0.3765  0.0863
 6700SOL    HW131559   3.499   0.356   4.845  1.6208  0.2756 -0.8340
 6700SOL    HW231560   3.514   0.211   4.826 -2.0301  1.0678  0.4174
 6701SOL     OW31561   2.303   0.239   2.385  0.0419 -0.6226 -0.5231
 6701SOL    HW131562   2.382   0.186   2.398  0.6411  0.2680 -0.5230
 6701SOL    HW231563   2.319   0.303   2.316  0.9173  1.4025  1.5453
 6702SOL     OW31564   2.311   1.715  10.403 -0.7237  0.7510 -0.2908
 6702SOL    HW131565   2.385   1.705  10.463  0.0430 -1.1079 -1.5590
 6702SOL    HW231566   2.234   1.684  10.451  0.3040  2.0827  2.2048
 6703SOL     OW31567   3.491   4.160   5.428 -0.9813  0.3574 -0.0720
 6703SOL    HW131568   3.475   4.185   5.519  0.4589  0.9059  0.0283
 6703SOL    HW231569   3.409   4.195   5.393 -2.3544  0.3679  3.1586
 6704SOL     OW31570   1.169   3.214  16.253  0.2533 -0.0610  0.1521
 6704SOL    HW131571   1.217   3.131  16.250 -0.7745 -0.7020  1.6455
 6704SOL    HW231572   1.143   3.207  16.345  2.3603  0.2021  0.7666
 6705SOL     OW31573   1.676   4.540   7.591 -0.2235 -0.0901 -0.1739
 6705SOL    HW131574   1.670   4.635   7.577  0.3743  0.1266  1.1306
 6705SOL    HW231575   1.770   4.531   7.601 -0.5029 -0.7693  1.8136
 6706SOL     OW31576   1.167   4.679  11.765 -0.3962 -0.6003 -0.2073
 6706SOL    HW131577   1.223   4.687  11.687 -0.5419  1.1787 -0.1161
 6706SOL    HW231578   1.108   4.607  11.738  0.1073 -1.8298  2.0076
 6707SOL     OW31579   3.329   2.609   5.175  0.7933  0.1235  0.1568
 6707SOL    HW131580   3.372   2.662   5.108 -0.1687 -0.1419 -0.6669
 6707SOL    HW231581   3.236   2.628   5.164  0.7615 -0.4795 -0.6374
 6708SOL     OW31582   2.609   2.255  16.160  0.5128 -0.6670 -0.3564
 6708SOL    HW131583   2.618   2.164  16.132  4.2344 -0.4555  0.1052
 6708SOL    HW231584   2.698   2.289  16.149  1.1029 -3.2142 -3.4176
 6709SOL     OW31585   4.067   1.631   7.691  0.2777  0.6523 -0.6909
 6709SOL    HW131586   4.151   1.670   7.664  1.0545 -1.1045 -0.8414
 6709SOL    HW231587   4.033   1.710   7.733  1.4059  0.2962  0.8826
 6710SOL     OW31588   3.195   0.251   5.303  0.0513 -0.2560 -1.0635
 6710SOL    HW131589   3.159   0.234   5.216 -0.8183  0.5696 -0.8717
 6710SOL    HW231590   3.228   0.341   5.295  0.6002 -0.2624  1.0209
 6711SOL     OW31591   4.521   0.054  16.789 -0.2970 -0.5218  0.2758
 6711SOL    HW131592   4.572   0.002  16.851  0.6328  0.9827  0.8019
 6711SOL    HW231593   4.586   0.056  16.718  0.1184 -1.6185  0.6278
 6712SOL     OW31594   4.416   3.146   8.182  0.3242 -0.3507  0.4444
 6712SOL    HW131595   4.428   3.173   8.273 -2.4205  1.2749  0.3343
 6712SOL    HW231596   4.385   3.057   8.198 -2.4761  0.8356  1.6445
 6713SOL     OW31597   4.197   2.765   4.027 -0.4652 -0.3501  0.3465
 6713SOL    HW131598   4.182   2.711   3.950  0.7987 -2.6630  1.7225
 6713SOL    HW231599   4.141   2.726   4.094 -0.8926 -1.1164 -0.4587
 6714SOL     OW31600   0.509   4.269   5.774  0.0437  0.1895  0.0576
 6714SOL    HW131601   0.537   4.282   5.865  0.0253  0.8766 -0.0282
 6714SOL    HW231602   0.416   4.254   5.794 -0.1982 -2.1458 -2.7707
 6715SOL     OW31603   0.872   3.718  16.910 -0.0350 -0.0258 -0.5429
 6715SOL    HW131604   0.890   3.624  16.915 -0.2857  0.0404  1.4474
 6715SOL    HW231605   0.870   3.729  16.814 -0.8198 -0.6140 -0.5902
 6716SOL     OW31606   1.417   0.679   6.364  0.4848  0.8049  0.0580
 6716SOL    HW131607   1.468   0.725   6.297  0.9551  0.0239 -0.1216
 6716SOL    HW231608   1.361   0.622   6.311  0.2708  0.8433  0.2426
 6717SOL     OW31609   2.422   0.409   9.440 -0.5842  0.5665  0.1206
 6717SOL    HW131610   2.355   0.370   9.497  0.4909  0.1666  1.0946
 6717SOL    HW231611   2.403   0.502   9.455  0.9573  0.8929 -0.0144
 6718SOL     OW31612   0.688   1.965   6.484  0.1223 -0.1002 -0.6609
 6718SOL    HW131613   0.678   2.000   6.573  3.3296 -1.0635  0.0601
 6718SOL    HW231614   0.775   1.925   6.489 -0.3254 -0.8396  1.2136
 6719SOL     OW31615   3.875   2.960  14.463  0.6614 -0.2570  0.5978
 6719SOL    HW131616   3.845   3.024  14.528 -0.3697 -0.8172  0.6786
 6719SOL    HW231617   3.945   3.013  14.424  0.4606 -0.4018  0.0489
 6720SOL     OW31618   4.108   2.521   2.650  0.0779  0.0009 -0.8280
 6720SOL    HW131619   4.126   2.468   2.727 -0.1995  1.5542  0.3177
 6720SOL    HW231620   4.162   2.470   2.590 -0.3084  2.1433 -3.0225
 6721SOL     OW31621   2.961   3.416   5.082  0.7640 -0.4320  0.0025
 6721SOL    HW131622   3.011   3.360   5.141 -2.0157 -1.0447  1.7531
 6721SOL    HW231623   3.001   3.501   5.099  1.9102 -0.4060 -2.7349
 6722SOL     OW31624   3.321   4.244   2.782 -0.1374  0.0760  0.0713
 6722SOL    HW131625   3.378   4.282   2.714  1.7804  0.2777  1.7960
 6722SOL    HW231626   3.351   4.292   2.859  0.7414  2.1236 -1.5413
 6723SOL     OW31627   1.145   3.175  11.063  0.7391  0.2516 -0.0269
 6723SOL    HW131628   1.147   3.208  11.152  1.4892  2.2943 -0.7986
 6723SOL    HW231629   1.148   3.080  11.077  0.0266  0.4447  1.3223
 6724SOL     OW31630   4.522   1.259   6.718  0.0480 -0.3046 -0.4782
 6724SOL    HW131631   4.513   1.164   6.713 -1.3878 -0.2153  0.4969
 6724SOL    HW231632   4.584   1.272   6.646  0.4122  3.6482  0.5556
 6725SOL     OW31633   0.847   3.222  14.608 -0.1424  0.5791  0.4276
 6725SOL    HW131634   0.936   3.219  14.643 -0.5808 -0.5643  1.4375
 6725SOL    HW231635   0.849   3.146  14.550 -0.7095 -0.1622  1.3770
 6726SOL     OW31636   3.407   1.552  16.160 -0.1775 -0.4652 -0.2161
 6726SOL    HW131637   3.328   1.588  16.202 -0.7396 -1.3990 -0.4723
 6726SOL    HW231638   3.469   1.625  16.148  0.3636 -0.6710  1.2933
 6727SOL     OW31639   2.972   0.439   5.337  0.3652 -0.1035 -0.0202
 6727SOL    HW131640   2.967   0.343   5.335  1.7621 -0.2067  1.9140
 6727SOL    HW231641   2.928   0.468   5.257 -1.1745 -1.7292  0.2474
 6728SOL     OW31642   2.240   0.103   3.316 -0.2075 -0.2354 -0.1434
 6728SOL    HW131643   2.154   0.123   3.351  0.1947  0.1026  0.6399
 6728SOL    HW231644   2.221   0.013   3.288 -2.2697  0.7538 -1.8646
 6729SOL     OW31645   3.337   0.386   6.511  0.1474  0.2984 -0.3976
 6729SOL    HW131646   3.413   0.338   6.480  0.5119  0.9472 -0.5044
 6729SOL    HW231647   3.384   0.452   6.563  1.2798 -2.5712  2.2599
 6730SOL     OW31648   0.325   0.040  16.300 -0.2897 -0.5135  0.2446
 6730SOL    HW131649   0.230   0.043  16.289 -0.4564 -0.6359  1.5766
 6730SOL    HW231650   0.343   0.080  16.385 -1.2245 -0.2589  0.3306
 6731SOL     OW31651   3.538   3.933  11.550  0.2627  0.3024  0.2906
 6731SOL    HW131652   3.593   3.988  11.605  1.9617 -0.7153 -0.3631
 6731SOL    HW231653   3.474   3.997  11.519 -0.7762 -0.6589  0.4695
 6732SOL     OW31654   0.958   3.539  10.912 -0.8322  0.1037 -0.0462
 6732SOL    HW131655   1.036   3.591  10.933 -1.1639  0.5257  0.1509
 6732SOL    HW231656   0.908   3.588  10.848  0.2980 -1.7821 -2.3572
 6733SOL     OW31657   4.180   2.772   5.123 -0.3078  0.1422  0.0626
 6733SOL    HW131658   4.158   2.859   5.091 -2.0305 -0.4114 -0.2717
 6733SOL    HW231659   4.275   2.774   5.110 -0.3367 -0.8423 -0.3218
 6734SOL     OW31660   0.680   3.567   1.040  0.3134  0.2736  0.2479
 6734SOL    HW131661   0.592   3.579   1.003  1.3790  0.0662 -2.3445
 6734SOL    HW231662   0.671   3.480   1.079 -2.5161  0.1205 -0.7279
 6735SOL     OW31663   1.096   4.615   2.446  0.6193  0.3453 -0.3115
 6735SOL    HW131664   1.150   4.627   2.368  1.6996 -1.8801  0.0986
 6735SOL    HW231665   1.083   4.707   2.470  0.2823  0.7785 -2.1733
 6736SOL     OW31666   0.311   3.472   5.939  0.2911  0.0390  0.1517
 6736SOL    HW131667   0.403   3.480   5.913 -0.0070  0.3898 -0.8284
 6736SOL    HW231668   0.322   3.522   6.019 -1.3600  0.8879 -0.1295
 6737SOL     OW31669   0.905   1.356   6.098  0.2322 -0.3922 -0.0451
 6737SOL    HW131670   0.966   1.429   6.087 -0.5413  0.6367  2.5590
 6737SOL    HW231671   0.870   1.356   6.008 -1.8240  0.8383  0.7670
 6738SOL     OW31672   4.458   4.663   5.756 -0.0059 -0.2842  0.2880
 6738SOL    HW131673   4.376   4.655   5.707 -1.4422 -3.1136  3.1390
 6738SOL    HW231674   4.512   4.603   5.704 -1.2013 -0.0839 -1.1927
 6739SOL     OW31675   3.620   0.342  15.139  0.4000 -0.5622 -0.1085
 6739SOL    HW131676   3.584   0.348  15.051  1.8345  2.6661 -0.4537
 6739SOL    HW231677   3.711   0.369  15.127 -0.2979  2.4515  1.1345
 6740SOL     OW31678   1.109   3.907   4.024 -0.2419  0.1204 -1.0120
 6740SOL    HW131679   1.025   3.873   4.055  0.3729 -1.9301 -1.6603
 6740SOL    HW231680   1.160   3.828   4.010  0.3939  0.3519 -0.0039
 6741SOL     OW31681   2.330   1.335   6.740 -0.2005  0.1748  0.2379
 6741SOL    HW131682   2.378   1.355   6.820  0.0509  0.0267  0.1242
 6741SOL    HW231683   2.362   1.247   6.720 -0.7408  0.1550 -0.5541
 6742SOL     OW31684   2.395   1.105   9.362 -0.0866 -0.0602 -0.0979
 6742SOL    HW131685   2.414   1.081   9.271  0.9277 -0.9415  0.3458
 6742SOL    HW231686   2.458   1.057   9.417  0.7475  1.6235  0.4187
 6743SOL     OW31687   1.409   2.190  17.320  0.3681 -0.2880 -0.4914
 6743SOL    HW131688   1.421   2.103  17.358  0.9900  0.1965  0.4283
 6743SOL    HW231689   1.338   2.232  17.368  0.7321  0.4035 -0.5654
 6744SOL     OW31690   3.136   1.643  16.238 -0.1658 -0.1052  0.5235
 6744SOL    HW131691   3.104   1.685  16.318 -1.3809 -1.5005  0.7784
 6744SOL    HW231692   3.051   1.600  16.226  0.4029 -0.8504 -0.8387
 6745SOL     OW31693   2.266   1.387   1.998  0.4158  0.5591 -0.0351
 6745SOL    HW131694   2.209   1.450   1.953 -1.4729 -1.0689  0.0736
 6745SOL    HW231695   2.264   1.317   1.933 -1.5816 -0.1796  0.8186
 6746SOL     OW31696   1.162   0.161   8.787 -0.7850 -0.4280  0.2577
 6746SOL    HW131697   1.129   0.165   8.877 -0.0468 -0.7162  0.5428
 6746SOL    HW231698   1.094   0.221   8.757 -0.3951 -1.2170 -2.2341
 6747SOL     OW31699   3.465   4.038  10.871 -0.1776  0.0448 -0.3284
 6747SOL    HW131700   3.428   4.105  10.814 -1.5638  2.1166  2.9971
 6747SOL    HW231701   3.435   3.953  10.840 -3.7933  1.4071 -0.5031
 6748SOL     OW31702   1.030   1.948   9.072 -0.4654  0.3162  0.7529
 6748SOL    HW131703   0.981   1.963   8.991  2.6772  0.4578 -1.1193
 6748SOL    HW231704   0.960   1.913   9.128 -1.0728  1.5329  0.7726
 6749SOL     OW31705   2.882   3.226   2.759  0.2085 -0.2671  0.1029
 6749SOL    HW131706   2.788   3.212   2.763 -0.0427  1.3197 -0.2692
 6749SOL    HW231707   2.918   3.138   2.752  0.0081 -0.3854  0.5193
 6750SOL     OW31708   0.085   1.346   7.880  0.1325  0.3060 -0.5799
 6750SOL    HW131709   0.178   1.329   7.870  0.4776  2.1207 -0.4749
 6750SOL    HW231710   0.037   1.263   7.881  1.0832 -0.2349  0.3385
 6751SOL     OW31711   3.605   1.916   1.953 -0.0179  0.0054 -0.5200
 6751SOL    HW131712   3.660   1.844   1.983  0.4739  0.5800 -0.0534
 6751SOL    HW231713   3.626   1.931   1.861  0.1601 -0.9756 -0.6343
 6752SOL     OW31714   4.683   0.345   0.014  0.5021 -0.4684 -0.5347
 6752SOL    HW131715   4.667   0.264   0.061  0.0273 -0.8522 -1.3594
 6752SOL    HW231716   0.002   0.402   0.082  2.9267 -0.3891 -1.9300
 6753SOL     OW31717   4.673   3.953  12.606  0.0589 -0.3700  0.2345
 6753SOL    HW131718   4.674   4.016  12.534  1.1091  2.1342  2.4506
 6753SOL    HW231719   0.020   3.996  12.662 -0.8195 -0.2758  1.1803
 6754SOL     OW31720   4.482   0.439   4.063  0.4236 -0.1369  0.3266
 6754SOL    HW131721   4.476   0.531   4.088  1.0290  0.1300 -0.5184
 6754SOL    HW231722   4.577   0.435   4.072  0.2611  0.3460  2.2654
 6755SOL     OW31723   4.659   2.974   1.727 -0.0795  0.1095  0.4803
 6755SOL    HW131724   0.016   2.929   1.688 -1.5444 -1.1736 -0.8163
 6755SOL    HW231725   4.642   2.909   1.796  0.2555 -0.5709 -0.0852
 6756SOL     OW31726   1.039   3.188   1.874  0.2170 -0.2211 -0.1561
 6756SOL    HW131727   0.946   3.169   1.876  0.3197 -0.4569  2.1108
 6756SOL    HW231728   1.064   3.125   1.807  2.9404  0.7624 -0.0787
 6757SOL     OW31729   1.811   3.063   1.465  0.2264 -0.2181  0.0431
 6757SOL    HW131730   1.748   3.057   1.393 -0.1901  2.3750  0.1863
 6757SOL    HW231731   1.892   3.076   1.415 -1.8558  4.1979 -2.1237
 6758SOL     OW31732   2.875   0.292   1.562  0.4337 -0.2450 -0.2230
 6758SOL    HW131733   2.786   0.272   1.533 -0.0170  0.3452  0.7514
 6758SOL    HW231734   2.875   0.251   1.648 -0.0936  1.3646  0.5331
 6759SOL     OW31735   3.318   3.580   6.657  0.0957  0.1729 -0.1447
 6759SOL    HW131736   3.302   3.581   6.563  0.0157  0.7160 -0.1266
 6759SOL    HW231737   3.227   3.585   6.684  0.8138 -0.5953  2.4578
 6760SOL     OW31738   3.378   1.050   3.078  0.2848 -0.5278  0.7106
 6760SOL    HW131739   3.332   0.978   3.036 -0.9860  0.2688  0.7219
 6760SOL    HW231740   3.343   1.063   3.167 -2.4096  1.0051 -0.5571
 6761SOL     OW31741   2.073   3.716   3.997 -0.5080 -0.4402 -0.3109
 6761SOL    HW131742   2.097   3.627   4.020  0.9529  0.4915  1.6830
 6761SOL    HW231743   1.978   3.705   3.989 -0.2983 -2.2386 -0.2491
 6762SOL     OW31744   0.149   3.433   7.826  0.8930 -0.1931 -0.9202
 6762SOL    HW131745   0.108   3.349   7.804  0.2174 -0.7089  2.3626
 6762SOL    HW231746   0.077   3.479   7.869  3.0654  1.4307  1.0165
 6763SOL     OW31747   3.792   4.446   3.944  0.2350  0.4715  0.2781
 6763SOL    HW131748   3.841   4.365   3.931 -0.3684  0.0315  0.7867
 6763SOL    HW231749   3.830   4.511   3.884  1.3853 -1.3019 -0.8849
 6764SOL     OW31750   3.109   0.155   3.990  0.1235  0.1650 -0.0338
 6764SOL    HW131751   3.029   0.118   3.953  0.7357 -1.2540  0.0483
 6764SOL    HW231752   3.067   0.198   4.065  1.3425  0.7556  0.3138
 6765SOL     OW31753   0.701   3.867   8.829  0.1498  0.4190 -0.3316
 6765SOL    HW131754   0.618   3.905   8.857 -1.8505 -2.4382 -2.4057
 6765SOL    HW231755   0.757   3.921   8.884 -1.2497  0.9211  0.6143
 6766SOL     OW31756   3.285   4.568  10.748  0.3109 -0.5162 -0.5888
 6766SOL    HW131757   3.334   4.650  10.743  0.2922 -0.4820 -0.1883
 6766SOL    HW231758   3.311   4.532  10.663  0.7530 -1.6319  0.0258
 6767SOL     OW31759   0.929   0.378   2.590  0.2201 -0.1138  0.0982
 6767SOL    HW131760   0.897   0.406   2.504 -0.7389 -0.0803  0.4614
 6767SOL    HW231761   0.872   0.426   2.650  0.4811 -1.3822  1.3642
 6768SOL     OW31762   2.971   1.010   5.815  0.3629  0.0500 -0.3180
 6768SOL    HW131763   2.964   1.092   5.766 -1.1579  0.9626  1.4457
 6768SOL    HW231764   3.063   0.985   5.818  0.1051 -1.2816 -2.5471
 6769SOL     OW31765   0.755   3.890   2.537  0.4183  0.6256  0.0235
 6769SOL    HW131766   0.716   3.970   2.503 -0.4052  0.2305  0.0290
 6769SOL    HW231767   0.821   3.930   2.592  2.1347 -1.3026 -0.6208
 6770SOL     OW31768   2.900   0.050   1.249  0.3296 -0.1177 -0.2356
 6770SOL    HW131769   2.870   4.697   1.307  1.7375 -0.0271  0.6121
 6770SOL    HW231770   2.985   0.015   1.221  1.0895  0.7372  1.0048
 6771SOL     OW31771   1.463   2.780   2.297 -0.2030  0.2792  0.0447
 6771SOL    HW131772   1.458   2.763   2.392  0.5723 -0.5762 -0.0594
 6771SOL    HW231773   1.545   2.829   2.303 -0.2191  0.4376 -1.1252
 6772SOL     OW31774   0.908   2.198  10.905 -0.5975  0.1884  0.1925
 6772SOL    HW131775   0.847   2.134  10.941 -1.2785  2.1543  2.5251
 6772SOL    HW231776   0.897   2.265  10.973  0.1461 -0.7512  1.2454
 6773SOL     OW31777   4.192   1.519   9.820  0.3035 -0.4962 -0.0246
 6773SOL    HW131778   4.225   1.489   9.905 -0.2662  0.8739  0.6730
 6773SOL    HW231779   4.244   1.467   9.759  0.6805  1.1151 -1.0879
 6774SOL     OW31780   3.528   2.793   6.129  0.1122 -0.0232  0.0241
 6774SOL    HW131781   3.622   2.777   6.137 -0.2134 -0.9743  1.9132
 6774SOL    HW231782   3.490   2.711   6.161 -0.1906 -0.0177 -0.3197
 6775SOL     OW31783   2.219   2.608   9.242 -0.3941  0.5262  0.3910
 6775SOL    HW131784   2.188   2.561   9.319  0.8110  1.3456  1.3651
 6775SOL    HW231785   2.245   2.692   9.279 -1.0091  0.0899  1.7725
 6776SOL     OW31786   1.626   2.904   7.067 -0.4660 -0.2798  0.3698
 6776SOL    HW131787   1.651   2.887   6.976  1.2039  1.8431  0.4330
 6776SOL    HW231788   1.679   2.838   7.112  1.1554  0.7559 -0.0209
 6777SOL     OW31789   3.547   0.941   8.084 -0.7663  0.3574 -0.3809
 6777SOL    HW131790   3.536   0.891   8.165 -3.1319  0.5365 -0.5737
 6777SOL    HW231791   3.561   1.031   8.113  2.8822  0.0989 -1.3391
 6778SOL     OW31792   3.840   3.928   3.907 -0.2614 -0.2306  0.3372
 6778SOL    HW131793   3.783   3.870   3.856 -1.0385  1.1914 -0.4215
 6778SOL    HW231794   3.818   3.896   3.995 -1.1735  0.4256  0.3512
 6779SOL     OW31795   0.089   3.469   5.596 -0.2966 -0.2516 -0.3668
 6779SOL    HW131796   0.052   3.551   5.565 -0.4066 -0.7854 -1.6463
 6779SOL    HW231797   0.157   3.506   5.652  1.1805 -2.8804 -0.4255
 6780SOL     OW31798   0.139   1.434   9.953 -0.2201 -0.0844  0.0949
 6780SOL    HW131799   0.233   1.452   9.945 -0.3311  0.4800  0.0686
 6780SOL    HW231800   0.122   1.436  10.047 -0.5803 -0.3841  0.0355
 6781SOL     OW31801   2.075   4.714   8.435  0.1982  0.0086  0.3852
 6781SOL    HW131802   2.013   0.061   8.469 -1.5873 -0.7965 -1.3148
 6781SOL    HW231803   2.142   0.054   8.400  0.3930 -1.7004 -2.0500
 6782SOL     OW31804   0.655   0.060   7.801  0.3651  0.3204  0.2573
 6782SOL    HW131805   0.718   0.119   7.759  0.5733  0.1904  0.3855
 6782SOL    HW231806   0.577   0.076   7.749 -1.5432 -1.5693  2.5205
 6783SOL     OW31807   0.163   2.097   6.968  0.0276 -0.0807  0.0261
 6783SOL    HW131808   0.141   2.005   6.981 -2.3889  0.1631 -2.3839
 6783SOL    HW231809   0.166   2.097   6.873 -0.2651 -3.4910  0.0247
 6784SOL     OW31810   0.764   4.506   1.233  0.4019  0.3128 -0.3485
 6784SOL    HW131811   0.712   4.555   1.297 -2.7583  0.2322 -2.8370
 6784SOL    HW231812   0.815   4.456   1.297 -0.2555  1.2467  0.9165
 6785SOL     OW31813   4.244   0.324  17.065 -0.0608 -0.3206 -0.2869
 6785SOL    HW131814   4.297   0.244  17.074  1.4049  0.5930 -0.8428
 6785SOL    HW231815   4.253   0.354  17.156  0.9118  0.4576 -0.6341
 6786SOL     OW31816   4.268   3.125   9.292 -0.1904  0.6136  0.4781
 6786SOL    HW131817   4.254   3.214   9.326 -1.4340  0.2343  0.9419
 6786SOL    HW231818   4.260   3.071   9.371  0.9006  0.7077  0.6596
 6787SOL     OW31819   2.608   4.524  13.458  0.1740 -0.0626 -0.1152
 6787SOL    HW131820   2.643   4.472  13.530 -0.1032 -0.9296 -0.6017
 6787SOL    HW231821   2.537   4.575  13.496  1.0206  1.6095 -0.7692
 6788SOL     OW31822   2.304   2.331   8.351  0.0983  0.0629 -0.1164
 6788SOL    HW131823   2.240   2.275   8.395  0.0600  0.4538  0.3389
 6788SOL    HW231824   2.280   2.304   8.263  1.5762 -0.8573 -0.2264
 6789SOL     OW31825   3.943   2.994   2.109 -0.0194 -0.5044  0.2273
 6789SOL    HW131826   3.989   2.912   2.125 -0.6243 -1.1791 -1.4903
 6789SOL    HW231827   4.012   3.058   2.124 -0.4209  0.3777 -1.6838
 6790SOL     OW31828   4.423   3.107  10.041  0.2824 -0.0575 -0.2070
 6790SOL    HW131829   4.363   3.055  10.094  0.6809 -1.9536 -1.5983
 6790SOL    HW231830   4.382   3.193  10.041  1.6528  0.5797  2.4846
 6791SOL     OW31831   2.013   3.908  12.658 -0.6343  0.1772 -0.5908
 6791SOL    HW131832   2.027   3.889  12.565 -0.5792  1.4483 -0.8537
 6791SOL    HW231833   1.923   3.876  12.660 -1.2538  1.9077 -0.6090
 6792SOL     OW31834   1.277   4.143  10.131  0.0097  0.6656  0.1692
 6792SOL    HW131835   1.370   4.154  10.111  0.0982 -1.0698 -0.3125
 6792SOL    HW231836   1.284   4.071  10.193  1.3675 -0.7853 -1.6594
 6793SOL     OW31837   1.915   4.206  12.144 -0.5272  0.0561 -0.2379
 6793SOL    HW131838   1.875   4.153  12.213 -1.9883  1.0665 -0.3106
 6793SOL    HW231839   1.900   4.289  12.189 -0.8310 -0.8683  1.3524
 6794SOL     OW31840   1.679   4.128  15.695 -0.0152  0.4026  0.5023
 6794SOL    HW131841   1.702   4.219  15.673 -0.2267 -0.1014 -1.7021
 6794SOL    HW231842   1.602   4.106  15.644  2.5062 -1.5194 -2.4763
 6795SOL     OW31843   0.456   3.750   6.619  0.1181 -0.1636 -0.2798
 6795SOL    HW131844   0.387   3.742   6.553 -0.1756 -3.5369  0.4092
 6795SOL    HW231845   0.417   3.772   6.704 -1.9612 -2.9034 -0.5273
 6796SOL     OW31846   4.344   2.513   2.119 -0.4136  0.2199 -0.4948
 6796SOL    HW131847   4.366   2.594   2.165  0.2705 -1.4854  2.1865
 6796SOL    HW231848   4.256   2.526   2.085 -0.3040 -1.5711 -1.4576
 6797SOL     OW31849   2.839   0.644   0.312  0.4829  0.0504  0.3726
 6797SOL    HW131850   2.791   0.586   0.372 -0.5755 -1.4754 -1.9292
 6797SOL    HW231851   2.795   0.627   0.229 -0.0908  1.7789  0.3345
 6798SOL     OW31852   3.072   3.512  13.879 -0.1491  0.5882 -0.3450
 6798SOL    HW131853   3.102   3.421  13.880 -0.7643  0.3998  4.1988
 6798SOL    HW231854   3.041   3.518  13.789 -1.7906  2.1502  0.3233
 6799SOL     OW31855   1.045   2.796  16.403 -0.4438  0.0132  0.1032
 6799SOL    HW131856   1.009   2.824  16.319 -2.4278 -0.4578  0.8037
 6799SOL    HW231857   1.094   2.718  16.376 -0.7974 -0.1177 -0.1517
 6800SOL     OW31858   2.826   0.235  10.110 -0.3254 -0.0868 -0.2364
 6800SOL    HW131859   2.895   0.284  10.067 -0.0480 -1.0609 -0.8883
 6800SOL    HW231860   2.765   0.303  10.137 -1.7587 -1.8787  1.1095
 6801SOL     OW31861   3.576   3.233   1.816  0.0385  0.0210 -0.3012
 6801SOL    HW131862   3.670   3.246   1.808  0.0490  0.7382  0.9645
 6801SOL    HW231863   3.555   3.215   1.908  0.7972  0.8413  0.0335
 6802SOL     OW31864   2.459   2.025  15.152 -0.6613  0.0899 -0.1217
 6802SOL    HW131865   2.514   2.060  15.222 -1.4490  0.6708  0.1987
 6802SOL    HW231866   2.437   2.108  15.110 -1.7972 -0.5244 -0.7387
 6803SOL     OW31867   4.341   3.208  10.335  0.3445 -0.7043 -0.5592
 6803SOL    HW131868   4.383   3.157  10.405 -0.0227 -0.4941 -0.1881
 6803SOL    HW231869   4.264   3.155  10.317  0.6206 -0.8758 -1.2267
 6804SOL     OW31870   0.342   3.211   7.006  0.1775 -0.5390 -0.0763
 6804SOL    HW131871   0.304   3.299   7.004 -2.3658 -1.6523  0.2355
 6804SOL    HW231872   0.354   3.188   6.914  1.7488  1.4344 -0.3823
 6805SOL     OW31873   0.941   3.112   3.712 -0.7609  0.2999  0.1328
 6805SOL    HW131874   1.029   3.150   3.718  0.0334 -1.5824  0.1858
 6805SOL    HW231875   0.897   3.160   3.641 -0.4285 -0.5173 -0.6324
 6806SOL     OW31876   2.590   1.179  10.130 -0.3464 -0.6993  0.0604
 6806SOL    HW131877   2.662   1.193  10.069  0.7601 -1.2503  1.2335
 6806SOL    HW231878   2.587   1.267  10.167 -0.8510 -1.5439  2.0537
 6807SOL     OW31879   0.288   3.801   9.107 -0.0125  0.1655  0.6265
 6807SOL    HW131880   0.221   3.831   9.169 -1.8325  1.1930 -1.8362
 6807SOL    HW231881   0.233   3.734   9.066  0.8063 -1.0556  1.5253
 6808SOL     OW31882   2.722   0.711   0.751 -0.2252  0.0696  0.3952
 6808SOL    HW131883   2.704   0.640   0.689 -0.2569  1.0450 -0.7216
 6808SOL    HW231884   2.817   0.705   0.745 -0.2051 -1.0752  1.9871
 6809SOL     OW31885   0.348   1.089   8.016 -0.6537  0.5991 -0.0991
 6809SOL    HW131886   0.262   1.077   8.058 -1.2596  0.1957 -1.4363
 6809SOL    HW231887   0.409   1.072   8.088 -1.1193  0.6187  0.3068
 6810SOL     OW31888   0.419   2.936   2.484 -0.3251  0.4951 -0.1454
 6810SOL    HW131889   0.506   2.967   2.461  0.7896 -3.2513 -0.9823
 6810SOL    HW231890   0.406   2.858   2.429 -0.4247  0.7662 -0.5111
 6811SOL     OW31891   4.500   0.597  15.781 -0.0158  0.9041 -0.6855
 6811SOL    HW131892   4.592   0.578  15.766 -0.1797  0.4317 -1.1095
 6811SOL    HW231893   4.474   0.589  15.689  2.0185 -0.3500 -1.1411
 6812SOL     OW31894   3.571   2.837   1.834 -0.4728 -0.3327  0.3590
 6812SOL    HW131895   3.539   2.761   1.884  0.2830 -0.7635  0.1926
 6812SOL    HW231896   3.539   2.917   1.874 -1.6110 -0.3326 -0.5281
 6813SOL     OW31897   0.485   0.601   7.556  0.0131 -0.4933  0.2062
 6813SOL    HW131898   0.441   0.532   7.606 -0.5701  0.0202  0.4031
 6813SOL    HW231899   0.564   0.562   7.519  0.0445 -1.2163  1.0485
 6814SOL     OW31900   2.089   3.625   2.228  0.1361  0.0662  0.1628
 6814SOL    HW131901   2.181   3.637   2.254  0.4026 -0.4072 -0.5697
 6814SOL    HW231902   2.062   3.710   2.193  0.6709 -0.0680 -0.5846
 6815SOL     OW31903   1.617   4.389   0.827 -0.4139  0.2239 -0.3496
 6815SOL    HW131904   1.570   4.470   0.847 -0.1558  0.8676 -2.3256
 6815SOL    HW231905   1.635   4.371   0.919 -0.7144 -2.0015 -0.7366
 6816SOL     OW31906   3.228   3.714   2.724  0.2727  0.6138  0.1158
 6816SOL    HW131907   3.163   3.728   2.654  0.0216 -0.8358  0.0605
 6816SOL    HW231908   3.241   3.619   2.724 -1.3599  0.3803 -1.8224
 6817SOL     OW31909   2.472   2.822   0.685  0.5101  0.0843  0.3703
 6817SOL    HW131910   2.488   2.834   0.778 -1.6412  0.6224  0.6699
 6817SOL    HW231911   2.394   2.874   0.665  1.7359  2.0627  0.7644
 6818SOL     OW31912   0.801   0.468   4.423  0.1887 -0.2537  0.4590
 6818SOL    HW131913   0.720   0.425   4.398 -1.0437  1.6240  1.1856
 6818SOL    HW231914   0.775   0.526   4.495  0.5268  1.6651 -0.9328
 6819SOL     OW31915   0.902   1.981   8.092  0.4491 -0.3143  0.1432
 6819SOL    HW131916   0.905   2.039   8.168 -0.2791  0.2220 -0.2358
 6819SOL    HW231917   0.812   1.950   8.103  0.0922  0.6705  0.0214
 6820SOL     OW31918   2.570   2.812  14.878 -0.3364  0.1133  0.0342
 6820SOL    HW131919   2.653   2.799  14.923 -0.2783  0.5765  0.0525
 6820SOL    HW231920   2.604   2.881  14.822  2.1765 -2.3418 -1.4975
 6821SOL     OW31921   3.756   1.141   5.958  0.3145  0.0136 -0.5346
 6821SOL    HW131922   3.796   1.068   6.005 -1.6152  0.3132  1.5679
 6821SOL    HW231923   3.762   1.110   5.868 -0.4275  1.5810 -1.1361
 6822SOL     OW31924   2.201   1.441   3.378  0.1325 -0.1938 -0.4487
 6822SOL    HW131925   2.140   1.445   3.305 -0.2760 -0.0399 -0.0957
 6822SOL    HW231926   2.263   1.376   3.344  1.4557  0.0763  1.4541
 6823SOL     OW31927   0.527   4.278   3.411 -0.4335 -0.3728 -0.1209
 6823SOL    HW131928   0.480   4.259   3.492 -0.7748  1.8691  0.2024
 6823SOL    HW231929   0.607   4.227   3.423  1.3780  2.4085 -0.3541
 6824SOL     OW31930   3.723   2.790   1.129  0.0872  0.4765  0.1771
 6824SOL    HW131931   3.736   2.740   1.210 -1.1756 -0.7809 -0.3915
 6824SOL    HW231932   3.740   2.718   1.067 -1.0776  0.0069  0.3942
 6825SOL     OW31933   3.038   2.026   1.668  0.4020  0.0642 -0.2209
 6825SOL    HW131934   3.002   2.007   1.581  0.8429  0.8474 -0.5769
 6825SOL    HW231935   2.977   2.090   1.703 -0.9027  0.5942 -3.4308
 6826SOL     OW31936   0.985   1.495   7.321 -0.1877 -0.6101 -0.0481
 6826SOL    HW131937   0.952   1.405   7.326  1.3693 -1.2169 -0.3937
 6826SOL    HW231938   0.979   1.531   7.410 -0.2605 -1.8472  0.4476
 6827SOL     OW31939   3.392   4.277   3.143 -0.5458  0.5305 -0.1014
 6827SOL    HW131940   3.327   4.336   3.183  0.3143  1.2726  0.2162
 6827SOL    HW231941   3.420   4.337   3.074 -2.1279 -0.3743 -1.5212
 6828SOL     OW31942   2.957   0.204  13.935  0.1763 -0.2256  0.0667
 6828SOL    HW131943   2.961   0.213  14.030  0.1886 -1.2419  0.1611
 6828SOL    HW231944   2.922   0.290  13.912 -1.0731 -1.0607 -1.1833
 6829SOL     OW31945   1.719   4.274   4.769 -0.2182 -0.0076  0.6270
 6829SOL    HW131946   1.780   4.218   4.721  1.4809  2.4638 -0.0801
 6829SOL    HW231947   1.772   4.343   4.809  0.3147  1.1544 -2.1298
 6830SOL     OW31948   4.378   1.050  16.523  0.4465  0.3485  0.2520
 6830SOL    HW131949   4.432   1.074  16.599 -1.7856 -0.4457  2.0934
 6830SOL    HW231950   4.440   1.091  16.462  0.1009 -0.8931 -0.9199
 6831SOL     OW31951   0.726   0.241  11.422 -0.0163 -0.3908 -0.4679
 6831SOL    HW131952   0.762   0.328  11.407  1.4273 -1.3473 -2.6331
 6831SOL    HW231953   0.759   0.196  11.344  0.8420  1.5697 -1.2312
 6832SOL     OW31954   1.185   1.222   3.092  0.5345 -0.4516 -0.1106
 6832SOL    HW131955   1.132   1.167   3.149  1.7890 -0.7588  0.7650
 6832SOL    HW231956   1.274   1.185   3.099  0.2576 -0.6420  2.4411
 6833SOL     OW31957   3.357   3.793   2.294 -0.2266  0.6157  0.0068
 6833SOL    HW131958   3.386   3.829   2.210  0.9775  1.5695  0.8306
 6833SOL    HW231959   3.419   3.838   2.352  1.1607  2.0612 -2.6046
 6834SOL     OW31960   2.786   3.461   5.347 -0.2860  0.8933  0.6183
 6834SOL    HW131961   2.859   3.522   5.347  1.3560 -1.1077  1.9640
 6834SOL    HW231962   2.715   3.514   5.309 -0.0658  1.4627  0.9999
 6835SOL     OW31963   3.334   3.042   7.444  0.0177 -0.2896  0.4153
 6835SOL    HW131964   3.385   2.966   7.473 -0.7350 -0.5106  1.1963
 6835SOL    HW231965   3.319   3.070   7.534  1.6611 -2.5959  1.4028
 6836SOL     OW31966   3.176   3.050   0.120 -0.1265 -0.2896 -0.5985
 6836SOL    HW131967   3.224   3.049   0.203  0.9093 -0.0041 -1.1876
 6836SOL    HW231968   3.130   2.967   0.124  1.3020 -0.9676  1.4750
 6837SOL     OW31969   2.839   1.615   8.487 -0.2730  0.1848 -0.5127
 6837SOL    HW131970   2.864   1.690   8.433  2.0416  0.4541  0.9693
 6837SOL    HW231971   2.751   1.598   8.452 -0.0676 -3.5422  0.8144
 6838SOL     OW31972   0.736   0.388   5.041 -0.1615  0.3957  0.8626
 6838SOL    HW131973   0.708   0.479   5.047  2.6702  1.1392  3.1516
 6838SOL    HW231974   0.667   0.354   4.984  0.4847 -0.8750  0.8342
 6839SOL     OW31975   3.770   3.097  17.206  0.5940 -0.3404 -0.2949
 6839SOL    HW131976   3.737   3.035  17.271  2.1750 -0.7721  0.0854
 6839SOL    HW231977   3.831   3.152  17.256 -2.5428  2.3151  0.6369
 6840SOL     OW31978   0.640   1.187   2.716 -0.0967 -0.3062 -0.7290
 6840SOL    HW131979   0.681   1.273   2.724  1.0779 -1.1017  1.9021
 6840SOL    HW231980   0.578   1.182   2.789  2.3532  0.2413  1.3901
 6841SOL     OW31981   4.178   0.111   4.211  0.0408 -0.3871 -0.1533
 6841SOL    HW131982   4.193   0.048   4.141  0.1686 -1.5484  0.9143
 6841SOL    HW231983   4.191   0.196   4.168 -0.7346  0.1024  0.5704
 6842SOL     OW31984   2.934   1.468   1.442 -0.0789  0.9909  0.1654
 6842SOL    HW131985   3.002   1.495   1.504 -0.0580  1.1612  0.0671
 6842SOL    HW231986   2.861   1.506   1.489 -0.3795  0.7559 -0.1116
 6843SOL     OW31987   1.988   3.829   5.064  0.5071 -0.1265  0.3796
 6843SOL    HW131988   1.924   3.797   5.000  1.1766 -3.8459  1.5855
 6843SOL    HW231989   1.983   3.762   5.132  2.2989  0.3959  1.0241
 6844SOL     OW31990   2.061   1.193  14.867  0.3816  0.2100 -0.8097
 6844SOL    HW131991   2.016   1.265  14.912  0.9982 -0.1397  0.3608
 6844SOL    HW231992   2.044   1.217  14.776  1.3501  1.8155 -0.5716
 6845SOL     OW31993   4.483   4.408   3.666 -0.9843  1.0585 -0.1236
 6845SOL    HW131994   4.537   4.401   3.588 -1.3780  0.3386 -0.3326
 6845SOL    HW231995   4.481   4.504   3.661  0.6910  1.0632 -0.4481
 6846SOL     OW31996   0.139   3.298   3.715 -0.3227 -1.0641  0.4384
 6846SOL    HW131997   0.136   3.208   3.747  0.1259 -1.5752 -0.9439
 6846SOL    HW231998   0.124   3.355   3.790  0.9641 -0.8200  0.5057
 6847SOL     OW31999   0.665   4.216   4.154  0.1459  0.0779  0.2861
 6847SOL    HW132000   0.740   4.233   4.096  0.4003 -0.9649  0.3066
 6847SOL    HW232001   0.684   4.134   4.200 -1.2353 -0.5815 -0.3006
 6848SOL     OW32002   4.452   2.830   4.130 -0.2129 -0.2026  0.2178
 6848SOL    HW132003   4.363   2.803   4.108 -0.1056 -0.0366 -0.4511
 6848SOL    HW232004   4.438   2.916   4.169 -0.5765 -0.4197  0.5583
 6849SOL     OW32005   0.979   2.257  12.811  0.0834  0.5418  0.0051
 6849SOL    HW132006   0.973   2.248  12.906 -1.6841  0.5788 -0.1083
 6849SOL    HW232007   1.016   2.345  12.820  0.1023  0.3383  1.9231
 6850SOL     OW32008   2.285   2.056   3.123  0.4577 -0.0388 -0.4288
 6850SOL    HW132009   2.329   2.133   3.086  0.1687  0.0174 -0.6615
 6850SOL    HW232010   2.362   2.009   3.153 -1.1734 -1.5716  1.3244
 6851SOL     OW32011   1.682   2.625   2.806 -0.3679  0.3290  0.2799
 6851SOL    HW132012   1.588   2.611   2.797 -0.2786  0.6747 -1.1385
 6851SOL    HW232013   1.691   2.584   2.892 -0.7076 -0.1068  0.1119
 6852SOL     OW32014   2.797   2.067   8.636 -0.0062  0.2334  0.1604
 6852SOL    HW132015   2.892   2.065   8.633 -0.0355 -0.6681 -0.1458
 6852SOL    HW232016   2.772   2.077   8.544 -2.2777 -1.0135  0.6163
 6853SOL     OW32017   4.024   4.277  16.630 -0.1654  0.1514 -0.3363
 6853SOL    HW132018   3.985   4.281  16.542  3.3994 -1.1439 -1.9651
 6853SOL    HW232019   4.001   4.364  16.660  1.3764  0.6491 -0.6143
 6854SOL     OW32020   2.816   1.154   4.823 -0.5288  0.0858 -0.5604
 6854SOL    HW132021   2.828   1.240   4.782  1.8536  0.2634  0.5175
 6854SOL    HW232022   2.721   1.151   4.834 -0.7272  0.9914 -2.0124
 6855SOL     OW32023   3.561   4.588  16.386  0.0258 -0.4121 -0.0977
 6855SOL    HW132024   3.541   4.532  16.461  0.1331  1.7649  1.5266
 6855SOL    HW232025   3.651   4.614  16.408 -0.1200  0.3980 -0.4786
 6856SOL     OW32026   3.699   3.890   1.943  0.4007 -0.5999 -0.5725
 6856SOL    HW132027   3.604   3.892   1.936  0.4621 -0.1236 -1.2134
 6856SOL    HW232028   3.717   3.797   1.955  2.9443  0.0316  0.6354
 6857SOL     OW32029   4.045   0.504   6.676  0.4421  0.0277 -0.1146
 6857SOL    HW132030   4.073   0.522   6.766  0.9449  2.0346 -0.6919
 6857SOL    HW232031   4.116   0.551   6.634  0.2977  1.4994  1.2896
 6858SOL     OW32032   0.880   3.225   3.452 -0.0609  0.5448  0.1457
 6858SOL    HW132033   0.827   3.292   3.408  0.8166  0.8700 -0.4036
 6858SOL    HW232034   0.852   3.155   3.393 -0.7586 -0.6750  1.9116
 6859SOL     OW32035   1.132   1.168   2.152 -0.0768 -0.4029  0.0952
 6859SOL    HW132036   1.201   1.221   2.192 -2.7075  0.5785  3.4101
 6859SOL    HW232037   1.123   1.101   2.220 -1.3540 -1.2868 -0.9679
 6860SOL     OW32038   2.680   2.028   7.189 -0.2508  0.6218  0.3352
 6860SOL    HW132039   2.623   2.064   7.258  0.3211 -0.3795  1.3299
 6860SOL    HW232040   2.746   1.982   7.242 -2.3823 -2.5167  0.2905
 6861SOL     OW32041   2.672   0.624  16.578  0.1506  0.0991  0.1829
 6861SOL    HW132042   2.718   0.647  16.497 -0.3664 -0.4398 -0.2667
 6861SOL    HW232043   2.746   0.590  16.629  0.0671 -0.6626 -0.2004
 6862SOL     OW32044   4.224   2.065  15.072 -0.1237 -0.0730 -0.2930
 6862SOL    HW132045   4.140   2.053  15.028  0.5356 -2.0371 -1.0157
 6862SOL    HW232046   4.276   2.108  15.005 -1.0999  2.0935  0.3393
 6863SOL     OW32047   0.919   0.815   7.127  0.3222 -0.3238  0.0872
 6863SOL    HW132048   0.851   0.880   7.143 -0.9254 -1.6538  0.1370
 6863SOL    HW232049   0.877   0.766   7.057 -0.2185  2.3144 -1.4554
 6864SOL     OW32050   0.252   0.435   8.170  0.5266  0.0910  0.1130
 6864SOL    HW132051   0.326   0.407   8.224 -0.2860 -1.5739  0.3700
 6864SOL    HW232052   0.222   0.515   8.213 -0.1754 -1.6562  2.8965
 6865SOL     OW32053   1.936   3.412  10.553  0.7426  0.5491  0.4370
 6865SOL    HW132054   1.944   3.503  10.581 -1.2651  0.9267 -0.2712
 6865SOL    HW232055   1.924   3.362  10.634 -0.9094  0.6250  0.2274
 6866SOL     OW32056   2.625   0.178   1.523  0.1206 -0.1128  0.6489
 6866SOL    HW132057   2.632   0.095   1.571  2.7498 -0.2993 -0.0048
 6866SOL    HW232058   2.541   0.165   1.480  0.5261 -1.3469  0.2053
 6867SOL     OW32059   0.529   3.310   6.071  0.4253 -0.1736  0.4744
 6867SOL    HW132060   0.551   3.298   5.979 -2.0508 -1.2590  0.0521
 6867SOL    HW232061   0.616   3.302   6.111  1.5189  1.1752 -1.6373
 6868SOL     OW32062   1.456   1.624  14.715 -0.4925 -0.2315 -0.1301
 6868SOL    HW132063   1.437   1.711  14.751  1.2782  1.0343 -2.2703
 6868SOL    HW232064   1.368   1.605  14.685 -0.8367 -1.0428  1.3751
 6869SOL     OW32065   4.622   2.961   3.656  0.3986 -0.0108 -0.4791
 6869SOL    HW132066   4.611   2.887   3.715  1.0528  0.7162  0.5629
 6869SOL    HW232067   4.530   2.984   3.648  0.7258  1.1258 -0.9601
 6870SOL     OW32068   4.167   4.434   8.027 -0.8241 -0.2455  0.1083
 6870SOL    HW132069   4.091   4.476   8.068 -0.9915 -0.4415  0.0001
 6870SOL    HW232070   4.156   4.343   8.054  1.0018  1.0473  5.0714
 6871SOL     OW32071   3.238   1.495  14.922 -0.5043  0.2451 -0.3319
 6871SOL    HW132072   3.258   1.407  14.951 -1.9014  0.3992  1.0840
 6871SOL    HW232073   3.319   1.514  14.874  1.0286 -1.8166  1.4785
 6872SOL     OW32074   1.511   3.295   3.614 -0.4603  0.3205  0.2635
 6872SOL    HW132075   1.515   3.362   3.682  2.8544  1.0104 -0.6185
 6872SOL    HW232076   1.596   3.252   3.621 -1.1386 -0.8743  1.3478
 6873SOL     OW32077   1.483   0.649   7.213  0.7558  0.2644 -0.0654
 6873SOL    HW132078   1.396   0.651   7.173  0.5541  1.9531  0.4437
 6873SOL    HW232079   1.473   0.711   7.286 -2.0191 -1.1256  0.7040
 6874SOL     OW32080   3.652   1.334  11.467 -0.3379  1.2543 -0.3063
 6874SOL    HW132081   3.710   1.261  11.448  0.0829  1.0161  1.9607
 6874SOL    HW232082   3.606   1.340  11.383  0.9951 -0.0341 -1.1238
 6875SOL     OW32083   2.494   3.862   1.413  0.0478 -0.0097 -0.6563
 6875SOL    HW132084   2.405   3.827   1.423 -0.5000  1.2098 -1.4037
 6875SOL    HW232085   2.536   3.784   1.450 -1.2358 -0.1192  0.5612
 6876SOL     OW32086   3.693   2.884   2.375  0.1212 -0.3417 -0.4538
 6876SOL    HW132087   3.631   2.822   2.337  1.9509 -3.5600  1.8688
 6876SOL    HW232088   3.746   2.825   2.428  0.2695 -1.0727 -1.4291
 6877SOL     OW32089   3.134   2.847   7.675 -0.4168  0.2631 -0.3040
 6877SOL    HW132090   3.179   2.913   7.727  0.2339  0.1942 -0.7765
 6877SOL    HW232091   3.118   2.774   7.734 -1.1612 -0.6883 -1.6718
 6878SOL     OW32092   3.193   0.826   6.860 -0.0493 -0.3956 -0.1715
 6878SOL    HW132093   3.162   0.832   6.770  0.0222 -1.3326 -0.2655
 6878SOL    HW232094   3.125   0.772   6.901 -1.6073  0.6594 -1.4163
 6879SOL     OW32095   2.789   1.097  16.990  0.2024  0.1997  0.2457
 6879SOL    HW132096   2.744   1.017  16.963 -2.4534  1.1290  1.9076
 6879SOL    HW232097   2.819   1.137  16.908 -1.3595  0.0387 -0.3990
 6880SOL     OW32098   3.876   3.038  10.660  0.1594  0.2649  0.9432
 6880SOL    HW132099   3.906   2.956  10.700 -1.1574 -0.5645  0.2515
 6880SOL    HW232100   3.823   3.079  10.728  1.0253 -0.6501  2.1656
 6881SOL     OW32101   2.000   1.946  16.969 -0.3067 -0.4043  0.2011
 6881SOL    HW132102   1.985   1.906  16.883 -0.5234  1.3741 -0.5874
 6881SOL    HW232103   2.096   1.941  16.966 -0.3507 -0.6053 -0.9538
 6882SOL     OW32104   0.070   0.143   3.884 -0.0009 -0.2646 -0.6621
 6882SOL    HW132105   0.054   0.133   3.978 -0.3880 -0.5950 -0.7610
 6882SOL    HW232106   0.057   0.052   3.855 -1.2517 -0.3514  0.1419
 6883SOL     OW32107   0.268   3.551   9.498  0.2183  0.3702  0.2418
 6883SOL    HW132108   0.256   3.589   9.585  1.0999 -1.0444  0.9856
 6883SOL    HW232109   0.346   3.496   9.505  0.0728 -0.0439 -1.3935
 6884SOL     OW32110   0.651   1.637   8.555  0.6248  0.3148  0.3874
 6884SOL    HW132111   0.609   1.713   8.595  0.1058 -0.1197  0.6573
 6884SOL    HW232112   0.585   1.612   8.491 -0.0962  0.1743  1.1793
 6885SOL     OW32113   4.247   0.973  16.197  0.2980  0.1983 -0.4752
 6885SOL    HW132114   4.217   0.933  16.116 -0.9982  1.6142 -0.7029
 6885SOL    HW232115   4.163   1.016  16.214  0.2916  0.2541 -0.6450
 6886SOL     OW32116   0.123   4.119  12.751  0.2812 -0.4630 -0.0148
 6886SOL    HW132117   0.149   4.081  12.835  0.1241 -1.1658 -0.2819
 6886SOL    HW232118   0.198   4.172  12.725 -0.0538  0.8886  1.8420
 6887SOL     OW32119   4.402   0.963   2.235 -1.0316  0.2751 -0.5244
 6887SOL    HW132120   4.367   0.936   2.320  0.3383 -0.8018 -0.2959
 6887SOL    HW232121   4.447   1.045   2.254  0.9022 -1.0592  0.7822
 6888SOL     OW32122   3.369   2.102   1.617  0.2424  0.0390 -0.2019
 6888SOL    HW132123   3.295   2.163   1.617 -0.5728 -0.9401 -1.4484
 6888SOL    HW232124   3.354   2.063   1.703 -2.2418  0.6346 -0.3598
 6889SOL     OW32125   0.711   2.111   8.547  0.1465 -0.1464  0.6141
 6889SOL    HW132126   0.647   2.049   8.582 -0.3182  0.6581  1.1820
 6889SOL    HW232127   0.761   2.147   8.621 -1.3249  2.3556  0.3877
 6890SOL     OW32128   2.640   2.938   6.006 -0.1230 -0.1222 -0.8519
 6890SOL    HW132129   2.615   2.931   5.914  0.3476 -0.2869 -0.9684
 6890SOL    HW232130   2.564   2.935   6.064 -0.4977 -0.5237 -1.3740
 6891SOL     OW32131   2.573   0.594   6.098 -0.3885 -0.1303  1.0383
 6891SOL    HW132132   2.653   0.557   6.135  1.1664  0.3871 -1.8493
 6891SOL    HW232133   2.530   0.636   6.173 -0.9534 -1.4497  1.4524
 6892SOL     OW32134   2.566   3.251   4.083  0.0870  0.6112 -0.1773
 6892SOL    HW132135   2.507   3.191   4.038  0.6193 -0.1319  0.1201
 6892SOL    HW232136   2.501   3.280   4.147  2.0530  1.1428  1.5888
 6893SOL     OW32137   1.321   0.330   3.120 -0.4552 -0.4957 -0.3549
 6893SOL    HW132138   1.319   0.420   3.088  3.2218 -0.8483 -1.5405
 6893SOL    HW232139   1.381   0.284   3.062  0.8669  0.2900  0.3728
 6894SOL     OW32140   4.280   2.916   2.248  0.0076  0.3039 -0.4450
 6894SOL    HW132141   4.222   2.840   2.254 -0.6488  0.8749  0.4827
 6894SOL    HW232142   4.228   2.982   2.203 -2.1903 -1.9159 -1.1979
 6895SOL     OW32143   0.244   1.651   8.996  0.1713 -0.1739 -0.0717
 6895SOL    HW132144   0.249   1.728   9.052 -1.2774  0.8135 -1.2889
 6895SOL    HW232145   0.162   1.607   9.017  2.1951 -2.8686  2.1474
 6896SOL     OW32146   4.619   2.116   9.083 -0.1331  0.0769  0.0486
 6896SOL    HW132147   4.690   2.125   9.021 -0.0860  2.1271  0.4093
 6896SOL    HW232148   4.579   2.031   9.064  0.6882 -0.7158  1.8205
 6897SOL     OW32149   3.471   0.862  12.360  0.1257 -0.7940  0.8502
 6897SOL    HW132150   3.383   0.830  12.336  0.7368 -0.7935 -1.3398
 6897SOL    HW232151   3.514   0.838  12.278  0.1693  0.9255  0.3783
 6898SOL     OW32152   2.549   1.314  15.341  0.5886  0.4429  0.2277
 6898SOL    HW132153   2.559   1.292  15.248  0.2790  0.4739  0.1869
 6898SOL    HW232154   2.613   1.384  15.351  0.5998  0.3708  0.6784
 6899SOL     OW32155   0.865   1.488   0.287 -0.0095 -0.6674 -0.0170
 6899SOL    HW132156   0.850   1.538   0.207 -0.4715 -2.9958 -1.3858
 6899SOL    HW232157   0.925   1.422   0.253  0.1292 -0.6436  0.1792
 6900SOL     OW32158   1.162   3.801   5.188  0.5466  0.2937 -0.8850
 6900SOL    HW132159   1.167   3.788   5.093 -0.3703  1.0446 -1.0387
 6900SOL    HW232160   1.087   3.861   5.190  0.5058  0.1027  2.4321
 6901SOL     OW32161   3.741   3.888   1.026 -0.4088 -0.4118  0.1130
 6901SOL    HW132162   3.834   3.887   1.007 -0.6768  1.1547 -1.2129
 6901SOL    HW232163   3.691   3.855   0.951  0.2424 -0.3874 -0.3299
 6902SOL     OW32164   4.330   4.077   2.881 -0.2739 -0.6784 -0.1316
 6902SOL    HW132165   4.279   4.026   2.944 -1.0628  0.5373  0.2091
 6902SOL    HW232166   4.263   4.104   2.819 -0.2836 -3.0756 -1.1327
 6903SOL     OW32167   0.959   2.751  15.766  0.1226  0.3487  0.3641
 6903SOL    HW132168   0.988   2.694  15.837 -0.2642 -1.5701 -1.0104
 6903SOL    HW232169   1.026   2.735  15.701 -1.0072 -1.0329 -0.4754
 6904SOL     OW32170   2.058   4.601   8.199 -0.2936 -0.4433 -0.2129
 6904SOL    HW132171   2.066   4.668   8.132  1.9114 -1.2897 -0.7995
 6904SOL    HW232172   2.056   4.646   8.284  1.9810 -0.4213 -0.1756
 6905SOL     OW32173   2.580   3.368  12.862 -0.2692 -0.1890  0.1267
 6905SOL    HW132174   2.598   3.453  12.901 -0.2175 -1.0883  2.0684
 6905SOL    HW232175   2.608   3.373  12.770 -1.5684 -0.2718 -0.2654
 6906SOL     OW32176   1.769   0.348   0.760 -0.2760  0.4226 -0.1376
 6906SOL    HW132177   1.787   0.397   0.840  0.0029 -2.2319  1.4061
 6906SOL    HW232178   1.834   0.380   0.697 -0.0242 -0.6793 -0.4372
 6907SOL     OW32179   3.034   2.054   9.824  0.1573 -0.2924  0.5271
 6907SOL    HW132180   2.967   2.066   9.891  0.1350  0.7819  0.3132
 6907SOL    HW232181   3.061   2.146   9.836 -0.6631 -0.0128  0.1847
 6908SOL     OW32182   4.315   4.287  17.545 -0.4889 -0.5114  0.3610
 6908SOL    HW132183   4.220   4.289  17.551 -0.5020 -0.9230  0.3187
 6908SOL    HW232184   4.333   4.216  17.484  0.4517 -0.4593  0.5702
 6909SOL     OW32185   1.148   1.682   3.044  0.6709  0.0673  0.4506
 6909SOL    HW132186   1.144   1.748   3.113  1.3621 -0.4144  0.9550
 6909SOL    HW232187   1.238   1.692   3.012  0.1861  1.3140 -0.4967
 6910SOL     OW32188   1.775   3.260   4.601  0.0408  0.0005  0.4538
 6910SOL    HW132189   1.844   3.275   4.667 -0.1066  1.9713  0.1555
 6910SOL    HW232190   1.822   3.193   4.551 -0.8487 -0.4385  0.2064
 6911SOL     OW32191   2.893   1.865   2.282  0.1992 -0.4016 -0.0373
 6911SOL    HW132192   2.813   1.862   2.333  0.8454 -0.6989  0.9531
 6911SOL    HW232193   2.886   1.950   2.239  0.3754  1.1078  2.9463
 6912SOL     OW32194   1.530   2.613  13.437 -0.2408 -0.5236  0.2035
 6912SOL    HW132195   1.514   2.678  13.505  1.1279  1.4837 -1.3898
 6912SOL    HW232196   1.598   2.559  13.477  0.4689 -0.4494 -0.9099
 6913SOL     OW32197   0.465   4.336   6.352 -0.5156  0.6454 -0.3507
 6913SOL    HW132198   0.419   4.417   6.334  0.1364  1.1214  0.1174
 6913SOL    HW232199   0.399   4.271   6.329  0.9548 -0.7497 -0.6522
 6914SOL     OW32200   4.643   4.551   6.070 -0.5572  0.0958 -0.7679
 6914SOL    HW132201   4.713   4.547   6.005  1.8433  2.8616  1.6285
 6914SOL    HW232202   4.598   4.633   6.051  1.6800  1.6634  0.6559
 6915SOL     OW32203   3.949   0.304   2.564  0.6402 -0.0913  0.6267
 6915SOL    HW132204   3.938   0.214   2.593 -1.3577 -0.8936 -2.6495
 6915SOL    HW232205   4.002   0.272   2.491  0.5137  2.4636 -0.6194
 6916SOL     OW32206   3.559   2.166   8.274  0.5408  0.5979 -0.0368
 6916SOL    HW132207   3.619   2.114   8.328  0.4142 -0.2251 -0.6989
 6916SOL    HW232208   3.497   2.199   8.339 -1.6047 -0.7947 -1.3915
 6917SOL     OW32209   2.887   2.572   7.616  0.1484  0.0645 -0.0289
 6917SOL    HW132210   2.941   2.508   7.661 -2.9996 -1.7698  1.1624
 6917SOL    HW232211   2.827   2.602   7.684  1.5408  2.0636  0.3168
 6918SOL     OW32212   2.067   3.701  13.513 -0.2955  0.2631  0.5958
 6918SOL    HW132213   2.133   3.748  13.563  0.5127  1.1396 -1.3120
 6918SOL    HW232214   2.063   3.748  13.430  1.6224 -2.1958 -0.8735
 6919SOL     OW32215   1.434   1.015   9.487  0.1437  0.2673 -0.3346
 6919SOL    HW132216   1.351   1.052   9.457  0.0538 -0.8023 -1.3960
 6919SOL    HW232217   1.400   0.965   9.561 -2.4151  0.1832 -1.5487
 6920SOL     OW32218   2.161   4.700   5.743 -0.5359  0.3740  0.4157
 6920SOL    HW132219   2.129   0.071   5.727 -1.1284 -0.0304 -0.5851
 6920SOL    HW232220   2.154   4.651   5.661 -0.4894  0.0038  0.6328
 6921SOL     OW32221   0.216   0.160   6.955  0.1385 -0.1864 -0.2361
 6921SOL    HW132222   0.238   0.128   7.043  0.9513 -1.7190 -1.0038
 6921SOL    HW232223   0.132   0.116   6.944  0.9508 -1.5830 -0.8033
 6922SOL     OW32224   2.757   4.168  13.585  0.0897  0.1047 -0.2879
 6922SOL    HW132225   2.770   4.257  13.617  1.4853 -0.3553  0.4191
 6922SOL    HW232226   2.682   4.136  13.635 -0.7264 -1.6075 -2.5993
 6923SOL     OW32227   0.651   0.837   6.538  0.1082 -0.2130 -0.4358
 6923SOL    HW132228   0.582   0.900   6.558  1.6439  1.9474 -1.9699
 6923SOL    HW232229   0.605   0.753   6.547 -0.6717  0.3437  0.7000
 6924SOL     OW32230   2.732   2.854   3.736  0.3508  0.7078 -0.1198
 6924SOL    HW132231   2.724   2.832   3.643  0.7915 -0.3019  0.0877
 6924SOL    HW232232   2.747   2.948   3.726  0.4451  0.7095  0.0274
 6925SOL     OW32233   3.607   4.202   8.796  0.3049 -0.2399  0.2210
 6925SOL    HW132234   3.676   4.139   8.776 -0.3503 -0.6987 -0.6577
 6925SOL    HW232235   3.533   4.157   8.753 -0.0892  0.7695 -0.1601
 6926SOL     OW32236   2.043   2.189   5.493  0.3588  0.8802 -0.3130
 6926SOL    HW132237   2.016   2.132   5.565  1.2594 -0.3967 -1.0104
 6926SOL    HW232238   2.071   2.128   5.425 -0.5534 -0.0466  0.1415
 6927SOL     OW32239   0.307   3.247  17.582  0.5330  0.5403  0.2885
 6927SOL    HW132240   0.228   3.196  17.601 -0.6260  1.5664 -1.8674
 6927SOL    HW232241   0.322   3.238  17.488  2.4047  0.6730  0.5646
 6928SOL     OW32242   1.713   4.164   7.737 -0.0129  0.3775 -0.6757
 6928SOL    HW132243   1.640   4.223   7.758 -0.5307 -1.3348  2.2605
 6928SOL    HW232244   1.704   4.155   7.642 -1.7376  0.1776 -0.4897
 6929SOL     OW32245   3.569   0.532  16.485 -0.0707 -0.3530  1.0593
 6929SOL    HW132246   3.647   0.516  16.538  0.4981  2.1428  0.9830
 6929SOL    HW232247   3.567   0.626  16.470  1.3621 -0.1693  1.9737
 6930SOL     OW32248   3.987   1.589   1.245  0.2056 -0.0844 -0.0557
 6930SOL    HW132249   3.936   1.521   1.290 -0.1489  0.0965 -0.1884
 6930SOL    HW232250   4.045   1.530   1.197  1.5007  0.6662  0.5891
 6931SOL     OW32251   2.236   3.210  10.704  0.2140  0.4294  0.0307
 6931SOL    HW132252   2.237   3.123  10.744  0.6012 -0.4447 -1.8659
 6931SOL    HW232253   2.327   3.219  10.675 -0.1716  1.9592 -0.7148
 6932SOL     OW32254   4.498   0.743   8.609  0.2488  0.2878  0.0828
 6932SOL    HW132255   4.512   0.741   8.704  3.5699  0.2451 -0.3914
 6932SOL    HW232256   4.555   0.667   8.596 -2.5227 -1.9102  0.7275
 6933SOL     OW32257   1.472   2.869   5.241 -0.0585 -0.1909 -0.0745
 6933SOL    HW132258   1.434   2.781   5.239 -1.0372  0.2098  0.6384
 6933SOL    HW232259   1.529   2.882   5.165 -1.1437  0.1240 -0.8337
 6934SOL     OW32260   1.491   1.817   2.565  0.3841 -0.6020 -0.4095
 6934SOL    HW132261   1.449   1.815   2.651  0.7112  0.4524 -0.2331
 6934SOL    HW232262   1.429   1.772   2.507 -0.0178 -0.8838  0.2308
 6935SOL     OW32263   0.327   4.613   5.669  0.2779  0.7303 -0.3564
 6935SOL    HW132264   0.324   4.594   5.763  2.0517  3.6880  0.2757
 6935SOL    HW232265   0.233   4.599   5.655  0.1545 -0.4816  1.6411
 6936SOL     OW32266   2.830   4.251   8.045 -0.5868 -0.7299 -0.5640
 6936SOL    HW132267   2.921   4.250   8.077  0.0151 -0.0917 -2.2441
 6936SOL    HW232268   2.804   4.340   8.022  1.7224 -0.3710 -1.8111
 6937SOL     OW32269   0.880   0.747   2.381 -0.1398  0.4492 -0.2266
 6937SOL    HW132270   0.884   0.812   2.451  0.2727 -0.9759  1.0699
 6937SOL    HW232271   0.970   0.727   2.358 -0.5640  0.0477 -1.5365
 6938SOL     OW32272   4.097   3.849   3.963 -0.0214 -0.1509 -0.2804
 6938SOL    HW132273   4.014   3.893   3.945 -1.2404 -2.0314  0.7173
 6938SOL    HW232274   4.162   3.919   3.956 -0.0625 -0.0474  0.3890
 6939SOL     OW32275   4.333   0.048   5.033  0.2384  0.8180 -0.2817
 6939SOL    HW132276   4.383   4.698   5.079 -0.4536  0.1083 -0.5627
 6939SOL    HW232277   4.408   0.107   5.032 -0.7859  2.1163 -2.1013
 6940SOL     OW32278   2.781   2.688   5.355 -0.6895 -0.6184 -0.5646
 6940SOL    HW132279   2.754   2.731   5.274 -1.6699 -1.1021 -0.4884
 6940SOL    HW232280   2.767   2.596   5.334 -1.4436 -1.3268  2.9531
 6941SOL     OW32281   2.854   0.637   0.997 -0.0847  0.2184  0.1984
 6941SOL    HW132282   2.932   0.664   0.947 -0.6105  3.4377  1.0836
 6941SOL    HW232283   2.783   0.659   0.936  0.3300  1.3147  0.1105
 6942SOL     OW32284   0.923   3.218  14.040 -0.3673  0.4452  0.5123
 6942SOL    HW132285   0.881   3.182  13.962  0.9324  0.2415 -0.0905
 6942SOL    HW232286   0.931   3.144  14.101  3.8073 -0.1764 -0.8441
 6943SOL     OW32287   0.412   3.110   4.569 -0.4939  0.4442  0.5232
 6943SOL    HW132288   0.423   3.159   4.488  0.8753  0.0769  0.4898
 6943SOL    HW232289   0.483   3.152   4.617  1.6889 -1.5759 -0.9714
 6944SOL     OW32290   0.681   1.111   4.131  0.0923 -0.4234  0.1898
 6944SOL    HW132291   0.708   1.118   4.223  0.4693  1.2222 -0.0458
 6944SOL    HW232292   0.632   1.191   4.114 -1.4808 -1.1573  1.2919
 6945SOL     OW32293   0.576   0.541   4.154  0.1691 -0.9013  0.0616
 6945SOL    HW132294   0.633   0.541   4.077  1.0902  0.5077  0.7458
 6945SOL    HW232295   0.598   0.624   4.195  0.6762 -1.4231  0.8319
 6946SOL     OW32296   2.617   3.245  12.214 -0.5895  0.0245  0.4801
 6946SOL    HW132297   2.695   3.195  12.190 -0.3275  1.0900 -0.8907
 6946SOL    HW232298   2.635   3.335  12.187 -0.2395 -0.8086 -2.0638
 6947SOL     OW32299   3.222   4.524   1.760  0.2935 -0.1114  0.1192
 6947SOL    HW132300   3.127   4.525   1.747  0.2015 -0.4824  0.8138
 6947SOL    HW232301   3.255   4.442   1.723 -2.9930 -0.7877 -1.2991
 6948SOL     OW32302   1.770   0.832   9.922 -0.4193  0.8755 -0.2610
 6948SOL    HW132303   1.850   0.787   9.893 -1.6618  0.1194 -2.5270
 6948SOL    HW232304   1.714   0.763   9.957  0.4260  0.8094  0.9410
 6949SOL     OW32305   0.119   3.830   4.726  0.3495  0.2944  0.1515
 6949SOL    HW132306   0.208   3.837   4.762  0.0787  0.4798  0.7925
 6949SOL    HW232307   0.129   3.861   4.636 -0.5828  2.0437  0.6461
 6950SOL     OW32308   1.168   2.076   1.614  0.0803 -0.0147 -0.0793
 6950SOL    HW132309   1.177   2.052   1.706 -0.7325 -1.3329 -0.3593
 6950SOL    HW232310   1.123   2.161   1.621 -0.0547 -0.0097 -1.0411
 6951SOL     OW32311   3.086   2.154   4.735 -0.8216  0.1994 -0.0968
 6951SOL    HW132312   3.178   2.150   4.760 -0.8300  0.1155 -0.0781
 6951SOL    HW232313   3.045   2.074   4.769  1.3839 -0.7100  0.4112
 6952SOL     OW32314   2.297   3.680   0.228  0.2184  0.2244 -0.2380
 6952SOL    HW132315   2.280   3.764   0.186 -0.8267 -0.3766 -1.0252
 6952SOL    HW232316   2.379   3.662   0.183 -1.1687 -1.1518 -2.2436
 6953SOL     OW32317   1.154   2.258   7.019 -0.5372 -0.3488 -0.0666
 6953SOL    HW132318   1.248   2.245   7.032 -0.1753  1.4016 -0.9359
 6953SOL    HW232319   1.128   2.281   7.108  3.2533 -1.1241  1.2570
 6954SOL     OW32320   0.576   2.638   5.826 -0.5267  0.5620 -0.9768
 6954SOL    HW132321   0.507   2.661   5.889  1.4805 -1.8930  2.0984
 6954SOL    HW232322   0.658   2.634   5.874 -0.6612  0.3688 -0.7612
 6955SOL     OW32323   4.524   2.270   4.862  0.2469  0.2951  0.6420
 6955SOL    HW132324   4.503   2.230   4.946 -0.7828  3.1007  1.7452
 6955SOL    HW232325   4.493   2.359   4.879 -1.0917 -0.2656  1.1554
 6956SOL     OW32326   2.124   1.947  10.465  0.1460 -0.1344 -0.2632
 6956SOL    HW132327   2.087   1.859  10.463  0.8982 -0.4145 -1.5759
 6956SOL    HW232328   2.111   1.961  10.372  2.7975  0.1804 -0.5819
 6957SOL     OW32329   4.589   1.685   6.459  0.0567  0.0891 -0.6366
 6957SOL    HW132330   4.514   1.626   6.465 -1.3756  1.6842 -2.7260
 6957SOL    HW232331   4.591   1.741   6.537 -1.0340  1.1181 -1.3441
 6958SOL     OW32332   2.309   0.196  15.735 -0.0608 -0.9608  0.1066
 6958SOL    HW132333   2.224   0.206  15.778 -1.9080  0.1836 -3.7656
 6958SOL    HW232334   2.303   0.228  15.645  3.6264  2.4114  1.0284
 6959SOL     OW32335   1.268   0.148   2.292 -0.6780  0.3836 -0.2606
 6959SOL    HW132336   1.180   0.165   2.325 -0.8664  0.9347 -1.0461
 6959SOL    HW232337   1.272   0.053   2.294  0.4774  0.3685 -2.4748
 6960SOL     OW32338   0.564   2.069   4.280 -0.3188 -0.4028  0.6014
 6960SOL    HW132339   0.616   2.013   4.223  0.7401  0.0026  1.1639
 6960SOL    HW232340   0.573   2.155   4.238  0.6366 -1.9875 -2.3885
 6961SOL     OW32341   1.249   1.627   1.393 -0.1891 -0.3171  0.2094
 6961SOL    HW132342   1.210   1.711   1.415 -0.9627  0.0741 -2.5600
 6961SOL    HW232343   1.221   1.617   1.301 -0.3246 -1.3127  0.3490
 6962SOL     OW32344   3.178   4.607  16.626  0.4268 -0.3306  0.7386
 6962SOL    HW132345   3.260   4.567  16.596  1.0380 -0.4270  2.5410
 6962SOL    HW232346   3.126   4.623  16.548 -0.4384  1.0208  1.5955
 6963SOL     OW32347   3.728   3.453  12.319  0.4152  0.3824 -0.3846
 6963SOL    HW132348   3.773   3.520  12.370  0.7120 -0.3333  0.2923
 6963SOL    HW232349   3.651   3.505  12.297  1.6016  1.7086 -1.3989
 6964SOL     OW32350   0.382   2.043   1.417 -0.5398 -0.1018 -0.0098
 6964SOL    HW132351   0.467   2.033   1.461 -0.4951 -0.9578 -0.2965
 6964SOL    HW232352   0.364   1.952   1.394 -1.0585 -0.2937  1.1242
 6965SOL     OW32353   1.001   3.796  16.655  0.3892  0.5857 -0.6438
 6965SOL    HW132354   1.030   3.879  16.618  0.0289  0.5070 -1.1030
 6965SOL    HW232355   1.071   3.776  16.717 -0.4100 -0.7965 -0.1772
 6966SOL     OW32356   1.956   3.538   3.405  0.5010  0.0864  0.0018
 6966SOL    HW132357   2.023   3.515   3.340  1.4720  3.9712 -0.3703
 6966SOL    HW232358   1.926   3.621   3.368 -1.4001 -0.3212  0.6558
 6967SOL     OW32359   4.202   4.369   3.685  0.6279 -0.9374  0.1936
 6967SOL    HW132360   4.191   4.442   3.624 -0.3508 -1.0076  0.2845
 6967SOL    HW232361   4.295   4.376   3.708  1.2360  2.9024 -3.4694
 6968SOL     OW32362   3.788   2.730   8.971 -0.1800  0.0845 -0.0553
 6968SOL    HW132363   3.845   2.774   9.034  0.3431 -1.0255  0.2514
 6968SOL    HW232364   3.791   2.787   8.895 -0.3674  0.9192  0.5585
 6969SOL     OW32365   3.289   3.489  16.590 -1.1458 -0.1461  0.0155
 6969SOL    HW132366   3.212   3.499  16.646  1.8884 -0.6529  4.1843
 6969SOL    HW232367   3.320   3.403  16.619  0.1367  1.3011  2.8300
 6970SOL     OW32368   0.441   2.029   6.782 -0.4858  0.1571 -0.0393
 6970SOL    HW132369   0.536   2.021   6.772 -0.7882 -3.0345 -0.2569
 6970SOL    HW232370   0.410   1.939   6.773  1.7923 -0.6632  0.2472
 6971SOL     OW32371   1.442   3.086   3.889  0.5442 -0.3589 -0.1540
 6971SOL    HW132372   1.388   3.010   3.906 -0.5015  0.7414  1.4708
 6971SOL    HW232373   1.379   3.153   3.915  0.0578 -2.0892  3.1353
 6972SOL     OW32374   2.020   0.813   0.297 -0.5054 -0.0615  0.2084
 6972SOL    HW132375   2.001   0.872   0.224  1.7298  0.9005  0.3937
 6972SOL    HW232376   2.095   0.847   0.346 -0.7607 -0.3828  0.8324
 6973SOL     OW32377   2.850   0.142   1.854 -0.3881  0.0295  0.3274
 6973SOL    HW132378   2.775   0.099   1.815  0.1063 -0.0688 -0.5199
 6973SOL    HW232379   2.875   0.073   1.915  0.2057  0.1026  0.1686
 6974SOL     OW32380   0.424   1.833   5.237  0.5682  0.0212  0.1994
 6974SOL    HW132381   0.340   1.847   5.194  0.6806  2.7670  0.9237
 6974SOL    HW232382   0.469   1.772   5.178 -0.3094 -0.4280 -0.0055
 6975SOL     OW32383   0.206   4.525  16.687  0.0284 -0.3757 -0.0280
 6975SOL    HW132384   0.272   4.516  16.619 -1.0218 -0.0352 -1.0857
 6975SOL    HW232385   0.189   4.432  16.700 -1.9713 -0.3161 -2.3394
 6976SOL     OW32386   0.795   1.742  13.379  0.3706 -0.6211  0.1788
 6976SOL    HW132387   0.764   1.669  13.325  1.8753  0.9924 -2.8705
 6976SOL    HW232388   0.729   1.755  13.447  0.5873  0.7575  0.1230
 6977SOL     OW32389   4.708   3.806  14.933 -0.4162 -0.4997 -0.1412
 6977SOL    HW132390   4.636   3.791  14.995  0.4839  1.8431  1.4874
 6977SOL    HW232391   0.019   3.897  14.939  1.2195 -1.0417  0.3773
 6978SOL     OW32392   1.392   2.350   4.048  0.4424  0.4038 -0.2307
 6978SOL    HW132393   1.332   2.372   3.978  0.1795  1.6054  0.3767
 6978SOL    HW232394   1.424   2.436   4.076  0.6399 -0.0176  0.8507
 6979SOL     OW32395   0.688   2.888   4.009  0.5705  0.1280 -0.0688
 6979SOL    HW132396   0.704   2.798   3.979 -3.2786 -2.6649  6.3264
 6979SOL    HW232397   0.632   2.879   4.085 -0.1036 -1.6024 -0.7721
 6980SOL     OW32398   0.828   1.081   7.167 -0.7008 -0.7038 -0.0402
 6980SOL    HW132399   0.823   1.111   7.076  1.1150  0.4441  0.2283
 6980SOL    HW232400   0.734   1.074   7.181 -0.6107 -0.4823  0.7054
 6981SOL     OW32401   4.494   1.177   3.636 -0.2977 -0.0912  0.1480
 6981SOL    HW132402   4.408   1.146   3.610 -0.1213 -1.6977  1.4388
 6981SOL    HW232403   4.555   1.138   3.574  1.1866 -1.3923  2.3945
 6982SOL     OW32404   4.123   1.622  13.067 -0.3095 -0.2173  0.4168
 6982SOL    HW132405   4.136   1.536  13.028 -0.2347  0.1237 -0.3036
 6982SOL    HW232406   4.182   1.680  13.019 -1.4798 -1.6277 -2.7250
 6983SOL     OW32407   2.953   0.813   1.654 -0.1952 -0.1577 -0.5856
 6983SOL    HW132408   2.919   0.902   1.642 -1.7256 -0.4919  1.2321
 6983SOL    HW232409   2.998   0.821   1.738  0.1869  1.1309 -0.9154
 6984SOL     OW32410   0.778   1.971  13.211  0.0009 -0.1328  0.4670
 6984SOL    HW132411   0.797   1.899  13.271 -1.2506 -0.2818  0.6865
 6984SOL    HW232412   0.834   2.043  13.239  0.9019 -0.6196 -0.1011
 6985SOL     OW32413   4.365   4.533   3.300 -0.1139 -0.0654 -0.4240
 6985SOL    HW132414   4.292   4.573   3.252 -0.4098 -1.7272 -1.3735
 6985SOL    HW232415   4.383   4.593   3.372  0.7780  0.8069 -1.3890
 6986SOL     OW32416   2.833   1.853  10.727 -0.0574 -0.3515 -0.4509
 6986SOL    HW132417   2.906   1.905  10.761 -0.5984  0.1827 -0.1068
 6986SOL    HW232418   2.821   1.904  10.647 -0.5137  0.3174  0.0416
 6987SOL     OW32419   0.157   0.218   2.534  0.3064  0.1440  0.2933
 6987SOL    HW132420   0.113   0.141   2.498  0.2050 -0.7543  2.3036
 6987SOL    HW232421   0.150   0.288   2.470 -1.7844 -0.2274  0.1260
 6988SOL     OW32422   4.629   2.948  17.499 -0.0766  0.4161  0.3981
 6988SOL    HW132423   4.653   3.021  17.556 -1.6925  0.5095  0.9543
 6988SOL    HW232424   4.572   2.898  17.557 -0.6058 -0.2329 -0.6807
 6989SOL     OW32425   3.305   1.521   6.329 -0.3382  0.5153  0.1895
 6989SOL    HW132426   3.280   1.497   6.418  1.4153  0.5849  0.7079
 6989SOL    HW232427   3.368   1.590   6.350 -0.4365  0.9128 -0.8285
 6990SOL     OW32428   0.548   0.353   4.320  0.1210  0.4452  0.0719
 6990SOL    HW132429   0.477   0.313   4.270  0.1009  0.3445  0.1828
 6990SOL    HW232430   0.552   0.434   4.269  1.9322 -0.4277 -1.1597
 6991SOL     OW32431   2.437   0.480   0.647 -0.1160  0.3784 -0.1657
 6991SOL    HW132432   2.389   0.547   0.696  0.9114  0.7789  0.3073
 6991SOL    HW232433   2.465   0.420   0.716 -1.1801  1.7508  1.4423
 6992SOL     OW32434   2.829   1.261   5.472 -0.0645  0.2325 -0.1779
 6992SOL    HW132435   2.888   1.254   5.547 -1.9429 -0.5611  1.2192
 6992SOL    HW232436   2.820   1.169   5.445 -2.0065 -0.7287  3.7955
 6993SOL     OW32437   2.240   1.954   7.886  0.5571 -0.3717 -0.2770
 6993SOL    HW132438   2.257   2.045   7.860 -0.5203 -0.1504 -0.2125
 6993SOL    HW232439   2.301   1.909   7.827 -1.1761  0.4653 -2.7146
 6994SOL     OW32440   0.239   4.278   3.783 -0.3248 -0.1364 -0.2501
 6994SOL    HW132441   0.284   4.361   3.765 -2.1806  0.9674  0.1784
 6994SOL    HW232442   0.290   4.250   3.859  0.0775 -1.1860 -0.8982
 6995SOL     OW32443   1.370   3.612   1.459  0.4564 -0.2271 -0.2321
 6995SOL    HW132444   1.306   3.548   1.427  0.5403 -0.7819  0.7153
 6995SOL    HW232445   1.451   3.568   1.431 -0.1322 -0.9375 -0.8328
 6996SOL     OW32446   2.277   1.526   8.373 -0.4932  0.3006 -0.2773
 6996SOL    HW132447   2.268   1.532   8.468 -0.2603  0.0002 -0.2352
 6996SOL    HW232448   2.256   1.618   8.357  0.6754  0.7212  0.6557
 6997SOL     OW32449   1.575   1.479   2.973 -0.1059  0.0480 -0.0927
 6997SOL    HW132450   1.590   1.491   2.879 -2.4445  0.3628 -0.4069
 6997SOL    HW232451   1.507   1.413   2.965 -0.4168  0.2785  0.7097
 6998SOL     OW32452   1.188   1.848   3.270 -0.5281  0.2645  0.9328
 6998SOL    HW132453   1.109   1.827   3.320 -0.1757 -1.5163  0.7383
 6998SOL    HW232454   1.250   1.855   3.342 -0.8454 -0.9269  1.3314
 6999SOL     OW32455   1.570   3.176   6.942  0.0585  0.3925 -0.7190
 6999SOL    HW132456   1.637   3.213   7.001 -0.7020 -0.7257  0.8586
 6999SOL    HW232457   1.544   3.112   7.008 -0.8714  0.5219 -0.9716
 7000SOL     OW32458   1.053   1.293   9.077 -0.1090  0.4562  0.1921
 7000SOL    HW132459   1.035   1.386   9.060 -1.5698  0.3020  0.9086
 7000SOL    HW232460   0.972   1.243   9.067  0.5555 -0.6357  0.2959
 7001SOL     OW32461   0.560   4.077   6.487  0.0384  0.6428 -0.3093
 7001SOL    HW132462   0.640   4.120   6.516  0.1558  0.3364 -0.1852
 7001SOL    HW232463   0.533   4.150   6.430 -0.5000 -0.2526 -1.2012
 7002SOL     OW32464   3.487   3.336  12.464  0.3289  0.1948 -0.7624
 7002SOL    HW132465   3.553   3.348  12.533 -0.3082 -2.0719  0.2438
 7002SOL    HW232466   3.552   3.301  12.404  1.4390 -0.3350  0.7697
 7003SOL     OW32467   3.146   3.282   0.366  1.2066 -0.1545 -0.4422
 7003SOL    HW132468   3.059   3.287   0.327  0.1564 -0.8359  1.7723
 7003SOL    HW232469   3.199   3.326   0.300  0.4395 -1.1459 -1.7227
 7004SOL     OW32470   4.356   3.131   2.970 -0.4477 -0.4571 -0.0281
 7004SOL    HW132471   4.297   3.180   2.913 -1.1987 -0.8717  0.3983
 7004SOL    HW232472   4.341   3.179   3.051  0.5625  1.6100 -1.0683
 7005SOL     OW32473   3.846   4.214   6.681 -0.5124  0.1123  0.2723
 7005SOL    HW132474   3.893   4.293   6.710  0.9523 -0.2920 -1.0100
 7005SOL    HW232475   3.923   4.160   6.663 -0.9730 -0.3197 -0.3806
 7006SOL     OW32476   3.177   0.609   3.935  0.0588  0.1691  0.5620
 7006SOL    HW132477   3.167   0.689   3.884 -0.2488 -1.7049 -2.3774
 7006SOL    HW232478   3.195   0.640   4.023  1.8607 -0.1408  0.3049
 7007SOL     OW32479   3.655   0.336   6.024 -0.4330  0.6044  0.2638
 7007SOL    HW132480   3.563   0.334   5.997 -0.6581 -0.6104  1.1300
 7007SOL    HW232481   3.669   0.427   6.049 -0.0453  0.5792  0.1390
 7008SOL     OW32482   2.986   3.993  13.276 -0.0795 -0.1759  0.2450
 7008SOL    HW132483   2.896   4.021  13.260 -0.6456 -1.1137  1.7102
 7008SOL    HW232484   3.005   3.970  13.185  0.2698 -1.3706  0.6195
 7009SOL     OW32485   4.523   1.933   3.839 -0.0644 -0.4403 -0.0637
 7009SOL    HW132486   4.455   1.973   3.786 -0.2672  1.9324  1.9244
 7009SOL    HW232487   4.570   1.901   3.763  0.3009  1.8814 -0.8328
 7010SOL     OW32488   1.758   4.385  15.621 -0.0360 -0.4106 -0.1326
 7010SOL    HW132489   1.762   4.415  15.531  0.4832  1.4379  0.4996
 7010SOL    HW232490   1.691   4.438  15.664  0.4664  0.6252 -0.6250
 7011SOL     OW32491   0.108   3.550   5.209 -0.0831 -0.3560  0.8556
 7011SOL    HW132492   0.039   3.562   5.274 -1.0964 -0.3838 -0.2121
 7011SOL    HW232493   0.138   3.460   5.220 -1.5426 -0.9076  0.4041
 7012SOL     OW32494   0.767   1.659  16.868  0.3091  0.4695  0.3075
 7012SOL    HW132495   0.701   1.728  16.866 -0.1478  0.0711  1.5990
 7012SOL    HW232496   0.843   1.699  16.826 -1.7191  5.9216  1.8491
 7013SOL     OW32497   3.189   3.792  14.193 -0.1253 -0.8334 -0.2845
 7013SOL    HW132498   3.271   3.817  14.237 -0.2287 -2.9446  1.1361
 7013SOL    HW232499   3.127   3.837  14.251  1.8139 -1.3319  2.1930
 7014SOL     OW32500   4.239   1.716  16.798  0.4488 -0.0206  0.0026
 7014SOL    HW132501   4.255   1.808  16.820 -0.5452 -0.2935  1.8413
 7014SOL    HW232502   4.309   1.668  16.842 -0.6227 -1.3124  0.2912
 7015SOL     OW32503   2.063   3.940   3.804 -0.1199  0.0077  0.0175
 7015SOL    HW132504   2.004   3.953   3.878 -1.8481 -2.0213 -0.9883
 7015SOL    HW232505   2.116   3.870   3.844  1.9180  1.9640  0.7415
 7016SOL     OW32506   3.369   0.310   8.490 -0.4732 -0.0015  0.4105
 7016SOL    HW132507   3.432   0.334   8.558 -0.4471  0.5743  0.1836
 7016SOL    HW232508   3.309   0.383   8.504  1.9744  2.3793 -1.4756
 7017SOL     OW32509   3.250   1.838   9.684  0.0307  0.6019  0.6776
 7017SOL    HW132510   3.305   1.913   9.661  1.3847 -0.6131 -0.0599
 7017SOL    HW232511   3.211   1.866   9.767  3.2366  4.4583  0.9176
 7018SOL     OW32512   2.782   0.163  17.534  0.3117  0.0179  0.7057
 7018SOL    HW132513   2.809   0.077  17.565 -1.5805 -0.4170  1.1487
 7018SOL    HW232514   2.860   0.178  17.481  0.9955 -0.2901  1.6207
 7019SOL     OW32515   0.601   1.675   3.109  0.2570  0.1796 -0.0730
 7019SOL    HW132516   0.696   1.666   3.106  0.0097 -2.2460 -0.8744
 7019SOL    HW232517   0.575   1.586   3.133 -0.6285  0.9090  1.6306
 7020SOL     OW32518   4.261   4.207  15.922 -0.7918 -0.0882 -0.0990
 7020SOL    HW132519   4.329   4.172  15.979  0.4582  0.1143 -1.4554
 7020SOL    HW232520   4.185   4.227  15.977 -2.3049 -0.4266 -2.0516
 7021SOL     OW32521   0.704   4.050   5.320 -0.0391 -0.4083  0.4606
 7021SOL    HW132522   0.699   4.112   5.392  1.8013  0.5302 -0.2116
 7021SOL    HW232523   0.696   3.967   5.367 -0.5673 -0.5680  0.0951
 7022SOL     OW32524   2.179   0.941   8.576  0.0367  0.5395  0.0919
 7022SOL    HW132525   2.175   0.997   8.498  0.9852  1.0643  0.4157
 7022SOL    HW232526   2.155   0.993   8.653  1.3832  0.0451  0.8360
 7023SOL     OW32527   4.063   3.633   7.843 -0.5683  0.6432 -0.1896
 7023SOL    HW132528   4.049   3.677   7.759 -1.5151  0.9792  0.1354
 7023SOL    HW232529   3.979   3.623   7.887 -0.4384 -1.2091 -0.3526
 7024SOL     OW32530   1.110   4.023   6.295  0.2524 -0.1624 -0.1009
 7024SOL    HW132531   1.018   4.022   6.321  0.1373  0.8884 -0.4816
 7024SOL    HW232532   1.114   4.101   6.239 -1.9537 -0.9900 -1.4451
 7025SOL     OW32533   2.798   1.375   5.848  0.0888  0.3355 -0.3858
 7025SOL    HW132534   2.854   1.322   5.792  1.1593  2.2223 -1.1130
 7025SOL    HW232535   2.866   1.439   5.870  0.6121  0.1808 -1.5519
 7026SOL     OW32536   4.650   2.943  10.064 -0.3108 -0.1274  0.4454
 7026SOL    HW132537   4.569   2.992  10.054  0.2712  1.1128  1.7709
 7026SOL    HW232538   4.640   2.868  10.006 -0.7239 -0.0058  0.3645
 7027SOL     OW32539   1.493   0.665   0.956  0.4220 -0.2707 -0.8916
 7027SOL    HW132540   1.512   0.718   1.033  0.1366 -1.9905  0.3689
 7027SOL    HW232541   1.484   0.736   0.892 -1.5855  1.6992  1.5401
 7028SOL     OW32542   0.089   3.890   9.701  0.3051  0.1700 -0.1605
 7028SOL    HW132543   0.017   3.829   9.717  2.6940 -2.9874 -1.4456
 7028SOL    HW232544   0.160   3.827   9.716  0.1415 -0.7430 -3.2129
 7029SOL     OW32545   0.012   2.949  14.410  0.5509  0.2354 -0.1273
 7029SOL    HW132546   0.106   2.952  14.391  0.4968 -2.4010 -0.7201
 7029SOL    HW232547   0.020   2.923  14.501 -1.2571 -0.3814 -0.1398
 7030SOL     OW32548   0.772   1.418   8.141 -0.1771  0.0202 -0.1463
 7030SOL    HW132549   0.757   1.370   8.222  0.4471 -0.3800 -0.2634
 7030SOL    HW232550   0.808   1.349   8.086 -0.1575 -0.2170  0.1645
 7031SOL     OW32551   4.050   2.324   7.078  0.1402 -0.2074  0.0966
 7031SOL    HW132552   4.063   2.230   7.089 -0.1995 -0.1982  0.5695
 7031SOL    HW232553   4.074   2.361   7.164  2.6711  0.7880 -1.0215
 7032SOL     OW32554   2.689   1.001  12.138  0.0619 -0.0210 -0.3484
 7032SOL    HW132555   2.663   0.986  12.046  0.6552  0.2975 -0.5642
 7032SOL    HW232556   2.645   0.922  12.170 -1.6140  2.1086  2.5629
 7033SOL     OW32557   0.158   2.736   3.308 -0.7609  0.0620  0.3286
 7033SOL    HW132558   0.240   2.694   3.334 -0.3986 -0.5884 -1.9176
 7033SOL    HW232559   0.164   2.820   3.354 -1.9451  0.2518  0.1433
 7034SOL     OW32560   3.906   1.129  14.694  0.3934 -0.3595  0.1182
 7034SOL    HW132561   3.914   1.139  14.789  0.9598  0.3408 -0.0043
 7034SOL    HW232562   3.997   1.109  14.673  0.9444  1.3200  0.8553
 7035SOL     OW32563   3.227   1.393   2.443  0.0289  0.3942  0.5178
 7035SOL    HW132564   3.251   1.428   2.529 -0.2800 -0.7654  1.0704
 7035SOL    HW232565   3.133   1.411   2.438 -0.0948 -0.1545  0.8301
 7036SOL     OW32566   0.295   2.991   5.568  0.1244 -0.2609 -0.1228
 7036SOL    HW132567   0.251   3.005   5.652  1.3281 -2.9494  0.9783
 7036SOL    HW232568   0.339   2.909   5.591 -1.3342 -1.1912 -0.6993
 7037SOL     OW32569   4.613   0.959  13.809 -0.7455  0.2825 -0.1076
 7037SOL    HW132570   4.547   0.891  13.792  0.1051 -1.0096  1.8156
 7037SOL    HW232571   4.688   0.921  13.763  2.9742  3.2929  3.5160
 7038SOL     OW32572   0.350   3.859   5.927  0.1299 -0.4211 -0.5456
 7038SOL    HW132573   0.308   3.943   5.943  0.1881 -0.5419  0.2596
 7038SOL    HW232574   0.356   3.810   6.009 -3.0879 -0.6260 -0.4490
 7039SOL     OW32575   4.023   0.422   6.011  0.5500  0.1989  0.0682
 7039SOL    HW132576   4.083   0.398   5.941 -0.4555 -0.4324 -0.5800
 7039SOL    HW232577   3.950   0.444   5.954 -0.6127  1.5923  2.0689
 7040SOL     OW32578   0.691   0.174   2.751  0.5546  0.1391 -0.1979
 7040SOL    HW132579   0.742   0.253   2.767  1.0448 -0.4024  0.8908
 7040SOL    HW232580   0.682   0.137   2.838 -0.4261 -1.7515 -1.1003
 7041SOL     OW32581   3.200   1.952   0.390  0.4393  0.1304 -0.3108
 7041SOL    HW132582   3.116   1.989   0.416  0.0502 -0.0027 -1.3673
 7041SOL    HW232583   3.255   2.006   0.446 -0.3048  0.0014  0.5565
 7042SOL     OW32584   0.161   0.877   6.988  0.6535  0.1371  0.5723
 7042SOL    HW132585   0.084   0.927   7.014 -0.9297 -2.1106  0.2687
 7042SOL    HW232586   0.149   0.807   7.053  0.6539 -2.8054 -2.6039
 7043SOL     OW32587   3.493   1.665  15.102 -0.0724 -0.7297 -0.5161
 7043SOL    HW132588   3.398   1.664  15.113  0.0556  1.6694  0.7380
 7043SOL    HW232589   3.519   1.591  15.157 -0.4602 -1.6402 -1.5647
 7044SOL     OW32590   2.237   0.317   1.331  0.0320  0.2375 -0.5083
 7044SOL    HW132591   2.260   0.234   1.289 -2.5044 -0.8556  0.3274
 7044SOL    HW232592   2.247   0.285   1.420 -1.2680  3.1841  0.6865
 7045SOL     OW32593   1.189   3.583   2.353 -0.3659  0.2772  0.0886
 7045SOL    HW132594   1.255   3.515   2.339 -0.9211 -0.5103  1.2417
 7045SOL    HW232595   1.217   3.667   2.317 -1.2863  0.7429  0.4632
 7046SOL     OW32596   3.229   0.823   8.501 -0.0283  0.0478 -1.0767
 7046SOL    HW132597   3.288   0.817   8.426  1.4819  0.8696  0.0324
 7046SOL    HW232598   3.270   0.902   8.535  0.1236 -0.3510 -0.3264
 7047SOL     OW32599   0.047   3.324   9.076  0.5038  0.3931 -0.1692
 7047SOL    HW132600   0.057   3.378   9.155 -1.4091  1.0059 -0.3479
 7047SOL    HW232601   4.675   3.351   9.055 -0.2241 -1.0994  0.9985
 7048SOL     OW32602   3.757   1.733   8.350 -0.0960  0.1386 -0.1172
 7048SOL    HW132603   3.672   1.692   8.330 -0.3434  0.1415  0.9183
 7048SOL    HW232604   3.822   1.668   8.326 -0.8205 -1.0922  1.2411
 7049SOL     OW32605   2.086   1.088   5.025 -0.3507  0.2765 -0.1660
 7049SOL    HW132606   2.142   1.155   4.985 -0.3114 -0.3632 -1.1822
 7049SOL    HW232607   2.133   1.010   4.995 -0.1701  0.4774 -0.4110
 7050SOL     OW32608   0.792   2.503   2.369 -0.1595  0.2692 -0.3482
 7050SOL    HW132609   0.790   2.408   2.355 -0.5972  0.1998  0.1847
 7050SOL    HW232610   0.878   2.526   2.334 -0.3189  1.4871  0.0650
 7051SOL     OW32611   3.754   3.145   0.152 -0.0383  0.0213  0.4816
 7051SOL    HW132612   3.689   3.211   0.175 -0.6459 -0.1047 -0.8751
 7051SOL    HW232613   3.730   3.130   0.060 -2.3372 -1.3491  1.3217
 7052SOL     OW32614   2.851   2.207   1.813 -0.3875  0.0668  0.0057
 7052SOL    HW132615   2.773   2.209   1.757 -0.9339 -1.4618  0.7111
 7052SOL    HW232616   2.837   2.286   1.864  1.2430  0.9424 -0.9137
 7053SOL     OW32617   0.223   2.914   1.834  0.2353  0.0117  0.2666
 7053SOL    HW132618   0.241   2.870   1.751 -1.6609 -2.9807  1.4679
 7053SOL    HW232619   0.266   2.998   1.817  0.1938 -0.0364 -0.0724
 7054SOL     OW32620   2.618   0.968   9.524 -0.2481 -0.1908 -0.2714
 7054SOL    HW132621   2.599   0.990   9.615 -0.2331  0.0325 -0.3219
 7054SOL    HW232622   2.699   0.919   9.537  0.7803  1.1039 -1.7094
 7055SOL     OW32623   2.344   2.221  16.321  0.2478  0.2959  0.2830
 7055SOL    HW132624   2.341   2.298  16.265  2.3178  0.3307  0.2379
 7055SOL    HW232625   2.422   2.235  16.375  0.4999  1.2723 -0.3291
 7056SOL     OW32626   1.498   2.739   3.402 -0.1390  0.0878  0.3454
 7056SOL    HW132627   1.577   2.788   3.425 -0.2397  0.2862  0.2736
 7056SOL    HW232628   1.442   2.742   3.480 -0.5069  0.5079  0.0700
 7057SOL     OW32629   4.349   1.381   1.457  0.6007 -0.4909  0.4556
 7057SOL    HW132630   4.329   1.336   1.375  3.1362 -0.2727 -0.3125
 7057SOL    HW232631   4.392   1.461   1.425 -0.2914 -0.7193 -1.3013
 7058SOL     OW32632   2.494   1.815   3.094  0.7916  0.2967 -1.0893
 7058SOL    HW132633   2.453   1.728   3.100  1.3058  0.2864  2.0632
 7058SOL    HW232634   2.515   1.825   3.186 -1.6732  0.0248 -0.4973
 7059SOL     OW32635   2.351   1.759   6.833 -0.5720 -0.4604  0.5399
 7059SOL    HW132636   2.432   1.810   6.830 -1.1208  0.4275  0.4624
 7059SOL    HW232637   2.364   1.681   6.780 -0.9083 -0.3179  0.2478
 7060SOL     OW32638   1.095   0.785   3.716  0.1383  0.6962 -0.0105
 7060SOL    HW132639   1.036   0.709   3.713  2.5229 -1.2375  1.6941
 7060SOL    HW232640   1.068   0.831   3.637 -2.2393 -1.0178 -0.1989
 7061SOL     OW32641   3.355   0.132   2.274  0.4599  0.5791  0.6557
 7061SOL    HW132642   3.404   0.084   2.207 -2.3069 -2.1890  0.6233
 7061SOL    HW232643   3.270   0.153   2.236  0.5808 -1.9315 -1.0166
 7062SOL     OW32644   4.343   1.366   1.949 -0.0911  0.0508 -0.3826
 7062SOL    HW132645   4.294   1.402   1.875  3.6656  1.6924 -2.1028
 7062SOL    HW232646   4.411   1.311   1.909  0.1700 -0.7066  1.1008
 7063SOL     OW32647   3.848   0.590   4.913  0.4628 -0.0762  0.0090
 7063SOL    HW132648   3.773   0.558   4.863 -1.2119  2.2856  0.9895
 7063SOL    HW232649   3.915   0.601   4.846  0.0720  0.6232 -0.2678
 7064SOL     OW32650   0.272   2.702   2.627  0.5712  0.0512  0.0729
 7064SOL    HW132651   0.266   2.740   2.539  0.8005  0.2082  0.1258
 7064SOL    HW232652   0.181   2.678   2.644 -0.1440  0.7805 -2.7191
 7065SOL     OW32653   2.650   2.305  17.048  0.0210 -0.5280 -0.9514
 7065SOL    HW132654   2.694   2.231  17.088 -0.1242  0.2861  0.7371
 7065SOL    HW232655   2.573   2.306  17.104  0.5760 -0.4829 -0.1928
 7066SOL     OW32656   2.575   3.712  12.731 -0.0918  0.6276 -0.1696
 7066SOL    HW132657   2.598   3.648  12.798  2.6953 -0.6964 -2.4137
 7066SOL    HW232658   2.630   3.677  12.661  0.3244 -0.7424  0.8504
 7067SOL     OW32659   3.949   2.376   4.739  0.0698 -0.3793 -0.4407
 7067SOL    HW132660   3.885   2.381   4.668  0.5474  1.6064 -0.7159
 7067SOL    HW232661   4.027   2.363   4.685  0.8422  0.2059  0.5287
 7068SOL     OW32662   1.298   4.263   6.422 -0.0195  0.2350 -0.0950
 7068SOL    HW132663   1.317   4.182   6.469  0.4767  0.2594 -0.2535
 7068SOL    HW232664   1.369   4.264   6.358 -0.5831  1.7377 -0.6879
 7069SOL     OW32665   2.084   3.280   5.083 -0.5727 -0.7686  0.4397
 7069SOL    HW132666   2.103   3.374   5.077 -1.5639 -0.6078 -0.1294
 7069SOL    HW232667   2.116   3.248   5.168  0.5469 -3.8155 -1.1044
 7070SOL     OW32668   0.281   0.082   1.693  0.0689  0.2586  0.2955
 7070SOL    HW132669   0.310   0.076   1.784  0.8667 -1.6286 -0.0833
 7070SOL    HW232670   0.246   4.712   1.677  0.9363 -0.2184  1.0153
 7071SOL     OW32671   3.799   4.716  10.231  0.0038  0.1980  0.3236
 7071SOL    HW132672   3.732   0.064  10.250  1.8536  2.0025  0.6997
 7071SOL    HW232673   3.871   0.018  10.292  1.4498 -0.5580 -1.1247
 7072SOL     OW32674   2.402   3.354  16.246 -0.0902 -0.3349  0.6140
 7072SOL    HW132675   2.473   3.402  16.289 -0.2941  2.1214 -1.7492
 7072SOL    HW232676   2.331   3.408  16.281 -1.1243  0.0048 -2.0278
 7073SOL     OW32677   0.848   2.302  14.167  0.1880 -0.0343 -0.0124
 7073SOL    HW132678   0.915   2.235  14.183  1.1566  0.1175 -3.4990
 7073SOL    HW232679   0.774   2.261  14.124 -0.3138  1.6143 -0.7415
 7074SOL     OW32680   0.487   0.762   1.782 -0.3264  0.2139 -0.2862
 7074SOL    HW132681   0.534   0.756   1.698  0.9324 -0.9190  0.4971
 7074SOL    HW232682   0.566   0.772   1.834 -0.0730 -1.6930 -0.2991
 7075SOL     OW32683   3.900   2.988   5.764  0.6307 -0.2369  0.2194
 7075SOL    HW132684   3.944   2.904   5.746 -0.8314 -0.7235 -1.1431
 7075SOL    HW232685   3.809   2.963   5.780  0.1265  2.1192  1.0396
 7076SOL     OW32686   3.420   4.254  10.719  0.2399 -0.1051  0.7629
 7076SOL    HW132687   3.378   4.250  10.632 -0.8126 -1.3002  1.3197
 7076SOL    HW232688   3.472   4.334  10.716 -2.4706  1.6188 -1.1656
 7077SOL     OW32689   3.584   0.282  14.728  0.0872 -0.8135  0.2189
 7077SOL    HW132690   3.532   0.313  14.802  0.2805  2.2165 -0.9041
 7077SOL    HW232691   3.670   0.273  14.769  0.7126 -2.4582 -1.4391
 7078SOL     OW32692   3.489   2.284  14.287  0.3281 -0.0720 -0.0250
 7078SOL    HW132693   3.489   2.232  14.207  0.4257 -1.3376  0.8099
 7078SOL    HW232694   3.543   2.357  14.257  0.2215 -0.5157 -1.2845
 7079SOL     OW32695   1.372   2.931   7.891  0.3583  0.2212 -0.0152
 7079SOL    HW132696   1.353   3.017   7.928  0.4140 -0.0466  0.6365
 7079SOL    HW232697   1.280   2.907   7.877  0.3127 -0.4850  1.5143
 7080SOL     OW32698   0.628   0.816   4.205 -0.5661 -0.3669  0.4049
 7080SOL    HW132699   0.617   0.910   4.217 -0.0912 -0.0045 -2.0565
 7080SOL    HW232700   0.706   0.798   4.257 -0.7871 -1.4879  0.3517
 7081SOL     OW32701   0.071   4.710  14.525 -0.0936 -0.8017  0.2207
 7081SOL    HW132702   0.072   0.067  14.466  0.5499  0.2396  1.5351
 7081SOL    HW232703   0.161   4.700  14.555 -0.3576  1.4208  1.7686
 7082SOL     OW32704   4.211   2.349   7.707  0.0866 -0.3132  0.2183
 7082SOL    HW132705   4.132   2.306   7.677  0.2382  0.5267 -1.4122
 7082SOL    HW232706   4.252   2.399   7.637 -0.1198  0.8712  0.9420
 7083SOL     OW32707   2.706   0.973   2.717  0.2399 -0.1517 -0.5427
 7083SOL    HW132708   2.711   1.059   2.676 -1.4003 -0.2116 -0.8510
 7083SOL    HW232709   2.613   0.966   2.738  0.8269  0.6271  2.3444
 7084SOL     OW32710   3.236   3.429   8.776  0.2672  0.5906  0.5336
 7084SOL    HW132711   3.313   3.374   8.760 -0.2605 -0.1079  0.4123
 7084SOL    HW232712   3.197   3.388   8.853  0.8317  0.1197  0.5639
 7085SOL     OW32713   1.293   2.648  14.189  0.5959  0.1191 -0.5602
 7085SOL    HW132714   1.238   2.650  14.110  1.6429 -2.7285 -1.3968
 7085SOL    HW232715   1.328   2.736  14.200  1.1835  0.0320 -1.7648
 7086SOL     OW32716   2.753   1.639   0.828  0.1794  0.1559  0.1673
 7086SOL    HW132717   2.840   1.670   0.852  1.3239 -3.3242  0.5358
 7086SOL    HW232718   2.717   1.592   0.904  2.8513  1.3707  2.1853
 7087SOL     OW32719   0.450   0.133   5.065 -0.1681 -0.0447 -0.1135
 7087SOL    HW132720   0.384   0.202   5.060 -0.6761 -0.6878 -1.9052
 7087SOL    HW232721   0.496   0.163   5.144 -0.3731 -2.2761  0.8558
 7088SOL     OW32722   0.683   3.726   4.520 -0.6829  0.1201  0.3755
 7088SOL    HW132723   0.758   3.771   4.559 -0.6620  1.0276 -0.7295
 7088SOL    HW232724   0.614   3.778   4.561 -1.5632 -3.0492  2.9309
 7089SOL     OW32725   1.237   1.555  16.881 -0.3656 -0.8462  0.1040
 7089SOL    HW132726   1.169   1.519  16.824 -0.0965 -1.6838  0.3115
 7089SOL    HW232727   1.190   1.546  16.964  1.7448  1.3586  1.5249
 7090SOL     OW32728   2.643   2.665  13.055 -0.3134 -0.0579  0.2192
 7090SOL    HW132729   2.576   2.723  13.091  1.1403  3.2871 -2.5359
 7090SOL    HW232730   2.717   2.701  13.105  0.1873  0.1046 -0.6405
 7091SOL     OW32731   4.440   4.422   8.190 -0.6537  0.1657  0.5734
 7091SOL    HW132732   4.485   4.390   8.112 -1.0343  0.0187  0.4177
 7091SOL    HW232733   4.354   4.435   8.150 -0.3436 -2.3145 -0.8811
 7092SOL     OW32734   1.087   0.640  16.325 -0.3940 -0.3737  0.3163
 7092SOL    HW132735   1.119   0.685  16.247  0.9777 -0.6358  0.7299
 7092SOL    HW232736   1.155   0.665  16.387  0.3242 -0.0662 -0.5930
 7093SOL     OW32737   1.690   3.460   0.908  0.1163  0.4877 -0.3612
 7093SOL    HW132738   1.645   3.426   0.831 -0.2998 -1.7018  0.8738
 7093SOL    HW232739   1.710   3.553   0.892  0.2347  0.6958  0.9418
 7094SOL     OW32740   0.904   1.247   5.840 -0.0115 -0.5913 -0.2632
 7094SOL    HW132741   0.902   1.283   5.751 -1.4251  0.5768  0.2465
 7094SOL    HW232742   0.992   1.216   5.858 -0.0729 -0.7285 -0.1936
 7095SOL     OW32743   1.755   1.526   7.983  0.7538 -0.2093  0.0461
 7095SOL    HW132744   1.809   1.558   8.055  0.5385  1.4875 -0.5402
 7095SOL    HW232745   1.714   1.609   7.958  1.0669 -0.6352 -1.9143
 7096SOL     OW32746   0.702   2.065   6.745  0.1321 -0.3139  0.2765
 7096SOL    HW132747   0.747   2.142   6.709 -1.5593  0.8633  0.6698
 7096SOL    HW232748   0.738   2.071   6.834  0.0652 -2.6849  0.4404
 7097SOL     OW32749   0.080   3.124   3.035 -0.1248 -0.3512  0.4376
 7097SOL    HW132750   0.053   3.035   3.061 -1.6509 -0.2108 -0.6638
 7097SOL    HW232751   0.111   3.112   2.946 -0.1475 -0.4864  0.4468
 7098SOL     OW32752   4.138   1.161  15.878  0.2443  0.1298  0.1039
 7098SOL    HW132753   4.215   1.195  15.923  0.2601  0.9890 -0.5523
 7098SOL    HW232754   4.091   1.244  15.888 -0.5099 -0.2573 -0.2447
 7099SOL     OW32755   3.430   2.532   1.256  0.0848 -0.3694 -0.4870
 7099SOL    HW132756   3.344   2.497   1.231 -0.1394  0.6427 -1.1404
 7099SOL    HW232757   3.410   2.626   1.254 -0.4176 -0.4875 -0.9869
 7100SOL     OW32758   4.465   1.172   5.954  0.4327  0.1561  0.0765
 7100SOL    HW132759   4.411   1.242   5.918  2.5507  0.8369 -1.7316
 7100SOL    HW232760   4.450   1.095   5.899 -0.0105  0.1337  0.2228
 7101SOL     OW32761   2.176   1.348  14.491 -0.5155  0.3055  0.3790
 7101SOL    HW132762   2.250   1.292  14.471  0.1542  0.5550  2.1273
 7101SOL    HW232763   2.128   1.338  14.409 -1.3579  3.0845  0.5049
 7102SOL     OW32764   4.668   0.053  16.556 -0.0381  0.0081 -0.2490
 7102SOL    HW132765   4.617   4.690  16.559 -0.2085  0.0624 -1.6882
 7102SOL    HW232766   4.703   0.057  16.467 -1.2033 -2.3836 -0.8060
 7103SOL     OW32767   1.661   1.729   4.168  0.0842  0.5399 -0.1329
 7103SOL    HW132768   1.645   1.641   4.201 -0.9520  0.5675 -0.5511
 7103SOL    HW232769   1.578   1.768   4.196 -0.3793  0.2363 -1.0844
 7104SOL     OW32770   0.013   1.331  14.679  0.3225 -0.4810  0.2303
 7104SOL    HW132771   4.665   1.393  14.649  1.2843 -0.0979 -1.0821
 7104SOL    HW232772   4.686   1.246  14.671  1.0362 -0.9308  1.0853
 7105SOL     OW32773   3.175   0.826  13.405  0.3536  0.3813 -0.4633
 7105SOL    HW132774   3.210   0.792  13.487 -0.8468 -0.4098 -0.2934
 7105SOL    HW232775   3.186   0.758  13.339  1.4449  0.6802 -0.5964
 7106SOL     OW32776   4.472   2.619   3.022  0.0330  0.3757  0.1186
 7106SOL    HW132777   4.387   2.650   2.988  0.0096 -0.4494 -0.5800
 7106SOL    HW232778   4.509   2.698   3.060 -0.2255 -1.0051  3.2162
 7107SOL     OW32779   4.521   4.541   1.915 -0.0724  0.1556  0.2830
 7107SOL    HW132780   4.547   4.617   1.864 -0.3792  0.5258  0.6803
 7107SOL    HW232781   4.582   4.549   1.989  1.3877  2.3072 -1.1952
 7108SOL     OW32782   1.302   3.418   6.614  0.0929 -0.2032 -0.0963
 7108SOL    HW132783   1.242   3.477   6.660  2.1488  2.1987 -0.5059
 7108SOL    HW232784   1.280   3.335   6.655 -1.4463  0.1948 -0.0853
 7109SOL     OW32785   4.148   1.585  16.568 -0.1822  0.6448  0.7639
 7109SOL    HW132786   4.137   1.595  16.663  1.1088  2.0242  0.7567
 7109SOL    HW232787   4.174   1.673  16.542  1.4050  0.9179  3.2785
 7110SOL     OW32788   0.530   0.151   9.484  0.3493 -1.0333  0.4367
 7110SOL    HW132789   0.541   0.246   9.477 -2.5250 -0.7916 -0.6986
 7110SOL    HW232790   0.542   0.134   9.578  0.3256  1.8837  0.9945
 7111SOL     OW32791   3.463   0.246   8.242  0.0312 -0.0183  0.1759
 7111SOL    HW132792   3.509   0.164   8.262 -1.8641 -1.0634  0.2294
 7111SOL    HW232793   3.419   0.271   8.323  0.2732 -0.9385  0.5950
 7112SOL     OW32794   0.116   1.303   3.131 -0.4797 -0.2455 -0.0918
 7112SOL    HW132795   0.164   1.242   3.186 -1.2255  0.2779  1.1262
 7112SOL    HW232796   0.157   1.291   3.045 -2.2560  2.6170 -1.3568
 7113SOL     OW32797   2.983   2.604   9.327 -0.2967 -0.1795 -0.3914
 7113SOL    HW132798   2.905   2.568   9.368 -0.2714 -1.1091 -1.1553
 7113SOL    HW232799   2.949   2.678   9.277 -2.0416 -0.7264 -0.0047
 7114SOL     OW32800   4.597   0.774  14.045  0.6217 -0.4391 -0.2823
 7114SOL    HW132801   4.616   0.808  13.957 -0.9680  0.0461 -0.4417
 7114SOL    HW232802   4.501   0.783  14.041  0.5533 -1.2293 -0.3901
 7115SOL     OW32803   0.500   3.851   6.325 -0.3824 -0.4789  0.0393
 7115SOL    HW132804   0.549   3.918   6.372 -2.5607  0.4605  0.9633
 7115SOL    HW232805   0.564   3.781   6.318 -0.0956 -0.3776  1.7311
 7116SOL     OW32806   3.274   2.025  11.354  0.3102  0.1864 -0.4074
 7116SOL    HW132807   3.266   1.935  11.385  1.4704 -0.3024 -1.5282
 7116SOL    HW232808   3.202   2.062  11.404  2.1065  1.8328  0.9553
 7117SOL     OW32809   1.430   0.080   5.370  0.5803 -0.0277 -0.1138
 7117SOL    HW132810   1.439   4.709   5.336  1.4113 -0.5707  1.5347
 7117SOL    HW232811   1.458   0.062   5.459  1.4947  0.9910 -0.1918
 7118SOL     OW32812   4.545   4.421   6.284  0.3247 -0.5215 -0.6378
 7118SOL    HW132813   4.578   4.463   6.205  0.6375 -0.2154 -0.3407
 7118SOL    HW232814   4.536   4.505   6.328 -0.8888 -1.5712  1.1489
 7119SOL     OW32815   3.879   3.654  12.443 -0.1650 -0.3340  0.5632
 7119SOL    HW132816   3.902   3.715  12.513  0.4568 -0.7978  0.7700
 7119SOL    HW232817   3.953   3.596  12.461  0.1998  0.5261  1.8503
 7120SOL     OW32818   1.818   0.220  13.114  0.0669 -0.1086 -0.4596
 7120SOL    HW132819   1.840   0.155  13.181 -0.2101  0.7200  0.4283
 7120SOL    HW232820   1.852   0.297  13.159 -1.6307 -0.1303  0.8658
 7121SOL     OW32821   2.982   0.077   0.763 -0.2357 -0.4743  0.0357
 7121SOL    HW132822   2.945   0.166   0.761 -1.6840 -1.0565  1.1655
 7121SOL    HW232823   2.921   0.019   0.808 -0.1185  2.7652  4.4270
 7122SOL     OW32824   0.836   1.644   9.328  0.0118 -1.0049  0.2272
 7122SOL    HW132825   0.912   1.700   9.344  1.2316 -2.5430 -0.1409
 7122SOL    HW232826   0.876   1.565   9.364  3.7214  0.6034 -0.3931
 7123SOL     OW32827   2.264   0.832   3.229 -0.0025  0.1727  0.5105
 7123SOL    HW132828   2.340   0.838   3.287  0.9633 -1.9959 -0.5274
 7123SOL    HW232829   2.188   0.817   3.285 -0.9152  0.3523 -0.6859
 7124SOL     OW32830   4.706   3.531   6.617 -0.0188 -0.6705 -0.4901
 7124SOL    HW132831   4.704   3.442   6.581  0.0990 -0.9373  0.1582
 7124SOL    HW232832   4.638   3.574   6.565  0.5039  0.7892  0.0432
 7125SOL     OW32833   2.831   3.617   4.894  0.6625  0.5195 -0.0088
 7125SOL    HW132834   2.822   3.540   4.949 -1.6127  3.1195  3.2655
 7125SOL    HW232835   2.755   3.664   4.928 -0.2792  0.3201 -1.8287
 7126SOL     OW32836   2.909   0.185   5.307 -0.2841  0.3512 -0.0152
 7126SOL    HW132837   2.970   0.155   5.239 -0.1398 -0.2358  0.3725
 7126SOL    HW232838   2.835   0.126   5.298 -0.5171  0.9028 -1.7013
 7127SOL     OW32839   4.030   1.756   7.415 -0.0437 -0.2665  0.2648
 7127SOL    HW132840   4.108   1.771   7.468 -1.7405 -0.7029  2.9267
 7127SOL    HW232841   3.956   1.773   7.474 -2.3567  0.4080 -2.8343
 7128SOL     OW32842   0.731   3.718   6.213 -0.2127  0.4702  0.3701
 7128SOL    HW132843   0.748   3.684   6.126 -1.2886 -0.7463  0.6341
 7128SOL    HW232844   0.801   3.779   6.238  0.7241  0.4289 -2.2212
 7129SOL     OW32845   2.197   1.077   8.025  0.2813 -0.1996  0.2568
 7129SOL    HW132846   2.151   1.144   8.075  1.8768  0.9838  0.1529
 7129SOL    HW232847   2.247   1.034   8.094  1.4533 -0.5744 -0.8277
 7130SOL     OW32848   1.021   0.357  16.541  0.2855  0.1628  0.4292
 7130SOL    HW132849   0.935   0.389  16.569  0.4040 -0.8045  1.9029
 7130SOL    HW232850   1.039   0.275  16.587 -0.4401  0.8646  1.9623
 7131SOL     OW32851   2.933   3.600  13.197  0.0238  0.1037 -0.2263
 7131SOL    HW132852   2.910   3.521  13.148 -1.4423  0.2897  0.1469
 7131SOL    HW232853   2.867   3.660  13.161 -0.8832 -0.5518  0.3197
 7132SOL     OW32854   4.702   1.898  16.035  0.4692 -0.3027  0.6072
 7132SOL    HW132855   4.626   1.848  16.065 -0.1287 -0.5289 -1.2845
 7132SOL    HW232856   0.044   1.907  16.110  2.2437  0.1800 -0.8649
 7133SOL     OW32857   2.810   4.287   3.454 -0.3324  0.4927  0.0553
 7133SOL    HW132858   2.811   4.382   3.439  0.4180  0.7347  1.6699
 7133SOL    HW232859   2.901   4.264   3.471 -0.2350  0.3036 -0.7171
 7134SOL     OW32860   4.340   1.894   2.810  0.0103  0.5383  0.3616
 7134SOL    HW132861   4.269   1.858   2.757 -0.0335 -0.1236  0.8807
 7134SOL    HW232862   4.315   1.862   2.896 -0.4874  0.8718  0.3374
 7135SOL     OW32863   3.628   1.523   6.103  0.2334 -0.5068  0.0607
 7135SOL    HW132864   3.617   1.489   6.191  0.6117  0.5473  0.5145
 7135SOL    HW232865   3.591   1.452   6.050  0.8187 -2.0624  1.7239
 7136SOL     OW32866   2.505   1.810   0.693  0.4475  0.3546 -0.0511
 7136SOL    HW132867   2.479   1.763   0.614  3.4179  2.8221 -2.5187
 7136SOL    HW232868   2.599   1.795   0.683  0.7118  1.4954  0.7162
 7137SOL     OW32869   0.740   3.745   7.219 -0.6700 -0.5323 -0.5599
 7137SOL    HW132870   0.826   3.756   7.261  0.2171  0.4104 -2.6214
 7137SOL    HW232871   0.719   3.652   7.224  0.4918 -0.8231 -1.0275
 7138SOL     OW32872   2.971   0.740   4.616 -0.0733  0.3094 -0.3930
 7138SOL    HW132873   3.022   0.708   4.541 -0.7082 -3.5182  0.8488
 7138SOL    HW232874   2.880   0.713   4.603 -0.2243  0.6909 -0.1200
 7139SOL     OW32875   2.959   4.347   7.034 -0.6807  0.7408 -0.3028
 7139SOL    HW132876   2.909   4.266   7.019  0.1549  0.3167 -0.8351
 7139SOL    HW232877   2.935   4.390   6.952 -0.4984 -1.3543 -1.4577
 7140SOL     OW32878   3.966   3.638   4.352 -0.2398 -0.1545  0.0360
 7140SOL    HW132879   3.963   3.606   4.442 -1.7797  0.1862  0.1099
 7140SOL    HW232880   3.963   3.732   4.369  0.9935 -0.3959  1.5681
 7141SOL     OW32881   2.310   1.638   4.425  0.6305  0.3571  0.3374
 7141SOL    HW132882   2.219   1.607   4.427  0.3665  1.2324  1.6934
 7141SOL    HW232883   2.319   1.672   4.514  3.4991 -0.0588  0.2176
 7142SOL     OW32884   0.556   4.625   7.527 -0.1042 -0.4292  0.2699
 7142SOL    HW132885   0.469   4.659   7.547 -0.3185 -1.9638  1.8818
 7142SOL    HW232886   0.568   4.554   7.589  2.8622  0.2452  0.5004
 7143SOL     OW32887   3.514   4.416   9.369  0.6959  0.6068 -0.4649
 7143SOL    HW132888   3.607   4.403   9.388  0.5022 -1.2851 -0.8096
 7143SOL    HW232889   3.507   4.510   9.387  1.0986  0.5676 -0.1145
 7144SOL     OW32890   4.536   3.482   3.817  0.3192  0.0543  0.4195
 7144SOL    HW132891   4.507   3.430   3.742 -1.0142  0.9193  0.3348
 7144SOL    HW232892   4.470   3.549   3.799 -0.0640 -1.0520 -2.2949
 7145SOL     OW32893   1.320   1.279   1.170 -0.3650 -0.1385 -0.6904
 7145SOL    HW132894   1.294   1.187   1.164  0.3436 -0.3502 -0.5010
 7145SOL    HW232895   1.298   1.311   1.082 -2.6274  1.6201  0.5151
 7146SOL     OW32896   1.197   2.789   4.189  0.7842  0.3566  0.0125
 7146SOL    HW132897   1.215   2.784   4.283 -0.2011  1.9423  0.2853
 7146SOL    HW232898   1.260   2.724   4.159 -1.2311 -1.7329  0.2461
 7147SOL     OW32899   0.890   4.337  17.606  0.2205  0.0994 -0.0976
 7147SOL    HW132900   0.911   4.244  17.619  0.4391  0.2663  0.7254
 7147SOL    HW232901   0.954   4.372  17.667  0.2326  1.3219 -0.8027
 7148SOL     OW32902   1.326   0.116   8.480 -1.0769  0.1213 -0.8476
 7148SOL    HW132903   1.397   0.110   8.416 -0.8833 -1.3329 -0.4892
 7148SOL    HW232904   1.263   0.053   8.446 -1.4629  0.0017  0.0791
 7149SOL     OW32905   3.894   4.008  11.469  0.3296  0.2529  0.0197
 7149SOL    HW132906   3.803   3.984  11.455 -0.3707  1.1999  2.9364
 7149SOL    HW232907   3.890   4.065  11.546 -1.5371  2.4357 -1.6932
 7150SOL     OW32908   2.583   1.222   5.919 -0.6537 -0.2551 -0.6347
 7150SOL    HW132909   2.665   1.273   5.918 -0.2933 -0.8804 -3.4603
 7150SOL    HW232910   2.534   1.277   5.857 -1.7037 -1.2928 -0.7061
 7151SOL     OW32911   2.477   0.577   2.925  0.0408 -0.5416  0.0558
 7151SOL    HW132912   2.540   0.547   2.860  0.0513 -1.7935  0.6335
 7151SOL    HW232913   2.531   0.648   2.960  1.7394 -2.7566  1.8983
 7152SOL     OW32914   2.868   0.416   9.365  0.1144  0.7469  0.2092
 7152SOL    HW132915   2.826   0.501   9.383 -1.6669 -0.1005  0.0216
 7152SOL    HW232916   2.799   0.350   9.372  1.2409 -0.3470  0.9145
 7153SOL     OW32917   4.296   0.780   1.677 -0.5093  0.3456 -0.3152
 7153SOL    HW132918   4.341   0.824   1.749 -0.9933  0.7156 -0.2406
 7153SOL    HW232919   4.315   0.690   1.705 -0.5109  0.7394  0.9637
 7154SOL     OW32920   3.818   0.334   0.946  0.5030  0.0937 -0.6687
 7154SOL    HW132921   3.830   0.292   1.031 -0.3024 -0.0797 -0.6491
 7154SOL    HW232922   3.904   0.313   0.909  0.4740  0.8647 -1.1741
 7155SOL     OW32923   2.745   2.855   8.175 -0.0532  0.4452 -0.1838
 7155SOL    HW132924   2.729   2.949   8.167  1.9264  0.8396  0.4867
 7155SOL    HW232925   2.674   2.812   8.126 -0.7984  0.5783  0.7663
 7156SOL     OW32926   2.934   1.907   6.858  0.0875 -0.4552  0.0491
 7156SOL    HW132927   2.981   1.912   6.942  0.0438  0.4299  0.0277
 7156SOL    HW232928   3.010   1.896   6.800  1.3383 -0.2846  1.6408
 7157SOL     OW32929   4.127   3.068   6.233 -0.0522  0.1086  0.7689
 7157SOL    HW132930   4.197   3.003   6.226 -0.5796 -0.2248 -1.6281
 7157SOL    HW232931   4.055   3.018   6.193  0.6938 -1.9310  2.0274
 7158SOL     OW32932   0.534   2.306   4.137  0.2190  0.0791 -0.0575
 7158SOL    HW132933   0.444   2.274   4.129  0.1664  0.1708  0.1634
 7158SOL    HW232934   0.552   2.319   4.044 -0.3676 -1.9471 -0.4705
 7159SOL     OW32935   3.361   0.092  12.476  0.0720  0.5027 -0.1701
 7159SOL    HW132936   3.277   0.068  12.517 -0.8002  3.1097 -0.4067
 7159SOL    HW232937   3.400   0.006  12.459 -0.6577  0.1742 -0.1929
 7160SOL     OW32938   4.521   0.770   7.930 -0.5164  0.3581  0.1729
 7160SOL    HW132939   4.580   0.810   7.866  0.1692 -1.5604 -0.4136
 7160SOL    HW232940   4.501   0.834   7.999  0.2075  1.6290 -0.7999
 7161SOL     OW32941   2.338   0.924   4.784 -0.4120  0.4673  0.0555
 7161SOL    HW132942   2.365   0.854   4.843 -2.2787  0.6730  1.1564
 7161SOL    HW232943   2.419   0.975   4.776  0.4337 -1.1455 -1.4178
 7162SOL     OW32944   3.003   4.247   6.669  0.0947 -0.1969 -0.2475
 7162SOL    HW132945   2.983   4.336   6.698 -1.9513 -0.4692 -0.8135
 7162SOL    HW232946   2.931   4.193   6.701  0.7144 -0.2339  1.0756
 7163SOL     OW32947   3.839   3.324   1.822 -0.2816  0.4229  0.1145
 7163SOL    HW132948   3.933   3.321   1.806 -0.3736 -0.0377 -0.3211
 7163SOL    HW232949   3.822   3.330   1.916 -0.5319 -0.1849  0.1108
 7164SOL     OW32950   3.711   4.409  17.167 -0.0730  0.6421 -0.2799
 7164SOL    HW132951   3.783   4.360  17.128  2.6211  1.3320  3.8209
 7164SOL    HW232952   3.639   4.347  17.156  0.7883 -0.0924 -1.7693
 7165SOL     OW32953   0.352   3.089   6.762  0.2526 -0.0771  0.0267
 7165SOL    HW132954   0.418   3.065   6.697  0.2184 -0.3843  0.1069
 7165SOL    HW232955   0.281   3.026   6.749 -1.2510  1.4077  1.0144
 7166SOL     OW32956   3.093   3.456  16.773  0.0623 -0.1044  0.1643
 7166SOL    HW132957   3.028   3.481  16.839 -1.7161  0.5336 -1.8495
 7166SOL    HW232958   3.093   3.362  16.786  0.7567 -0.0225  0.7850
 7167SOL     OW32959   0.310   4.027   2.359 -0.0539  0.1552 -0.4497
 7167SOL    HW132960   0.272   3.981   2.285 -3.7177 -2.0207  2.7998
 7167SOL    HW232961   0.244   4.012   2.426  1.3818 -2.2301  0.3964
 7168SOL     OW32962   1.859   3.950   9.242  0.2718  0.0923 -0.3908
 7168SOL    HW132963   1.840   3.904   9.160  1.2082 -0.4738 -0.2918
 7168SOL    HW232964   1.836   3.892   9.314  0.4218  0.6090  0.0737
 7169SOL     OW32965   4.398   1.938   5.278  0.2874  0.0315 -0.1080
 7169SOL    HW132966   4.475   1.907   5.326  0.6815  1.1649 -0.0174
 7169SOL    HW232967   4.357   1.969   5.359  1.2332  1.1748 -0.0742
 7170SOL     OW32968   0.847   4.219   7.863 -0.2363  0.2075 -0.2809
 7170SOL    HW132969   0.875   4.137   7.904 -0.9678 -0.9785 -2.1539
 7170SOL    HW232970   0.882   4.198   7.777 -0.1899 -1.2970  0.0995
 7171SOL     OW32971   2.866   1.937   6.411 -0.0732 -0.2173  0.5502
 7171SOL    HW132972   2.795   1.920   6.473  0.0305  1.9970  1.2707
 7171SOL    HW232973   2.847   2.028   6.392 -0.2382 -0.8369 -2.2811
 7172SOL     OW32974   0.324   4.572   7.277 -0.3838  0.6017  0.2936
 7172SOL    HW132975   0.379   4.555   7.200 -0.4720  1.1627  0.1092
 7172SOL    HW232976   0.290   4.659   7.260 -1.7985 -0.2464 -1.2329
 7173SOL     OW32977   4.528   2.824   6.566  0.0668 -0.1532 -0.5043
 7173SOL    HW132978   4.560   2.861   6.483 -2.1078  1.0062 -0.8113
 7173SOL    HW232979   4.494   2.894   6.621 -0.2434 -2.3256  2.1020
 7174SOL     OW32980   0.533   2.758   2.140  0.5344  0.5250  0.0708
 7174SOL    HW132981   0.456   2.747   2.084 -0.4297  2.9793  0.9125
 7174SOL    HW232982   0.562   2.671   2.167  0.0631  0.2929 -0.1834
 7175SOL     OW32983   4.566   3.414   6.264 -0.4130 -0.3268 -0.5104
 7175SOL    HW132984   4.620   3.418   6.343 -0.8365 -0.0211 -0.2370
 7175SOL    HW232985   4.534   3.325   6.254  1.0757 -1.0289  1.0718
 7176SOL     OW32986   1.666   0.283   1.195 -0.0666 -0.2400  0.0662
 7176SOL    HW132987   1.582   0.321   1.222  0.4976  1.5565 -0.7401
 7176SOL    HW232988   1.693   0.349   1.131  0.7589 -0.6162  0.0229
 7177SOL     OW32989   2.633   3.389   4.997 -0.1526 -0.1048 -0.2246
 7177SOL    HW132990   2.605   3.447   5.067  2.5671 -0.4835  1.1792
 7177SOL    HW232991   2.588   3.313   5.034 -0.0187 -0.1901 -0.2356
 7178SOL     OW32992   0.880   1.933   3.943  0.3527  0.2140 -0.1431
 7178SOL    HW132993   0.927   1.901   4.020 -1.4188  1.7805  1.5956
 7178SOL    HW232994   0.877   1.851   3.894 -1.3140 -1.5740  2.9690
 7179SOL     OW32995   0.748   3.294   1.880 -0.1065 -0.0864 -0.0106
 7179SOL    HW132996   0.787   3.299   1.967 -1.4988  1.7066  0.5114
 7179SOL    HW232997   0.750   3.199   1.875 -1.8960 -0.0553 -1.4235
 7180SOL     OW32998   1.238   2.635   8.538  0.0982  0.3860 -0.1572
 7180SOL    HW132999   1.256   2.598   8.624 -0.1782  1.2387  0.2688
 7180SOL    HW233000   1.300   2.591   8.480  1.7187 -1.0763  2.6955
 7181SOL     OW33001   0.009   2.205   0.051 -0.2047 -0.4730  0.4317
 7181SOL    HW133002   0.091   2.160   0.030  0.2226  1.3041 -1.7029
 7181SOL    HW233003   0.033   2.250   0.132  2.2272  1.8090 -1.5712
 7182SOL     OW33004   3.444   2.757   4.967  0.2800  0.1190 -0.3681
 7182SOL    HW133005   3.381   2.815   4.924 -1.1204  0.5994  2.3538
 7182SOL    HW233006   3.521   2.813   4.953  0.4282 -0.1434 -0.5906
 7183SOL     OW33007   0.482   0.539   8.339  0.3431  0.6730  0.8114
 7183SOL    HW133008   0.422   0.547   8.413 -0.8921  1.0241 -0.2324
 7183SOL    HW233009   0.498   0.445   8.339 -0.1206  0.5951  1.1248
 7184SOL     OW33010   0.826   4.712   3.121 -0.2298  0.2147 -0.0061
 7184SOL    HW133011   0.839   0.089   3.130 -0.2475  0.1599  0.5772
 7184SOL    HW233012   0.916   4.683   3.107 -0.1072 -0.4415  2.2263
 7185SOL     OW33013   1.459   3.800   8.694 -0.0545 -0.1730 -0.0514
 7185SOL    HW133014   1.544   3.761   8.674 -0.6264 -0.3353 -2.1093
 7185SOL    HW233015   1.443   3.844   8.611  0.3063  1.2311  0.6176
 7186SOL     OW33016   2.230   0.872   2.387  0.7743 -0.1773 -0.1735
 7186SOL    HW133017   2.235   0.905   2.476 -0.7236  0.3734 -0.2978
 7186SOL    HW233018   2.269   0.784   2.381 -1.0143 -0.8517 -2.0302
 7187SOL     OW33019   0.996   2.732   8.868 -0.1099  0.4610 -0.2076
 7187SOL    HW133020   0.971   2.695   8.784 -1.2898  3.4158 -1.1724
 7187SOL    HW233021   0.915   2.769   8.903 -0.9869 -0.6404 -1.0770
 7188SOL     OW33022   2.900   2.768   3.099 -0.6873  0.3180  0.1007
 7188SOL    HW133023   2.854   2.786   3.017 -1.3746 -0.0411  0.4017
 7188SOL    HW233024   2.854   2.685   3.116  0.9843 -0.4463  0.8492
 7189SOL     OW33025   3.846   1.728   6.013 -0.1760  0.0187  0.1879
 7189SOL    HW133026   3.838   1.727   6.109 -0.4541  0.0475  0.1635
 7189SOL    HW233027   3.784   1.658   5.997 -1.6308  0.8614  2.1913
 7190SOL     OW33028   3.700   3.777  15.259 -0.3568  0.5033 -0.0824
 7190SOL    HW133029   3.770   3.769  15.195 -0.1020 -1.5762  0.4532
 7190SOL    HW233030   3.753   3.831  15.316  1.1353  0.1316 -1.1125
 7191SOL     OW33031   0.353   3.402   6.665 -0.3019  0.2940  0.3946
 7191SOL    HW133032   0.365   3.403   6.570 -0.0936 -1.6683  0.4081
 7191SOL    HW233033   0.314   3.317   6.684 -0.1380 -0.1395 -1.2579
 7192SOL     OW33034   3.957   2.709  14.559 -0.6238  0.3250 -0.2606
 7192SOL    HW133035   3.919   2.794  14.539  0.0096  0.5136 -0.6649
 7192SOL    HW233036   3.907   2.651  14.502 -0.0940 -0.0810 -0.3138
 7193SOL     OW33037   1.573   2.480  10.652 -0.4087  0.4209  0.4737
 7193SOL    HW133038   1.653   2.482  10.706  1.0501 -0.2896 -1.6656
 7193SOL    HW233039   1.611   2.446  10.572 -0.9361 -0.6279  0.6700
 7194SOL     OW33040   1.676   4.663   2.361 -0.2146  0.4826  0.0585
 7194SOL    HW133041   1.753   4.717   2.377 -0.5158  1.4034 -1.5169
 7194SOL    HW233042   1.671   4.675   2.266 -0.1841  1.2039  0.1505
 7195SOL     OW33043   1.559   0.780  15.186 -0.5565  0.1199 -0.5332
 7195SOL    HW133044   1.607   0.860  15.207 -0.2365 -0.0682 -0.5475
 7195SOL    HW233045   1.484   0.776  15.246 -0.6222  0.9096 -0.5577
 7196SOL     OW33046   0.467   0.455   2.596 -0.3203 -0.1920  0.5747
 7196SOL    HW133047   0.390   0.459   2.539 -0.7020 -2.8240  0.8766
 7196SOL    HW233048   0.468   0.361   2.613 -1.1308  0.1112  2.3685
 7197SOL     OW33049   2.572   0.336   2.604 -0.1172  0.7764 -0.4082
 7197SOL    HW133050   2.586   0.384   2.522  1.9468 -0.8295 -0.9790
 7197SOL    HW233051   2.630   0.377   2.668  1.9244 -1.1572 -1.0300
 7198SOL     OW33052   4.424   0.746   9.086  0.1756 -0.2841 -0.1671
 7198SOL    HW133053   4.361   0.700   9.031  1.7686  2.1221 -4.0097
 7198SOL    HW233054   4.398   0.710   9.171  1.2751  4.1858  2.0734
 7199SOL     OW33055   2.787   3.277   3.315  0.0627  0.1468 -0.0900
 7199SOL    HW133056   2.823   3.269   3.227  0.3093 -1.2509  0.1300
 7199SOL    HW233057   2.794   3.184   3.338  0.5593 -0.4200 -2.5698
 7200SOL     OW33058   3.121   0.456  14.134  0.0372 -0.0251  0.5030
 7200SOL    HW133059   3.164   0.506  14.203  2.0975 -0.8189 -0.2018
 7200SOL    HW233060   3.187   0.399  14.095  0.8917  0.4666  1.2341
 7201SOL     OW33061   4.460   0.863   2.724 -0.3305  0.2675  0.0023
 7201SOL    HW133062   4.414   0.806   2.787 -1.1428  0.7603 -0.1439
 7201SOL    HW233063   4.387   0.910   2.684 -0.3128 -0.0784 -0.4411
 7202SOL     OW33064   3.914   2.390   7.507 -0.0701 -0.1755 -0.5804
 7202SOL    HW133065   3.852   2.421   7.441 -1.0000  1.0267  0.8560
 7202SOL    HW233066   3.945   2.470   7.550  0.9747 -0.2398 -1.2004
 7203SOL     OW33067   0.321   0.923  11.258 -0.3823  0.4954  0.3540
 7203SOL    HW133068   0.282   0.846  11.217  1.2445 -0.4810  0.6672
 7203SOL    HW233069   0.370   0.882  11.329 -0.9710  0.0494  0.5016
 7204SOL     OW33070   1.475   0.470   1.241 -0.1080  0.7735  0.0716
 7204SOL    HW133071   1.500   0.535   1.306  0.7078  0.4183  0.1112
 7204SOL    HW233072   1.381   0.478   1.252 -0.1049  2.1788 -0.8689
 7205SOL     OW33073   0.507   4.528   9.120 -0.4202 -0.6143 -0.5287
 7205SOL    HW133074   0.499   4.576   9.202  0.2745 -1.8250  0.2431
 7205SOL    HW233075   0.575   4.584   9.081 -0.6097 -0.2179 -0.2906
 7206SOL     OW33076   1.315   2.500   4.474  0.1743 -0.6740 -0.2225
 7206SOL    HW133077   1.221   2.501   4.457  0.2207 -0.1702 -0.4403
 7206SOL    HW233078   1.350   2.416   4.444  0.5238  0.2086 -2.3195
 7207SOL     OW33079   3.562   2.065   2.827  0.2755 -0.7219 -0.3149
 7207SOL    HW133080   3.500   2.045   2.756 -0.0639 -1.1689  0.1107
 7207SOL    HW233081   3.582   2.154   2.797 -0.8218 -0.2357  0.3948
 7208SOL     OW33082   2.932   0.769  15.205  0.1378  0.0808  0.4308
 7208SOL    HW133083   2.905   0.835  15.142 -2.2026 -0.7310  0.5594
 7208SOL    HW233084   2.850   0.747  15.250  0.4597 -0.3211  0.8239
 7209SOL     OW33085   4.410   2.275  10.822 -0.3711  0.3085 -0.1083
 7209SOL    HW133086   4.398   2.241  10.733  0.6794  3.3136 -1.4100
 7209SOL    HW233087   4.399   2.369  10.807 -0.5482  0.3121  0.0450
 7210SOL     OW33088   0.273   2.239   4.101 -0.0880 -0.5176  0.1333
 7210SOL    HW133089   0.216   2.290   4.044  1.0418  1.4581  0.7879
 7210SOL    HW233090   0.242   2.150   4.081 -3.4904  0.9866 -1.2553
 7211SOL     OW33091   4.366   4.118  10.200 -0.1210 -0.2621 -0.2678
 7211SOL    HW133092   4.416   4.049  10.245 -1.2064  0.4992  2.0656
 7211SOL    HW233093   4.436   4.142  10.139  1.9452 -1.0620  1.7665
 7212SOL     OW33094   4.556   0.176   4.879  0.3873 -0.0417 -0.6148
 7212SOL    HW133095   4.559   0.148   4.787 -2.3570 -1.5931 -0.2319
 7212SOL    HW233096   4.529   0.268   4.881 -1.0406 -0.4416 -1.2312
 7213SOL     OW33097   2.405   3.513   8.292 -0.0712  0.9641 -0.1825
 7213SOL    HW133098   2.410   3.445   8.360 -0.4117  1.5415  0.4065
 7213SOL    HW233099   2.496   3.544   8.293  1.7332 -4.2114  1.4706
 7214SOL     OW33100   3.958   3.133  11.570 -0.2839  0.1299  0.8632
 7214SOL    HW133101   3.982   3.184  11.493  1.6310 -1.2700  0.5223
 7214SOL    HW233102   4.043   3.100  11.600 -0.6161 -1.6807 -0.1484
 7215SOL     OW33103   1.781   0.442  10.325 -0.3628 -0.2596 -0.3361
 7215SOL    HW133104   1.833   0.510  10.368  3.1148 -3.2069  0.1371
 7215SOL    HW233105   1.785   0.462  10.231  0.0581  1.6065  0.0890
 7216SOL     OW33106   0.656   4.203   8.475 -0.1143 -0.2330 -0.5717
 7216SOL    HW133107   0.686   4.291   8.493 -4.6067  1.5101 -1.5911
 7216SOL    HW233108   0.738   4.154   8.479 -0.3142 -0.5977 -0.8375
 7217SOL     OW33109   4.236   1.457   7.822 -0.5056 -0.0337 -0.1412
 7217SOL    HW133110   4.174   1.387   7.801 -1.1215  0.4995 -0.0727
 7217SOL    HW233111   4.189   1.532   7.787  1.0302  2.1861  2.5222
 7218SOL     OW33112   0.575   1.073   6.123  0.1808 -0.4092 -0.3370
 7218SOL    HW133113   0.617   0.987   6.124  1.9384  0.4529 -1.3129
 7218SOL    HW233114   0.611   1.112   6.044  0.3592 -1.9969 -1.0574
 7219SOL     OW33115   1.561   0.439  12.261  0.2133  0.2101 -0.1692
 7219SOL    HW133116   1.639   0.495  12.254 -0.3057  1.0337  0.6245
 7219SOL    HW233117   1.602   0.353  12.273 -1.9563 -0.8151 -0.1772
 7220SOL     OW33118   2.616   0.906   4.623 -0.5256 -0.4373 -1.0019
 7220SOL    HW133119   2.633   0.814   4.605  0.6205 -0.5426  0.6094
 7220SOL    HW233120   2.704   0.944   4.620 -1.7515  2.5994  1.4472
 7221SOL     OW33121   2.822   3.831  16.827 -0.7738 -0.6089 -0.6793
 7221SOL    HW133122   2.911   3.846  16.860 -1.7646 -0.5241  1.8932
 7221SOL    HW233123   2.783   3.918  16.825 -1.1638 -0.7905 -1.0447
 7222SOL     OW33124   2.394   1.721   0.149  0.3168 -0.0383 -0.1051
 7222SOL    HW133125   2.326   1.755   0.090 -0.5125 -0.3860  0.6471
 7222SOL    HW233126   2.409   1.635   0.110  0.5442 -1.0136  2.1229
 7223SOL     OW33127   3.303   4.479  17.672 -0.1174 -0.2729 -0.4452
 7223SOL    HW133128   3.288   4.443   0.086  1.2391  0.6407  0.1637
 7223SOL    HW233129   3.294   4.570   0.026 -0.0440 -1.1590  2.6157
 7224SOL     OW33130   4.041   3.735   7.599  0.0290  0.3980  0.5376
 7224SOL    HW133131   3.989   3.668   7.554  2.2634 -1.9814  1.4454
 7224SOL    HW233132   4.097   3.766   7.528  0.8188  0.4445  1.1796
 7225SOL     OW33133   0.325   4.292   0.663 -0.3379  0.4566 -0.2668
 7225SOL    HW133134   0.347   4.383   0.645  0.2455  0.1186 -1.2639
 7225SOL    HW233135   0.392   4.245   0.614  0.7871 -0.4171  2.1087
 7226SOL     OW33136   2.223   1.885   2.175 -0.2283  0.3053 -0.0320
 7226SOL    HW133137   2.272   1.881   2.093 -0.7983 -1.6722 -0.2549
 7226SOL    HW233138   2.216   1.800   2.219  1.7413  0.2807  0.2737
 7227SOL     OW33139   0.990   1.650   3.883 -0.0773 -0.0753 -0.0544
 7227SOL    HW133140   1.046   1.574   3.863  0.8024  0.4400  0.4794
 7227SOL    HW233141   1.015   1.677   3.971  0.8611  2.5120 -1.1197
 7228SOL     OW33142   2.381   0.838   8.429 -0.9932  0.7559  0.5917
 7228SOL    HW133143   2.329   0.853   8.508  1.8780  0.2327  2.5911
 7228SOL    HW233144   2.469   0.824   8.466 -0.0610  1.4078 -1.3915
 7229SOL     OW33145   0.812   3.668  10.471  0.0223 -0.0041 -0.0767
 7229SOL    HW133146   0.724   3.654  10.437  0.4894 -1.3152 -0.7549
 7229SOL    HW233147   0.807   3.656  10.566 -0.1361  0.7890  0.0147
 7230SOL     OW33148   2.428   2.515   0.628  0.2034 -0.1039 -0.0072
 7230SOL    HW133149   2.337   2.502   0.600 -0.4382  2.4299  0.8483
 7230SOL    HW233150   2.428   2.611   0.626 -0.7210 -0.1416 -1.5897
 7231SOL     OW33151   4.246   3.576   6.458  0.0677  0.0021  0.2873
 7231SOL    HW133152   4.239   3.487   6.425 -0.6358  1.0477 -2.3652
 7231SOL    HW233153   4.172   3.618   6.414  1.1077  0.4649 -1.0332
 7232SOL     OW33154   0.460   3.794  16.535 -0.2066 -0.7400  0.0790
 7232SOL    HW133155   0.439   3.832  16.450 -0.0007  1.8179  1.1464
 7232SOL    HW233156   0.555   3.801  16.528 -0.1582 -1.5552 -0.0133
 7233SOL     OW33157   0.152   4.306   5.044 -0.5259 -0.3954  0.1320
 7233SOL    HW133158   0.201   4.298   5.126 -0.6282 -2.1753  0.0324
 7233SOL    HW233159   0.100   4.227   5.059 -0.4516 -0.3914  0.4129
 7234SOL     OW33160   3.580   0.018  17.613 -0.0318  0.1908 -0.4217
 7234SOL    HW133161   3.509   4.716  17.552  0.1544  1.8166 -1.1614
 7234SOL    HW233162   3.548   0.002   0.028 -1.8032  1.3122 -0.8629
 7235SOL     OW33163   2.359   1.491   5.019  0.7620 -0.3027  0.1003
 7235SOL    HW133164   2.366   1.396   5.019  2.3838 -0.1935  1.0473
 7235SOL    HW233165   2.297   1.502   5.091 -1.7424 -1.4165 -1.9033
 7236SOL     OW33166   2.197   4.413  10.271 -0.0186  0.6239  1.1082
 7236SOL    HW133167   2.242   4.329  10.277  0.6192  0.6478 -2.8156
 7236SOL    HW233168   2.226   4.454  10.189 -1.4295 -1.2275 -0.3384
 7237SOL     OW33169   4.054   4.261   8.426  0.4564 -0.2304  0.2993
 7237SOL    HW133170   4.137   4.214   8.435  0.7068  0.2768  0.6463
 7237SOL    HW233171   4.054   4.311   8.508  4.2139  0.2347  0.0330
 7238SOL     OW33172   1.258   0.504   8.739  0.0579  0.3743  0.2396
 7238SOL    HW133173   1.223   0.458   8.663  1.4286  1.6793 -1.1960
 7238SOL    HW233174   1.338   0.458   8.763 -0.6508  0.8651  3.4360
 7239SOL     OW33175   1.240   3.235  15.297  0.3184 -0.0888 -0.6932
 7239SOL    HW133176   1.318   3.227  15.351  1.4854  0.4703 -2.3073
 7239SOL    HW233177   1.227   3.329  15.288 -1.3443 -0.4605 -2.2998
 7240SOL     OW33178   2.070   4.166   7.193  0.0101  0.1140 -0.1959
 7240SOL    HW133179   2.065   4.181   7.099  0.5897  0.5528 -0.1585
 7240SOL    HW233180   2.140   4.102   7.204  0.5053  1.1590  2.9895
 7241SOL     OW33181   4.584   2.271  14.524  0.2693  0.1045  0.5945
 7241SOL    HW133182   4.643   2.225  14.585 -2.4557 -2.2439  1.4639
 7241SOL    HW233183   4.633   2.288  14.444 -2.3474  1.0439 -0.7891
 7242SOL     OW33184   1.578   0.052   5.589  0.2940  0.6728  0.7200
 7242SOL    HW133185   1.626   0.130   5.620 -0.3357  1.3020  0.1192
 7242SOL    HW233186   1.576   0.012   5.676 -1.1219  1.8967  1.2509
 7243SOL     OW33187   2.189   0.128   6.564 -0.0819  0.0715  0.6962
 7243SOL    HW133188   2.276   0.136   6.527  0.4159 -1.5786  1.5184
 7243SOL    HW233189   2.206   0.069   6.637  0.5802 -0.8639 -0.2187
 7244SOL     OW33190   4.229   4.565   5.588 -0.0612 -0.1262  0.4517
 7244SOL    HW133191   4.206   4.503   5.519  0.3376  0.4322 -0.1835
 7244SOL    HW233192   4.196   4.506   5.656 -0.7589 -0.3389 -0.0760
 7245SOL     OW33193   4.324   0.698   2.436 -0.4832  0.2634  0.2942
 7245SOL    HW133194   4.302   0.677   2.345 -0.9450 -0.7350  0.6368
 7245SOL    HW233195   4.258   0.757   2.472 -0.0268  0.4301  0.8618
 7246SOL     OW33196   3.894   3.063   2.368  0.2187  0.0892 -0.4276
 7246SOL    HW133197   3.821   3.001   2.366 -0.6561  1.0778  1.2629
 7246SOL    HW233198   3.932   3.050   2.281  3.8750  0.2895  1.1561
 7247SOL     OW33199   1.182   0.944   2.753 -0.1231 -0.4080  0.4242
 7247SOL    HW133200   1.189   0.943   2.848  0.4290 -1.9151  0.3704
 7247SOL    HW233201   1.215   0.859   2.725  0.2358 -0.4173  0.8893
 7248SOL     OW33202   2.039   2.557   8.175  0.7797 -0.1895  0.6639
 7248SOL    HW133203   2.039   2.506   8.256  0.6245  0.0055  0.7866
 7248SOL    HW233204   2.088   2.632   8.208  1.9280 -1.3193  1.5261
 7249SOL     OW33205   2.924   4.123   0.404 -0.4627 -0.6230 -0.3141
 7249SOL    HW133206   3.019   4.130   0.402 -0.5117 -0.1923 -1.2274
 7249SOL    HW233207   2.910   4.054   0.468 -3.2747 -1.5275 -1.8944
 7250SOL     OW33208   3.926   3.955   3.579 -0.3054  0.1538  0.1195
 7250SOL    HW133209   3.867   3.888   3.614 -1.9521  1.7912  0.4452
 7250SOL    HW233210   3.965   3.994   3.658 -0.4499 -1.0447  0.7905
 7251SOL     OW33211   3.369   1.412  15.207 -0.7213  0.2610  0.2981
 7251SOL    HW133212   3.316   1.353  15.153  1.0158 -0.3323 -0.7485
 7251SOL    HW233213   3.340   1.415  15.298  1.9822 -0.1596  1.1779
 7252SOL     OW33214   3.287   4.486   5.455  0.0392 -0.3177 -0.1121
 7252SOL    HW133215   3.316   4.575   5.432 -0.3536 -0.1120  0.1897
 7252SOL    HW233216   3.209   4.508   5.505  1.7155  1.1322  1.8589
 7253SOL     OW33217   1.177   3.798   8.016 -0.0438  0.2820  1.2203
 7253SOL    HW133218   1.245   3.842   7.965  1.6063 -2.2681  1.2821
 7253SOL    HW233219   1.111   3.772   7.951 -0.5210 -1.0084  2.2346
 7254SOL     OW33220   1.232   4.187   4.588 -0.5141  0.2307 -0.0420
 7254SOL    HW133221   1.182   4.256   4.631 -1.3146  0.9580 -2.1613
 7254SOL    HW233222   1.321   4.216   4.612 -1.1662  1.8261  0.4696
 7255SOL     OW33223   2.307   4.525   2.402 -0.1445  0.1992 -0.1595
 7255SOL    HW133224   2.348   4.605   2.370  1.2912 -0.4897 -0.0304
 7255SOL    HW233225   2.353   4.528   2.486  0.5622  1.3604 -0.5872
 7256SOL     OW33226   3.312   1.031   3.728  0.3984 -0.4957 -0.2651
 7256SOL    HW133227   3.229   1.053   3.686  0.8662  3.1205  0.7124
 7256SOL    HW233228   3.286   1.020   3.820  3.0354 -0.5643  0.4949
 7257SOL     OW33229   4.007   1.517  14.097  0.3188  0.4283 -0.3004
 7257SOL    HW133230   4.013   1.424  14.117 -3.0105  0.2645 -0.1456
 7257SOL    HW233231   3.925   1.543  14.139 -0.6831 -0.4766 -1.7178
 7258SOL     OW33232   0.141   0.123  12.259  0.3815  0.3714  0.0551
 7258SOL    HW133233   0.102   0.124  12.347 -0.5513 -1.9171 -0.3479
 7258SOL    HW233234   0.215   0.065  12.280  1.5830  1.0167 -2.3757
 7259SOL     OW33235   2.393   4.403   2.659  0.5545 -0.1490 -0.4422
 7259SOL    HW133236   2.486   4.403   2.636  1.0198 -0.8611  1.4198
 7259SOL    HW233237   2.369   4.313   2.639 -1.1401 -0.2208  1.8596
 7260SOL     OW33238   1.631   2.036   6.289 -0.0859  0.0934 -0.2694
 7260SOL    HW133239   1.725   2.046   6.273 -0.0442  0.3436  0.1233
 7260SOL    HW233240   1.632   1.957   6.343  0.4414  0.9875  1.0385
 7261SOL     OW33241   1.955   1.318   4.481 -0.1930  0.4303 -0.2200
 7261SOL    HW133242   1.945   1.313   4.386 -0.6735 -1.9326 -0.0546
 7261SOL    HW233243   1.873   1.283   4.515  0.0765 -0.1294 -0.1449
 7262SOL     OW33244   0.739   2.584  16.507  0.3514 -0.3957 -0.1322
 7262SOL    HW133245   0.776   2.665  16.542  1.8655 -0.2056 -2.1773
 7262SOL    HW233246   0.671   2.625  16.453  0.8178  1.4674  0.6657
 7263SOL     OW33247   0.346   3.744  17.433 -0.1507 -0.4077  0.2518
 7263SOL    HW133248   0.419   3.806  17.446  1.0659 -1.6781 -0.4404
 7263SOL    HW233249   0.280   3.808  17.459  0.2351 -0.8291  2.2533
 7264SOL     OW33250   0.803   3.822   3.861 -0.0539  0.4571  0.0545
 7264SOL    HW133251   0.748   3.883   3.811 -1.1966 -0.8110 -0.2282
 7264SOL    HW233252   0.849   3.782   3.788  1.2683  1.9910  0.0424
 7265SOL     OW33253   4.131   3.378   7.700  0.2518  0.3228 -0.3673
 7265SOL    HW133254   4.081   3.459   7.714 -1.3050 -0.6244 -0.5245
 7265SOL    HW233255   4.177   3.394   7.617 -1.7844 -0.4756 -1.6309
 7266SOL     OW33256   3.032   3.831  17.305  0.3987 -0.2316 -0.4892
 7266SOL    HW133257   2.937   3.833  17.296  0.3592 -2.0219 -0.4183
 7266SOL    HW233258   3.053   3.893  17.375 -3.7583 -0.3226  0.8540
 7267SOL     OW33259   0.743   1.856  15.957  0.1407 -0.3167  0.0790
 7267SOL    HW133260   0.806   1.898  16.016  0.3307 -0.6802  0.1350
 7267SOL    HW233261   0.781   1.769  15.962  0.1084 -0.2403  1.7358
 7268SOL     OW33262   1.322   2.090   4.084  0.0935  0.4145  0.1015
 7268SOL    HW133263   1.382   2.043   4.025  0.3449  0.4323  0.3439
 7268SOL    HW233264   1.350   2.179   4.066  0.3514  0.7179  2.0644
 7269SOL     OW33265   0.458   4.482   2.546  0.0049 -0.1004 -0.0699
 7269SOL    HW133266   0.511   4.561   2.551 -0.3670  0.1627 -0.3215
 7269SOL    HW233267   0.419   4.486   2.633  0.1667 -1.1852  0.0562
 7270SOL     OW33268   0.429   4.574   6.235  0.0091  0.6374  0.4032
 7270SOL    HW133269   0.353   4.612   6.190  1.7284  2.9019 -0.5736
 7270SOL    HW233270   0.499   4.624   6.194  0.0110  2.5930  2.7472
 7271SOL     OW33271   1.255   3.402  16.066  0.0722  0.3291  0.7158
 7271SOL    HW133272   1.336   3.425  16.112  0.1440 -1.7080  1.5753
 7271SOL    HW233273   1.222   3.339  16.130  0.9035 -1.6601 -0.8235
 7272SOL     OW33274   0.155   0.707   8.245 -0.2908  0.1869  0.5224
 7272SOL    HW133275   0.175   0.723   8.153  0.3156  2.7059  1.0837
 7272SOL    HW233276   0.061   0.720   8.238 -0.4395 -1.6416 -0.7320
 7273SOL     OW33277   4.703   3.956   6.590  0.8408 -0.1443  0.0376
 7273SOL    HW133278   4.648   4.027   6.624  0.2087 -0.4834 -0.2813
 7273SOL    HW233279   0.001   3.981   6.499  2.6562  0.5920  0.5577
 7274SOL     OW33280   3.774   1.784   4.695 -0.1090  0.0978 -0.2946
 7274SOL    HW133281   3.711   1.836   4.645 -0.6485  1.2339  1.5952
 7274SOL    HW233282   3.768   1.701   4.647 -1.1101  0.8045 -1.3854
 7275SOL     OW33283   3.107   0.327   9.444 -0.0433  0.5174  0.3520
 7275SOL    HW133284   3.055   0.397   9.404 -0.8313  0.4821  1.3240
 7275SOL    HW233285   3.055   0.299   9.519  0.6790  0.1172  0.7061
 7276SOL     OW33286   0.658   2.655   9.139  0.5570 -0.3194  0.1002
 7276SOL    HW133287   0.649   2.573   9.091 -1.6019 -0.9992  1.6969
 7276SOL    HW233288   0.750   2.658   9.166  1.2406 -3.8387 -1.9315
 7277SOL     OW33289   3.609   2.449  13.084 -0.3245 -0.2700  0.1659
 7277SOL    HW133290   3.626   2.357  13.107 -2.3079 -1.3831 -2.9818
 7277SOL    HW233291   3.689   2.471  13.036 -0.9776 -0.7922 -1.1384
 7278SOL     OW33292   0.138   3.415  17.015  0.6007 -0.6547  0.3288
 7278SOL    HW133293   0.170   3.325  17.008  2.1196  0.0266 -1.5888
 7278SOL    HW233294   0.068   3.410  17.080  0.7152 -3.3518  0.2411
 7279SOL     OW33295   0.731   0.282   6.710 -0.7516  0.2992 -0.8043
 7279SOL    HW133296   0.706   0.195   6.740  1.9005  0.1766  1.0309
 7279SOL    HW233297   0.742   0.340   6.786  1.1451 -0.0629 -0.8038
 7280SOL     OW33298   0.904   4.364   5.234  0.3557 -0.7826  0.0029
 7280SOL    HW133299   0.996   4.339   5.233  0.0383 -1.8687 -1.2706
 7280SOL    HW233300   0.888   4.393   5.324  0.1012  0.4057 -0.4316
 7281SOL     OW33301   0.382   0.488   6.860 -0.8664 -0.1461 -0.2834
 7281SOL    HW133302   0.354   0.456   6.946  1.2555  1.2389  0.9264
 7281SOL    HW233303   0.475   0.509   6.872 -1.1660  1.9494 -1.6371
 7282SOL     OW33304   2.281   1.459   9.021 -0.1623 -0.4487  0.0185
 7282SOL    HW133305   2.319   1.372   9.031  1.4727  0.5907  2.6357
 7282SOL    HW233306   2.253   1.477   9.111  0.1538  0.5383 -0.0723
 7283SOL     OW33307   3.612   4.488  10.721 -0.0769 -0.2482  0.2302
 7283SOL    HW133308   3.634   4.452  10.807  3.2828  0.7572 -0.2093
 7283SOL    HW233309   3.683   4.460  10.663  0.2450  0.0802  0.4649
 7284SOL     OW33310   1.308   3.210   6.793  0.3056 -0.1732  0.0548
 7284SOL    HW133311   1.251   3.176   6.862 -0.0788 -2.1726 -1.2545
 7284SOL    HW233312   1.394   3.189   6.830  0.7756  1.5802 -0.0691
 7285SOL     OW33313   1.661   0.889   5.776 -0.3622  0.2180 -0.0616
 7285SOL    HW133314   1.712   0.833   5.718 -0.2385  1.3054 -0.9845
 7285SOL    HW233315   1.577   0.842   5.772 -0.9167  1.0761  1.3935
 7286SOL     OW33316   2.523   1.938   2.865  0.1501  0.1146  0.2464
 7286SOL    HW133317   2.512   1.897   2.950  0.9146 -2.5194 -0.9253
 7286SOL    HW233318   2.612   1.971   2.865  0.4364 -0.6730  1.1336
 7287SOL     OW33319   3.673   3.051  11.837  0.0394 -0.1562  0.2312
 7287SOL    HW133320   3.701   3.127  11.786 -0.4102 -0.0180  0.1876
 7287SOL    HW233321   3.726   2.974  11.817 -0.6784 -0.5741 -0.0385
 7288SOL     OW33322   3.142   3.783   5.964 -0.7037 -0.3796  0.0296
 7288SOL    HW133323   3.116   3.837   6.039  2.4169  1.8046 -0.4329
 7288SOL    HW233324   3.106   3.833   5.890 -1.3553  0.0540  0.6408
 7289SOL     OW33325   4.058   0.726   5.583 -0.1551  0.2224 -0.1138
 7289SOL    HW133326   4.006   0.759   5.509  2.4592 -1.0318 -2.5039
 7289SOL    HW233327   4.004   0.768   5.651 -0.1571 -0.4066  0.2696
 7290SOL     OW33328   1.936   3.660  16.038  0.5993 -0.2013 -0.0248
 7290SOL    HW133329   2.013   3.658  15.981  0.5820  0.6704 -0.0844
 7290SOL    HW233330   1.879   3.713  15.982 -1.2550 -2.2042 -0.0378
 7291SOL     OW33331   4.190   4.627  17.343 -0.5508  0.5462 -0.3901
 7291SOL    HW133332   4.141   4.557  17.386  1.9183 -0.7747  0.2170
 7291SOL    HW233333   4.273   4.596  17.378 -0.9139 -0.3248 -0.2890
 7292SOL     OW33334   1.708   4.442   9.114  0.2628  0.2155 -0.0896
 7292SOL    HW133335   1.638   4.417   9.054 -0.0747 -0.0735  0.4316
 7292SOL    HW233336   1.730   4.353   9.141  3.3187  1.3281  1.0720
 7293SOL     OW33337   1.746   0.585  12.537  0.2443 -0.4884 -0.1805
 7293SOL    HW133338   1.829   0.597  12.491  1.4161 -0.5743  1.8933
 7293SOL    HW233339   1.763   0.638  12.615 -0.6141 -0.0836 -0.2653
 7294SOL     OW33340   3.688   3.803   3.733 -0.1899  0.1476 -0.4045
 7294SOL    HW133341   3.606   3.758   3.753 -0.0310  0.2303  0.4063
 7294SOL    HW233342   3.649   3.880   3.692 -1.0339 -0.3808 -0.5911
 7295SOL     OW33343   4.560   0.426  17.439  0.4588 -0.4396  0.2856
 7295SOL    HW133344   4.614   0.425  17.360 -1.4267  0.6209 -1.0341
 7295SOL    HW233345   4.619   0.366  17.485  0.4706  1.0984  2.3057
 7296SOL     OW33346   2.260   3.306   7.533 -0.0337  0.6224  0.3135
 7296SOL    HW133347   2.212   3.228   7.560 -1.0776  1.6382  1.4131
 7296SOL    HW233348   2.209   3.350   7.465  1.3716  0.4804 -0.8319
 7297SOL     OW33349   4.521   4.149  15.058 -0.1942 -0.4743 -0.0518
 7297SOL    HW133350   4.607   4.108  15.072  1.1916  2.0295 -1.2802
 7297SOL    HW233351   4.538   4.242  15.074 -1.3706 -0.2131 -0.3612
 7298SOL     OW33352   0.228   1.314   2.868  0.1120  0.2563 -0.2003
 7298SOL    HW133353   0.200   1.311   2.777 -0.6387  2.0267 -0.0448
 7298SOL    HW233354   0.210   1.406   2.891 -1.0448  0.1656 -0.7796
 7299SOL     OW33355   3.790   3.960   4.783  0.3999  0.0563  0.0823
 7299SOL    HW133356   3.853   4.026   4.814  0.4469 -0.5368  1.2407
 7299SOL    HW233357   3.772   3.920   4.868  0.6550 -0.4951 -0.1192
 7300SOL     OW33358   2.635   4.617   4.199  0.4970  0.1260  0.2063
 7300SOL    HW133359   2.620   4.522   4.208 -1.5540  0.4700  0.2931
 7300SOL    HW233360   2.562   4.640   4.142  1.3768  1.7201 -0.2633
 7301SOL     OW33361   4.627   3.719   3.545 -0.5456 -0.0300  0.1061
 7301SOL    HW133362   4.688   3.662   3.499  0.0525  2.6131 -2.4296
 7301SOL    HW233363   4.581   3.662   3.607  0.8926 -0.2402  0.9923
 7302SOL     OW33364   3.617   0.107   6.919  0.3169  0.0537  0.2785
 7302SOL    HW133365   3.693   0.161   6.899  0.5490 -0.8327 -1.2863
 7302SOL    HW233366   3.558   0.176   6.948  1.7307  0.3334  2.4287
 7303SOL     OW33367   3.884   3.246   7.819  0.3482  0.0684 -0.4181
 7303SOL    HW133368   3.971   3.284   7.806 -0.3146  2.2557  1.4156
 7303SOL    HW233369   3.893   3.204   7.905 -0.1010 -0.7250 -0.7664
 7304SOL     OW33370   4.127   4.186   7.634 -0.7401 -0.0749 -0.0807
 7304SOL    HW133371   4.088   4.118   7.689  1.1813 -2.0142 -1.1399
 7304SOL    HW233372   4.066   4.260   7.641 -1.9060 -1.0070 -0.2875
 7305SOL     OW33373   3.019   2.821   2.431 -0.0205  0.2325  0.2620
 7305SOL    HW133374   2.993   2.739   2.472 -1.0465 -0.0538 -0.9482
 7305SOL    HW233375   3.115   2.822   2.435  0.0139 -0.3951 -0.2691
 7306SOL     OW33376   2.963   1.380   0.398 -0.1774  0.3213  0.4707
 7306SOL    HW133377   2.947   1.414   0.309  0.3044  1.8642  0.9889
 7306SOL    HW233378   3.045   1.334   0.382 -1.1051 -0.9047 -0.8923
 7307SOL     OW33379   1.835   3.330   9.882 -0.2209 -0.2548 -0.2722
 7307SOL    HW133380   1.804   3.389   9.951  0.3613 -0.5963  0.2866
 7307SOL    HW233381   1.894   3.387   9.833 -0.4723  1.0028  0.8917
 7308SOL     OW33382   1.952   0.017   8.825 -0.4008  0.2133  0.5959
 7308SOL    HW133383   2.023   0.011   8.889 -0.4328 -0.5521  0.5648
 7308SOL    HW233384   1.928   0.109   8.819 -2.0767 -0.0921  2.5812
 7309SOL     OW33385   4.018   2.519   7.261 -0.0508  0.1336  0.4195
 7309SOL    HW133386   4.038   2.578   7.334  1.2260 -0.4895  0.5624
 7309SOL    HW233387   4.078   2.544   7.191 -0.9335  1.0566 -0.0268
 7310SOL     OW33388   2.998   2.515   5.178 -0.3960 -0.1584  0.2668
 7310SOL    HW133389   2.916   2.543   5.218  0.7833  1.9544  1.1985
 7310SOL    HW233390   3.035   2.470   5.255 -0.0117  2.3739  1.5705
 7311SOL     OW33391   1.640   1.707   5.713 -0.2341  0.1904 -0.3212
 7311SOL    HW133392   1.612   1.715   5.804  2.6925 -1.0188  0.6956
 7311SOL    HW233393   1.644   1.613   5.697 -0.4662  0.3841 -1.5211
 7312SOL     OW33394   3.657   0.195  10.410 -0.6082 -0.3725 -0.0572
 7312SOL    HW133395   3.598   0.265  10.438  0.9912  0.8274  0.2869
 7312SOL    HW233396   3.631   0.124  10.468  0.9801 -1.2180 -0.3659
 7313SOL     OW33397   4.444   2.526   4.912 -0.0942  0.0499 -0.0726
 7313SOL    HW133398   4.369   2.523   4.852  0.2662 -0.7981 -0.4899
 7313SOL    HW233399   4.510   2.563   4.854  0.4286 -0.5469  0.1463
 7314SOL     OW33400   3.202   1.332   3.553  1.0341 -0.0589 -0.3635
 7314SOL    HW133401   3.218   1.411   3.604 -1.2368  0.8936 -1.1714
 7314SOL    HW233402   3.261   1.355   3.480  2.5231  0.1134  0.8912
 7315SOL     OW33403   2.060   3.191  11.236  0.0193 -0.3921 -0.0297
 7315SOL    HW133404   2.013   3.219  11.315 -2.1625 -2.7657 -0.4825
 7315SOL    HW233405   2.117   3.120  11.267  0.1749  0.1356  0.8992
 7316SOL     OW33406   1.160   0.418   7.875  0.4248 -0.3947  0.1911
 7316SOL    HW133407   1.169   0.455   7.787 -1.6817 -0.5669 -0.1121
 7316SOL    HW233408   1.212   0.339   7.862  0.6104  0.0410 -1.7041
 7317SOL     OW33409   4.063   2.771   2.213 -0.4963  0.3043  0.5667
 7317SOL    HW133410   4.071   2.690   2.162  1.2039  1.2805 -0.7137
 7317SOL    HW233411   4.029   2.748   2.299  1.1648 -1.0060  0.8763
 7318SOL     OW33412   1.991   3.981   1.918 -0.7843  0.0312  0.0356
 7318SOL    HW133413   1.932   4.029   1.861 -0.3454  0.3032 -0.1898
 7318SOL    HW233414   2.020   3.906   1.866 -1.2366  1.3318 -2.0645
 7319SOL     OW33415   1.523   2.360  11.626 -0.6107  0.3425  1.0857
 7319SOL    HW133416   1.521   2.314  11.710  0.5151 -0.5228  0.6240
 7319SOL    HW233417   1.616   2.348  11.607 -1.2826  0.1264 -2.0725
 7320SOL     OW33418   4.507   0.937   8.159 -0.0736  0.1221 -0.0415
 7320SOL    HW133419   4.463   1.022   8.170 -2.0634 -0.9011 -0.0899
 7320SOL    HW233420   4.538   0.921   8.248  0.7691 -1.0657 -0.5565
 7321SOL     OW33421   0.155   4.370   5.556  0.1045 -0.2802 -0.8643
 7321SOL    HW133422   0.112   4.295   5.516 -1.8847  0.6802 -0.5351
 7321SOL    HW233423   0.248   4.363   5.535  0.9871  2.9162  1.9332
 7322SOL     OW33424   0.556   1.878   8.663 -0.3225  0.0680  0.2681
 7322SOL    HW133425   0.466   1.854   8.686  0.0934 -1.2046  0.5736
 7322SOL    HW233426   0.600   1.922   8.735  0.6090 -0.0531 -0.2348
 7323SOL     OW33427   2.637   1.830   3.340 -0.3224  0.1971 -0.2241
 7323SOL    HW133428   2.630   1.740   3.373  1.0750  0.2684  0.2732
 7323SOL    HW233429   2.594   1.887   3.404 -2.2527 -1.5999  0.0950
 7324SOL     OW33430   3.696   3.213   8.295  0.4587 -0.7277  0.4525
 7324SOL    HW133431   3.618   3.234   8.245 -0.1085  3.3321  3.0364
 7324SOL    HW233432   3.733   3.302   8.292  0.9274 -0.8892  1.3704
 7325SOL     OW33433   3.936   3.771   5.835  0.2867 -0.5384 -0.4515
 7325SOL    HW133434   3.845   3.742   5.838  0.1740  0.0860  2.1271
 7325SOL    HW233435   3.982   3.690   5.814  0.2382 -1.0375  1.4264
 7326SOL     OW33436   0.001   2.340  14.309  0.3087 -0.1931  0.3083
 7326SOL    HW133437   0.059   2.266  14.291  1.7726  0.4870  2.3474
 7326SOL    HW233438   4.676   2.350  14.223  0.8436 -2.9535 -0.2824
 7327SOL     OW33439   2.323   0.023  17.466 -0.9467 -0.0570  0.2025
 7327SOL    HW133440   2.351   0.060  17.550 -0.0671  0.2329 -0.2122
 7327SOL    HW233441   2.404   4.694  17.444  0.2386  0.9197  2.4334
 7328SOL     OW33442   2.106   0.694   8.676 -0.2352  0.1490  0.4313
 7328SOL    HW133443   2.053   0.748   8.735  1.3554  2.2971 -0.0940
 7328SOL    HW233444   2.129   0.767   8.619 -0.3796 -0.4076 -0.3425
 7329SOL     OW33445   2.500   0.486   6.744 -0.8238 -0.1975 -0.0619
 7329SOL    HW133446   2.489   0.480   6.838 -0.9470 -0.7664 -0.1103
 7329SOL    HW233447   2.460   0.571   6.729  1.5410  1.3164  2.2281
 7330SOL     OW33448   1.654   2.994   5.573 -0.1147 -0.2938 -0.4027
 7330SOL    HW133449   1.628   3.085   5.587  0.3912 -0.5417  2.1266
 7330SOL    HW233450   1.630   2.963   5.660 -0.7344 -2.4674 -1.3595
 7331SOL     OW33451   3.632   4.206   1.781 -0.1750 -0.4815  0.0501
 7331SOL    HW133452   3.717   4.165   1.802  0.1980  0.2861  0.0247
 7331SOL    HW233453   3.580   4.143   1.730 -0.1174 -0.3871 -0.1240
 7332SOL     OW33454   1.377   0.091  15.307 -0.1823 -0.0295  0.4871
 7332SOL    HW133455   1.458   0.131  15.339 -0.4843 -1.6807  3.3406
 7332SOL    HW233456   1.309   0.135  15.358 -0.2009  0.6625 -0.1302
 7333SOL     OW33457   2.202   0.407   8.736 -0.6753 -0.2634  0.4550
 7333SOL    HW133458   2.178   0.499   8.750 -0.5763 -0.5488  2.5686
 7333SOL    HW233459   2.120   0.381   8.694 -0.5922  0.2030 -0.0044
 7334SOL     OW33460   1.641   2.580   9.111 -0.5492  0.5281 -0.0658
 7334SOL    HW133461   1.715   2.529   9.077  0.1272 -0.3165  2.7117
 7334SOL    HW233462   1.629   2.526   9.189 -1.1641  1.8137  0.7185
 7335SOL     OW33463   0.715   4.335   0.562  0.2118 -0.2547 -0.0404
 7335SOL    HW133464   0.656   4.267   0.595  0.6557 -1.1418 -1.0844
 7335SOL    HW233465   0.657   4.388   0.507 -1.1165 -0.3790  1.2378
 7336SOL     OW33466   4.343   4.295   3.906  0.1892  0.0946 -0.4224
 7336SOL    HW133467   4.415   4.341   3.863  2.4272 -1.3864  1.8050
 7336SOL    HW233468   4.291   4.276   3.828 -1.9217  1.0060  0.7683
 7337SOL     OW33469   3.549   4.563   8.984  0.0342 -0.6108  0.3239
 7337SOL    HW133470   3.622   4.517   8.943  1.0597  0.2823  1.1429
 7337SOL    HW233471   3.528   4.626   8.914 -0.4623 -0.8368  0.2653
 7338SOL     OW33472   4.639   1.248   5.099  1.0909  0.2830 -0.2839
 7338SOL    HW133473   4.567   1.216   5.045  2.4401  0.4728 -2.2029
 7338SOL    HW233474   4.591   1.298   5.164 -0.1929 -1.9449  0.4695
 7339SOL     OW33475   3.099   1.836   2.018  0.0912  0.4140 -0.4355
 7339SOL    HW133476   3.007   1.816   2.001  0.1337  0.0792 -0.2640
 7339SOL    HW233477   3.139   1.751   2.000 -2.4393 -1.2750  1.9363
 7340SOL     OW33478   0.104   4.536  14.214 -0.0182  0.1299  0.5490
 7340SOL    HW133479   0.023   4.587  14.223 -0.0038  0.0592  1.0645
 7340SOL    HW233480   0.129   4.560  14.125  0.1569  0.0546  0.5773
 7341SOL     OW33481   2.487   2.787  15.761  0.4885  0.1750  0.1993
 7341SOL    HW133482   2.543   2.746  15.827 -0.2787 -1.5845 -0.2507
 7341SOL    HW233483   2.510   2.722  15.694 -0.4551  0.1017 -0.0462
 7342SOL     OW33484   1.601   2.613   8.137 -0.4511  0.0422 -0.0596
 7342SOL    HW133485   1.551   2.694   8.143  1.1271  0.9817  0.6480
 7342SOL    HW233486   1.535   2.553   8.104  0.2244 -0.8464  0.2080
 7343SOL     OW33487   3.885   2.292   8.651  0.2511  0.3778  0.1936
 7343SOL    HW133488   3.900   2.272   8.559  0.8386  0.5429  0.2560
 7343SOL    HW233489   3.818   2.359   8.640 -0.5088  0.0266  2.5851
 7344SOL     OW33490   2.712   0.068   2.680  0.0274  0.4981 -0.1614
 7344SOL    HW133491   2.735   0.160   2.667  2.0030 -0.0283 -0.3891
 7344SOL    HW233492   2.726   0.037   2.591  1.4649  0.9679 -0.0891
 7345SOL     OW33493   0.632   4.554   1.779 -0.2458  0.6553  0.3760
 7345SOL    HW133494   0.579   4.489   1.826 -0.1382  1.0862  1.0869
 7345SOL    HW233495   0.703   4.495   1.754 -1.5703 -0.5113 -0.6206
 7346SOL     OW33496   2.440   1.953   3.765 -0.1086 -0.7542  0.3130
 7346SOL    HW133497   2.357   1.907   3.761 -0.6506  0.3217 -0.7304
 7346SOL    HW233498   2.430   2.019   3.834 -0.3826  0.2003 -0.6342
 7347SOL     OW33499   2.465   1.392   2.940  0.2093  0.1119  0.6189
 7347SOL    HW133500   2.378   1.418   2.909  0.1742  0.1618  0.7564
 7347SOL    HW233501   2.520   1.443   2.880 -0.8226  0.6167  0.0993
 7348SOL     OW33502   3.777   2.948   2.777 -0.0717 -0.5224  0.2072
 7348SOL    HW133503   3.854   2.895   2.759  0.4913  1.1013 -2.1764
 7348SOL    HW233504   3.810   3.017   2.834  1.5916 -1.6225  0.5569
 7349SOL     OW33505   2.613   1.619  11.348  0.0143 -0.9100 -0.1516
 7349SOL    HW133506   2.645   1.571  11.272  0.6705 -0.9159  0.1280
 7349SOL    HW233507   2.645   1.559  11.416 -0.9434 -1.2489 -0.0097
 7350SOL     OW33508   2.002   0.456   9.069 -0.1449  0.1792  0.7576
 7350SOL    HW133509   2.084   0.501   9.087  1.7545 -2.4093 -1.3925
 7350SOL    HW233510   1.964   0.467   9.156 -0.8993  0.2159  0.4211
 7351SOL     OW33511   0.002   3.405  14.666 -0.4123 -0.0291 -0.5489
 7351SOL    HW133512   4.661   3.344  14.621 -0.7550  0.3912 -0.6698
 7351SOL    HW233513   0.065   3.423  14.596  0.0503 -1.0036 -0.3869
 7352SOL     OW33514   1.276   1.493   4.515  0.0592  0.1502  0.3726
 7352SOL    HW133515   1.323   1.575   4.524  1.5407 -0.6179 -0.3429
 7352SOL    HW233516   1.234   1.495   4.602  0.5041 -2.3341  0.6665
 7353SOL     OW33517   2.686   3.571   0.885 -0.0124  0.3156 -0.8878
 7353SOL    HW133518   2.692   3.580   0.790  0.2639 -2.0858 -1.0947
 7353SOL    HW233519   2.704   3.478   0.898  0.5707  0.2433 -2.1698
 7354SOL     OW33520   1.937   0.698   9.732  0.3338  0.5560  0.4289
 7354SOL    HW133521   2.013   0.685   9.789  1.3808 -1.5800 -1.4604
 7354SOL    HW233522   1.914   0.608   9.709 -4.8140  1.0898  3.5073
 7355SOL     OW33523   2.306   3.456   3.977  0.1347 -0.1761  0.2087
 7355SOL    HW133524   2.381   3.412   3.938  1.0346  2.0041 -0.5250
 7355SOL    HW233525   2.357   3.517   4.031  1.9699 -1.7244  0.2032
 7356SOL     OW33526   4.229   3.793  11.420  0.6709 -0.0383  0.7196
 7356SOL    HW133527   4.159   3.857  11.414  2.8760  1.9304 -3.8662
 7356SOL    HW233528   4.231   3.812  11.514  0.8304 -1.8131  1.0844
 7357SOL     OW33529   2.810   1.977   5.659  0.1109 -0.4993  0.0299
 7357SOL    HW133530   2.722   1.950   5.685  0.7039 -1.2538  1.2658
 7357SOL    HW233531   2.857   1.893   5.659 -2.4807 -1.9271 -2.6844
 7358SOL     OW33532   3.809   1.987   5.200  0.8483  0.1748  0.4993
 7358SOL    HW133533   3.738   1.962   5.259 -0.9218  0.8354 -1.3256
 7358SOL    HW233534   3.783   2.079   5.190 -0.1513 -0.3870 -2.2773
 7359SOL     OW33535   1.660   0.345   3.194 -0.0428 -0.7675  0.0054
 7359SOL    HW133536   1.606   0.333   3.116 -1.5112 -0.7648  1.0300
 7359SOL    HW233537   1.628   0.266   3.237 -0.6989 -0.8386 -0.6274
 7360SOL     OW33538   2.893   3.841  12.668  0.0573  0.1324  0.2791
 7360SOL    HW133539   2.915   3.924  12.711  1.1773  0.1416 -0.2953
 7360SOL    HW233540   2.890   3.868  12.576  1.5337 -0.2704  0.1147
 7361SOL     OW33541   3.233   1.641   4.481 -0.1740 -0.3344  0.4411
 7361SOL    HW133542   3.263   1.635   4.390  0.4026  0.9151  0.5475
 7361SOL    HW233543   3.318   1.652   4.523  0.5656 -2.2010 -0.5691
 7362SOL     OW33544   2.198   0.034   5.292 -0.1201 -0.1664  0.4094
 7362SOL    HW133545   2.249   0.106   5.328  0.9476 -0.5902 -0.2556
 7362SOL    HW233546   2.237   0.016   5.207 -0.9187 -0.1094  0.0361
 7363SOL     OW33547   2.160   2.348  12.796  0.3742 -0.5959 -0.2695
 7363SOL    HW133548   2.190   2.264  12.830 -0.4667 -0.0582  1.7791
 7363SOL    HW233549   2.194   2.414  12.856 -0.4772  0.1451 -0.6108
 7364SOL     OW33550   3.573   2.499   0.836  0.1490  0.0852 -0.1482
 7364SOL    HW133551   3.644   2.546   0.878 -2.1497  1.4474  2.1741
 7364SOL    HW233552   3.502   2.563   0.845  0.6543  0.7460 -0.8949
 7365SOL     OW33553   2.258   4.128   2.608 -0.6836  0.5861  0.0747
 7365SOL    HW133554   2.173   4.094   2.579  0.1665 -0.9492 -0.6216
 7365SOL    HW233555   2.315   4.082   2.546  0.5641  1.2719  0.7143
 7366SOL     OW33556   1.098   2.884   7.824 -0.3035 -0.1796  0.0146
 7366SOL    HW133557   1.074   2.874   7.732  0.3902 -1.3976 -0.0384
 7366SOL    HW233558   1.076   2.795   7.852 -1.5308  0.6806  1.8186
 7367SOL     OW33559   3.024   4.250   8.347  0.9133  0.3524 -0.3705
 7367SOL    HW133560   2.948   4.304   8.368 -0.4834 -2.0472  0.7703
 7367SOL    HW233561   3.031   4.195   8.425  0.1827  0.7715 -0.0113
 7368SOL     OW33562   4.152   3.187   4.702  0.3713  0.1345  0.3446
 7368SOL    HW133563   4.171   3.278   4.680 -0.2829 -0.0438 -0.9343
 7368SOL    HW233564   4.146   3.203   4.796  2.6021  1.9666  0.1719
 7369SOL     OW33565   2.009   0.444   4.744  0.5699  0.0991  0.1299
 7369SOL    HW133566   1.917   0.431   4.771  1.3928 -2.7099  1.6002
 7369SOL    HW233567   2.018   0.360   4.699 -2.2126 -0.1180 -0.0702
 7370SOL     OW33568   1.607   1.795  15.646 -0.3346  0.7352 -0.5763
 7370SOL    HW133569   1.585   1.827  15.733 -2.3264 -0.1794 -0.7528
 7370SOL    HW233570   1.644   1.709  15.662  0.9132  1.9379  2.9050
 7371SOL     OW33571   2.227   1.594   8.636 -0.2721 -0.0714  0.8256
 7371SOL    HW133572   2.308   1.588   8.687 -1.8146  0.6328  3.3787
 7371SOL    HW233573   2.162   1.555   8.694 -1.3869  1.3747  0.5551
 7372SOL     OW33574   1.053   2.197   3.010  0.0785  0.5636 -0.1099
 7372SOL    HW133575   1.070   2.232   2.922 -1.8516  3.1166  0.5295
 7372SOL    HW233576   1.089   2.265   3.067 -1.4552  1.9413 -0.7661
 7373SOL     OW33577   3.965   1.640   2.650  0.1630 -0.4319 -0.0305
 7373SOL    HW133578   3.944   1.727   2.616  1.0101 -0.5550 -0.8989
 7373SOL    HW233579   3.987   1.659   2.741  0.8271 -3.3399  0.4230
 7374SOL     OW33580   2.196   0.578  14.396 -0.1380 -0.7605 -0.3941
 7374SOL    HW133581   2.290   0.592  14.390  0.2232 -2.7726  0.6787
 7374SOL    HW233582   2.193   0.491  14.355 -1.7285  0.1152 -2.1950
 7375SOL     OW33583   4.513   1.208   4.123  0.2696 -0.1897  0.2620
 7375SOL    HW133584   4.506   1.269   4.196 -0.8220 -0.3249  0.2750
 7375SOL    HW233585   4.590   1.237   4.074  0.3557  1.9195  1.6461
 7376SOL     OW33586   2.165   0.344   5.897 -0.2320 -0.3238  0.5773
 7376SOL    HW133587   2.098   0.398   5.939 -0.7203  1.0364 -1.9835
 7376SOL    HW233588   2.239   0.346   5.958 -0.4733  2.2921  0.7697
 7377SOL     OW33589   2.346   2.065  14.379 -0.0552  0.7155 -0.1885
 7377SOL    HW133590   2.350   2.161  14.369  0.9091  0.7217  0.1873
 7377SOL    HW233591   2.310   2.062  14.467  0.1692  0.1615 -0.1177
 7378SOL     OW33592   0.647   2.949   8.016  0.1132  0.0656 -0.4565
 7378SOL    HW133593   0.702   2.875   7.991  1.0100  0.1044  1.3641
 7378SOL    HW233594   0.665   2.953   8.110  2.4918 -0.1160 -0.9050
 7379SOL     OW33595   3.960   0.553   4.653  0.2422  0.0322 -0.2959
 7379SOL    HW133596   4.019   0.478   4.662 -1.0384 -1.0288 -0.7140
 7379SOL    HW233597   3.879   0.517   4.615 -0.1233  1.9262 -1.2820
 7380SOL     OW33598   4.594   3.265  14.211  0.1244  0.4331 -0.2789
 7380SOL    HW133599   4.611   3.359  14.198  1.3804 -0.0062 -1.8716
 7380SOL    HW233600   4.679   3.237  14.177  0.7531  0.6010  1.1734
 7381SOL     OW33601   0.171   1.999   4.001 -0.0768  0.5892  0.0811
 7381SOL    HW133602   0.191   1.978   3.910 -1.9674 -1.8522  0.2242
 7381SOL    HW233603   0.077   1.995   4.019  0.0176 -1.5046  0.1184
 7382SOL     OW33604   2.197   3.649  12.852 -0.0634  0.1573 -0.1597
 7382SOL    HW133605   2.220   3.608  12.936  0.2889 -0.3382 -0.4992
 7382SOL    HW233606   2.107   3.618  12.848  0.1057 -0.1496 -1.5184
 7383SOL     OW33607   2.881   1.720   5.648  0.2657 -0.3141  0.0292
 7383SOL    HW133608   2.878   1.663   5.725  1.4557 -0.8115 -0.2921
 7383SOL    HW233609   2.834   1.661   5.589  1.7161 -3.5007  2.0294
 7384SOL     OW33610   0.091   4.057   5.149 -0.1353  0.5938  0.0721
 7384SOL    HW133611   0.077   3.972   5.191  0.6452  0.7392  0.6158
 7384SOL    HW233612   0.066   4.036   5.059 -1.5348 -0.9534  0.8228
 7385SOL     OW33613   0.397   2.735  10.876 -0.0323 -0.3196 -0.2492
 7385SOL    HW133614   0.326   2.676  10.902  1.3818 -1.3267  1.2704
 7385SOL    HW233615   0.356   2.822  10.873  1.5298  0.3489 -1.9181
 7386SOL     OW33616   1.528   4.021   2.545  0.0131  0.0210  0.1921
 7386SOL    HW133617   1.614   4.059   2.527  1.1175 -1.7719  1.6142
 7386SOL    HW233618   1.551   3.928   2.547  0.1494  0.0418 -0.7728
 7387SOL     OW33619   4.311   4.700   0.764 -0.1029 -0.1567  0.2852
 7387SOL    HW133620   4.377   0.032   0.812 -0.6323 -0.9781  1.8513
 7387SOL    HW233621   4.233   0.005   0.814 -0.6648 -1.7395  0.1294
 7388SOL     OW33622   4.223   4.177  11.569 -0.1494  0.3180  0.0966
 7388SOL    HW133623   4.291   4.111  11.578 -1.6172 -1.2979 -0.6070
 7388SOL    HW233624   4.168   4.148  11.642 -2.3295 -0.4111 -1.8415
 7389SOL     OW33625   2.430   3.221   8.191  0.1623  0.8288  0.1646
 7389SOL    HW133626   2.365   3.287   8.167 -0.6915  0.5356  1.6764
 7389SOL    HW233627   2.457   3.254   8.276 -1.5562  2.2282  0.1644
 7390SOL     OW33628   2.006   0.968   1.803  0.1043 -0.1529 -0.3522
 7390SOL    HW133629   1.934   0.953   1.742 -1.2279  0.9720  0.9320
 7390SOL    HW233630   1.959   1.025   1.863 -0.7483 -1.5721  0.3010
 7391SOL     OW33631   0.857   1.891   1.714 -0.3707  0.1454  0.5330
 7391SOL    HW133632   0.842   1.983   1.693  0.3615 -0.0670 -0.9355
 7391SOL    HW233633   0.908   1.868   1.636  0.6362 -1.4272  1.6545
 7392SOL     OW33634   0.359   0.484   7.167  0.1745  0.3600 -0.0470
 7392SOL    HW133635   0.386   0.406   7.215  1.6207  0.2403 -1.0554
 7392SOL    HW233636   0.325   0.540   7.236  0.0523  1.5665 -1.0720
 7393SOL     OW33637   2.638   3.529  12.220  0.1269  0.6172 -0.3148
 7393SOL    HW133638   2.551   3.564  12.239 -1.0055  0.4420 -5.1971
 7393SOL    HW233639   2.669   3.612  12.184 -1.8410  1.2862 -0.4617
 7394SOL     OW33640   4.388   0.055   3.480  0.7571  0.0841  0.8636
 7394SOL    HW133641   4.426   0.134   3.442 -1.2210  2.2894  3.4893
 7394SOL    HW233642   4.452   0.051   3.551  1.0128  1.5412  0.7157
 7395SOL     OW33643   1.092   4.331   2.280 -0.3862 -0.0359 -0.1974
 7395SOL    HW133644   1.183   4.347   2.305 -1.4173  1.7497  2.4528
 7395SOL    HW233645   1.065   4.242   2.304 -1.3108 -0.7363 -3.8665
 7396SOL     OW33646   0.986   0.437   1.428  0.3929 -0.2199 -0.0388
 7396SOL    HW133647   0.958   0.349   1.402  3.5210 -1.4459  0.7372
 7396SOL    HW233648   0.976   0.436   1.523 -0.6760 -0.7836 -0.1525
 7397SOL     OW33649   0.032   4.098  10.192  0.3611  0.0425  0.0146
 7397SOL    HW133650   0.063   4.039  10.123  0.4844  1.0532 -0.7864
 7397SOL    HW233651   4.697   4.157  10.139 -0.1492 -2.6418 -2.4681
 7398SOL     OW33652   2.065   1.796   2.838  0.1270  0.1015  0.0551
 7398SOL    HW133653   2.100   1.884   2.822 -2.4383  0.5752 -2.9777
 7398SOL    HW233654   2.110   1.763   2.915 -2.0083  2.0735  2.1662
 7399SOL     OW33655   1.852   3.278   7.976 -0.1898  0.0846  0.2256
 7399SOL    HW133656   1.926   3.219   7.991 -1.0652 -0.8039  1.0646
 7399SOL    HW233657   1.905   3.358   7.971  0.9480 -0.6935 -0.2605
 7400SOL     OW33658   3.632   1.982   5.771  0.1445 -0.1596 -0.2923
 7400SOL    HW133659   3.703   1.998   5.709  0.8697 -2.3808 -0.0354
 7400SOL    HW233660   3.556   2.023   5.730 -0.5794  0.3776  1.5656
 7401SOL     OW33661   2.146   2.760   2.304  0.1508  0.0836 -0.1444
 7401SOL    HW133662   2.051   2.751   2.293 -0.2039  2.3939  0.9066
 7401SOL    HW233663   2.178   2.673   2.281  0.0428 -0.6241  2.3587
 7402SOL     OW33664   3.557   0.234   9.622  0.4873 -0.1688  0.5945
 7402SOL    HW133665   3.592   0.313   9.582 -2.6257  1.4523  1.1348
 7402SOL    HW233666   3.468   0.237   9.587  0.4258 -3.4065  0.4719
 7403SOL     OW33667   1.474   1.176   7.027 -0.2158  0.0599  0.0593
 7403SOL    HW133668   1.543   1.241   7.043 -1.4116  0.9849  1.5467
 7403SOL    HW233669   1.438   1.207   6.944 -0.3311 -0.2187  0.0058
 7404SOL     OW33670   3.841   3.432  10.115  0.1512  0.1424  0.0255
 7404SOL    HW133671   3.760   3.457  10.070 -0.5080 -1.6248  0.2373
 7404SOL    HW233672   3.852   3.495  10.186 -0.4021  0.4279 -0.1405
 7405SOL     OW33673   1.758   2.651  13.627  0.6193  0.3917 -0.0533
 7405SOL    HW133674   1.789   2.662  13.537 -1.4260  2.0343 -0.5502
 7405SOL    HW233675   1.804   2.721  13.673  2.1951  0.4650 -1.7096
 7406SOL     OW33676   2.660   2.117   8.859 -0.0387  0.0057  0.4193
 7406SOL    HW133677   2.702   2.104   8.774 -1.2865  0.3968 -0.2680
 7406SOL    HW233678   2.694   2.202   8.886 -2.2708  1.1345 -0.2917
 7407SOL     OW33679   3.867   4.710   2.046 -0.4926 -0.1958  0.0820
 7407SOL    HW133680   3.795   4.692   1.985 -1.7107 -1.0840  1.8027
 7407SOL    HW233681   3.943   4.678   1.997 -0.6231  0.0451 -0.2826
 7408SOL     OW33682   4.387   4.132   7.849 -0.4815  0.0172 -0.5747
 7408SOL    HW133683   4.297   4.161   7.862 -0.0872  1.0752 -0.1172
 7408SOL    HW233684   4.424   4.211   7.808  3.2348 -0.8938  0.9729
 7409SOL     OW33685   3.399   1.980   3.565  0.3759  0.5440  0.1817
 7409SOL    HW133686   3.448   1.934   3.497  0.9788 -1.6414  2.0752
 7409SOL    HW233687   3.341   2.043   3.521  1.1608 -0.4959 -2.3715
 7410SOL     OW33688   1.885   0.036  13.328  0.5067  0.3218  0.1079
 7410SOL    HW133689   1.840   4.687  13.277 -2.0498  0.2703  2.4204
 7410SOL    HW233690   1.866   0.018  13.420  0.3330 -2.6064 -0.5222
 7411SOL     OW33691   4.595   2.810   1.915 -0.0710  0.1307 -0.1603
 7411SOL    HW133692   4.619   2.729   1.959 -0.4817  0.3271  0.4289
 7411SOL    HW233693   4.553   2.869   1.978  0.3767 -0.4106  0.6492
 7412SOL     OW33694   1.891   4.372   2.058  0.5115  0.5346 -0.2992
 7412SOL    HW133695   1.984   4.374   2.080 -0.2775  0.3343  2.9375
 7412SOL    HW233696   1.858   4.299   2.109  1.3699 -0.7949 -1.6593
 7413SOL     OW33697   1.885   0.790   5.650  0.3367 -0.5360 -0.4536
 7413SOL    HW133698   1.973   0.760   5.674  0.5705 -0.0642 -0.7135
 7413SOL    HW233699   1.859   0.701   5.627  0.0815 -0.6527  0.2914
 7414SOL     OW33700   0.202   3.482   7.104 -0.4587  0.1244 -0.6185
 7414SOL    HW133701   0.127   3.504   7.050 -0.7753 -0.6131 -0.4752
 7414SOL    HW233702   0.277   3.521   7.059  0.2536  0.2072  0.6300
 7415SOL     OW33703   0.694   2.706   5.401 -0.5275 -0.1885 -0.0312
 7415SOL    HW133704   0.665   2.616   5.384 -0.3535 -0.7218  2.3932
 7415SOL    HW233705   0.785   2.704   5.432  0.1054 -0.4144 -1.9040
 7416SOL     OW33706   1.177   2.770   2.520  0.1293 -0.5179  0.7447
 7416SOL    HW133707   1.177   2.720   2.439 -2.3445 -0.9804  1.0357
 7416SOL    HW233708   1.261   2.815   2.506 -0.7737  1.0191  0.2124
 7417SOL     OW33709   3.957   0.627   5.339 -0.0525 -0.3114 -0.3618
 7417SOL    HW133710   3.932   0.717   5.316  0.6846 -0.0748 -0.2669
 7417SOL    HW233711   4.041   0.628   5.291  0.8757  1.3261  1.2988
 7418SOL     OW33712   2.247   4.669   7.649 -0.3220 -0.1730 -0.3491
 7418SOL    HW133713   2.201   4.627   7.576 -1.1818 -2.7467  1.6779
 7418SOL    HW233714   2.178   4.699   7.708  0.6536  0.4356  0.4747
 7419SOL     OW33715   3.737   0.934   0.030  0.7918 -0.5063 -0.3454
 7419SOL    HW133716   3.713   0.915   0.121 -1.8660  1.4336 -0.6307
 7419SOL    HW233717   3.684   0.875  17.649  0.3079 -0.7988  0.4530
 7420SOL     OW33718   1.268   4.520   6.515  0.2902 -0.1369 -0.8335
 7420SOL    HW133719   1.333   4.514   6.586 -0.4091  1.1831 -0.0853
 7420SOL    HW233720   1.284   4.444   6.459  1.1221 -0.3981 -0.2486
 7421SOL     OW33721   3.920   1.631  13.862  0.0738 -0.5933 -0.1929
 7421SOL    HW133722   3.967   1.583  13.930 -1.6980 -0.8207  0.8708
 7421SOL    HW233723   3.841   1.658  13.910 -0.0419 -3.7610  1.3755
 7422SOL     OW33724   2.226   0.429   3.856 -0.6659 -0.4580  0.1594
 7422SOL    HW133725   2.136   0.459   3.842 -0.8229 -0.2842  1.5094
 7422SOL    HW233726   2.224   0.418   3.952  0.6678 -3.2619 -0.1426
 7423SOL     OW33727   3.403   0.359   5.821 -0.0312 -0.0381 -0.0603
 7423SOL    HW133728   3.329   0.368   5.881  0.7040 -2.9637  1.2752
 7423SOL    HW233729   3.366   0.380   5.735  0.7242  0.1535 -0.3340
 7424SOL     OW33730   2.267   4.378  10.938  0.1060  0.0985 -0.0292
 7424SOL    HW133731   2.345   4.434  10.935  1.3028 -1.6219 -1.2140
 7424SOL    HW233732   2.266   4.345  10.848 -0.7449  2.5851 -0.9245
 7425SOL     OW33733   0.897   3.750  13.127 -0.5015  0.0387  0.3129
 7425SOL    HW133734   0.968   3.794  13.081  0.2429 -0.2461  1.1998
 7425SOL    HW233735   0.823   3.785  13.078 -0.3286  1.7635  1.2827
 7426SOL     OW33736   4.203   0.658  13.912  0.8799 -0.2467 -0.3465
 7426SOL    HW133737   4.209   0.568  13.882  0.4496 -1.3518  2.8398
 7426SOL    HW233738   4.109   0.660  13.933  1.1088 -0.9580  0.7671
 7427SOL     OW33739   3.230   1.546   3.746  0.1493 -0.1717 -0.3522
 7427SOL    HW133740   3.303   1.601   3.774 -0.3177  0.7739 -0.9859
 7427SOL    HW233741   3.207   1.495   3.824 -2.6929 -0.1399 -1.1814
 7428SOL     OW33742   2.497   3.200   3.762 -0.3872 -0.9306  0.2169
 7428SOL    HW133743   2.529   3.214   3.673 -1.0883 -3.0115 -0.3649
 7428SOL    HW233744   2.519   3.285   3.800  1.2269 -1.8531  1.3789
 7429SOL     OW33745   4.136   3.833   5.567 -0.3748 -0.4122 -0.0739
 7429SOL    HW133746   4.130   3.751   5.616 -1.7201 -0.8537 -0.9811
 7429SOL    HW233747   4.094   3.812   5.484 -0.5783 -1.2909  0.2508
 7430SOL     OW33748   0.564   2.352   7.374 -0.2322  0.0012  0.4433
 7430SOL    HW133749   0.568   2.257   7.368 -0.8258  0.0759 -0.9957
 7430SOL    HW233750   0.499   2.374   7.307  0.6434 -0.2386 -0.4891
 7431SOL     OW33751   4.151   1.389  14.573  0.3507  0.1682 -0.0715
 7431SOL    HW133752   4.148   1.484  14.565 -0.8735  0.1758  0.5431
 7431SOL    HW233753   4.096   1.360  14.500  0.1008  0.1917  0.1103
 7432SOL     OW33754   1.871   0.793  14.430 -0.3521  0.2608  0.2773
 7432SOL    HW133755   1.884   0.707  14.469  1.0526 -0.6712 -2.2225
 7432SOL    HW233756   1.938   0.794  14.362 -2.0509  1.2191 -1.4095
 7433SOL     OW33757   0.806   3.848   1.023 -0.2016 -1.0825  0.1961
 7433SOL    HW133758   0.827   3.826   0.933  1.5399 -3.5363  1.1955
 7433SOL    HW233759   0.820   3.762   1.063 -2.2638 -1.1379  0.8169
 7434SOL     OW33760   3.704   1.151   8.211  0.0372  0.5474  0.0620
 7434SOL    HW133761   3.685   1.144   8.305 -0.9661  1.4047 -0.0831
 7434SOL    HW233762   3.799   1.161   8.213  0.1165 -0.1928  0.2627
 7435SOL     OW33763   3.225   2.977   5.167  0.5242 -0.4004  0.1029
 7435SOL    HW133764   3.189   2.934   5.090 -0.0629  2.3739 -1.1563
 7435SOL    HW233765   3.174   2.929   5.232  0.6363  0.9229  1.1884
 7436SOL     OW33766   2.424   0.277   8.554  0.0791 -0.8391 -0.5851
 7436SOL    HW133767   2.358   0.306   8.617  1.8003 -0.6281  1.1226
 7436SOL    HW233768   2.418   0.182   8.561  0.0219 -0.7736  0.2160
 7437SOL     OW33769   1.474   3.493   2.939 -0.4700  0.5142  0.1628
 7437SOL    HW133770   1.489   3.504   3.033 -2.7435  0.3153  0.5564
 7437SOL    HW233771   1.398   3.544   2.911 -2.0338 -2.0216 -0.2137
 7438SOL     OW33772   3.322   0.815   0.786  0.5468  0.4311  0.0427
 7438SOL    HW133773   3.324   0.882   0.717  0.3520  0.6913  0.2897
 7438SOL    HW233774   3.404   0.843   0.827 -0.3130  2.8343  0.1533
 7439SOL     OW33775   4.178   2.244   2.490  0.2034 -0.3384 -0.2607
 7439SOL    HW133776   4.234   2.215   2.562  0.7177  0.6362 -0.2593
 7439SOL    HW233777   4.236   2.302   2.439  1.1955 -0.4958  0.6937
 7440SOL     OW33778   3.045   0.381   4.309  0.4228 -0.4037 -0.2415
 7440SOL    HW133779   3.034   0.337   4.393 -2.4655  0.1116 -0.3323
 7440SOL    HW233780   2.958   0.382   4.269  1.4004 -0.3976 -2.3970
 7441SOL     OW33781   2.964   0.185  12.482  0.2674  0.3981  0.0013
 7441SOL    HW133782   2.897   0.244  12.519  0.6066  1.3752 -0.9503
 7441SOL    HW233783   2.950   0.107  12.536  0.6127 -1.2664 -2.3048
 7442SOL     OW33784   2.937   1.113  15.435  0.1719 -1.0758 -0.1395
 7442SOL    HW133785   2.997   1.124  15.361 -1.0554  2.2075 -0.6800
 7442SOL    HW233786   2.869   1.054  15.404 -0.6699  0.1729 -0.6798
 7443SOL     OW33787   2.635   3.884   4.962 -0.5679 -0.2943 -0.8462
 7443SOL    HW133788   2.679   3.956   4.917 -0.2406 -1.1750 -1.9462
 7443SOL    HW233789   2.544   3.903   4.939 -0.0420  2.7101 -0.4949
 7444SOL     OW33790   0.614   0.785  17.638  0.4454  0.1044  0.4987
 7444SOL    HW133791   0.695   0.735  17.626  1.2104  1.0363  1.7317
 7444SOL    HW233792   0.608   0.802  17.544  2.1024 -0.4849  0.2937
 7445SOL     OW33793   4.156   0.224   6.856 -0.0396  0.0198  0.2724
 7445SOL    HW133794   4.242   0.262   6.876  0.0165 -1.1889  2.3417
 7445SOL    HW233795   4.183   0.132   6.847 -0.4092 -0.1553  1.0232
 7446SOL     OW33796   1.636   2.205   1.250 -0.5629  0.5397  0.4023
 7446SOL    HW133797   1.727   2.236   1.255  0.0193 -0.9351 -0.8786
 7446SOL    HW233798   1.647   2.120   1.291  0.5218  0.5576  0.1616
 7447SOL     OW33799   3.315   0.904   6.421  0.1787  0.6783  0.1346
 7447SOL    HW133800   3.243   0.865   6.371  1.8103 -0.0751 -1.6779
 7447SOL    HW233801   3.336   0.983   6.370  2.9612 -0.5371 -0.6456
 7448SOL     OW33802   1.663   1.162   3.058  0.2676  0.1479 -0.1199
 7448SOL    HW133803   1.690   1.246   3.093 -1.5880 -0.0360  1.7181
 7448SOL    HW233804   1.747   1.117   3.069  0.9609  1.2691 -0.8841
 7449SOL     OW33805   3.955   4.709   2.624 -0.6763 -0.4414 -0.0584
 7449SOL    HW133806   3.907   4.702   2.542 -0.1543 -1.9005 -0.2271
 7449SOL    HW233807   3.878   0.006   2.680 -1.0323  0.0666 -0.6794
 7450SOL     OW33808   0.193   4.117   8.564  0.2368 -0.0863 -0.0628
 7450SOL    HW133809   0.280   4.086   8.588 -0.6095 -1.4274  1.2751
 7450SOL    HW233810   0.149   4.115   8.649 -2.0545 -1.2784 -1.2908
 7451SOL     OW33811   2.085   2.797  11.632  0.2666  0.5479 -0.0170
 7451SOL    HW133812   2.141   2.728  11.666 -0.0142  0.1974 -0.2697
 7451SOL    HW233813   2.149   2.863  11.605 -0.9393  1.8177  0.2334
 7452SOL     OW33814   3.606   3.804   0.437  0.3055 -0.0396 -0.2627
 7452SOL    HW133815   3.648   3.720   0.419  2.0688  0.7571  0.0662
 7452SOL    HW233816   3.575   3.820   0.348 -0.2593 -1.4259 -0.3111
 7453SOL     OW33817   1.697   4.612   8.682 -0.2970  0.4922 -0.0654
 7453SOL    HW133818   1.782   4.654   8.697 -0.2998 -0.1678  1.7415
 7453SOL    HW233819   1.637   4.685   8.699  1.0994  1.4210  0.8447
 7454SOL     OW33820   0.312   4.500   3.439  0.2403  0.6737  0.1285
 7454SOL    HW133821   0.368   4.449   3.380  0.1236  0.8856 -0.1693
 7454SOL    HW233822   0.366   4.514   3.517  0.5759 -0.7867  0.1666
 7455SOL     OW33823   2.403   2.487  13.197  0.5898  0.5075 -0.4006
 7455SOL    HW133824   2.484   2.510  13.242  1.4883  0.8441 -2.1667
 7455SOL    HW233825   2.387   2.405  13.243  1.6974  0.0381 -0.8310
 7456SOL     OW33826   3.944   4.498  16.761 -0.5827  0.3544  0.1221
 7456SOL    HW133827   3.927   4.591  16.746  2.9292  0.9792 -0.0292
 7456SOL    HW233828   3.989   4.496  16.845  0.7818 -2.1681 -0.6631
 7457SOL     OW33829   1.996   3.844  11.009 -0.1173 -0.1446  0.3207
 7457SOL    HW133830   2.032   3.844  11.097  3.3427  1.1305 -1.0832
 7457SOL    HW233831   2.021   3.933  10.984 -1.1204  0.0980  0.1791
 7458SOL     OW33832   0.628   3.050   5.659 -0.3829 -0.2965  0.6111
 7458SOL    HW133833   0.614   3.033   5.752 -1.5553 -1.4311  0.2231
 7458SOL    HW233834   0.698   2.986   5.647  0.0374  0.2085  0.3616
 7459SOL     OW33835   1.876   3.800   7.587  0.1754 -0.2016  0.1152
 7459SOL    HW133836   1.881   3.866   7.518  0.5882 -1.5015 -1.1119
 7459SOL    HW233837   1.963   3.815   7.625  0.3238 -1.1035  0.1433
 7460SOL     OW33838   1.966   3.252   2.012  0.4793 -0.1289 -0.4886
 7460SOL    HW133839   1.979   3.243   1.918 -0.9897 -1.9449 -0.5091
 7460SOL    HW233840   1.943   3.166   2.047  0.2763  0.7084  1.4993
 7461SOL     OW33841   3.134   4.662   4.280 -0.1725  0.1705 -0.1442
 7461SOL    HW133842   3.141   4.614   4.363  2.0291  1.8170  0.6337
 7461SOL    HW233843   3.213   4.643   4.228 -1.1896  2.4643 -2.5195
 7462SOL     OW33844   0.258   1.176  11.186  0.3814  0.0659  0.0604
 7462SOL    HW133845   0.349   1.192  11.212  0.3608 -0.2314  0.3145
 7462SOL    HW233846   0.241   1.095  11.234  1.0796  0.7584  1.4418
 7463SOL     OW33847   2.758   0.704   2.104  0.4794  0.1499 -0.4503
 7463SOL    HW133848   2.841   0.750   2.115 -0.0364  1.0964 -0.5023
 7463SOL    HW233849   2.756   0.646   2.180  2.5236 -0.1125 -0.5987
 7464SOL     OW33850   2.820   4.193   2.076  0.4664  0.2375 -0.6947
 7464SOL    HW133851   2.899   4.247   2.087  1.6856 -0.6963 -4.5308
 7464SOL    HW233852   2.797   4.206   1.984 -0.7219  0.3777 -0.3659
 7465SOL     OW33853   4.231   2.525   5.310  0.0919  0.0574 -0.0974
 7465SOL    HW133854   4.227   2.546   5.216  0.8631  2.2310  0.3524
 7465SOL    HW233855   4.194   2.602   5.352 -0.2850 -0.3031  0.2325
 7466SOL     OW33856   0.067   4.291   0.799 -0.0930  0.0840  0.1191
 7466SOL    HW133857   0.015   4.241   0.736 -1.4952  1.1101  0.4466
 7466SOL    HW233858   0.149   4.271   0.755  0.7883 -0.5495  2.0364
 7467SOL     OW33859   4.452   4.222   4.984  0.3170 -0.3670 -0.8072
 7467SOL    HW133860   4.365   4.257   5.000  0.4907  0.2690 -1.2371
 7467SOL    HW233861   4.495   4.253   5.064  0.2902 -0.7018 -0.6618
 7468SOL     OW33862   0.951   3.065   3.987  0.6868  0.0866  0.2908
 7468SOL    HW133863   0.886   3.006   4.025  0.2415  0.0404 -0.5435
 7468SOL    HW233864   0.923   3.072   3.896 -0.7237 -1.4036  0.6046
 7469SOL     OW33865   0.685   1.860   0.266 -0.0353 -0.0557  0.0416
 7469SOL    HW133866   0.709   1.890   0.178  1.2381  0.2745  0.5025
 7469SOL    HW233867   0.691   1.764   0.265 -1.3470 -0.1426  0.9124
 7470SOL     OW33868   4.472   2.293  11.369 -0.2310  0.2759  0.3782
 7470SOL    HW133869   4.404   2.359  11.356 -1.2085 -0.8283 -0.1670
 7470SOL    HW233870   4.504   2.284  11.279  0.6733  1.4812  0.5680
 7471SOL     OW33871   1.950   3.385   8.458  0.2869  0.1356  0.3857
 7471SOL    HW133872   1.926   3.313   8.398 -0.4667  0.1429  0.6769
 7471SOL    HW233873   1.908   3.354   8.538 -1.1896 -0.3590 -0.5820
 7472SOL     OW33874   3.056   3.458   3.394  0.8386 -0.6381  0.5431
 7472SOL    HW133875   3.069   3.365   3.414  1.9513 -0.7042 -0.4858
 7472SOL    HW233876   2.967   3.458   3.428  1.3055 -2.0503  1.7942
 7473SOL     OW33877   2.434   3.934  15.599 -0.0195 -0.3333  0.1896
 7473SOL    HW133878   2.528   3.943  15.619 -0.2858  0.8297  0.9421
 7473SOL    HW233879   2.444   3.926  15.504 -0.6967 -1.0814  0.1869
 7474SOL     OW33880   1.285   3.002   0.316  0.0879 -0.1700 -0.3291
 7474SOL    HW133881   1.239   3.057   0.252  0.7291  1.3732  0.5458
 7474SOL    HW233882   1.216   3.018   0.381 -0.1835  0.6066 -0.8065
 7475SOL     OW33883   2.851   0.260  15.727  0.0703  0.1572  0.2946
 7475SOL    HW133884   2.777   0.303  15.685 -1.1317  1.2841  3.5767
 7475SOL    HW233885   2.894   0.216  15.653 -0.2251 -0.2153  0.3465
 7476SOL     OW33886   3.594   0.286   0.766  0.1782  0.7317  0.2778
 7476SOL    HW133887   3.667   0.285   0.828  2.2436 -1.2477 -2.1859
 7476SOL    HW233888   3.628   0.342   0.697  1.3957 -0.2893  0.0441
 7477SOL     OW33889   1.393   4.342   8.913 -0.0508  0.2072 -0.6618
 7477SOL    HW133890   1.480   4.360   8.879  1.5062 -0.8912  2.7764
 7477SOL    HW233891   1.365   4.261   8.870  0.2219  0.2134 -0.8501
 7478SOL     OW33892   1.622   0.604   9.588 -0.0497 -0.3700  0.3305
 7478SOL    HW133893   1.632   0.698   9.572  0.6477 -0.8474 -2.0545
 7478SOL    HW233894   1.542   0.611   9.639  0.1559  2.0370  0.3503
 7479SOL     OW33895   0.281   0.572   0.680 -0.3581  0.3089  0.8201
 7479SOL    HW133896   0.332   0.652   0.690 -0.3198  0.2628  0.9912
 7479SOL    HW233897   0.337   0.503   0.716 -2.1281 -0.9593  1.1648
 7480SOL     OW33898   2.074   3.596   6.299  0.0603 -0.6635 -0.1706
 7480SOL    HW133899   2.143   3.663   6.303 -1.2928  0.8266 -1.6098
 7480SOL    HW233900   2.042   3.626   6.214 -1.7231 -0.0580  0.7076
 7481SOL     OW33901   0.594   1.908   8.045  0.4508 -0.1064  0.0904
 7481SOL    HW133902   0.530   1.877   8.109  1.0485 -1.1110  0.1968
 7481SOL    HW233903   0.544   1.923   7.965 -0.7566 -3.0653  0.2834
 7482SOL     OW33904   1.243   0.701  13.410 -0.6229  0.4047 -0.8146
 7482SOL    HW133905   1.272   0.693  13.501  0.0272 -0.1940 -1.0792
 7482SOL    HW233906   1.333   0.688  13.380 -0.0388 -0.9473  1.4772
 7483SOL     OW33907   0.281   3.763   3.780 -0.2135 -0.1145 -0.1357
 7483SOL    HW133908   0.241   3.690   3.828 -2.3905 -0.4223 -2.4035
 7483SOL    HW233909   0.363   3.732   3.742  1.3769  2.7932  0.9298
 7484SOL     OW33910   0.327   2.722   7.524  0.2181  0.1407  0.2151
 7484SOL    HW133911   0.416   2.721   7.559  0.3164 -1.1689 -0.0651
 7484SOL    HW233912   0.289   2.645   7.567  3.4665 -0.9390  1.1992
 7485SOL     OW33913   2.494   1.939  13.471  0.4496  0.3701 -0.1847
 7485SOL    HW133914   2.561   1.924  13.404  0.0700 -2.7538  0.1714
 7485SOL    HW233915   2.513   1.879  13.543 -2.5386  0.3847  0.5972
 7486SOL     OW33916   0.242   1.759  14.652  0.0268 -0.2248 -0.0487
 7486SOL    HW133917   0.157   1.725  14.681 -0.3058 -1.1499 -2.1070
 7486SOL    HW233918   0.241   1.850  14.683 -1.2910 -0.0661 -0.5224
 7487SOL     OW33919   4.160   3.084   6.863 -0.4386 -0.4408  0.3988
 7487SOL    HW133920   4.091   3.052   6.804 -1.3256  2.3198 -0.0492
 7487SOL    HW233921   4.222   3.105   6.793 -0.9051 -0.5357 -0.0446
 7488SOL     OW33922   0.607   1.734   9.197 -0.3963  0.6547  0.6485
 7488SOL    HW133923   0.527   1.683   9.207 -0.9850  1.6170  0.7819
 7488SOL    HW233924   0.674   1.687   9.247 -0.9780 -0.9897 -0.1164
 7489SOL     OW33925   3.399   2.934   5.713  0.1557 -0.0380 -0.2193
 7489SOL    HW133926   3.338   2.897   5.776  1.3122 -0.7205  0.4974
 7489SOL    HW233927   3.354   2.910   5.632 -2.3478 -0.5047  1.3156
 7490SOL     OW33928   1.912   1.288   8.882  0.1475 -0.2266  0.1204
 7490SOL    HW133929   1.962   1.251   8.955  1.5505 -0.7360 -1.1124
 7490SOL    HW233930   1.855   1.211   8.873 -0.7067  0.7647 -2.9651
 7491SOL     OW33931   1.914   4.170   4.619  0.1399 -0.5078 -0.1378
 7491SOL    HW133932   1.912   4.085   4.575  0.9447 -0.6159  0.0386
 7491SOL    HW233933   1.988   4.157   4.679  0.5850 -0.1330 -0.6091
 7492SOL     OW33934   0.138   3.122  13.210  0.0423  0.3360  0.2459
 7492SOL    HW133935   0.158   3.036  13.172 -1.1244  0.1890 -0.0452
 7492SOL    HW233936   0.209   3.128  13.273  0.3241  2.5345 -0.2780
 7493SOL     OW33937   1.069   1.378   8.378  0.1345  0.1406  0.6193
 7493SOL    HW133938   0.976   1.395   8.393 -0.1688 -0.6137 -0.4337
 7493SOL    HW233939   1.103   1.407   8.463  0.6773 -0.8328  0.7337
 7494SOL     OW33940   2.647   1.122   6.673  0.2223  0.3461 -0.2611
 7494SOL    HW133941   2.709   1.119   6.745 -2.1201 -0.2774  1.7233
 7494SOL    HW233942   2.617   1.212   6.670  2.6889  1.1578 -0.3600
 7495SOL     OW33943   1.555   2.996   0.327  0.0931  0.2703  0.1318
 7495SOL    HW133944   1.560   2.901   0.320  0.9883  0.2835  0.6014
 7495SOL    HW233945   1.461   3.014   0.335  0.0339  1.3575 -2.9311
 7496SOL     OW33946   1.696   1.253  13.320 -0.7673  0.8081 -0.3316
 7496SOL    HW133947   1.704   1.227  13.412 -0.4814 -0.8479 -0.8337
 7496SOL    HW233948   1.665   1.343  13.332 -1.1689  0.5313  0.7418
 7497SOL     OW33949   4.065   0.030   5.002  0.4237 -0.1371 -0.2327
 7497SOL    HW133950   4.158   0.010   5.010  0.8306  2.0464  0.3866
 7497SOL    HW233951   4.057   0.076   4.919 -0.6331 -2.5195 -1.4468
 7498SOL     OW33952   2.287   2.203   3.877  0.1827 -0.7575  0.4511
 7498SOL    HW133953   2.269   2.296   3.865  1.0207 -0.6612 -0.0822
 7498SOL    HW233954   2.241   2.166   3.802 -0.2075 -1.4749  1.0462
 7499SOL     OW33955   0.642   2.767   3.364 -0.0480  0.0072  0.8138
 7499SOL    HW133956   0.681   2.702   3.304  0.5881  0.2299  0.9838
 7499SOL    HW233957   0.644   2.846   3.311  2.4055 -0.2739  0.4904
 7500SOL     OW33958   3.808   3.587  16.160  0.3961 -0.3182 -0.3401
 7500SOL    HW133959   3.813   3.548  16.247 -1.3764  2.0954  0.8504
 7500SOL    HW233960   3.762   3.669  16.177 -0.9349 -0.4501 -3.2570
 7501SOL     OW33961   3.802   3.099   4.268  0.1268 -0.1970  0.3604
 7501SOL    HW133962   3.717   3.135   4.293 -0.7810 -0.8574 -1.8077
 7501SOL    HW233963   3.859   3.172   4.293  0.2911 -0.3936  0.5665
 7502SOL     OW33964   4.190   2.880  10.666 -0.0065 -0.0795  0.2695
 7502SOL    HW133965   4.239   2.848  10.741  0.1029 -0.4743  0.0277
 7502SOL    HW233966   4.102   2.848  10.687  0.9399 -0.7098  3.2775
 7503SOL     OW33967   0.075   0.806   5.098  0.2725 -0.1644  0.5085
 7503SOL    HW133968   0.055   0.823   5.005 -0.8726  1.8103  1.1162
 7503SOL    HW233969   0.162   0.843   5.109 -0.5074  2.6355 -2.5703
 7504SOL     OW33970   1.728   3.199   4.291 -0.1577  0.8655 -0.1466
 7504SOL    HW133971   1.813   3.174   4.328 -1.3223  0.1703  2.0622
 7504SOL    HW233972   1.733   3.142   4.214  3.4118  1.8977 -0.6628
 7505SOL     OW33973   2.890   2.010   4.061  0.4759  0.3903  0.4480
 7505SOL    HW133974   2.863   2.020   3.970 -1.0744  1.1585  0.9927
 7505SOL    HW233975   2.969   2.064   4.060 -0.4408  1.7507  1.8976
 7506SOL     OW33976   3.646   0.917   4.047  0.4436  0.7755  0.0593
 7506SOL    HW133977   3.649   0.957   4.134 -0.1009  1.0946 -0.0740
 7506SOL    HW233978   3.717   0.853   4.050  1.7564  2.1915 -0.9037
 7507SOL     OW33979   2.476   2.905   0.972 -0.2424 -0.3577 -0.2215
 7507SOL    HW133980   2.392   2.858   0.969  0.9741 -2.5768  0.6705
 7507SOL    HW233981   2.534   2.840   1.012 -1.7723 -0.7925  1.2877
 7508SOL     OW33982   3.555   3.667   4.032  0.1086  1.0816  0.0831
 7508SOL    HW133983   3.495   3.631   4.097 -1.6315  0.9786 -1.5636
 7508SOL    HW233984   3.516   3.636   3.950  1.9478  0.1194 -0.4273
 7509SOL     OW33985   0.695   1.196   8.286  0.4652  0.1069  0.7907
 7509SOL    HW133986   0.612   1.149   8.294  0.8007 -0.5442  0.4520
 7509SOL    HW233987   0.742   1.125   8.243 -0.6689  0.0447 -0.3422
 7510SOL     OW33988   0.256   3.613   5.737 -0.2247 -0.4821 -0.3738
 7510SOL    HW133989   0.272   3.563   5.817 -1.2261 -0.5073 -0.1915
 7510SOL    HW233990   0.247   3.703   5.768  3.1925 -0.3219  0.2144
 7511SOL     OW33991   3.106   3.522  14.461  0.1756 -0.4584  0.0639
 7511SOL    HW133992   3.200   3.515  14.481  0.3716  1.9095 -0.0633
 7511SOL    HW233993   3.100   3.505  14.367 -1.1553  0.4758 -0.0164
 7512SOL     OW33994   4.020   2.253   9.196  0.0355  0.2665 -0.3078
 7512SOL    HW133995   4.014   2.178   9.136  2.5376 -0.0908 -0.1033
 7512SOL    HW233996   4.038   2.327   9.139  0.0769 -0.9733 -1.8928
 7513SOL     OW33997   2.452   0.206   6.928  0.2834 -0.6230 -0.1100
 7513SOL    HW133998   2.356   0.208   6.927  0.3279  0.1979 -3.1299
 7513SOL    HW233999   2.471   0.297   6.951 -0.0084 -0.6322  0.1812
 7514SOL     OW34000   0.097   3.454   9.318 -0.3870 -0.3798 -0.2020
 7514SOL    HW134001   0.137   3.518   9.376  0.8755 -0.5098 -0.9211
 7514SOL    HW234002   0.170   3.393   9.331 -1.2505 -0.8860  2.1618
 7515SOL     OW34003   0.043   1.612  10.453 -0.4055 -0.4262 -0.5859
 7515SOL    HW134004   0.111   1.613  10.520 -0.5565  2.4875 -0.4833
 7515SOL    HW234005   4.681   1.654  10.487 -1.0048 -2.2954  0.3350
 7516SOL     OW34006   0.301   3.397   4.386 -0.2716  0.2044  0.0580
 7516SOL    HW134007   0.379   3.346   4.365  0.6751  1.3103  0.9333
 7516SOL    HW234008   0.309   3.476   4.332 -1.1077 -0.2772 -0.7715
 7517SOL     OW34009   0.381   0.848   7.896 -0.4001  0.1512  1.3274
 7517SOL    HW134010   0.367   0.940   7.914 -3.4895  0.0387 -0.4540
 7517SOL    HW234011   0.424   0.815   7.975 -0.6820 -1.0560  0.9841
 7518SOL     OW34012   0.446   4.079  10.828 -0.3405  0.2317  0.2824
 7518SOL    HW134013   0.436   4.022  10.752 -1.6137  3.1906 -1.8082
 7518SOL    HW234014   0.356   4.113  10.831  0.1255  1.4367  0.9876
 7519SOL     OW34015   0.900   3.296   9.262 -0.6916  0.3507  0.0191
 7519SOL    HW134016   0.805   3.286   9.271 -0.3996 -3.6819 -1.4050
 7519SOL    HW234017   0.912   3.321   9.354  1.5173  1.0522 -0.4728
 7520SOL     OW34018   0.399   1.581   9.275 -0.1995 -0.1206  0.6840
 7520SOL    HW134019   0.383   1.500   9.225 -2.4561 -1.5428  3.7398
 7520SOL    HW234020   0.361   1.560   9.360  1.2260  0.0045  1.3562
 7521SOL     OW34021   0.189   3.296  14.842  0.3180 -0.3384  0.3777
 7521SOL    HW134022   0.191   3.200  14.844 -2.9888 -0.4205  0.2660
 7521SOL    HW234023   0.110   3.318  14.792  0.4371  0.2736  0.4585
 7522SOL     OW34024   0.787   1.403   2.727 -0.5056 -0.7537  0.3295
 7522SOL    HW134025   0.811   1.449   2.808  0.3135  0.3241 -0.5340
 7522SOL    HW234026   0.831   1.455   2.660  1.0667 -0.6056  1.4708
 7523SOL     OW34027   1.686   1.177   4.473  0.2632  0.1372 -0.0580
 7523SOL    HW134028   1.621   1.196   4.541  1.5789  1.9393  0.7079
 7523SOL    HW234029   1.733   1.104   4.514 -2.3307 -0.5854  1.5977
 7524SOL     OW34030   3.521   3.735   5.627 -0.3990  0.0136  0.1761
 7524SOL    HW134031   3.448   3.707   5.683 -1.0348  0.5889 -0.3536
 7524SOL    HW234032   3.480   3.808   5.580 -0.5575  0.3435  0.8338
 7525SOL     OW34033   1.914   2.298   8.656  0.1450  0.4368  0.2042
 7525SOL    HW134034   1.886   2.353   8.729  1.9656 -0.7415  1.8042
 7525SOL    HW234035   2.010   2.301   8.660  0.2983 -3.3641 -0.1306
 7526SOL     OW34036   0.003   1.932   7.619 -0.1025 -0.3337  0.0515
 7526SOL    HW134037   4.653   1.931   7.551  0.3829  2.0775 -0.4992
 7526SOL    HW234038   4.694   1.854   7.667 -0.6019 -0.2847 -0.1424
 7527SOL     OW34039   2.603   3.330   8.776 -0.1710  0.3268 -0.4952
 7527SOL    HW134040   2.583   3.292   8.861  0.4472  1.7653  0.2907
 7527SOL    HW234041   2.513   3.363   8.766  0.4526  1.8366 -1.0858
 7528SOL     OW34042   1.285   1.387   4.261  0.1588  0.1995  0.0092
 7528SOL    HW134043   1.301   1.301   4.301 -1.3955  1.1742  2.7102
 7528SOL    HW234044   1.266   1.441   4.338  1.7654  0.6995  0.0382
 7529SOL     OW34045   2.072   4.420  14.013 -0.0987 -0.1011  0.2551
 7529SOL    HW134046   1.990   4.411  13.964 -1.4303  1.9719  2.0725
 7529SOL    HW234047   2.086   4.328  14.035 -1.1131  0.3490  2.7418
 7530SOL     OW34048   1.245   2.104   5.853 -0.0881  0.9635 -0.4112
 7530SOL    HW134049   1.187   2.135   5.923  0.6511  0.4730  0.4226
 7530SOL    HW234050   1.253   2.178   5.793 -2.8036  2.1578  0.7001
 7531SOL     OW34051   3.242   4.514   3.854  0.1531 -0.3449 -0.0534
 7531SOL    HW134052   3.267   4.563   3.776  0.9609  0.0770  0.4672
 7531SOL    HW234053   3.149   4.537   3.857 -0.1111 -1.3807 -0.5485
 7532SOL     OW34054   4.312   2.455  13.419 -0.1934 -0.3386 -0.3507
 7532SOL    HW134055   4.248   2.467  13.490 -1.6307  0.3690 -1.7749
 7532SOL    HW234056   4.292   2.364  13.396 -0.0682  0.1167 -2.2339
 7533SOL     OW34057   2.084   1.285   6.437 -0.7693 -0.3182 -0.0403
 7533SOL    HW134058   2.012   1.320   6.489 -0.9546  0.5951 -0.9043
 7533SOL    HW234059   2.143   1.360   6.446 -0.6544 -0.5406  1.1210
 7534SOL     OW34060   1.571   1.243   9.218 -0.0494  0.4625  0.3074
 7534SOL    HW134061   1.617   1.210   9.295  1.3290 -0.0315 -0.7358
 7534SOL    HW234062   1.548   1.330   9.252  0.2676  0.8246 -0.3994
 7535SOL     OW34063   4.058   0.233   6.196 -0.4262  0.3175  0.4587
 7535SOL    HW134064   4.044   0.288   6.120  1.1122 -1.4384 -1.1036
 7535SOL    HW234065   4.116   0.290   6.247 -1.9963  1.8707  0.4762
 7536SOL     OW34066   4.053   1.000   0.975  0.2253  0.1109  0.5619
 7536SOL    HW134067   4.043   0.907   0.993  2.0211 -0.3352 -0.6720
 7536SOL    HW234068   4.106   1.032   1.048  1.3765 -1.7066  0.5304
 7537SOL     OW34069   3.416   1.820   0.305  0.5807 -0.0193  0.3240
 7537SOL    HW134070   3.466   1.898   0.282  0.5918 -0.1999 -0.2610
 7537SOL    HW234071   3.333   1.861   0.329 -0.3797 -0.9797 -1.3935
 7538SOL     OW34072   2.501   3.989   4.193 -0.5115  0.8565  0.2229
 7538SOL    HW134073   2.430   3.949   4.143 -0.6146  0.1983  0.8905
 7538SOL    HW234074   2.578   4.001   4.137 -0.5886 -0.6187 -0.2027
 7539SOL     OW34075   0.006   2.930   7.664 -0.4175 -0.1966 -0.1465
 7539SOL    HW134076   0.080   2.963   7.613 -0.1243  1.5623  1.4002
 7539SOL    HW234077   0.015   2.835   7.657  0.5190 -0.0079 -1.4070
 7540SOL     OW34078   1.883   2.737   2.244  0.3908  0.3489  0.0469
 7540SOL    HW134079   1.807   2.795   2.254  0.3272  0.1540  0.7286
 7540SOL    HW234080   1.845   2.650   2.242 -1.6348  1.2641 -1.1923
 7541SOL     OW34081   3.746   3.040   6.529  0.9013 -0.2427 -0.1215
 7541SOL    HW134082   3.702   2.956   6.545  0.8701 -0.2600 -0.2994
 7541SOL    HW234083   3.668   3.091   6.509  1.7711  2.0438  2.2377
 7542SOL     OW34084   2.709   1.367   8.622  0.0061  0.4645  0.4584
 7542SOL    HW134085   2.767   1.316   8.679  1.7273  1.7387 -0.1771
 7542SOL    HW234086   2.770   1.438   8.604  0.8943 -1.0222 -2.3123
 7543SOL     OW34087   2.431   0.486   8.056 -0.0290 -0.9248  0.8410
 7543SOL    HW134088   2.340   0.502   8.078  0.2967  0.8483  0.8811
 7543SOL    HW234089   2.466   0.569   8.089 -0.8618 -0.1980 -0.1153
 7544SOL     OW34090   3.836   1.910   3.066 -0.1804 -0.3052  0.1165
 7544SOL    HW134091   3.754   1.868   3.038 -0.0288 -2.4183  2.8814
 7544SOL    HW234092   3.831   1.886   3.158 -2.8296  0.0019  0.0422
 7545SOL     OW34093   0.978   0.715  13.331 -0.0809 -0.1573 -0.3829
 7545SOL    HW134094   1.001   0.802  13.297  0.7369 -0.2711 -0.1261
 7545SOL    HW234095   1.065   0.684  13.356 -0.1800  0.5787  0.8938
 7546SOL     OW34096   1.587   4.541  13.371  0.0153  0.9131  0.0485
 7546SOL    HW134097   1.650   4.577  13.308 -0.7775 -1.4591 -2.0834
 7546SOL    HW234098   1.515   4.604  13.360  1.7089  2.7567 -0.5091
 7547SOL     OW34099   1.906   3.038   5.093 -0.2609  0.1711  0.4444
 7547SOL    HW134100   1.873   3.014   5.179 -0.4207  2.3302  0.9801
 7547SOL    HW234101   1.976   3.101   5.111 -0.4981  0.6766 -0.3996
 7548SOL     OW34102   3.591   0.248  14.465  0.2851  0.1665 -0.3884
 7548SOL    HW134103   3.581   0.289  14.551  1.2657 -1.1021  0.3267
 7548SOL    HW234104   3.686   0.239  14.459  0.2906  0.5092 -0.8128
 7549SOL     OW34105   0.810   2.151   0.016  0.4673 -0.1895  0.0910
 7549SOL    HW134106   0.763   2.225   0.055 -1.0472 -0.5360 -1.0650
 7549SOL    HW234107   0.894   2.165   0.058  1.0429  0.8040 -1.4019
 7550SOL     OW34108   2.084   2.669   3.976 -0.3523 -0.1337 -0.0056
 7550SOL    HW134109   2.015   2.726   3.941 -0.6040 -0.3986  0.0602
 7550SOL    HW234110   2.039   2.622   4.046 -0.7251  0.8220  0.3859
 7551SOL     OW34111   0.315   3.712   2.047 -0.2997 -0.7309 -0.4927
 7551SOL    HW134112   0.250   3.715   1.977 -0.6238  1.5398 -0.0950
 7551SOL    HW234113   0.386   3.704   1.983 -1.1535 -1.3595 -1.3530
 7552SOL     OW34114   2.860   4.092   6.966  0.2684 -0.2211  0.3346
 7552SOL    HW134115   2.925   4.027   6.941 -0.2475  0.5115 -2.8488
 7552SOL    HW234116   2.827   4.042   7.041  1.0318 -0.6844  0.3544
 7553SOL     OW34117   3.521   1.917  11.754 -0.1250 -0.0169  0.1157
 7553SOL    HW134118   3.612   1.913  11.781 -0.5064 -1.9709  1.1286
 7553SOL    HW234119   3.513   1.831  11.713 -1.9881 -0.3799  1.2264
 7554SOL     OW34120   0.924   2.904   4.213  0.3335 -0.3321 -0.1479
 7554SOL    HW134121   0.880   2.831   4.258  0.2146 -1.1810 -1.6294
 7554SOL    HW234122   1.018   2.886   4.211  0.4080  0.1037 -0.7022
 7555SOL     OW34123   4.454   1.149   6.238 -0.1514 -0.4611  1.2213
 7555SOL    HW134124   4.378   1.187   6.281 -0.5805 -0.0514  0.0966
 7555SOL    HW234125   4.447   1.174   6.146  0.7202 -1.6284  0.8316
 7556SOL     OW34126   2.269   0.197  17.183  0.1390 -0.1562  0.4958
 7556SOL    HW134127   2.181   0.208  17.220  1.0049  0.8171  2.1964
 7556SOL    HW234128   2.285   0.107  17.212  0.1128 -0.6392 -0.9604
 7557SOL     OW34129   0.494   4.640   9.366 -0.7807 -0.3692 -0.0426
 7557SOL    HW134130   0.398   4.642   9.372 -0.8264  0.8534 -1.1095
 7557SOL    HW234131   0.523   0.002   9.410  0.8140 -0.5905 -0.6996
 7558SOL     OW34132   1.866   2.386   6.370 -0.3243 -0.0842  0.4319
 7558SOL    HW134133   1.850   2.461   6.313  2.5560  0.4635  0.3303
 7558SOL    HW234134   1.793   2.400   6.430 -1.5510 -0.4095 -1.0060
 7559SOL     OW34135   4.173   3.433   4.587 -0.0981  0.4603 -0.6356
 7559SOL    HW134136   4.247   3.380   4.556 -1.3859 -1.2717 -0.7616
 7559SOL    HW234137   4.227   3.512   4.592 -0.5924  0.6672  1.5889
 7560SOL     OW34138   2.924   2.624  14.035  0.1720  0.4105 -0.2220
 7560SOL    HW134139   2.864   2.556  14.065 -0.5777  1.8757  1.6010
 7560SOL    HW234140   2.875   2.699  14.004 -0.0246 -0.1921 -1.3729
 7561SOL     OW34141   2.222   3.316   8.439  0.2604  0.1311 -0.1860
 7561SOL    HW134142   2.140   3.361   8.462  0.0817 -0.7490  0.8654
 7561SOL    HW234143   2.190   3.226   8.434 -0.8094  0.4359  0.9250
 7562SOL     OW34144   1.767   2.811   4.668  0.3282 -0.3905 -0.3789
 7562SOL    HW134145   1.789   2.901   4.694  0.4441 -0.1212 -1.4268
 7562SOL    HW234146   1.857   2.784   4.648  0.4321 -0.0568 -0.3636
 7563SOL     OW34147   2.372   1.208   4.998  0.0594 -0.4557 -0.5097
 7563SOL    HW134148   2.425   1.196   4.920  0.2985  0.4088 -0.4737
 7563SOL    HW234149   2.420   1.161   5.066  0.8266 -0.3766 -1.0097
 7564SOL     OW34150   3.807   4.275   7.041 -0.2011  0.0359 -0.2732
 7564SOL    HW134151   3.872   4.312   6.982 -0.3105  2.1058  0.9178
 7564SOL    HW234152   3.828   4.310   7.128 -3.0570 -1.0590  0.8695
 7565SOL     OW34153   2.757   2.788  13.828  0.0427 -0.2718 -0.5254
 7565SOL    HW134154   2.691   2.808  13.895 -0.3169  0.8834 -1.2451
 7565SOL    HW234155   2.712   2.716  13.785 -0.0329 -0.5378 -0.0111
 7566SOL     OW34156   1.252   1.299   9.696 -0.0024  0.0548  0.3270
 7566SOL    HW134157   1.211   1.216   9.719 -0.6865  0.6918  1.4138
 7566SOL    HW234158   1.221   1.355   9.768 -2.3741  0.9482 -1.3903
 7567SOL     OW34159   3.398   3.415   1.908  0.2143  0.0461  0.0062
 7567SOL    HW134160   3.461   3.450   1.970  0.2556 -1.5787  0.8819
 7567SOL    HW234161   3.454   3.395   1.833 -0.3065 -0.5816 -0.2127
 7568SOL     OW34162   3.955   4.496   3.121  0.2942  0.1197 -0.1224
 7568SOL    HW134163   4.014   4.565   3.089  0.6544 -0.5757 -0.9684
 7568SOL    HW234164   3.993   4.416   3.085  1.3179  0.4263  0.2492
 7569SOL     OW34165   1.211   0.273   1.837  0.5005 -0.3312  0.5075
 7569SOL    HW134166   1.200   0.334   1.910 -0.2944  0.9020 -0.6586
 7569SOL    HW234167   1.251   0.197   1.880  1.5013 -1.9491 -3.3296
 7570SOL     OW34168   1.161   2.037   2.386  0.3503 -0.4788  0.4786
 7570SOL    HW134169   1.235   2.054   2.329 -2.2301  3.9245 -1.5910
 7570SOL    HW234170   1.125   1.956   2.349  1.7366 -0.8529 -0.0380
 7571SOL     OW34171   1.365   4.577   0.517  0.7320  0.3180 -0.4753
 7571SOL    HW134172   1.311   4.527   0.578 -0.7169  0.9778 -1.1989
 7571SOL    HW234173   1.440   4.518   0.514 -0.3170 -1.1196  1.4398
 7572SOL     OW34174   4.558   3.608   0.580 -0.1620 -0.4035  0.4742
 7572SOL    HW134175   4.642   3.606   0.534 -1.0342  1.3043 -1.1714
 7572SOL    HW234176   4.552   3.518   0.612  1.3128 -0.0141  1.8541
 7573SOL     OW34177   0.265   2.034  14.357  0.4088 -0.2824 -0.2112
 7573SOL    HW134178   0.325   1.960  14.359  0.0182 -0.6043 -0.4730
 7573SOL    HW234179   0.327   2.101  14.328 -0.6492  1.1033  0.7448
 7574SOL     OW34180   3.670   0.398   3.046 -0.2839 -0.0303  0.4122
 7574SOL    HW134181   3.634   0.475   3.090 -2.2775 -0.4367 -0.5295
 7574SOL    HW234182   3.749   0.439   3.010 -1.0630  2.3928  1.4364
 7575SOL     OW34183   1.184   3.473   8.768 -0.1341  0.4514 -0.1166
 7575SOL    HW134184   1.171   3.416   8.844  1.4488  0.2679  0.0302
 7575SOL    HW234185   1.212   3.551   8.816  0.4010 -0.8095  1.6589
 7576SOL     OW34186   0.225   4.254   6.544  0.4143 -0.0397 -0.7592
 7576SOL    HW134187   0.231   4.172   6.593  0.3426  0.3567 -0.0808
 7576SOL    HW234188   0.156   4.304   6.588  1.2560  2.1134 -1.8623
 7577SOL     OW34189   1.629   3.159   7.289  0.7391  0.1913  0.0182
 7577SOL    HW134190   1.716   3.171   7.251 -0.2307 -0.7593 -2.4598
 7577SOL    HW234191   1.634   3.081   7.345  0.2230 -1.3788 -2.1547
 7578SOL     OW34192   1.561   2.267   4.554  0.3356 -0.3481 -0.4555
 7578SOL    HW134193   1.543   2.227   4.639  0.0463  0.2697 -0.2229
 7578SOL    HW234194   1.576   2.192   4.496 -2.6514 -0.4577 -1.0792
 7579SOL     OW34195   3.840   3.139   4.878 -0.1788 -0.4514  0.1802
 7579SOL    HW134196   3.774   3.203   4.905  2.4422  2.1638  0.3410
 7579SOL    HW234197   3.859   3.180   4.793 -2.0792 -1.4328 -0.7121
 7580SOL     OW34198   1.604   0.157  11.540  0.6610  0.2727 -0.0600
 7580SOL    HW134199   1.633   0.247  11.525 -1.3117  1.0527  0.8233
 7580SOL    HW234200   1.644   0.149  11.627  0.5776  0.5035 -0.0010
 7581SOL     OW34201   2.010   0.720   6.062 -0.4343 -0.0419 -0.1902
 7581SOL    HW134202   1.976   0.761   6.142  0.8740  1.7522 -0.5410
 7581SOL    HW234203   2.066   0.653   6.100 -0.6592 -1.1350 -1.7941
 7582SOL     OW34204   3.608   0.472   2.619  0.2486 -0.0145 -0.4282
 7582SOL    HW134205   3.681   0.477   2.557 -0.6627 -2.1179 -1.6553
 7582SOL    HW234206   3.529   0.482   2.567 -1.2195  0.7991  1.9362
 7583SOL     OW34207   2.062   0.827  11.426 -0.1073  0.2436 -0.4495
 7583SOL    HW134208   2.073   0.901  11.366 -0.0526  0.4513 -0.1852
 7583SOL    HW234209   2.114   0.861  11.499  1.5971 -0.5009 -1.3083
 7584SOL     OW34210   4.000   3.671   4.867 -0.1257  0.1033 -0.6683
 7584SOL    HW134211   4.091   3.643   4.883  0.5427  1.1878 -2.5541
 7584SOL    HW234212   4.017   3.757   4.829  2.5676 -0.0735  0.1236
 7585SOL     OW34213   0.278   2.620   4.122  0.0267  0.0660  0.8533
 7585SOL    HW134214   0.337   2.680   4.075 -1.9850 -0.7192 -2.6934
 7585SOL    HW234215   0.224   2.596   4.046 -0.8615 -1.0458  1.8446
 7586SOL     OW34216   1.228   2.235  14.211  0.5308 -0.0949 -0.2540
 7586SOL    HW134217   1.146   2.187  14.200  0.2142  0.0628  1.3375
 7586SOL    HW234218   1.224   2.300  14.141 -1.9780  2.0268  1.8453
 7587SOL     OW34219   2.614   0.990   1.547 -0.1347  0.0211 -0.3585
 7587SOL    HW134220   2.559   1.067   1.535  0.4453  0.4180 -0.4989
 7587SOL    HW234221   2.676   1.011   1.477  0.2165 -0.1245 -0.0902
 7588SOL     OW34222   1.863   4.550   4.773 -0.1947 -0.4786 -0.1989
 7588SOL    HW134223   1.875   4.619   4.708  0.2904 -0.0814  0.3048
 7588SOL    HW234224   1.805   4.601   4.830 -1.4368  0.6351 -2.4518
 7589SOL     OW34225   0.909   3.252   5.165 -0.4546 -0.6286  0.0683
 7589SOL    HW134226   0.985   3.276   5.112 -1.8235  1.1144 -1.0653
 7589SOL    HW234227   0.834   3.263   5.107 -0.1466 -2.0406 -0.5872
 7590SOL     OW34228   1.641   0.862   9.555  0.2760  0.2222 -0.0692
 7590SOL    HW134229   1.575   0.927   9.531 -0.7063 -1.7336 -2.6643
 7590SOL    HW234230   1.660   0.899   9.642 -0.5444 -1.3543  0.7932
 7591SOL     OW34231   0.431   3.294   7.507  0.4334 -0.1278 -0.2370
 7591SOL    HW134232   0.474   3.226   7.456 -2.2195 -0.4550 -2.0724
 7591SOL    HW234233   0.338   3.279   7.491  0.4185  0.4038 -0.6287
 7592SOL     OW34234   4.415   2.794   5.421  0.6222 -0.3216 -0.7898
 7592SOL    HW134235   4.378   2.830   5.501 -0.6771  0.4628 -1.7255
 7592SOL    HW234236   4.455   2.873   5.386 -2.0993  1.3699 -0.0676
 7593SOL     OW34237   0.122   0.449  13.096  0.5245 -0.1041 -0.1904
 7593SOL    HW134238   0.075   0.406  13.024  0.9036 -2.5146  1.0063
 7593SOL    HW234239   0.148   0.532  13.055 -1.6498 -0.2484 -1.8488
 7594SOL     OW34240   1.606   4.032   3.505  0.1849 -0.4110  0.9981
 7594SOL    HW134241   1.695   3.999   3.507  0.7423  1.1406  2.1770
 7594SOL    HW234242   1.573   3.982   3.431  0.7821 -1.8431  1.7087
 7595SOL     OW34243   4.296   1.803   5.693  0.2985  0.0113 -0.9125
 7595SOL    HW134244   4.306   1.884   5.644 -0.8084  0.3081 -0.6521
 7595SOL    HW234245   4.387   1.795   5.721  0.0431  0.8463  0.1219
 7596SOL     OW34246   4.155   4.326  15.696  0.8037  0.1557  0.2507
 7596SOL    HW134247   4.179   4.291  15.782 -2.5366  0.1607  1.2086
 7596SOL    HW234248   4.220   4.391  15.670 -2.0462  2.6553 -0.6543
 7597SOL     OW34249   2.564   1.141   7.429 -0.2117 -0.2051  0.0766
 7597SOL    HW134250   2.479   1.105   7.406  0.5181 -0.4302 -2.2990
 7597SOL    HW234251   2.558   1.138   7.524 -0.4077  1.0979  0.1050
 7598SOL     OW34252   1.353   2.777   4.442  0.0790  0.5519 -0.3597
 7598SOL    HW134253   1.335   2.687   4.470 -2.1877  1.2789  0.4556
 7598SOL    HW234254   1.389   2.814   4.522 -1.1682  0.1124  0.3978
 7599SOL     OW34255   4.599   2.070  10.783 -0.8161  0.1168  0.3412
 7599SOL    HW134256   4.539   2.135  10.819  1.2908  1.8978  0.6147
 7599SOL    HW234257   4.672   2.068  10.844 -2.2193 -0.1554  1.9923
 7600SOL     OW34258   0.218   1.134   3.301  0.3055  0.4465 -0.2703
 7600SOL    HW134259   0.311   1.132   3.279  0.2031  1.9617 -0.8690
 7600SOL    HW234260   0.231   1.118   3.394  1.8645  0.3472 -0.5134
 7601SOL     OW34261   0.748   0.459   9.054  0.6158 -0.4388 -0.3314
 7601SOL    HW134262   0.724   0.411   8.975  0.5846 -0.9996  0.0200
 7601SOL    HW234263   0.705   0.411   9.124  0.4424  0.4573  0.1800
 7602SOL     OW34264   1.530   4.691  13.058 -0.0573 -0.4814 -0.0781
 7602SOL    HW134265   1.496   4.626  12.997 -2.5904 -1.2362  2.1385
 7602SOL    HW234266   1.473   4.687  13.135  0.5900 -0.1214  0.4251
 7603SOL     OW34267   1.123   1.469   8.698  0.0395 -0.1336  0.2133
 7603SOL    HW134268   1.188   1.418   8.649  1.5732  0.8426  1.2307
 7603SOL    HW234269   1.066   1.393   8.706  0.3474 -0.2670  1.1626
 7604SOL     OW34270   4.431   0.175   8.156  0.0833  0.0254 -0.4300
 7604SOL    HW134271   4.466   0.105   8.210 -0.9618 -0.2205 -0.0731
 7604SOL    HW234272   4.361   0.207   8.213  2.9183  2.5329  1.6520
 7605SOL     OW34273   1.526   2.338   2.174  0.4055  0.4819 -0.1664
 7605SOL    HW134274   1.564   2.306   2.092 -0.3644 -0.1286 -0.2883
 7605SOL    HW234275   1.588   2.398   2.215  0.4624  0.8081 -0.7213
 7606SOL     OW34276   2.905   1.222  16.775  0.0463 -0.0974  0.2163
 7606SOL    HW134277   3.000   1.220  16.782  0.1193 -0.5173 -0.8117
 7606SOL    HW234278   2.890   1.316  16.766 -2.0840 -0.3196  1.4111
 7607SOL     OW34279   4.571   3.238  14.501 -0.2811  0.0071 -0.0452
 7607SOL    HW134280   4.497   3.178  14.514  0.7680 -0.6270  2.8718
 7607SOL    HW234281   4.582   3.238  14.406  0.1275 -1.3803 -0.0086
 7608SOL     OW34282   2.478   4.514   3.283 -0.3336 -0.0248 -0.1523
 7608SOL    HW134283   2.395   4.466   3.278  0.3421 -1.3769  1.7080
 7608SOL    HW234284   2.507   4.525   3.192 -0.8773 -1.4799 -0.5047
 7609SOL     OW34285   2.381   2.767   5.238 -0.8245 -0.0971 -0.0168
 7609SOL    HW134286   2.356   2.684   5.197 -3.2411 -0.0392  1.3340
 7609SOL    HW234287   2.363   2.740   5.328 -2.5553 -0.9476 -0.6195
 7610SOL     OW34288   0.364   0.084   8.571  0.4290  0.7364 -0.1367
 7610SOL    HW134289   0.345   0.046   8.657  1.9148 -0.5349 -0.3744
 7610SOL    HW234290   0.279   0.067   8.531 -0.4449  0.4030  1.8828
 7611SOL     OW34291   4.666   3.909   4.362 -0.7106 -0.1089  0.6362
 7611SOL    HW134292   4.643   3.834   4.307 -0.0428  1.2436 -1.4959
 7611SOL    HW234293   4.583   3.930   4.404 -1.3571  0.7092 -1.0617
 7612SOL     OW34294   4.337   1.069   1.721  0.1799  0.3711  0.2460
 7612SOL    HW134295   4.316   1.052   1.813 -0.9795 -2.4464 -0.5716
 7612SOL    HW234296   4.412   1.128   1.733 -0.4811  1.1251  0.6472
 7613SOL     OW34297   2.211   3.990   0.346  0.1873 -0.2677 -0.1148
 7613SOL    HW134298   2.121   3.989   0.314  0.4705  0.4021 -0.9273
 7613SOL    HW234299   2.205   3.936   0.425 -0.1674  1.2492  0.8950
 7614SOL     OW34300   4.394   3.336   4.454  0.0145  0.4668  0.6156
 7614SOL    HW134301   4.396   3.375   4.367 -0.3838 -2.6080 -0.7790
 7614SOL    HW234302   4.474   3.381   4.481 -0.0663  0.2107  1.2931
 7615SOL     OW34303   2.169   0.383  15.329 -0.2050  0.2803  0.7812
 7615SOL    HW134304   2.107   0.368  15.401 -0.1985 -0.2515  0.6801
 7615SOL    HW234305   2.094   0.392  15.270 -0.0506 -0.1096  0.5281
 7616SOL     OW34306   3.431   2.584   4.020 -0.1676 -0.1517  0.0883
 7616SOL    HW134307   3.481   2.506   4.043  1.4184  0.6708 -0.5695
 7616SOL    HW234308   3.385   2.561   3.939  1.2628  0.9329 -1.0359
 7617SOL     OW34309   4.300   2.457   8.255 -0.5340  0.1324 -0.5958
 7617SOL    HW134310   4.212   2.458   8.218  0.0990 -0.1263 -2.1132
 7617SOL    HW234311   4.344   2.476   8.171 -0.2561  1.7161 -0.0973
 7618SOL     OW34312   3.900   1.187   6.488 -0.1927  0.0508 -0.1632
 7618SOL    HW134313   3.894   1.282   6.475  3.2384  0.3308  0.4432
 7618SOL    HW234314   3.810   1.168   6.460  0.6754 -0.4873 -2.5616
 7619SOL     OW34315   0.284   3.329   5.267  0.8866 -0.1919 -0.1367
 7619SOL    HW134316   0.272   3.261   5.200  0.2994  0.4011 -0.6286
 7619SOL    HW234317   0.276   3.273   5.344  1.1314  0.2095  0.1805
 7620SOL     OW34318   0.557   0.661   0.486 -0.0437  0.7963  0.7841
 7620SOL    HW134319   0.470   0.682   0.520 -0.2453 -0.5004  1.0707
 7620SOL    HW234320   0.589   0.748   0.460  1.0619 -0.2826 -1.5056
 7621SOL     OW34321   3.323   2.102   4.859 -0.1119  0.2065  0.2554
 7621SOL    HW134322   3.391   2.102   4.926 -1.1467 -0.5986  1.3106
 7621SOL    HW234323   3.383   2.105   4.784 -1.9612 -0.4362 -1.2546
 7622SOL     OW34324   4.536   3.777   5.715 -0.1241 -0.1186 -0.2637
 7622SOL    HW134325   4.555   3.720   5.789  3.2825  0.6919 -0.5135
 7622SOL    HW234326   4.522   3.857   5.765  0.2753 -1.6559  2.2683
 7623SOL     OW34327   3.489   0.162   0.987 -0.3690  0.5738 -0.1700
 7623SOL    HW134328   3.508   0.175   0.894 -2.4847  0.5920 -0.6031
 7623SOL    HW234329   3.451   0.247   1.008 -2.8682 -0.2761 -1.2464
 7624SOL     OW34330   1.403   2.683   2.828 -0.2812 -0.4721  0.0627
 7624SOL    HW134331   1.399   2.761   2.772 -0.2503 -0.7710 -0.3580
 7624SOL    HW234332   1.343   2.625   2.780 -2.4179  1.0368  0.8952
 7625SOL     OW34333   1.286   4.232   6.744 -0.1131  0.3234 -0.2425
 7625SOL    HW134334   1.283   4.138   6.762  1.1054  0.7353  2.0508
 7625SOL    HW234335   1.238   4.226   6.661 -0.5749 -1.8216  0.1707
 7626SOL     OW34336   3.251   0.282   2.778  0.0059 -0.4349 -0.2412
 7626SOL    HW134337   3.258   0.256   2.686 -1.0681 -1.1470 -0.1242
 7626SOL    HW234338   3.346   0.290   2.790 -0.1353  2.7314 -1.2806
 7627SOL     OW34339   0.807   0.808   4.409  0.7170  0.0628  0.6049
 7627SOL    HW134340   0.796   0.887   4.463 -1.1668 -1.2902  2.1722
 7627SOL    HW234341   0.807   0.749   4.485  0.5528 -0.0502  0.5155
 7628SOL     OW34342   2.956   3.634   3.029  0.5227 -0.7136  0.4318
 7628SOL    HW134343   2.875   3.596   3.063 -0.5614 -0.6532 -2.0893
 7628SOL    HW234344   2.961   3.718   3.076  0.6272 -0.0562 -0.7431
 7629SOL     OW34345   2.771   3.694   7.976 -0.0385  0.3729  0.1927
 7629SOL    HW134346   2.770   3.731   7.888  2.1870  2.6489  1.1035
 7629SOL    HW234347   2.845   3.743   8.012  0.9175 -2.0831  1.6216
 7630SOL     OW34348   0.011   1.752   8.180  0.4982 -0.1792  0.5509
 7630SOL    HW134349   4.677   1.675   8.204 -0.0167 -0.4021 -1.2940
 7630SOL    HW234350   0.034   1.725   8.091  0.7646  0.6998  0.3554
 7631SOL     OW34351   1.705   2.328   8.449 -0.1729 -0.2118 -0.3106
 7631SOL    HW134352   1.745   2.254   8.403 -0.6343 -1.3233  1.0724
 7631SOL    HW234353   1.731   2.309   8.539 -3.1687 -1.7043  0.2323
 7632SOL     OW34354   1.703   0.782   4.855  0.2045 -0.3949 -0.2246
 7632SOL    HW134355   1.726   0.874   4.849  1.6934 -0.8988 -2.0581
 7632SOL    HW234356   1.715   0.772   4.950  0.0157  0.6953 -0.0918
 7633SOL     OW34357   3.468   0.922   5.993 -0.5578  0.0155 -0.0612
 7633SOL    HW134358   3.445   0.832   5.971 -2.5457  0.6069 -0.3704
 7633SOL    HW234359   3.559   0.912   6.021 -1.1487 -1.9506  1.1684
 7634SOL     OW34360   2.075   2.271   8.949 -0.7916 -0.4338 -0.1350
 7634SOL    HW134361   2.104   2.243   9.036 -1.9544  2.4200  1.1528
 7634SOL    HW234362   2.105   2.198   8.895 -0.9471 -1.1385  0.7236
 7635SOL     OW34363   2.492   1.249   6.172 -0.4307 -0.1185 -0.0190
 7635SOL    HW134364   2.567   1.202   6.207 -1.5518 -0.5898  1.7490
 7635SOL    HW234365   2.510   1.237   6.079  0.0951 -1.5103  0.2608
 7636SOL     OW34366   3.618   3.432  16.601  0.1476  0.6513  0.0470
 7636SOL    HW134367   3.660   3.446  16.686  1.4274 -0.8249 -0.3528
 7636SOL    HW234368   3.608   3.338  16.588  0.1891 -0.0499  5.2774
 7637SOL     OW34369   0.943   4.486  16.713 -0.0142  0.1242  0.6950
 7637SOL    HW134370   0.853   4.493  16.744  0.6186 -1.9522  3.0671
 7637SOL    HW234371   0.989   4.460  16.793  1.1838 -0.7991 -0.2802
 7638SOL     OW34372   2.083   1.039   6.534  0.2664  0.2032  0.3114
 7638SOL    HW134373   2.102   1.129   6.507  0.4860 -0.7342 -2.6683
 7638SOL    HW234374   1.991   1.036   6.509 -0.0449 -0.0130  1.4841
 7639SOL     OW34375   0.681   0.440  12.907  0.3103  0.2673  0.0401
 7639SOL    HW134376   0.653   0.418  12.995  1.1953  1.3381  0.5854
 7639SOL    HW234377   0.775   0.448  12.923  1.1119 -3.8552 -2.6807
 7640SOL     OW34378   4.517   4.203   1.714  0.1738 -0.1590 -0.0153
 7640SOL    HW134379   4.563   4.140   1.658 -2.3955 -0.5379 -1.6988
 7640SOL    HW234380   4.546   4.185   1.803 -0.7498 -1.8478 -0.0501
 7641SOL     OW34381   4.408   2.801   8.568  0.3587  0.3525  0.1378
 7641SOL    HW134382   4.417   2.851   8.650  0.7109 -1.3245  1.1281
 7641SOL    HW234383   4.353   2.727   8.595 -1.0430  1.1914 -0.4107
 7642SOL     OW34384   4.536   4.177   3.055 -0.5314  0.1320  0.2094
 7642SOL    HW134385   4.589   4.163   2.977 -0.8277  1.0696 -0.1636
 7642SOL    HW234386   4.451   4.158   3.016 -0.0065  2.7636 -2.2607
 7643SOL     OW34387   1.499   1.470   8.195 -0.5218  0.5029 -0.0352
 7643SOL    HW134388   1.522   1.554   8.154  0.8968 -0.7160 -1.6839
 7643SOL    HW234389   1.488   1.416   8.117 -2.4420  1.0272 -0.1157
 7644SOL     OW34390   0.510   3.326   5.779 -0.0803  0.5915 -0.2224
 7644SOL    HW134391   0.502   3.318   5.684 -0.9935  1.0242 -0.1793
 7644SOL    HW234392   0.560   3.407   5.786 -0.6614  1.0028 -0.9118
 7645SOL     OW34393   2.588   4.498   2.094 -0.1815  0.0656  0.0361
 7645SOL    HW134394   2.525   4.570   2.087 -2.1534 -1.6227  0.2533
 7645SOL    HW234395   2.545   4.434   2.036 -1.0021  1.0998 -0.4883
 7646SOL     OW34396   3.713   3.167   8.563 -0.1363 -0.3244 -0.2125
 7646SOL    HW134397   3.745   3.214   8.486 -3.9859 -0.0334 -1.6552
 7646SOL    HW234398   3.671   3.090   8.525  1.6392 -0.1804 -2.5109
 7647SOL     OW34399   1.307   0.032   3.598 -0.3828 -0.1591  0.0174
 7647SOL    HW134400   1.261   0.011   3.680 -0.4121 -1.0519 -0.2250
 7647SOL    HW234401   1.241   4.714   3.538  0.4795  0.9377 -1.5765
 7648SOL     OW34402   2.819   0.946  11.762  0.3835  0.2391  0.3328
 7648SOL    HW134403   2.826   0.861  11.805 -1.2373 -0.9688 -1.7654
 7648SOL    HW234404   2.724   0.947  11.751  0.4634  2.0476 -0.2425
 7649SOL     OW34405   3.137   0.755   3.640  0.6755  0.1282  0.2955
 7649SOL    HW134406   3.051   0.719   3.618  0.8306  0.2353 -0.4729
 7649SOL    HW234407   3.107   0.833   3.688  1.7945  0.2740  0.7566
 7650SOL     OW34408   4.088   1.777   3.293 -0.0822 -0.0865 -0.2437
 7650SOL    HW134409   3.997   1.804   3.297 -0.3221 -1.1400  1.2855
 7650SOL    HW234410   4.087   1.708   3.359 -0.8850  0.2584  0.0938
 7651SOL     OW34411   3.458   4.429   7.540  0.0178 -0.1205 -0.1726
 7651SOL    HW134412   3.470   4.444   7.633  1.2558 -2.0154 -0.0112
 7651SOL    HW234413   3.365   4.437   7.520 -0.1727  0.5074  0.9910
 7652SOL     OW34414   3.867   2.668   3.117  0.4583 -0.0210 -0.2067
 7652SOL    HW134415   3.775   2.674   3.092  0.7824  1.3546 -1.0497
 7652SOL    HW234416   3.869   2.761   3.140  1.9363 -0.3969  1.1988
 7653SOL     OW34417   0.594   1.929  16.881 -0.4007  0.0015 -0.2891
 7653SOL    HW134418   0.566   1.963  16.966  0.7053  1.4349 -0.5011
 7653SOL    HW234419   0.659   1.992  16.849  2.8386 -3.8142 -1.2447
 7654SOL     OW34420   0.508   2.765  14.306  0.8415 -0.3383  0.2820
 7654SOL    HW134421   0.584   2.816  14.278  0.4712 -0.3335 -0.7426
 7654SOL    HW234422   0.548   2.685  14.272 -0.0618  1.0615 -4.0702
 7655SOL     OW34423   2.494   0.320   5.209  0.3798 -0.0542 -0.6904
 7655SOL    HW134424   2.526   0.235   5.179  0.0535 -0.2677 -0.4364
 7655SOL    HW234425   2.516   0.374   5.134 -0.5452  0.5000 -0.5549
 7656SOL     OW34426   2.696   4.183   7.498  0.1241 -0.1436  0.2775
 7656SOL    HW134427   2.683   4.241   7.423 -0.8786 -0.3502  0.2889
 7656SOL    HW234428   2.659   4.099   7.471  0.8611  0.0532 -1.2947
 7657SOL     OW34429   2.526   2.884  13.951  0.0055 -0.0651  0.6140
 7657SOL    HW134430   2.568   2.901  14.036  0.0091 -1.0739  0.8103
 7657SOL    HW234431   2.445   2.843  13.978 -1.7707  0.1240 -4.4505
 7658SOL     OW34432   2.559   1.501   2.708  0.0181 -0.4536 -0.4140
 7658SOL    HW134433   2.488   1.557   2.677 -0.6190  0.2054  2.1610
 7658SOL    HW234434   2.590   1.450   2.634  0.2803  1.3266 -1.5327
 7659SOL     OW34435   1.775   0.309  16.990 -0.6027  0.2414  0.3055
 7659SOL    HW134436   1.786   0.404  16.986  1.1092  0.0750  0.8522
 7659SOL    HW234437   1.715   0.296  16.917  0.4362 -0.2228 -0.4632
 7660SOL     OW34438   4.115   1.375  12.996  0.1481  0.4876  0.0499
 7660SOL    HW134439   4.143   1.360  12.906 -0.6612 -0.8318  0.0221
 7660SOL    HW234440   4.184   1.332  13.048 -0.6910 -3.9574 -2.4687
 7661SOL     OW34441   2.594   3.853   5.441  0.3016  0.9053  0.0719
 7661SOL    HW134442   2.554   3.813   5.364  0.1646 -0.2175  0.7097
 7661SOL    HW234443   2.525   3.832   5.504  0.0096  0.8629 -0.2671
 7662SOL     OW34444   0.575   2.952   6.961  0.2261 -0.5683 -0.2888
 7662SOL    HW134445   0.485   2.959   6.928  0.2747 -3.3926 -1.0197
 7662SOL    HW234446   0.626   2.907   6.895  0.7032  1.9420 -1.6321
 7663SOL     OW34447   2.024   1.761   6.177  0.6363  0.5811  0.1906
 7663SOL    HW134448   2.114   1.777   6.205  0.7496  0.5319 -0.1499
 7663SOL    HW234449   1.967   1.798   6.244 -1.5530 -1.1184 -0.7260
 7664SOL     OW34450   2.133   1.098   6.168 -0.5230 -0.3289  0.5894
 7664SOL    HW134451   2.186   1.042   6.224  0.6140  1.2790  1.1003
 7664SOL    HW234452   2.105   1.164   6.231 -0.1047 -1.1458  1.6415
 7665SOL     OW34453   3.542   2.732  10.572  0.5288 -0.3672 -0.0533
 7665SOL    HW134454   3.460   2.774  10.548 -0.4670 -0.6325  2.7876
 7665SOL    HW234455   3.603   2.805  10.561 -0.3824 -0.1786 -3.5123
 7666SOL     OW34456   3.357   4.424   6.513 -0.0445 -0.2140 -0.3862
 7666SOL    HW134457   3.420   4.432   6.585  3.6012 -2.2748 -3.3404
 7666SOL    HW234458   3.410   4.466   6.445  0.2013 -1.4749 -0.9677
 7667SOL     OW34459   2.162   0.342   7.674  0.4614  0.4386  0.0461
 7667SOL    HW134460   2.104   0.418   7.673 -0.7304 -0.4593 -1.4557
 7667SOL    HW234461   2.178   0.333   7.580 -2.0000 -0.3691 -0.3223
 7668SOL     OW34462   2.854   4.382   1.080  0.1802  0.4665 -0.2612
 7668SOL    HW134463   2.763   4.394   1.054 -0.3244 -1.7136  0.5329
 7668SOL    HW234464   2.866   4.288   1.064 -0.1748  0.2085  1.0184
 7669SOL     OW34465   0.263   3.648   2.577  0.1412 -0.2008 -0.0576
 7669SOL    HW134466   0.308   3.579   2.528  1.4200 -0.2814  1.2347
 7669SOL    HW234467   0.326   3.719   2.563  0.1959 -0.4184 -0.9432
 7670SOL     OW34468   4.073   2.505   3.106  0.4632  0.3472  0.0318
 7670SOL    HW134469   4.131   2.557   3.051 -0.7416  2.2124  0.4898
 7670SOL    HW234470   4.003   2.569   3.122  0.8583  0.9702 -0.7486
 7671SOL     OW34471   1.930   1.109   3.121 -0.2337  0.0753  0.8687
 7671SOL    HW134472   1.982   1.124   3.200  1.1420 -3.3883  0.6195
 7671SOL    HW234473   1.992   1.064   3.064  3.0713  0.1037  4.4405
 7672SOL     OW34474   1.636   0.529   9.012  0.0552  0.2364  0.3582
 7672SOL    HW134475   1.623   0.623   9.013 -1.5673  0.0406 -2.8194
 7672SOL    HW234476   1.603   0.513   9.100 -0.2808  2.5815  0.6455
 7673SOL     OW34477   0.680   3.157  14.309  0.1077 -0.2114  0.1904
 7673SOL    HW134478   0.742   3.200  14.368  1.2673  2.1612 -2.7408
 7673SOL    HW234479   0.614   3.224  14.294  1.4129  1.0459  0.0060
 7674SOL     OW34480   2.021   0.100   7.713 -0.0130 -1.0358  0.0795
 7674SOL    HW134481   1.964   0.099   7.637 -2.0724  2.7371  1.5232
 7674SOL    HW234482   2.047   0.192   7.714 -0.7204 -0.8312 -0.8901
 7675SOL     OW34483   0.157   1.684   3.761 -0.1619 -0.0051 -0.0773
 7675SOL    HW134484   0.065   1.672   3.786 -0.2295 -0.1621 -0.4002
 7675SOL    HW234485   0.149   1.654   3.671 -2.8472  0.6955 -0.0568
 7676SOL     OW34486   1.804   0.586  17.045  0.7947 -0.1908  0.4627
 7676SOL    HW134487   1.823   0.672  17.007  1.4737 -1.4593 -2.1247
 7676SOL    HW234488   1.849   0.595  17.129  2.0071  1.6464 -0.3847
 7677SOL     OW34489   1.384   2.288   3.047  0.3933 -0.8748  0.0480
 7677SOL    HW134490   1.337   2.235   3.112  0.1153 -0.5735  0.0900
 7677SOL    HW234491   1.409   2.365   3.098  1.4342 -0.1290 -1.6087
 7678SOL     OW34492   4.346   4.717   6.613  0.0282 -0.4092 -0.1455
 7678SOL    HW134493   4.379   4.716   6.523 -1.6347  2.7808 -0.7991
 7678SOL    HW234494   4.279   0.068   6.613  1.4654  1.0074 -0.7527
 7679SOL     OW34495   1.303   0.395   5.017  0.2269  0.3168 -0.0414
 7679SOL    HW134496   1.220   0.416   4.974  0.7331  1.4990 -0.4487
 7679SOL    HW234497   1.293   0.305   5.046 -2.8021  0.1211 -1.7407
 7680SOL     OW34498   1.938   2.376   6.659  0.0274  0.1589  0.0726
 7680SOL    HW134499   1.885   2.456   6.656  0.3131  0.3698  0.5901
 7680SOL    HW234500   2.007   2.412   6.603 -0.5245 -0.0405 -0.7288
 7681SOL     OW34501   1.803   2.033   3.590  0.4015 -0.1351  0.2917
 7681SOL    HW134502   1.749   1.988   3.525 -0.2039 -1.2336  1.5407
 7681SOL    HW234503   1.854   2.086   3.528 -0.0102  0.3884  0.4022
 7682SOL     OW34504   1.997   0.065  12.883 -0.6138 -0.0241  0.2285
 7682SOL    HW134505   1.979   0.153  12.916  0.9990  1.0364 -1.6994
 7682SOL    HW234506   2.000   0.092  12.792 -0.8651 -0.4235  0.1005
 7683SOL     OW34507   0.911   3.286  10.961 -0.2505  0.1195  0.3074
 7683SOL    HW134508   0.998   3.254  10.985  0.1606  2.6833  2.2395
 7683SOL    HW234509   0.918   3.379  10.942  0.9909  0.4119  2.1836
 7684SOL     OW34510   3.571   0.608   0.163  0.2502  0.2294  0.6030
 7684SOL    HW134511   3.547   0.516   0.167 -0.7597  0.4443 -0.4918
 7684SOL    HW234512   3.545   0.627   0.073 -1.1373 -1.6743  0.5972
 7685SOL     OW34513   3.387   1.633   2.556  0.1518  0.5027 -0.4531
 7685SOL    HW134514   3.402   1.625   2.462  1.6393 -0.3244 -0.1303
 7685SOL    HW234515   3.293   1.616   2.561  0.6869 -1.7727  1.7833
 7686SOL     OW34516   2.581   4.129   7.757  0.0591 -0.2030  0.2963
 7686SOL    HW134517   2.615   4.162   7.674 -1.0883  2.2115  0.7949
 7686SOL    HW234518   2.521   4.201   7.775  0.1814 -0.3756  1.4001
 7687SOL     OW34519   1.782   2.791  16.113  0.1908  0.3223  0.1131
 7687SOL    HW134520   1.813   2.852  16.046 -0.2910  0.9987  0.5080
 7687SOL    HW234521   1.807   2.820  16.201 -1.2967  1.7984  0.0411
 7688SOL     OW34522   4.660   1.268   4.398  0.0238  1.0247 -0.0870
 7688SOL    HW134523   4.663   1.229   4.486  0.6490 -1.2859 -1.1171
 7688SOL    HW234524   0.021   1.321   4.409 -0.3421  1.7298 -0.9622
 7689SOL     OW34525   1.414   1.467   7.015 -0.1247 -0.5466 -0.8980
 7689SOL    HW134526   1.333   1.517   7.023 -1.4121 -2.7157 -0.3683
 7689SOL    HW234527   1.405   1.434   6.926 -1.1251  0.6085 -1.2199
 7690SOL     OW34528   2.777   1.700   7.021 -0.2249  0.0569 -0.2650
 7690SOL    HW134529   2.843   1.633   7.040 -2.0003 -1.6294 -0.0597
 7690SOL    HW234530   2.823   1.772   6.978  1.6423 -1.6545 -1.1345
 7691SOL     OW34531   4.544   1.221   1.827  0.3672 -0.4140  0.1476
 7691SOL    HW134532   4.630   1.250   1.796  0.3165  2.0236  2.2901
 7691SOL    HW234533   4.568   1.157   1.894  3.1466  1.4448  0.9704
 7692SOL     OW34534   1.477   2.497   3.553  0.2301 -0.4335  0.2319
 7692SOL    HW134535   1.517   2.421   3.511 -1.0470 -0.5627 -0.7527
 7692SOL    HW234536   1.554   2.552   3.568 -0.3589  0.4162  0.1823
 7693SOL     OW34537   2.239   3.345  17.523 -0.0147 -0.1901 -0.3762
 7693SOL    HW134538   2.199   3.305  17.446 -1.6464  1.4683 -0.3983
 7693SOL    HW234539   2.327   3.310  17.506 -0.6636 -2.0557  0.1165
 7694SOL     OW34540   2.353   1.580   2.352  0.2144 -0.7828  0.0892
 7694SOL    HW134541   2.436   1.626   2.361 -1.0034  1.2931  0.7121
 7694SOL    HW234542   2.377   1.530   2.274 -2.9221 -1.5154 -0.4284
 7695SOL     OW34543   2.735   3.522   7.650  0.5702  0.2072 -0.1847
 7695SOL    HW134544   2.766   3.612   7.650  0.7195  0.1529  0.1747
 7695SOL    HW234545   2.804   3.480   7.598  2.1901  0.8122  1.4789
 7696SOL     OW34546   3.805   1.508   5.810 -0.0700 -0.6313  0.7650
 7696SOL    HW134547   3.864   1.584   5.805  0.4330 -1.0054  1.1137
 7696SOL    HW234548   3.874   1.447   5.783  2.1142  2.2743 -0.2983
 7697SOL     OW34549   2.813   1.085   3.729 -0.3950 -0.3541  0.0596
 7697SOL    HW134550   2.783   1.163   3.776  1.6272 -0.0607  0.8576
 7697SOL    HW234551   2.909   1.090   3.729 -0.3732 -1.4538 -3.6862
 7698SOL     OW34552   4.316   2.634   9.128 -0.1123 -0.4829  0.0089
 7698SOL    HW134553   4.380   2.684   9.078 -0.8625 -0.2089 -0.6760
 7698SOL    HW234554   4.241   2.636   9.069 -0.7263 -2.1048  0.7104
 7699SOL     OW34555   3.580   2.201   7.771 -0.0198 -0.4217  0.5380
 7699SOL    HW134556   3.661   2.167   7.809  0.4068  2.2186  2.0019
 7699SOL    HW234557   3.545   2.113   7.760 -0.1144 -0.3437  0.2046
 7700SOL     OW34558   3.482   1.587   5.416  0.1713  0.6423 -0.6534
 7700SOL    HW134559   3.503   1.614   5.327  3.1620 -0.3292 -0.2440
 7700SOL    HW234560   3.505   1.667   5.464 -2.5020  0.4146  0.9692
 7701SOL     OW34561   0.944   1.583   5.700 -0.4267 -0.3031  0.0122
 7701SOL    HW134562   0.882   1.523   5.660  0.0712  0.7240 -2.3120
 7701SOL    HW234563   1.026   1.536   5.683 -0.2362  0.2192 -0.5198
 7702SOL     OW34564   0.740   1.076   9.152 -0.1051 -0.3196  0.5058
 7702SOL    HW134565   0.796   0.999   9.144 -0.8108 -0.6437 -1.2996
 7702SOL    HW234566   0.693   1.070   9.069  2.5074  2.2683 -1.1710
 7703SOL     OW34567   1.441   3.887   1.454  0.2238 -0.3385 -0.5548
 7703SOL    HW134568   1.415   3.797   1.473  1.2756 -0.1065  1.9898
 7703SOL    HW234569   1.372   3.915   1.395 -0.7003 -0.1999  0.5998
 7704SOL     OW34570   0.710   4.174   5.580  0.0902 -0.1047  0.7304
 7704SOL    HW134571   0.696   4.228   5.658  1.0339 -0.4663  1.1577
 7704SOL    HW234572   0.778   4.117   5.617  0.5365  0.8854  1.4210
 7705SOL     OW34573   0.762   3.095  12.455  0.4421 -0.0141 -0.0409
 7705SOL    HW134574   0.845   3.075  12.500  0.5669  0.7382  0.0563
 7705SOL    HW234575   0.707   3.028  12.496  0.6847  0.8313  1.6750
 7706SOL     OW34576   3.087   0.786   4.173 -0.0639 -0.2507  0.7499
 7706SOL    HW134577   2.999   0.794   4.210 -0.5432  2.1336 -0.9159
 7706SOL    HW234578   3.083   0.852   4.103  0.5149  1.1280  2.0207
 7707SOL     OW34579   4.590   0.700   8.892 -0.3133 -0.3351 -0.5392
 7707SOL    HW134580   4.534   0.741   8.959 -0.2140  1.4188 -1.5356
 7707SOL    HW234581   4.568   0.609   8.911  0.9303 -0.9659 -2.1843
 7708SOL     OW34582   4.231   2.413   1.205  0.2912 -0.6786  0.4791
 7708SOL    HW134583   4.315   2.382   1.238  1.5687  1.4900 -0.7293
 7708SOL    HW234584   4.177   2.339   1.232  2.9840 -2.9340 -0.3180
 7709SOL     OW34585   2.020   1.086   9.039  0.5688  0.1456 -1.0695
 7709SOL    HW134586   1.937   1.046   9.067  1.6051 -0.3877  1.2379
 7709SOL    HW234587   2.082   1.036   9.092 -2.4440 -2.5287 -0.0784
 7710SOL     OW34588   4.135   4.491  11.563 -0.5080 -0.3441 -0.1524
 7710SOL    HW134589   4.119   4.581  11.535 -0.8010 -0.1331  0.7069
 7710SOL    HW234590   4.092   4.480  11.648 -0.0059  1.1705  0.2902
 7711SOL     OW34591   2.485   0.232   6.651 -0.2859 -0.1165  0.1141
 7711SOL    HW134592   2.468   0.326   6.646 -2.3706 -0.4889  0.2357
 7711SOL    HW234593   2.470   0.212   6.743 -1.5371 -0.8577 -0.2570
 7712SOL     OW34594   2.473   1.407   9.242 -0.1706  0.2576 -0.0215
 7712SOL    HW134595   2.503   1.355   9.316  1.2302  2.1474  0.7242
 7712SOL    HW234596   2.392   1.440   9.282  1.7246  2.3973  1.9827
 7713SOL     OW34597   1.822   1.999  11.690  0.0286  0.0882 -0.5038
 7713SOL    HW134598   1.836   2.026  11.599  2.3177  3.6833  0.9173
 7713SOL    HW234599   1.786   2.082  11.721 -1.8368 -0.8724 -0.0999
 7714SOL     OW34600   3.581   3.529  15.310 -0.4201 -0.2542 -0.3001
 7714SOL    HW134601   3.587   3.615  15.270  0.8601 -0.3643 -0.3274
 7714SOL    HW234602   3.569   3.556  15.401  2.0411  0.3975 -0.1778
 7715SOL     OW34603   2.424   2.035   1.213  0.1877  0.6051 -0.5806
 7715SOL    HW134604   2.426   2.040   1.117 -2.7455 -1.8230 -0.7740
 7715SOL    HW234605   2.373   2.115   1.232 -2.1100 -1.0647  0.2638
 7716SOL     OW34606   4.023   0.754   1.071 -0.1500 -0.2559 -0.0083
 7716SOL    HW134607   3.962   0.692   1.031 -0.3405 -0.1417  0.1092
 7716SOL    HW234608   4.100   0.697   1.078  0.5041  0.3590 -2.1564
 7717SOL     OW34609   3.908   3.536  15.354  0.0012 -0.3447  0.0111
 7717SOL    HW134610   3.929   3.463  15.296  0.1721 -1.5014  1.5274
 7717SOL    HW234611   3.816   3.515  15.366 -0.0370 -0.4656 -0.5061
 7718SOL     OW34612   0.126   1.654   6.054 -0.2338  0.4141  0.0593
 7718SOL    HW134613   0.180   1.575   6.057  1.2397  1.3918 -0.6137
 7718SOL    HW234614   0.194   1.719   6.037  0.9635 -0.6192  0.7874
 7719SOL     OW34615   3.914   1.292   0.677  0.1900 -0.2404  0.1899
 7719SOL    HW134616   3.977   1.272   0.608  3.6498  2.0116  2.7158
 7719SOL    HW234617   3.917   1.388   0.675 -2.0301 -0.1875 -0.7944
 7720SOL     OW34618   1.452   2.124  11.773 -0.2297 -0.2580 -0.1783
 7720SOL    HW134619   1.391   2.076  11.717  1.2694 -0.6179 -1.5017
 7720SOL    HW234620   1.438   2.085  11.859  0.4787  1.6615  0.8159
 7721SOL     OW34621   0.298   0.287   1.526 -0.3277 -0.2630  0.2785
 7721SOL    HW134622   0.214   0.283   1.480 -0.2068  0.9156 -0.0612
 7721SOL    HW234623   0.287   0.214   1.587 -0.0189 -0.0981  0.5321
 7722SOL     OW34624   1.037   3.734   7.177  0.3304 -0.0606 -0.1648
 7722SOL    HW134625   1.132   3.742   7.164 -0.0709  4.2905 -0.3801
 7722SOL    HW234626   1.030   3.642   7.205 -5.2675 -0.1980 -2.1249
 7723SOL     OW34627   3.236   1.687   7.219 -0.2751  0.0567  0.2390
 7723SOL    HW134628   3.298   1.745   7.262  2.6695 -2.6705 -0.3307
 7723SOL    HW234629   3.150   1.726   7.234  0.3629  1.9905 -1.0595
 7724SOL     OW34630   4.499   1.433   6.945 -0.1993  0.3499 -0.3658
 7724SOL    HW134631   4.485   1.365   6.880 -0.0400 -1.4494  1.4690
 7724SOL    HW234632   4.587   1.416   6.977 -0.8077 -1.3629  0.4135
 7725SOL     OW34633   1.669   4.208  11.016 -0.6191  0.5004 -0.5268
 7725SOL    HW134634   1.688   4.201  11.110 -0.2650  0.8286 -0.5737
 7725SOL    HW234635   1.736   4.268  10.983  1.7051 -3.0516 -2.2929
 7726SOL     OW34636   1.374   0.856   5.681 -0.2457 -0.2444  0.0062
 7726SOL    HW134637   1.353   0.948   5.669 -0.8782 -0.3383  0.3930
 7726SOL    HW234638   1.366   0.814   5.595 -1.5119  1.3092 -0.6317
 7727SOL     OW34639   1.473   1.926   7.692  0.5305 -0.3639  0.2231
 7727SOL    HW134640   1.468   2.013   7.653 -0.0610 -0.9791 -1.0665
 7727SOL    HW234641   1.521   1.952   7.771  2.2449 -1.2978 -0.5095
 7728SOL     OW34642   2.656   3.284   3.558  0.5828  0.0054 -0.9066
 7728SOL    HW134643   2.698   3.271   3.473  0.7343  1.8460 -1.1039
 7728SOL    HW234644   2.712   3.231   3.615  0.8236  1.1534 -0.0631
 7729SOL     OW34645   1.028   2.374   2.754 -0.3196  0.1109 -0.2308
 7729SOL    HW134646   1.044   2.373   2.660  1.7326 -0.4426  0.1200
 7729SOL    HW234647   0.933   2.384   2.757 -0.3302 -0.3332  0.9048
 7730SOL     OW34648   4.646   4.393  15.117  0.8840  0.0654  0.3963
 7730SOL    HW134649   4.692   4.446  15.052  0.2412 -0.7594 -0.7558
 7730SOL    HW234650   4.564   4.442  15.126  1.1563  0.9881 -2.0226
 7731SOL     OW34651   1.318   0.316   7.005 -0.2695  0.3382 -0.1014
 7731SOL    HW134652   1.363   0.232   7.002 -0.6313  0.1705 -0.7379
 7731SOL    HW234653   1.386   0.372   6.967  0.3235  1.3942  2.4970
 7732SOL     OW34654   3.110   1.609   6.142  0.0699  0.3641 -0.6127
 7732SOL    HW134655   3.181   1.585   6.202 -0.7455 -0.3392  0.0793
 7732SOL    HW234656   3.040   1.560   6.184  0.6352 -1.5756 -1.9559
 7733SOL     OW34657   0.988   0.609   9.115  0.5557  0.2038 -0.3173
 7733SOL    HW134658   1.017   0.619   9.025 -0.3908  1.6451 -0.4563
 7733SOL    HW234659   0.906   0.560   9.114 -0.1470  1.3468  1.2698
 7734SOL     OW34660   4.196   4.688   6.914 -0.2371 -0.0301  0.1030
 7734SOL    HW134661   4.153   4.634   6.980 -0.4026 -1.8004 -1.4605
 7734SOL    HW234662   4.180   4.639   6.833 -1.3821 -1.9673  1.5055
 7735SOL     OW34663   2.297   2.894   7.323 -0.2532 -0.4502 -0.0290
 7735SOL    HW134664   2.345   2.953   7.264  0.6479  0.1518  1.3070
 7735SOL    HW234665   2.290   2.933   7.410 -0.1806 -0.5773  0.0339
 7736SOL     OW34666   1.316   1.870   7.962 -0.0423 -0.2880 -0.0691
 7736SOL    HW134667   1.258   1.872   8.038  0.7202 -0.1554  0.5135
 7736SOL    HW234668   1.251   1.886   7.893 -1.0308  0.2916  0.9977
 7737SOL     OW34669   2.852   2.732   4.465 -0.1686 -0.1814 -0.3641
 7737SOL    HW134670   2.797   2.768   4.536 -0.7452 -1.4033 -0.1891
 7737SOL    HW234671   2.785   2.724   4.397 -0.5783  0.6395 -0.0705
 7738SOL     OW34672   2.199   2.380   4.256  0.1464  0.0164 -0.0257
 7738SOL    HW134673   2.248   2.447   4.208  0.2718  0.6448  0.9883
 7738SOL    HW234674   2.210   2.305   4.197  1.7775 -0.4172  0.8129
 7739SOL     OW34675   1.972   4.358   3.165  0.1329 -0.1743 -0.3461
 7739SOL    HW134676   1.977   4.406   3.083 -3.6216  1.8640  0.6219
 7739SOL    HW234677   1.882   4.325   3.168  0.0504  0.0190 -0.7271
 7740SOL     OW34678   1.691   0.201  12.895  0.4794 -0.2707  0.4633
 7740SOL    HW134679   1.631   0.128  12.912 -0.1670 -0.1528 -1.3095
 7740SOL    HW234680   1.730   0.201  12.983 -3.0321 -1.5147  2.0313
 7741SOL     OW34681   2.782   0.197   7.207 -0.8939  0.1908  0.3258
 7741SOL    HW134682   2.793   0.128   7.272  0.4101  0.1254  0.0393
 7741SOL    HW234683   2.757   0.272   7.261  1.5413  0.8682  0.5061
 7742SOL     OW34684   3.624   3.510   6.469 -0.1864  0.2478  0.3267
 7742SOL    HW134685   3.622   3.416   6.450  0.1242  0.6269 -1.6810
 7742SOL    HW234686   3.613   3.547   6.381 -0.1363  1.5887  0.8811
 7743SOL     OW34687   1.730   0.048   7.312 -0.5455  0.2724 -0.0376
 7743SOL    HW134688   1.694   0.096   7.237 -0.3457  2.1706  1.1051
 7743SOL    HW234689   1.742   4.677   7.277 -0.6017  0.5301 -0.7222
 7744SOL     OW34690   3.434   0.421   4.488  0.0895 -0.3932 -0.1660
 7744SOL    HW134691   3.504   0.358   4.472  1.0787  0.0802  2.2003
 7744SOL    HW234692   3.380   0.421   4.409 -0.9796 -0.1188  0.5700
 7745SOL     OW34693   2.489   1.787  14.368  0.4873  0.2709  0.2742
 7745SOL    HW134694   2.526   1.819  14.286 -0.0030 -0.9366 -0.4268
 7745SOL    HW234695   2.434   1.859  14.397 -0.3856 -0.7299  1.1318
 7746SOL     OW34696   0.139   3.859  11.964  0.4005  0.0496  0.3318
 7746SOL    HW134697   0.075   3.791  11.942 -2.2264  2.2626  1.2032
 7746SOL    HW234698   0.135   3.913  11.885 -1.4256 -1.1140 -0.3829
 7747SOL     OW34699   3.845   4.262   2.096 -0.5633  0.4891  0.2008
 7747SOL    HW134700   3.827   4.169   2.111  3.8652 -0.8268 -2.6122
 7747SOL    HW234701   3.796   4.276   2.015  2.5416  0.0861 -1.7156
 7748SOL     OW34702   3.048   1.098  15.182 -0.4051 -0.1607  0.0748
 7748SOL    HW134703   3.114   1.030  15.197  0.3429  0.7902  1.1721
 7748SOL    HW234704   2.975   1.043  15.153 -0.0905  0.1158 -1.2245
 7749SOL     OW34705   3.254   0.788   4.602 -0.4194  0.1453  0.2232
 7749SOL    HW134706   3.246   0.702   4.561 -0.2011  0.1557  0.1603
 7749SOL    HW234707   3.166   0.822   4.586 -1.2067 -2.4092 -0.8025
 7750SOL     OW34708   0.612   0.615   5.109  0.2669 -0.0226  0.3343
 7750SOL    HW134709   0.526   0.582   5.134 -0.8958  2.6787 -0.0679
 7750SOL    HW234710   0.659   0.636   5.190 -0.9629  1.7390  0.5959
 7751SOL     OW34711   0.572   0.157   6.345 -0.1916 -0.8788 -0.1520
 7751SOL    HW134712   0.497   0.209   6.374 -0.9250 -0.3278 -3.1041
 7751SOL    HW234713   0.650   0.193   6.388 -1.2732 -1.5407  2.3968
 7752SOL     OW34714   3.324   2.258   7.910 -0.1490  0.2862  0.0707
 7752SOL    HW134715   3.350   2.227   7.823  2.2742 -0.1170  0.9319
 7752SOL    HW234716   3.413   2.283   7.939  0.6264 -2.0032 -0.3753
 7753SOL     OW34717   2.331   2.053   4.819 -0.0076  0.0181 -0.5592
 7753SOL    HW134718   2.345   2.133   4.769 -0.6674  1.2294  1.2151
 7753SOL    HW234719   2.407   2.046   4.878 -0.4845  0.4339  0.0961
 7754SOL     OW34720   1.013   2.152  15.921  0.3629 -0.3040 -0.3978
 7754SOL    HW134721   1.043   2.068  15.887 -0.1178 -0.5415 -0.2245
 7754SOL    HW234722   1.035   2.220  15.857  0.8230  1.2295  1.3798
 7755SOL     OW34723   4.612   3.633  12.306  0.7148  0.1752 -0.7423
 7755SOL    HW134724   4.640   3.722  12.288  1.5122 -0.0257 -0.5133
 7755SOL    HW234725   4.654   3.608  12.389 -0.3585  0.7712 -0.0270
 7756SOL     OW34726   1.495   3.481  10.908  0.6163 -0.1289 -0.1069
 7756SOL    HW134727   1.565   3.492  10.973 -0.9806 -1.9454  1.9522
 7756SOL    HW234728   1.538   3.501  10.825 -0.7728  3.0187 -0.0442
 7757SOL     OW34729   3.949   1.858  15.731  0.0230 -0.1232 -0.2475
 7757SOL    HW134730   3.974   1.850  15.639 -0.1663 -1.6332 -0.1672
 7757SOL    HW234731   3.979   1.945  15.753  0.5239 -0.5640  0.8162
 7758SOL     OW34732   3.824   2.081   7.905  0.2552 -0.0863 -0.2015
 7758SOL    HW134733   3.890   2.025   7.864  1.0925  0.6859  0.0814
 7758SOL    HW234734   3.812   2.036   7.988 -0.8935  1.7888  0.6367
 7759SOL     OW34735   1.150   2.025   9.793 -0.5944  0.7105  0.6496
 7759SOL    HW134736   1.073   2.004   9.846 -0.2176  0.4435  1.0927
 7759SOL    HW234737   1.191   1.940   9.777  0.4758  1.2447  0.5548
 7760SOL     OW34738   2.155   1.592   1.862  0.7443 -0.4674  0.0313
 7760SOL    HW134739   2.227   1.652   1.884  0.3398  0.6463 -1.6070
 7760SOL    HW234740   2.091   1.655   1.827  0.8639 -0.6885 -0.5964
 7761SOL     OW34741   1.007   4.622   8.730  0.7474  0.2150 -0.3463
 7761SOL    HW134742   1.025   4.562   8.802 -2.5574  0.2766  0.5541
 7761SOL    HW234743   1.019   4.705   8.776  0.8019  0.7704 -1.3636
 7762SOL     OW34744   1.566   2.898   4.250 -0.5306  0.3034  0.0513
 7762SOL    HW134745   1.506   2.872   4.320 -1.0660  0.6634 -0.2731
 7762SOL    HW234746   1.580   2.988   4.278 -0.0838  0.0941  0.4955
 7763SOL     OW34747   2.532   1.734  12.174  0.1861 -0.6715 -0.5176
 7763SOL    HW134748   2.559   1.816  12.214 -0.7394  0.0873 -1.4427
 7763SOL    HW234749   2.562   1.665  12.234  1.7384  0.8644  0.4536
 7764SOL     OW34750   2.743   1.308   7.303  0.9616 -0.6308 -0.5619
 7764SOL    HW134751   2.674   1.257   7.345  0.1678 -0.7316 -1.9672
 7764SOL    HW234752   2.813   1.299   7.367  1.6826 -1.2222 -1.4286
 7765SOL     OW34753   4.600   2.281  14.941  0.0336  0.1134 -0.0118
 7765SOL    HW134754   4.531   2.216  14.929 -0.2820  0.0703  2.1731
 7765SOL    HW234755   4.658   2.250  14.871  0.0802  0.2369 -0.0270
 7766SOL     OW34756   4.549   2.921   2.494  0.0226  0.3277 -0.1356
 7766SOL    HW134757   4.548   2.981   2.568  2.3493  2.5329 -1.9117
 7766SOL    HW234758   4.459   2.890   2.482  0.3552 -1.0261  0.8538
 7767SOL     OW34759   0.602   2.318   3.860 -0.1954  0.0336  0.2477
 7767SOL    HW134760   0.550   2.250   3.818  0.7575 -0.5226 -0.0362
 7767SOL    HW234761   0.654   2.356   3.790 -1.0109  1.0546  0.1990
 7768SOL     OW34762   3.726   2.064   0.142 -0.5231 -0.4170 -0.4632
 7768SOL    HW134763   3.790   1.992   0.141 -1.1282 -0.9688  0.9465
 7768SOL    HW234764   3.773   2.129   0.090 -0.2598  1.2589  1.8520
 7769SOL     OW34765   1.103   0.332   0.396 -0.1376  0.0699 -0.2395
 7769SOL    HW134766   1.115   0.427   0.401  1.9096 -0.2173  0.1429
 7769SOL    HW234767   1.185   0.289   0.418 -0.1535  1.0650  1.7323
 7770SOL     OW34768   2.803   0.875   4.290 -0.0063  0.3255 -0.6219
 7770SOL    HW134769   2.737   0.920   4.239  1.1308 -0.5272 -2.8175
 7770SOL    HW234770   2.807   0.917   4.376 -2.5686  0.9947 -0.8419
 7771SOL     OW34771   2.778   3.475   4.236  0.3486 -0.2073 -0.1884
 7771SOL    HW134772   2.788   3.539   4.165  0.6840 -1.2312 -1.0750
 7771SOL    HW234773   2.722   3.404   4.206  0.8237 -1.8473  2.8757
 7772SOL     OW34774   3.092   0.229  12.261  0.5975  0.1932  0.4310
 7772SOL    HW134775   3.060   0.240  12.350  1.5230  0.2699  0.7552
 7772SOL    HW234776   3.033   0.158  12.236 -0.8730  1.5854 -0.0541
 7773SOL     OW34777   0.276   2.112   5.732  0.2519 -0.0789 -0.4662
 7773SOL    HW134778   0.273   2.169   5.655 -2.2132  0.6927  0.2282
 7773SOL    HW234779   0.310   2.167   5.803  1.9586 -0.9347 -0.6237
 7774SOL     OW34780   1.450   0.391   7.338  0.0407  0.2215 -0.1921
 7774SOL    HW134781   1.496   0.441   7.271 -0.9910  0.6547 -0.5647
 7774SOL    HW234782   1.371   0.352   7.301  1.6341 -0.7401 -2.5606
 7775SOL     OW34783   2.254   2.920   7.595  0.4289 -0.5713 -0.8286
 7775SOL    HW134784   2.231   2.830   7.616 -1.7276  1.0775  3.7863
 7775SOL    HW234785   2.316   2.953   7.660  0.5988 -1.7786 -0.3896
 7776SOL     OW34786   1.628   0.407   8.130  0.5889 -0.1762  0.4435
 7776SOL    HW134787   1.536   0.382   8.139  0.4039  0.3201 -0.1006
 7776SOL    HW234788   1.675   0.328   8.156 -1.9815 -0.6178  3.8095
 7777SOL     OW34789   2.700   3.458  13.843  0.2319 -0.2809  0.5407
 7777SOL    HW134790   2.766   3.527  13.844 -0.1784  0.1531 -2.5210
 7777SOL    HW234791   2.741   3.384  13.889 -1.0438 -0.4819  1.3572
 7778SOL     OW34792   0.620   3.936   4.256 -0.2337  0.0235  0.7309
 7778SOL    HW134793   0.710   3.905   4.260 -0.1553 -0.0567 -1.7606
 7778SOL    HW234794   0.622   3.978   4.342 -0.6527  0.4264  0.5423
 7779SOL     OW34795   1.331   3.413   3.427  0.5020  0.0607 -0.3354
 7779SOL    HW134796   1.377   3.404   3.510  0.2515  2.2584  0.0511
 7779SOL    HW234797   1.353   3.328   3.390 -2.6601 -1.4963  1.3832
 7780SOL     OW34798   4.025   4.701   6.420 -0.1223  0.2472  0.0355
 7780SOL    HW134799   4.090   0.032   6.470  0.1210 -1.6612  1.5956
 7780SOL    HW234800   4.006   0.039   6.344 -0.0667  0.1610 -0.0425
 7781SOL     OW34801   3.713   3.682   8.130 -0.4584 -0.4740 -0.7914
 7781SOL    HW134802   3.773   3.756   8.138 -1.0222 -0.3626  2.6370
 7781SOL    HW234803   3.721   3.650   8.040  3.8064 -1.2418 -0.1870
 7782SOL     OW34804   1.474   0.446   2.337  0.1483 -0.5267 -0.2680
 7782SOL    HW134805   1.497   0.449   2.244  0.0436  0.4806 -0.2644
 7782SOL    HW234806   1.561   0.461   2.374 -0.6048  0.5116  1.0773
 7783SOL     OW34807   1.930   1.785   5.815 -0.3395  0.3520  0.2415
 7783SOL    HW134808   1.911   1.719   5.881  1.4730  0.4030  0.8279
 7783SOL    HW234809   1.913   1.737   5.734 -0.7064 -0.6498  0.9115
 7784SOL     OW34810   0.211   2.623   6.844 -0.0601  0.1371  0.4851
 7784SOL    HW134811   0.169   2.546   6.881 -2.9276  1.0905 -0.7904
 7784SOL    HW234812   0.146   2.642   6.776  1.7443 -0.6827 -1.4910
 7785SOL     OW34813   3.180   4.097   2.484 -0.3847 -0.5413  0.8049
 7785SOL    HW134814   3.190   4.076   2.391 -0.5413  1.3106  0.3679
 7785SOL    HW234815   3.271   4.098   2.513 -0.9036  0.0060  2.3982
 7786SOL     OW34816   4.281   1.154  15.114  0.6835  0.0338  0.6433
 7786SOL    HW134817   4.280   1.131  15.021  1.4529  0.6016  0.4906
 7786SOL    HW234818   4.293   1.076  15.168  1.6090 -0.2776 -0.0174
 7787SOL     OW34819   3.640   3.015   5.829 -0.3761  0.0198 -0.2692
 7787SOL    HW134820   3.570   2.989   5.769 -0.4384  1.7848 -0.9549
 7787SOL    HW234821   3.601   3.100   5.848 -1.6766 -1.1610  2.4765
 7788SOL     OW34822   4.119   1.207   5.021 -0.5468 -0.1061  0.5134
 7788SOL    HW134823   4.050   1.273   5.012  0.1934  0.3202 -1.9155
 7788SOL    HW234824   4.149   1.214   5.112  0.7995 -0.0209  0.0573
 7789SOL     OW34825   4.249   0.020   0.008  0.3163  0.0872 -0.2119
 7789SOL    HW134826   4.303   0.004   0.085 -1.1799  1.1094  1.0429
 7789SOL    HW234827   4.306   0.081  17.635 -0.1263  2.2983  2.1459
 7790SOL     OW34828   3.962   4.125   1.776  0.0968  0.1180  0.3226
 7790SOL    HW134829   3.944   4.201   1.721 -1.1367  0.2729  0.9533
 7790SOL    HW234830   4.057   4.131   1.790  0.1352 -2.9029  1.2538
 7791SOL     OW34831   0.322   0.514   4.054  0.0528 -0.7941 -0.1597
 7791SOL    HW134832   0.398   0.519   4.111 -1.4156  0.8006  1.6747
 7791SOL    HW234833   0.308   0.420   4.063  0.1209 -0.7966 -0.0820
 7792SOL     OW34834   1.619   3.099   2.105  0.4335  0.5710 -0.5279
 7792SOL    HW134835   1.647   3.068   2.018  0.0770 -0.5710 -0.2333
 7792SOL    HW234836   1.591   3.186   2.077 -0.8012 -0.0997 -1.3553
 7793SOL     OW34837   0.379   0.083   7.652  0.3904 -0.6079  0.3469
 7793SOL    HW134838   0.301   0.058   7.602  1.3714 -1.1521 -0.9237
 7793SOL    HW234839   0.342   0.134   7.724  3.2360  0.9546  0.6949
 7794SOL     OW34840   0.136   1.025   8.194  0.5102 -0.0528  0.4316
 7794SOL    HW134841   0.119   1.109   8.237 -0.7225  0.1758 -0.5145
 7794SOL    HW234842   0.071   1.024   8.124 -0.8467  0.7319  1.6735
 7795SOL     OW34843   4.365   3.095   3.678  0.1873 -0.1605 -0.1489
 7795SOL    HW134844   4.352   3.051   3.763  0.5094  1.4415  0.7209
 7795SOL    HW234845   4.311   3.041   3.620 -1.2606 -0.0284  1.0664
 7796SOL     OW34846   3.508   0.158   3.736  0.1433  0.2348  0.6221
 7796SOL    HW134847   3.468   0.208   3.665 -0.0977  0.7344  1.1187
 7796SOL    HW234848   3.443   0.176   3.803 -0.7844  1.1148 -0.5209
 7797SOL     OW34849   0.541   3.895  17.543  0.1136  0.1468 -0.2216
 7797SOL    HW134850   0.491   3.951  17.602  1.0524  0.0315  0.6727
 7797SOL    HW234851   0.623   3.892  17.593  0.1014  1.9301 -0.0891
 7798SOL     OW34852   1.158   4.281   4.096  0.4832 -0.1301  0.1194
 7798SOL    HW134853   1.246   4.303   4.066  0.4594 -1.3387 -0.8608
 7798SOL    HW234854   1.169   4.320   4.182 -0.9937  1.9862 -0.6438
 7799SOL     OW34855   0.968   3.658   2.929  0.3560  0.5193  0.5787
 7799SOL    HW134856   0.989   3.565   2.926 -1.3607  0.1513  0.4311
 7799SOL    HW234857   0.882   3.649   2.889  0.4456  1.9511  0.0685
 7800SOL     OW34858   3.887   0.340  13.490 -0.4295 -0.2699  0.2842
 7800SOL    HW134859   3.862   0.404  13.423 -2.3265  0.1567  1.3863
 7800SOL    HW234860   3.961   0.292  13.454 -2.0576 -2.1136 -0.5904
 7801SOL     OW34861   3.166   2.750   8.465  0.5088 -0.1713 -0.5778
 7801SOL    HW134862   3.125   2.751   8.379 -0.8342  1.7891  0.0978
 7801SOL    HW234863   3.133   2.836   8.492 -1.5315 -1.1417  0.0442
 7802SOL     OW34864   2.353   2.563  14.867  0.1630  0.1945 -0.8217
 7802SOL    HW134865   2.343   2.525  14.780  1.9480 -1.1054 -0.4702
 7802SOL    HW234866   2.279   2.524  14.913  0.0245 -0.2921 -1.4623
 7803SOL     OW34867   0.355   0.529   5.154 -0.5829 -0.1793 -0.1156
 7803SOL    HW134868   0.339   0.467   5.083  1.6236 -1.2949  0.3670
 7803SOL    HW234869   0.299   0.485   5.219 -0.9531 -1.0837 -1.0367
 7804SOL     OW34870   0.647   3.705   7.627 -0.2030  0.3869 -1.0807
 7804SOL    HW134871   0.554   3.712   7.607  0.1222  2.3458 -1.9247
 7804SOL    HW234872   0.676   3.641   7.562 -0.5705  0.6939 -1.5512
 7805SOL     OW34873   0.117   0.250  15.938 -0.1530 -0.6362 -0.6241
 7805SOL    HW134874   0.105   0.311  15.865 -1.7289 -1.8854 -1.3947
 7805SOL    HW234875   0.136   0.167  15.895  1.5060  0.1797 -1.4605
 7806SOL     OW34876   1.030   2.357   8.709  0.4282 -0.1744  0.0205
 7806SOL    HW134877   1.070   2.317   8.632 -1.0530 -1.3074 -0.1697
 7806SOL    HW234878   1.047   2.284   8.770  2.4926 -0.4227 -0.8433
 7807SOL     OW34879   2.893   3.745  16.586 -0.6133 -0.0063 -0.0454
 7807SOL    HW134880   2.918   3.830  16.550  0.0829  0.4874  1.6152
 7807SOL    HW234881   2.858   3.785  16.665  0.3041  2.3536 -0.8295
 7808SOL     OW34882   4.589   0.202   9.745 -0.1429  0.5260 -0.0946
 7808SOL    HW134883   4.578   0.286   9.701 -0.2169 -0.3897 -1.8025
 7808SOL    HW234884   4.623   0.146   9.675 -1.7483  2.0097 -2.0371
 7809SOL     OW34885   0.458   3.570   7.043  0.1670 -0.1149 -0.1541
 7809SOL    HW134886   0.504   3.509   7.100  0.9942  0.6530  0.0058
 7809SOL    HW234887   0.489   3.560   6.953  2.3583  1.4524  0.4359
 7810SOL     OW34888   4.680   3.268   1.223 -0.1638  0.5683 -0.2191
 7810SOL    HW134889   4.610   3.295   1.283  1.1128  0.3224  1.3670
 7810SOL    HW234890   4.633   3.196   1.182  0.4735 -0.4572  0.8618
 7811SOL     OW34891   3.372   2.587   6.990  0.0691 -0.3833 -0.4174
 7811SOL    HW134892   3.416   2.664   7.027  0.3735 -1.6495  1.8404
 7811SOL    HW234893   3.324   2.635   6.922 -1.5955 -0.9642  0.3638
 7812SOL     OW34894   0.832   4.543  14.697  0.7795  0.6421 -0.2963
 7812SOL    HW134895   0.808   4.543  14.789  0.6149 -0.4231 -0.3375
 7812SOL    HW234896   0.920   4.582  14.700  1.2151 -0.3797  0.0824
 7813SOL     OW34897   3.028   1.587   9.106  0.0404  0.1505 -0.0523
 7813SOL    HW134898   3.084   1.550   9.175 -0.4962 -1.2645 -0.3782
 7813SOL    HW234899   3.083   1.657   9.073 -0.2421  1.5645  2.5072
 7814SOL     OW34900   2.473   3.201   6.428 -0.2297 -0.0665 -0.1576
 7814SOL    HW134901   2.431   3.247   6.501 -0.9399  0.5960 -0.9813
 7814SOL    HW234902   2.389   3.192   6.382  0.9926  0.1500 -2.4005
 7815SOL     OW34903   2.027   2.908   4.261  0.0010 -0.7108  0.2229
 7815SOL    HW134904   2.037   2.861   4.344 -1.6730  1.6001  1.7402
 7815SOL    HW234905   1.961   2.847   4.228 -1.5706  1.3694 -0.4594
 7816SOL     OW34906   0.225   4.175   7.496  0.0373  0.6478  0.3866
 7816SOL    HW134907   0.287   4.177   7.423 -1.5383  1.5199 -0.9453
 7816SOL    HW234908   0.258   4.107   7.554  1.1454  0.3074 -0.6492
 7817SOL     OW34909   1.343   1.696   7.319  0.3480  0.4214 -0.2455
 7817SOL    HW134910   1.380   1.615   7.285 -1.5791 -0.5971  0.0313
 7817SOL    HW234911   1.293   1.723   7.241  0.7203  2.1535  0.1210
 7818SOL     OW34912   4.612   3.787   1.610 -0.2617  0.1434 -0.1998
 7818SOL    HW134913   4.523   3.758   1.630 -1.2576  2.6574 -1.0222
 7818SOL    HW234914   4.675   3.743   1.667 -0.9729 -1.5519 -0.6990
 7819SOL     OW34915   2.537   1.473   4.421 -0.1563  0.2612  0.1490
 7819SOL    HW134916   2.458   1.526   4.433  0.1121 -0.0529  3.4126
 7819SOL    HW234917   2.528   1.462   4.326  2.5431 -0.3558 -0.0450
 7820SOL     OW34918   2.531   3.468   3.827 -0.4432 -0.3257  0.1214
 7820SOL    HW134919   2.503   3.537   3.766  0.5149 -0.1362 -0.0945
 7820SOL    HW234920   2.625   3.464   3.814 -0.3026 -0.9291  1.2795
 7821SOL     OW34921   3.372   1.941   2.670 -0.2539 -0.1867 -0.1731
 7821SOL    HW134922   3.415   1.861   2.638 -0.2341 -0.4922  0.6205
 7821SOL    HW234923   3.360   2.000   2.596 -1.3950 -1.9151 -1.3440
 7822SOL     OW34924   2.494   1.092   4.437  0.4259 -0.4760  0.2510
 7822SOL    HW134925   2.573   1.099   4.383  1.0378  0.2549  1.2334
 7822SOL    HW234926   2.521   1.022   4.497 -0.0028 -0.9554 -0.1237
 7823SOL     OW34927   0.635   4.437   2.773 -0.3633 -0.1337 -0.6107
 7823SOL    HW134928   0.672   4.354   2.741  3.8717  2.8681 -3.3909
 7823SOL    HW234929   0.653   4.493   2.699  0.1420  1.0520  0.4140
 7824SOL     OW34930   2.163   3.492   1.960  0.4973  0.3179  0.1504
 7824SOL    HW134931   2.244   3.452   1.992  1.6219  2.0148 -0.5572
 7824SOL    HW234932   2.156   3.444   1.878 -0.2448  0.1315  0.3211
 7825SOL     OW34933   2.390   2.594   8.410 -0.1704 -0.9492  0.2492
 7825SOL    HW134934   2.447   2.564   8.482 -0.0785  0.1628  0.6323
 7825SOL    HW234935   2.343   2.514   8.387 -0.9209 -0.5252  0.3210
 7826SOL     OW34936   0.674   0.033   8.782  0.4831  0.0739 -0.4336
 7826SOL    HW134937   0.737   0.019   8.711 -0.8659 -2.8943 -1.0366
 7826SOL    HW234938   0.671   0.128   8.793 -0.5148  0.1107 -1.0504
 7827SOL     OW34939   3.602   3.609   4.885 -0.4446  0.7816 -0.3338
 7827SOL    HW134940   3.514   3.648   4.879 -0.5039  0.5614 -0.8842
 7827SOL    HW234941   3.618   3.602   4.791  1.2366  0.7108 -0.0379
 7828SOL     OW34942   1.269   1.603  12.549  0.3825 -0.4232  0.5791
 7828SOL    HW134943   1.217   1.607  12.468 -0.8363 -1.0171  1.3242
 7828SOL    HW234944   1.274   1.696  12.570  0.5698  0.1159 -1.8268
 7829SOL     OW34945   4.147   0.428   7.515 -0.3143  0.1280 -0.1615
 7829SOL    HW134946   4.143   0.410   7.609 -0.0462  0.1342 -0.1499
 7829SOL    HW234947   4.149   0.337   7.484  1.1847  0.8276 -2.0785
 7830SOL     OW34948   0.688   2.053  11.011  0.3395 -0.5118 -0.2362
 7830SOL    HW134949   0.735   1.978  11.048 -0.2600  0.6120  2.8068
 7830SOL    HW234950   0.644   2.095  11.085 -1.6182 -1.9934 -0.5511
 7831SOL     OW34951   3.547   4.230  10.097 -0.2574  0.4182 -0.5129
 7831SOL    HW134952   3.452   4.242  10.094 -0.3658 -1.0855 -3.2171
 7831SOL    HW234953   3.572   4.320  10.118  1.9428 -0.1159 -0.9136
 7832SOL     OW34954   3.829   4.637   5.049 -0.3091 -0.2440 -0.5918
 7832SOL    HW134955   3.795   0.005   5.075  0.9635 -0.3107  1.2964
 7832SOL    HW234956   3.919   4.667   5.039  0.2023 -1.5210  0.1891
 7833SOL     OW34957   1.723   0.712  12.227  0.3689 -0.3368 -0.1307
 7833SOL    HW134958   1.641   0.747  12.262 -0.6351 -0.2264 -2.6150
 7833SOL    HW234959   1.770   0.715  12.310  0.7916  0.8034 -0.4168
 7834SOL     OW34960   0.957   3.340   1.265 -0.6308 -0.1010  0.3487
 7834SOL    HW134961   0.895   3.269   1.248 -0.4325 -0.0267 -0.7237
 7834SOL    HW234962   0.963   3.340   1.360 -0.1530 -2.0336  0.3089
 7835SOL     OW34963   1.704   0.912   7.357  0.1468 -0.1538  0.8812
 7835SOL    HW134964   1.641   0.907   7.430 -0.2612  0.6809  0.5868
 7835SOL    HW234965   1.703   1.006   7.337 -1.9747 -0.0633  1.3735
 7836SOL     OW34966   0.965   1.440   2.974  0.1984  0.9672  0.5796
 7836SOL    HW134967   0.944   1.527   3.009 -1.6865  1.5854 -2.1084
 7836SOL    HW234968   1.028   1.412   3.040  0.7265  0.8551  0.0213
 7837SOL     OW34969   1.353   0.037  12.227 -0.0020  0.2209  0.6653
 7837SOL    HW134970   1.334   0.052  12.134  0.1147 -0.7698  0.4835
 7837SOL    HW234971   1.293   4.682  12.247  0.3011  0.0165  0.8171
 7838SOL     OW34972   2.140   1.009   2.940  0.0126 -0.2463  0.2561
 7838SOL    HW134973   2.208   1.070   2.970 -1.4088  1.3991  0.1742
 7838SOL    HW234974   2.177   0.921   2.942 -1.6695 -0.9783 -0.4205
 7839SOL     OW34975   1.687   1.672   5.301 -0.0621 -0.3632 -0.6630
 7839SOL    HW134976   1.697   1.767   5.295  1.2170 -0.4304  0.2886
 7839SOL    HW234977   1.749   1.650   5.231 -0.1320 -0.5897 -0.6528
 7840SOL     OW34978   1.962   4.187  14.185 -0.4196  0.4255  0.0947
 7840SOL    HW134979   1.935   4.226  14.267 -1.4345  1.1984 -0.6118
 7840SOL    HW234980   2.019   4.118  14.219 -0.8662 -1.3768 -2.8306
 7841SOL     OW34981   0.932   2.523   9.457  0.0675  0.1592  0.3766
 7841SOL    HW134982   0.912   2.431   9.439  0.4850  0.4606 -1.6762
 7841SOL    HW234983   0.993   2.521   9.530  1.5692  4.0201 -0.7947
 7842SOL     OW34984   3.207   2.109   0.928  0.1561 -0.1740  0.4066
 7842SOL    HW134985   3.281   2.072   0.978  1.5586  1.0848 -0.7319
 7842SOL    HW234986   3.244   2.197   0.919 -0.0343 -0.1224  0.1391
 7843SOL     OW34987   0.061   1.218   1.321  0.1448 -0.0134  0.6745
 7843SOL    HW134988   0.025   1.243   1.406 -1.3324  1.7485 -0.4836
 7843SOL    HW234989   0.025   1.282   1.260  1.9778 -0.0300 -0.3995
 7844SOL     OW34990   2.319   1.758   4.678 -0.1485  0.0078 -0.2592
 7844SOL    HW134991   2.341   1.844   4.714  0.8262  0.2326 -1.3855
 7844SOL    HW234992   2.372   1.699   4.732  0.1357  0.6015  0.1129
 7845SOL     OW34993   3.061   0.697   6.347 -0.0314  0.0184  0.5268
 7845SOL    HW134994   3.047   0.609   6.380 -1.8250 -0.1663 -0.7740
 7845SOL    HW234995   3.001   0.697   6.272  0.9997  1.8925 -0.3232
 7846SOL     OW34996   3.750   2.134  11.473 -0.1654  0.2845 -0.0205
 7846SOL    HW134997   3.711   2.102  11.391  0.6042 -0.3430 -0.1479
 7846SOL    HW234998   3.814   2.193  11.434 -0.9522  1.7421  0.9392
 7847SOL     OW34999   0.081   1.676  12.839 -0.5867  0.8974  0.2393
 7847SOL    HW135000   0.049   1.652  12.926  1.1517  2.0367  1.1642
 7847SOL    HW235001   0.167   1.715  12.848 -0.5094  0.8357 -0.2295
 7848SOL     OW35002   3.282   2.304  10.026  0.1478 -0.0580  0.0882
 7848SOL    HW135003   3.238   2.347  10.100 -0.0035  1.2307 -0.7474
 7848SOL    HW235004   3.242   2.217  10.024 -0.6880  0.2710  2.2452
 7849SOL     OW35005   4.649   0.162   7.295  0.3060  0.4864 -0.2905
 7849SOL    HW135006   4.671   0.170   7.388 -2.6763 -0.1817  0.4991
 7849SOL    HW235007   4.592   0.085   7.299  1.6862 -0.4610  1.0215
 7850SOL     OW35008   1.693   4.394   4.231 -0.7228  0.1348  0.3000
 7850SOL    HW135009   1.681   4.473   4.178  0.1161 -0.6832 -1.1193
 7850SOL    HW235010   1.769   4.349   4.194 -2.1635 -0.3610 -2.1187
 7851SOL     OW35011   2.095   1.751   5.253 -0.1780 -0.0964 -0.5150
 7851SOL    HW135012   2.108   1.673   5.199 -0.0747 -0.2275 -0.3011
 7851SOL    HW235013   2.122   1.704   5.332 -1.0357 -2.3738 -1.5911
 7852SOL     OW35014   3.516   2.988   8.530 -0.3163  0.5330  0.0064
 7852SOL    HW135015   3.550   2.960   8.445 -2.0085  1.2678 -0.9080
 7852SOL    HW235016   3.493   2.899   8.556  2.2349 -0.6230 -1.6362
 7853SOL     OW35017   0.925   1.707   5.429 -0.1091  0.6163  0.5478
 7853SOL    HW135018   0.943   1.626   5.383 -0.5845  0.2028  1.0788
 7853SOL    HW235019   0.905   1.672   5.516 -1.9716 -0.0484 -0.1340
 7854SOL     OW35020   1.756   1.042   3.969  0.0121  0.1155 -0.5508
 7854SOL    HW135021   1.728   1.045   3.878 -3.0853 -1.3514  0.3208
 7854SOL    HW235022   1.714   1.119   4.008  0.5486  0.2080 -0.1568
 7855SOL     OW35023   3.338   4.295   7.967 -0.0097  0.5704  0.0717
 7855SOL    HW135024   3.420   4.342   7.979  0.2988  0.2935 -0.8893
 7855SOL    HW235025   3.308   4.259   8.050  0.3716  4.1820  1.7499
 7856SOL     OW35026   0.583   2.787   7.615  0.1931  0.6741 -0.3269
 7856SOL    HW135027   0.655   2.739   7.655 -2.1373 -1.0751  1.7855
 7856SOL    HW235028   0.631   2.869   7.606 -1.0689  1.5076  0.4217
 7857SOL     OW35029   4.364   4.021   0.774 -0.2957 -0.4807  0.7920
 7857SOL    HW135030   4.394   3.992   0.861 -0.7129  0.3409  1.2105
 7857SOL    HW235031   4.435   3.980   0.724 -1.7677 -0.2654 -1.4363
 7858SOL     OW35032   2.710   2.758   3.471  0.1517  0.0321  0.9135
 7858SOL    HW135033   2.789   2.715   3.505  1.6194  1.7672 -0.2739
 7858SOL    HW235034   2.659   2.685   3.435 -1.0347 -0.6228  3.9319
 7859SOL     OW35035   1.318   1.199   9.108  0.5309  0.5085  0.2595
 7859SOL    HW135036   1.250   1.249   9.152 -0.1204 -0.8302  0.7784
 7859SOL    HW235037   1.398   1.207   9.161  0.1962  0.1236  0.8232
 7860SOL     OW35038   4.361   2.673  16.429  0.1415 -0.4917 -0.0987
 7860SOL    HW135039   4.420   2.602  16.403 -0.3025 -1.3833  1.4146
 7860SOL    HW235040   4.287   2.621  16.458  0.0345  0.3644  1.1409
 7861SOL     OW35041   0.494   2.864   4.534  0.1035 -0.7773 -0.2694
 7861SOL    HW135042   0.559   2.898   4.595 -0.4477 -1.1973  0.5538
 7861SOL    HW235043   0.449   2.948   4.536 -1.6153 -1.7040  0.5142
 7862SOL     OW35044   4.155   2.385   5.804 -0.2547 -0.2422 -0.4014
 7862SOL    HW135045   4.131   2.471   5.768  0.4834  0.4540  0.7489
 7862SOL    HW235046   4.153   2.322   5.732  1.2739 -1.4373  0.6103
 7863SOL     OW35047   0.717   3.051   7.595  0.4048 -0.2451  0.4395
 7863SOL    HW135048   0.679   3.096   7.520  1.1976 -1.7459 -0.8624
 7863SOL    HW235049   0.710   3.116   7.665  1.9962 -2.2184  2.4403
 7864SOL     OW35050   1.843   1.037   4.888  0.2383 -0.5543 -0.7709
 7864SOL    HW135051   1.782   1.100   4.927  1.3987 -0.5596  1.0499
 7864SOL    HW235052   1.923   1.071   4.928  0.8672 -0.0147 -2.4854
 7865SOL     OW35053   4.236   0.637   4.281  0.3547  0.0834 -0.1471
 7865SOL    HW135054   4.229   0.731   4.264 -1.9739 -0.1246 -0.3873
 7865SOL    HW235055   4.288   0.632   4.361 -0.4552 -1.0819  0.3062
 7866SOL     OW35056   3.242   2.921   7.207 -0.6460 -0.0811 -0.3621
 7866SOL    HW135057   3.170   2.873   7.249 -0.6776 -0.6774 -1.0973
 7866SOL    HW235058   3.284   2.955   7.286 -0.3421 -1.3139  0.0193
 7867SOL     OW35059   0.459   1.158   5.180 -0.1985 -0.4659 -0.0428
 7867SOL    HW135060   0.376   1.203   5.166  0.0429  0.1187  0.4158
 7867SOL    HW235061   0.433   1.090   5.242  0.1411 -1.9279 -1.5021
 7868SOL     OW35062   1.844   4.646   9.265 -0.3067  0.6671  0.1026
 7868SOL    HW135063   1.818   4.569   9.216  1.3482 -0.0611  0.3691
 7868SOL    HW235064   1.935   4.620   9.280 -0.7607 -0.2312  1.2909
 7869SOL     OW35065   1.948   1.643   8.133 -0.0115 -0.2927 -0.0980
 7869SOL    HW135066   1.955   1.616   8.224 -1.9481  0.9439  0.4190
 7869SOL    HW235067   1.950   1.738   8.142  0.5452 -0.1576 -1.5929
 7870SOL     OW35068   2.702   1.738  14.551 -0.1362 -0.7182 -0.6708
 7870SOL    HW135069   2.627   1.789  14.520  0.1307  0.1981  0.2114
 7870SOL    HW235070   2.777   1.784  14.514 -0.3570 -0.6991 -1.0888
 7871SOL     OW35071   2.066   3.129   2.641  0.0633  0.3713 -0.0704
 7871SOL    HW135072   2.106   3.203   2.686 -0.5645 -0.6992  2.2277
 7871SOL    HW235073   2.009   3.174   2.579 -1.2533 -0.5909  0.4392
 7872SOL     OW35074   0.587   1.627   5.131  0.3783  0.0686  0.0537
 7872SOL    HW135075   0.649   1.654   5.064 -0.4369  0.3534 -0.5922
 7872SOL    HW235076   0.609   1.537   5.156  0.2197  0.4316  1.5325
 7873SOL     OW35077   1.062   3.901   2.178 -0.2701 -0.7145  0.0868
 7873SOL    HW135078   1.148   3.932   2.147 -0.6188  1.6825  1.5648
 7873SOL    HW235079   1.066   3.898   2.274  1.3889 -0.9560  0.0217
 7874SOL     OW35080   3.464   1.220   2.504  0.2876  0.5498 -0.3371
 7874SOL    HW135081   3.425   1.256   2.424  0.4920 -0.0465 -0.7137
 7874SOL    HW235082   3.445   1.126   2.504  0.5669  0.4831 -1.5561
 7875SOL     OW35083   3.567   4.689   1.155  0.0947  0.3205 -0.6783
 7875SOL    HW135084   3.479   4.652   1.144  0.8534 -0.9900 -2.3886
 7875SOL    HW235085   3.553   0.043   1.093 -2.2420 -0.8809 -1.5353
 7876SOL     OW35086   2.050   2.458   5.453  0.5069 -0.4448 -0.1528
 7876SOL    HW135087   2.037   2.363   5.458 -0.1374 -0.4198 -1.4282
 7876SOL    HW235088   1.989   2.491   5.387  2.4905  0.1298 -1.7040
 7877SOL     OW35089   3.643   0.778   0.568  0.4101  0.7201  0.3827
 7877SOL    HW135090   3.657   0.861   0.615 -1.5876  0.4079  1.5035
 7877SOL    HW235091   3.723   0.732   0.595  0.8957  1.1476 -0.3244
 7878SOL     OW35092   1.310   3.046   8.944 -0.1204  0.3038 -0.2793
 7878SOL    HW135093   1.281   2.970   8.994  0.7706  1.1066  1.4364
 7878SOL    HW235094   1.404   3.033   8.939 -0.1773 -0.7001  1.3624
 7879SOL     OW35095   1.938   1.148   2.776  0.3745 -0.0155  0.2123
 7879SOL    HW135096   1.999   1.115   2.842  1.1702  1.1264  0.0481
 7879SOL    HW235097   1.997   1.213   2.737  0.8199 -0.0494  0.8288
 7880SOL     OW35098   1.402   1.040   3.123  0.3869 -0.4040 -0.7394
 7880SOL    HW135099   1.417   0.960   3.072  1.3109 -0.2346 -0.7179
 7880SOL    HW235100   1.481   1.089   3.101 -1.8958  2.7492 -2.0371
 7881SOL     OW35101   1.959   4.108   6.554  0.0400 -0.0104  0.2961
 7881SOL    HW135102   1.895   4.120   6.624 -3.0260 -0.1466 -2.4895
 7881SOL    HW235103   2.013   4.184   6.577  0.1333 -0.1409  0.5065
 7882SOL     OW35104   0.018   4.423   4.157 -0.1538 -0.2009 -0.0406
 7882SOL    HW135105   4.686   4.463   4.229 -0.5690 -1.4450  0.3742
 7882SOL    HW235106   0.011   4.328   4.167 -1.9175 -0.2040 -1.1951
 7883SOL     OW35107   2.390   0.367   6.072  0.1276 -0.1641 -0.0549
 7883SOL    HW135108   2.452   0.439   6.071 -1.6184  1.3524  2.3232
 7883SOL    HW235109   2.440   0.291   6.103 -0.2908 -1.5455 -2.7291
 7884SOL     OW35110   2.310   1.332  14.078  0.3093 -0.5229 -0.4975
 7884SOL    HW135111   2.299   1.292  14.164 -1.4337  0.4091 -0.2984
 7884SOL    HW235112   2.221   1.321  14.043 -1.6834 -0.0552  4.5142
 7885SOL     OW35113   1.003   0.406   1.707  0.2403  0.0007 -0.0257
 7885SOL    HW135114   1.090   0.370   1.721 -0.0072 -1.3013 -1.9017
 7885SOL    HW235115   0.960   0.321   1.713  0.2918 -0.0195  0.0482
 7886SOL     OW35116   2.515   2.640   2.804 -0.6142 -0.2968 -0.2262
 7886SOL    HW135117   2.435   2.684   2.831 -0.0599 -0.5042  1.7823
 7886SOL    HW235118   2.559   2.630   2.889  1.0975  0.8359 -0.9818
 7887SOL     OW35119   0.836   1.402   2.167  0.5553 -0.0998  0.3445
 7887SOL    HW135120   0.787   1.398   2.250 -2.7158 -3.6915 -1.7701
 7887SOL    HW235121   0.844   1.312   2.137  0.3568  0.1185 -0.3584
 7888SOL     OW35122   3.727   2.335   8.983  0.4267 -0.3921  0.6512
 7888SOL    HW135123   3.653   2.277   9.000 -0.5907  0.6068 -0.3473
 7888SOL    HW235124   3.713   2.407   9.045  0.2540  1.4267 -1.4660
 7889SOL     OW35125   0.229   1.126   8.773 -0.2615 -0.2251 -0.1452
 7889SOL    HW135126   0.259   1.176   8.697 -0.0720 -1.0642 -0.6246
 7889SOL    HW235127   0.135   1.115   8.759 -0.6456 -0.9663  3.0936
 7890SOL     OW35128   0.975   4.416   3.082 -0.0924 -0.3270 -0.1333
 7890SOL    HW135129   1.024   4.445   3.006 -1.9848  1.1387 -0.7994
 7890SOL    HW235130   0.886   4.430   3.049  0.5224  0.8761 -1.2676
 7891SOL     OW35131   3.579   2.984   3.376  0.2808  0.0410  0.2082
 7891SOL    HW135132   3.570   2.891   3.396  4.6400 -0.3351  0.3696
 7891SOL    HW235133   3.662   3.008   3.418 -0.5582  3.1682  0.0838
 7892SOL     OW35134   0.704   0.766   1.969 -0.3453  0.3488  0.7887
 7892SOL    HW135135   0.697   0.691   2.028 -4.5505 -0.4430 -0.7591
 7892SOL    HW235136   0.743   0.723   1.893 -3.3678 -2.5519  0.8970
 7893SOL     OW35137   3.937   1.432   6.340 -0.0187  0.0630  0.1526
 7893SOL    HW135138   3.946   1.394   6.253  0.7759  0.3089  0.1265
 7893SOL    HW235139   4.017   1.486   6.334  0.9812 -1.7092 -2.0951
 7894SOL     OW35140   1.287   0.629   5.184  0.3239  0.2914 -0.3472
 7894SOL    HW135141   1.308   0.550   5.134  0.5921  0.0512  0.1436
 7894SOL    HW235142   1.222   0.601   5.248  0.5481  0.4686 -0.0437
 7895SOL     OW35143   0.614   2.836   2.864  0.5841  0.3192  0.4961
 7895SOL    HW135144   0.583   2.759   2.817 -1.9323  0.2575  2.2425
 7895SOL    HW235145   0.531   2.864   2.904 -0.7582 -1.1931 -1.2073
 7896SOL     OW35146   1.922   0.725   6.819  0.0806 -0.0089  0.3372
 7896SOL    HW135147   1.990   0.792   6.819  0.3095 -0.2376  0.9694
 7896SOL    HW235148   1.967   0.670   6.882  1.2801 -0.0733 -0.5877
 7897SOL     OW35149   1.566   0.861   8.983  0.4414  0.2344  0.4703
 7897SOL    HW135150   1.612   0.893   9.060 -0.3975  0.4008  0.8914
 7897SOL    HW235151   1.475   0.876   9.007  0.5059 -0.1370  0.9503
 7898SOL     OW35152   3.665   1.056   8.487  0.0268 -0.0244 -0.1072
 7898SOL    HW135153   3.722   0.986   8.454 -1.2201 -0.9693 -0.2703
 7898SOL    HW235154   3.725   1.086   8.555 -0.2729  1.0903 -0.3455
 7899SOL     OW35155   1.305   2.807   9.797  0.5393  0.7737 -0.0161
 7899SOL    HW135156   1.251   2.885   9.808 -0.3162  0.1195  0.5084
 7899SOL    HW235157   1.392   2.842   9.779  1.3651 -0.5724  1.2977
 7900SOL     OW35158   2.416   1.086   8.995  0.2405  0.6070 -0.5047
 7900SOL    HW135159   2.334   1.074   9.043  1.2191 -1.5631  0.6217
 7900SOL    HW235160   2.454   0.999   9.007  1.0490  0.8324 -1.4702
 7901SOL     OW35161   0.970   3.865   1.674  0.1008  0.2424 -0.3632
 7901SOL    HW135162   0.898   3.816   1.632 -1.3674  1.5365  0.6296
 7901SOL    HW235163   1.044   3.820   1.635 -0.6083 -0.6317 -0.7044
 7902SOL     OW35164   3.446   1.561   6.964  0.1544  0.3969 -0.7367
 7902SOL    HW135165   3.496   1.641   6.945 -1.7942  1.7643 -0.0234
 7902SOL    HW235166   3.515   1.502   6.996 -0.7921 -1.3903 -1.9834
 7903SOL     OW35167   1.072   0.662   6.350  0.1791 -0.3193  0.0078
 7903SOL    HW135168   1.026   0.648   6.267  0.3157  1.1560 -0.3177
 7903SOL    HW235169   1.072   0.575   6.390  1.4367 -0.2205  0.2463
 7904SOL     OW35170   0.167   1.842   2.312  0.0352  0.3787  0.2837
 7904SOL    HW135171   0.225   1.873   2.241  0.0369 -0.7607 -0.2049
 7904SOL    HW235172   0.085   1.887   2.296  0.8135  1.1083 -1.7049
 7905SOL     OW35173   3.922   2.682   3.690  0.5004 -0.3978  0.2054
 7905SOL    HW135174   3.849   2.635   3.731  0.6736 -0.1954  0.7465
 7905SOL    HW235175   3.910   2.656   3.599 -0.0603 -2.0227  0.7492
 7906SOL     OW35176   2.077   2.163  15.112 -0.0730  0.8741 -0.3168
 7906SOL    HW135177   2.166   2.144  15.142 -0.2003  0.8835  0.0642
 7906SOL    HW235178   2.018   2.126  15.178 -1.2261  0.4376 -1.5841
 7907SOL     OW35179   2.093   2.134   4.994 -0.3570  0.1399  0.0935
 7907SOL    HW135180   2.171   2.079   4.998  0.6158  1.6088  1.4057
 7907SOL    HW235181   2.124   2.220   4.965 -1.5330  0.1377 -1.1597
 7908SOL     OW35182   0.486   3.659   3.601 -0.3374  0.1243  0.3383
 7908SOL    HW135183   0.454   3.569   3.613 -2.7552  1.1610  1.7262
 7908SOL    HW235184   0.504   3.658   3.507 -1.2911 -0.2645  0.1556
 7909SOL     OW35185   2.636   4.056  16.859 -0.1160  0.5612 -0.3819
 7909SOL    HW135186   2.659   4.149  16.851  0.4916  0.4631  0.2414
 7909SOL    HW235187   2.577   4.073  16.933  0.9060 -0.1103  0.5819
 7910SOL     OW35188   1.373   0.325   6.651  0.5162  0.2598  0.0995
 7910SOL    HW135189   1.388   0.353   6.742  2.2342 -0.0875 -0.0938
 7910SOL    HW235190   1.427   0.392   6.609 -0.4630  0.9386 -0.0950
 7911SOL     OW35191   1.901   3.289   6.809  0.2243 -0.7382  0.5788
 7911SOL    HW135192   1.814   3.261   6.782  0.5817 -2.3266  1.0525
 7911SOL    HW235193   1.870   3.378   6.822  0.3051 -0.4822 -0.9047
 7912SOL     OW35194   2.171   2.143   3.631  0.0574 -0.2509 -0.0425
 7912SOL    HW135195   2.100   2.162   3.570  1.4071  1.6144 -1.0302
 7912SOL    HW235196   2.198   2.059   3.594  1.2863  0.7282 -1.3770
 7913SOL     OW35197   1.175   2.483   5.713  0.5402  0.6490  0.4320
 7913SOL    HW135198   1.237   2.419   5.677  1.2008  1.0660  0.8118
 7913SOL    HW235199   1.099   2.426   5.719 -0.5650  1.9782 -1.2713
 7914SOL     OW35200   4.401   3.940   1.031  0.5580 -0.2491 -0.2986
 7914SOL    HW135201   4.395   3.875   1.101  2.1751 -2.1656 -1.8965
 7914SOL    HW235202   4.495   3.957   1.039  0.5569 -0.4998  0.2568
 7915SOL     OW35203   2.593   1.977   5.840  0.3721 -0.3925  0.0997
 7915SOL    HW135204   2.627   2.007   5.925  0.6567  0.1170 -0.1943
 7915SOL    HW235205   2.570   2.064   5.806 -1.0013 -0.3662  1.0688
 7916SOL     OW35206   1.223   1.259  17.378  0.2361 -0.0389 -0.2584
 7916SOL    HW135207   1.276   1.198  17.326 -1.5001 -0.7244 -1.2305
 7916SOL    HW235208   1.285   1.332  17.382  0.7041 -0.5831  2.5154
 7917SOL     OW35209   3.311   3.906   4.385  0.0502 -0.6881 -0.4612
 7917SOL    HW135210   3.331   3.826   4.433  0.7200 -0.9353 -1.1597
 7917SOL    HW235211   3.398   3.928   4.353 -0.2643  0.8866 -0.2392
 7918SOL     OW35212   3.707   4.577   2.906  0.1602  0.8812  0.0605
 7918SOL    HW135213   3.696   4.594   3.000 -0.7931  0.8425 -0.0456
 7918SOL    HW235214   3.745   4.662   2.883  0.0998  0.9580  0.2450
 7919SOL     OW35215   0.939   0.144   1.699 -0.3689  0.0966 -0.4197
 7919SOL    HW135216   0.874   0.085   1.660 -1.2302  1.1406 -0.5637
 7919SOL    HW235217   1.014   0.093   1.669 -0.8825  0.1935 -1.8692
 7920SOL     OW35218   4.320   0.640   0.613  0.5230  0.3323  0.6423
 7920SOL    HW135219   4.275   0.723   0.599  3.0509  1.6757  0.4434
 7920SOL    HW235220   4.298   0.592   0.534  0.3278 -0.3909  1.1287
 7921SOL     OW35221   0.561   4.185   7.652 -0.2407 -0.3374  0.2856
 7921SOL    HW135222   0.515   4.229   7.580 -1.5475 -2.4848 -0.1709
 7921SOL    HW235223   0.581   4.260   7.708  1.6671 -1.6206  1.3178
 7922SOL     OW35224   0.133   4.340   7.232  0.5246 -0.0153  0.0416
 7922SOL    HW135225   0.200   4.273   7.247  1.3659  0.3896 -1.7969
 7922SOL    HW235226   0.180   4.407   7.282 -2.9161  0.4134  2.6358
 7923SOL     OW35227   0.612   3.611   7.964  0.2222  0.1738 -0.1259
 7923SOL    HW135228   0.584   3.604   7.873  2.8385  2.5105 -1.0742
 7923SOL    HW235229   0.691   3.557   7.961 -0.9237 -1.7020  3.1859
 7924SOL     OW35230   4.551   0.709   0.339 -0.2204 -0.1911  0.4331
 7924SOL    HW135231   4.551   0.616   0.363 -1.1616  0.9994  5.0230
 7924SOL    HW235232   4.581   0.713   0.248 -2.6778 -1.6913 -0.4327
 7925SOL     OW35233   1.618   3.437   2.701  0.1434  0.1038  0.2745
 7925SOL    HW135234   1.692   3.432   2.761 -0.1280  1.5370  0.7427
 7925SOL    HW235235   1.560   3.496   2.749 -0.3980  1.1523 -1.6583
 7926SOL     OW35236   3.175   3.897   8.655 -0.1512 -0.2642  0.2248
 7926SOL    HW135237   3.244   3.837   8.683 -0.2703  0.4183  1.9976
 7926SOL    HW235238   3.102   3.843   8.686  0.3739 -0.7841  0.5518
 7927SOL     OW35239   1.300   3.210   8.312  0.2859 -0.0052 -0.4288
 7927SOL    HW135240   1.265   3.122   8.326 -0.5002  0.5854  1.3222
 7927SOL    HW235241   1.276   3.256   8.392  0.0361  1.0277 -1.1051
 7928SOL     OW35242   3.422   3.102  10.232  0.0705  0.6784 -0.1258
 7928SOL    HW135243   3.494   3.064  10.182 -0.0539 -0.5251  0.6092
 7928SOL    HW235244   3.445   3.195  10.235  1.4923  0.3032  0.2678
 7929SOL     OW35245   1.054   0.955   3.506 -0.3075  0.0548 -0.3011
 7929SOL    HW135246   1.132   1.010   3.513 -0.0395 -0.5691  1.5825
 7929SOL    HW235247   0.996   1.013   3.556  2.9777  2.2081  0.9879
 7930SOL     OW35248   2.898   0.536  13.950  0.4914  0.2091  0.3829
 7930SOL    HW135249   2.987   0.517  13.979  0.5140  2.5654  1.7808
 7930SOL    HW235250   2.905   0.625  13.916  0.5632 -0.2353 -0.7865
 7931SOL     OW35251   0.871   0.020   5.150  0.2264 -0.2790  0.2285
 7931SOL    HW135252   0.840   0.015   5.241 -0.9150 -0.0215 -0.1442
 7931SOL    HW235253   0.796   4.706   5.099  0.6771 -0.9502 -0.0279
 7932SOL     OW35254   4.567   4.523  15.784  0.3894  0.6081 -0.2538
 7932SOL    HW135255   4.598   4.432  15.782  1.4036  0.9771 -1.5387
 7932SOL    HW235256   4.641   4.562  15.737  2.9570 -1.2523  2.2628
 7933SOL     OW35257   3.923   2.148   6.025  0.2105  0.2296 -0.2331
 7933SOL    HW135258   3.865   2.072   6.028  0.0666  0.3823  1.1671
 7933SOL    HW235259   3.990   2.100   5.976  2.6368  2.4509  0.8674
 7934SOL     OW35260   0.436   3.678   5.483 -0.5967  0.0899  0.7034
 7934SOL    HW135261   0.508   3.722   5.438 -1.0427 -0.4044 -0.4642
 7934SOL    HW235262   0.476   3.592   5.495  0.3489  0.1971 -1.8193
 7935SOL     OW35263   0.450   0.031  16.022  0.1326  0.0072  0.0150
 7935SOL    HW135264   0.490   0.118  16.012  0.2173  0.1144  1.2474
 7935SOL    HW235265   0.422   0.035  16.114 -2.2869 -0.0302 -0.7323
 7936SOL     OW35266   2.929   0.001   3.337  0.7192  0.2575 -0.2393
 7936SOL    HW135267   3.005   0.014   3.280  1.8485  2.0641  1.6641
 7936SOL    HW235268   2.929   0.088   3.378 -1.8600 -0.3964  1.1474
 7937SOL     OW35269   1.741   4.550   1.898 -0.7930 -0.0263 -0.2007
 7937SOL    HW135270   1.726   4.618   1.964  2.0340 -2.4196  2.8968
 7937SOL    HW235271   1.795   4.484   1.941  1.3429  1.0394 -1.2439
 7938SOL     OW35272   4.131   1.130  15.407  0.1841 -0.1565 -0.3485
 7938SOL    HW135273   4.109   1.142  15.499  1.3914 -2.2109  0.2197
 7938SOL    HW235274   4.079   1.196  15.362  1.3353  2.0317  1.5580
 7939SOL     OW35275   3.940   2.469   2.214  0.5014 -0.4494  0.2566
 7939SOL    HW135276   3.971   2.387   2.251 -0.4875 -1.1915 -0.5625
 7939SOL    HW235277   3.954   2.454   2.121  2.4112  0.1692  0.4509
 7940SOL     OW35278   4.283   0.718   2.094 -0.1178 -0.0706 -0.1238
 7940SOL    HW135279   4.379   0.726   2.095  0.0769 -2.6497  4.2649
 7940SOL    HW235280   4.290   0.624   2.110 -1.7664 -0.4342 -1.6758
 7941SOL     OW35281   4.557   0.366  13.927  0.3529  0.0865  0.4496
 7941SOL    HW135282   4.476   0.417  13.924  1.3709  1.8208  2.8857
 7941SOL    HW235283   4.628   0.429  13.923  0.9043 -0.5942 -0.4647
 7942SOL     OW35284   4.647   4.431   4.614  0.5290 -0.5498  1.5872
 7942SOL    HW135285   4.680   4.434   4.704  0.3141  2.0264  1.5884
 7942SOL    HW235286   0.014   4.433   4.569  0.3786 -1.5901  1.2733
 7943SOL     OW35287   3.237   2.666   6.204  0.5457  0.1661  0.0522
 7943SOL    HW135288   3.240   2.647   6.110  1.8111 -2.1247  0.5382
 7943SOL    HW235289   3.148   2.697   6.220  0.5079 -0.2265  0.5862
 7944SOL     OW35290   2.398   4.254  10.169  0.4917 -0.7483  0.0011
 7944SOL    HW135291   2.448   4.185  10.212 -0.3655 -1.0222  0.5444
 7944SOL    HW235292   2.412   4.220  10.080  0.4983 -0.6455 -0.0381
 7945SOL     OW35293   4.458   3.737  17.462 -0.3616 -0.0352 -0.9255
 7945SOL    HW135294   4.532   3.676  17.467 -1.1931 -0.8869  0.6853
 7945SOL    HW235295   4.479   3.806  17.525 -1.7757 -1.1277  0.7389
 7946SOL     OW35296   1.101   3.898  12.991  0.3827  0.4009 -0.3620
 7946SOL    HW135297   1.121   3.927  12.902  2.9284 -0.0817  0.0507
 7946SOL    HW235298   1.178   3.857  13.031 -1.1296 -1.4083  0.6407
 7947SOL     OW35299   1.508   2.332   6.087 -0.0756 -0.6132  0.3012
 7947SOL    HW135300   1.559   2.262   6.047 -1.0755 -1.4080  0.4146
 7947SOL    HW235301   1.519   2.405   6.026  0.5094 -0.4866  0.5546
 7948SOL     OW35302   1.964   4.225  10.276  1.2556 -0.3636 -0.0862
 7948SOL    HW135303   2.018   4.150  10.251 -0.5560 -0.5603 -3.4549
 7948SOL    HW235304   2.018   4.302  10.255  1.2308 -0.3576 -0.1279
 7949SOL     OW35305   2.378   2.698   5.843 -0.1075 -0.5251  0.2344
 7949SOL    HW135306   2.308   2.671   5.902 -1.4004 -1.2723 -1.6460
 7949SOL    HW235307   2.409   2.615   5.806 -0.7514  0.1423 -1.7942
 7950SOL     OW35308   2.402   0.001   1.485 -0.4395  0.0250  0.1247
 7950SOL    HW135309   2.369   0.052   1.559 -0.3699  0.7597 -0.3488
 7950SOL    HW235310   2.396   4.633   1.529  0.3263  0.5666  1.2917
 7951SOL     OW35311   3.066   1.919  15.786  0.7638 -0.5684 -0.0180
 7951SOL    HW135312   3.016   1.957  15.858  0.8178  2.4599 -1.5789
 7951SOL    HW235313   3.134   1.866  15.828 -0.6132 -1.7402  0.6860
 7952SOL     OW35314   2.611   2.168   2.342  0.0884 -0.1950 -0.0531
 7952SOL    HW135315   2.594   2.262   2.355 -0.5434 -0.3251  0.0092
 7952SOL    HW235316   2.520   2.141   2.332  0.2453 -0.9327  0.5320
 7953SOL     OW35317   0.442   2.749   5.614 -0.7886 -0.3466  0.4852
 7953SOL    HW135318   0.527   2.760   5.572  0.1377 -1.9877  1.9150
 7953SOL    HW235319   0.473   2.731   5.703  0.4845  3.2942  0.7749
 7954SOL     OW35320   0.629   2.717  11.007 -0.2374  0.3582 -0.4260
 7954SOL    HW135321   0.627   2.794  10.950 -1.0390 -0.6419 -1.7644
 7954SOL    HW235322   0.552   2.675  10.968 -1.7130  1.8600  0.9055
 7955SOL     OW35323   0.091   1.751   6.313  0.9225  0.9591 -0.0110
 7955SOL    HW135324   0.093   1.704   6.230 -2.0298 -0.7042  0.8709
 7955SOL    HW235325   0.015   1.709   6.354  0.8769  0.8058 -0.2544
 7956SOL     OW35326   2.344   2.634  11.519 -0.8509 -0.3361 -0.0497
 7956SOL    HW135327   2.341   2.653  11.613 -0.3756 -1.2021  0.1363
 7956SOL    HW235328   2.437   2.631  11.496 -0.7575 -0.5412  0.3586
 7957SOL     OW35329   0.069   4.682  12.511  0.2474  0.4174  0.0289
 7957SOL    HW135330   4.703   0.007  12.490 -0.5123 -1.0752  0.0228
 7957SOL    HW235331   0.126   0.039  12.529  1.0248  0.4141 -2.3776
 7958SOL     OW35332   4.019   0.205  16.916 -0.0917 -0.2229  0.2648
 7958SOL    HW135333   4.091   0.250  16.960 -0.4030  0.1767  0.3649
 7958SOL    HW235334   3.959   0.177  16.985 -1.1656 -0.1095 -0.6273
 7959SOL     OW35335   0.420   0.906  15.302 -0.4130 -0.4490  0.3348
 7959SOL    HW135336   0.392   0.993  15.271  0.3090 -0.5297 -0.5419
 7959SOL    HW235337   0.387   0.850  15.233 -2.0798  0.6039  0.2892
 7960SOL     OW35338   1.136   4.552  15.979  0.0888 -0.5994 -0.1047
 7960SOL    HW135339   1.209   4.536  16.038  1.0519 -0.7198 -1.3218
 7960SOL    HW235340   1.117   4.465  15.942 -2.1296  1.0268 -2.8266
 7961SOL     OW35341   2.508   3.397   9.843 -0.0198  0.0619 -0.1010
 7961SOL    HW135342   2.414   3.403   9.825 -0.0995  0.5195  0.4724
 7961SOL    HW235343   2.543   3.389   9.754 -0.3186  1.0504 -0.3100
 7962SOL     OW35344   3.826   2.010   8.429  0.1268  0.3571 -0.4643
 7962SOL    HW135345   3.836   1.965   8.513  2.2383 -0.9304 -1.4125
 7962SOL    HW235346   3.815   1.937   8.368 -4.3477 -0.5477  1.4211
 7963SOL     OW35347   0.698   1.025   9.603  0.3871  0.2766  0.0488
 7963SOL    HW135348   0.751   0.960   9.557 -1.2296 -0.6150 -0.5405
 7963SOL    HW235349   0.702   1.094   9.537  0.3637  1.5239  1.3409
 7964SOL     OW35350   2.365   1.361  12.146  0.2139 -0.2874  0.3423
 7964SOL    HW135351   2.336   1.453  12.146 -1.6067 -0.8488 -0.6929
 7964SOL    HW235352   2.305   1.325  12.081 -1.1607  2.1900  0.2107
 7965SOL     OW35353   0.076   1.678  15.608  0.5582  1.0582 -0.2194
 7965SOL    HW135354   0.151   1.726  15.573  0.7982 -0.9055 -2.3806
 7965SOL    HW235355   0.052   1.730  15.685  1.5995 -0.4515  1.1162
 7966SOL     OW35356   4.698   1.268   6.046  0.6476 -0.4860  0.1762
 7966SOL    HW135357   4.624   1.225   6.006 -0.3120  0.3688  1.0268
 7966SOL    HW235358   4.664   1.352   6.077 -0.7237 -0.9062 -0.2403
 7967SOL     OW35359   2.833   3.081   8.422 -0.0442 -0.0790  0.0869
 7967SOL    HW135360   2.784   3.000   8.430  1.0830 -0.7187  0.5286
 7967SOL    HW235361   2.827   3.103   8.515 -0.7410  0.9783 -0.2110
 7968SOL     OW35362   3.106   2.581  10.138  0.0408  0.5829  0.2463
 7968SOL    HW135363   3.164   2.640  10.091  1.1908  0.4779  1.5179
 7968SOL    HW235364   3.032   2.636  10.116  0.4120  1.2232  0.5919
 7969SOL     OW35365   1.619   4.575   5.066  0.3923 -0.3643 -0.2062
 7969SOL    HW135366   1.552   4.562   5.133 -0.4566  0.5530 -0.8853
 7969SOL    HW235367   1.673   4.496   5.072 -0.3461 -0.8516 -0.1098
 7970SOL     OW35368   4.700   3.057   8.533  0.2158  0.6775  0.0498
 7970SOL    HW135369   0.019   3.133   8.487  1.1072 -0.6140 -1.3775
 7970SOL    HW235370   4.625   3.033   8.479  0.3873 -0.2140  0.2136
 7971SOL     OW35371   0.944   1.260   2.464 -0.5157 -0.0386 -0.2531
 7971SOL    HW135372   0.960   1.234   2.373 -0.4196 -1.0427  0.0526
 7971SOL    HW235373   0.971   1.186   2.518  1.7790  1.6815  0.9795
 7972SOL     OW35374   0.142   3.943   3.154 -0.1147 -0.2503 -0.6482
 7972SOL    HW135375   0.064   3.902   3.116 -0.0426  1.0617 -2.2040
 7972SOL    HW235376   0.151   4.021   3.100 -2.0818  0.3997 -0.0514
 7973SOL     OW35377   2.683   2.056   4.742 -0.6968  0.1981  0.0999
 7973SOL    HW135378   2.658   2.137   4.787  1.2346  2.0541 -2.1516
 7973SOL    HW235379   2.764   2.036   4.788 -0.6814  0.8700  0.3705
 7974SOL     OW35380   4.444   2.622   6.427 -0.0322  0.0540  0.6990
 7974SOL    HW135381   4.469   2.691   6.489  0.5883 -0.9773  1.5801
 7974SOL    HW235382   4.352   2.642   6.410  0.6756  0.2902 -2.7795
 7975SOL     OW35383   2.678   3.767   7.054 -0.6271  0.2160 -0.2315
 7975SOL    HW135384   2.693   3.850   7.100 -1.0986  0.3846 -0.3861
 7975SOL    HW235385   2.729   3.699   7.097 -0.1996 -0.1240 -1.2987
 7976SOL     OW35386   1.504   0.304   6.226  0.0134  0.1755  0.0683
 7976SOL    HW135387   1.486   0.243   6.298  1.5654 -0.4695 -0.0749
 7976SOL    HW235388   1.594   0.332   6.245 -0.1502  0.5801  0.2371
 7977SOL     OW35389   0.179   2.951   7.432 -0.6395  0.5710 -0.4707
 7977SOL    HW135390   0.240   2.984   7.367  1.5116 -0.3669  1.0613
 7977SOL    HW235391   0.239   2.898   7.485 -0.9110  0.6988 -0.0337
 7978SOL     OW35392   2.404   0.415  14.735 -0.6043  0.3066 -0.4065
 7978SOL    HW135393   2.395   0.471  14.658 -3.5311  0.3879 -0.0303
 7978SOL    HW235394   2.313   0.385  14.737  0.0541 -1.6604  1.0393
 7979SOL     OW35395   3.701   4.576   3.214 -0.1480 -0.3530  0.2915
 7979SOL    HW135396   3.734   4.638   3.279  0.9861  1.6618 -2.1779
 7979SOL    HW235397   3.787   4.536   3.198  0.9627  1.9092  0.5557
 7980SOL     OW35398   0.405   2.609   6.633 -0.1459 -0.2408 -0.2987
 7980SOL    HW135399   0.334   2.626   6.695  0.1466 -0.8342  0.1978
 7980SOL    HW235400   0.450   2.549   6.692 -0.3186 -0.9793 -0.9105
 7981SOL     OW35401   3.021   0.649   1.409 -0.1653 -0.4194  0.0268
 7981SOL    HW135402   3.019   0.733   1.455  0.8531  0.3297 -1.2603
 7981SOL    HW235403   2.951   0.672   1.347  0.0122 -2.5682 -0.9624
 7982SOL     OW35404   2.889   2.410   8.187  0.2163 -0.0817 -0.2325
 7982SOL    HW135405   2.811   2.441   8.232 -1.2394 -2.0020 -1.4507
 7982SOL    HW235406   2.892   2.318   8.212  1.7486 -0.2372 -0.9415
 7983SOL     OW35407   1.818   2.370   3.815  0.0148 -0.6509 -0.9424
 7983SOL    HW135408   1.902   2.342   3.851  0.1593 -0.4318 -1.1097
 7983SOL    HW235409   1.795   2.441   3.876  3.1371  0.4700 -1.0832
 7984SOL     OW35410   0.580   3.009   6.603  0.2100  0.6010 -1.2802
 7984SOL    HW135411   0.536   2.938   6.556 -2.8415  2.9574 -1.9803
 7984SOL    HW235412   0.628   3.048   6.530  1.0622 -2.5720 -2.3980
 7985SOL     OW35413   2.377   3.801   8.434  0.7984  0.5600 -0.1223
 7985SOL    HW135414   2.344   3.820   8.347 -1.7330  1.7299  1.1100
 7985SOL    HW235415   2.335   3.719   8.459  2.5176 -0.3320 -0.1430
 7986SOL     OW35416   2.937   4.561   4.091  0.2782 -0.3114  0.2874
 7986SOL    HW135417   3.010   4.590   4.146 -0.9119  1.2086  1.0331
 7986SOL    HW235418   2.890   4.641   4.068 -1.1633 -0.7710  1.6549
 7987SOL     OW35419   3.759   0.473   4.482  0.5684 -0.2618 -0.5023
 7987SOL    HW135420   3.811   0.423   4.418 -0.4933 -1.6549 -0.2767
 7987SOL    HW235421   3.703   0.530   4.430  0.2773 -1.3028 -1.3389
 7988SOL     OW35422   3.776   3.443   5.962 -0.2771  0.5352 -0.2665
 7988SOL    HW135423   3.747   3.532   5.943  0.5286  0.5461 -1.4232
 7988SOL    HW235424   3.718   3.396   5.902  1.8626 -2.1026 -0.2823
 7989SOL     OW35425   3.415   3.065  11.742  0.1104  0.1204  0.0932
 7989SOL    HW135426   3.450   3.063  11.653  0.4217 -1.0058  0.2333
 7989SOL    HW235427   3.497   3.054  11.791 -0.4867  0.9234  1.2493
 7990SOL     OW35428   0.847   3.733   5.587  0.0698 -0.1616  0.4543
 7990SOL    HW135429   0.940   3.722   5.565 -0.8037 -0.3639 -3.0871
 7990SOL    HW235430   0.852   3.825   5.611  1.9777 -0.2370  0.4050
 7991SOL     OW35431   1.009   2.223  14.461  0.1085  0.7478 -0.4785
 7991SOL    HW135432   1.003   2.205  14.368 -0.6121  1.7957 -0.6401
 7991SOL    HW235433   1.099   2.197  14.479 -0.0383 -0.6685 -1.7706
 7992SOL     OW35434   3.876   2.926   3.207 -0.0673 -0.2459  0.5126
 7992SOL    HW135435   3.850   2.981   3.281 -1.1859  0.3325 -0.2895
 7992SOL    HW235436   3.963   2.960   3.187  0.0237 -0.5775  0.3382
 7993SOL     OW35437   1.046   1.653   3.419  0.0400  0.5324 -0.4355
 7993SOL    HW135438   1.013   1.731   3.463 -0.4695 -1.0831  2.0540
 7993SOL    HW235439   0.971   1.622   3.369 -1.0593  0.6275  1.1362
 7994SOL     OW35440   3.130   3.222  17.408  0.2229  0.1651  0.2389
 7994SOL    HW135441   3.037   3.245  17.413 -0.3308 -2.1631  0.6370
 7994SOL    HW235442   3.165   3.309  17.424  0.1770  0.0199  1.1009
 7995SOL     OW35443   3.921   4.218   3.952 -0.9693  0.3816 -0.3658
 7995SOL    HW135444   3.879   4.134   3.973  0.6080 -0.0193  1.2234
 7995SOL    HW235445   3.980   4.178   3.888 -1.6940  0.5418 -1.1350
 7996SOL     OW35446   1.759   1.405   3.154  0.3173  0.8995  0.1788
 7996SOL    HW135447   1.683   1.437   3.106  0.7622  1.2509 -0.2937
 7996SOL    HW235448   1.726   1.376   3.239 -2.1393  0.0035 -1.1005
 7997SOL     OW35449   0.718   2.011   3.357  0.4392  0.1422  0.1577
 7997SOL    HW135450   0.781   2.009   3.286 -1.4072 -0.8398 -1.4624
 7997SOL    HW235451   0.646   1.995   3.296 -0.6431  0.7253  1.2810
 7998SOL     OW35452   2.952   3.402   7.478  0.3070 -0.0218  0.3459
 7998SOL    HW135453   2.888   3.340   7.444  1.6549 -1.1334 -0.1751
 7998SOL    HW235454   2.999   3.350   7.543  0.0360  1.6079  1.8478
 7999SOL     OW35455   1.471   4.040   8.183 -0.3264 -0.0309 -0.1473
 7999SOL    HW135456   1.517   4.119   8.212 -1.8636  0.8778 -0.1670
 7999SOL    HW235457   1.396   4.075   8.135  0.8867  0.6292 -1.5731
 8000SOL     OW35458   3.542   4.476  15.771  0.3914  0.0341  0.3446
 8000SOL    HW135459   3.546   4.529  15.851  0.2736  1.4515 -0.5915
 8000SOL    HW235460   3.453   4.440  15.779  1.1113 -1.3514  2.1826
 8001SOL     OW35461   0.502   0.608   1.265 -0.3991  0.1131  0.3573
 8001SOL    HW135462   0.409   0.622   1.285  0.2296  3.2557  1.0730
 8001SOL    HW235463   0.518   0.633   1.174 -2.8971  1.1074  0.1703
 8002SOL     OW35464   0.732   2.947   2.134  0.0301  0.2253  0.5064
 8002SOL    HW135465   0.746   2.914   2.045 -0.8259  0.5372  0.2621
 8002SOL    HW235466   0.669   2.881   2.162 -1.6423  1.9872  0.9237
 8003SOL     OW35467   2.123   1.153   8.401 -0.4641  0.7525  0.1346
 8003SOL    HW135468   2.076   1.200   8.470 -0.3848 -0.7636  1.2401
 8003SOL    HW235469   2.086   1.196   8.324 -0.2533  0.4733 -0.1261
 8004SOL     OW35470   3.811   4.458   9.619 -0.4400 -0.1305 -0.2568
 8004SOL    HW135471   3.829   4.551   9.608  0.1172  0.0676  2.3267
 8004SOL    HW235472   3.810   4.431   9.527 -0.2738 -2.2064  0.3408
 8005SOL     OW35473   1.930   3.990   7.409  0.1408  0.0282 -0.4928
 8005SOL    HW135474   1.908   4.083   7.407 -1.0760 -0.2673 -0.7950
 8005SOL    HW235475   2.017   3.995   7.370  0.2790 -1.1153 -0.3254
 8006SOL     OW35476   1.498   2.486   7.103  0.0159  0.3577 -0.0007
 8006SOL    HW135477   1.482   2.498   7.197 -0.2053  0.2855 -0.0298
 8006SOL    HW235478   1.467   2.396   7.097  0.3931  0.2668 -0.5803
 8007SOL     OW35479   0.718   2.952   5.255  0.5953  0.2843 -0.0837
 8007SOL    HW135480   0.739   2.868   5.294 -0.4029  0.8845  1.7783
 8007SOL    HW235481   0.806   2.989   5.247 -0.2337  1.8138 -2.2854
 8008SOL     OW35482   0.822   2.040   5.222 -0.0402 -1.1075  0.3066
 8008SOL    HW135483   0.860   1.952   5.217 -0.1565 -1.2361  1.6544
 8008SOL    HW235484   0.751   2.021   5.161  1.5126  1.9278 -2.4232
 8009SOL     OW35485   2.286   4.095   3.457 -0.3328  0.8225  0.2241
 8009SOL    HW135486   2.355   4.142   3.411 -0.7547 -1.3230 -2.6261
 8009SOL    HW235487   2.275   4.011   3.412  0.2156  0.5419  0.6148
 8010SOL     OW35488   1.922   1.413   2.943 -0.2653 -0.3199 -0.2190
 8010SOL    HW135489   1.881   1.430   3.028  1.3811 -1.4607  0.7965
 8010SOL    HW235490   1.894   1.322   2.941 -1.5712  0.1447 -2.4024
 8011SOL     OW35491   0.425   3.206   5.519 -0.2260 -0.1153  0.6084
 8011SOL    HW135492   0.512   3.169   5.504 -0.4884 -0.8268  0.8688
 8011SOL    HW235493   0.371   3.127   5.514  0.2462 -0.5360  2.0826
 8012SOL     OW35494   0.510   2.406  11.665 -0.0748  0.0016 -0.0485
 8012SOL    HW135495   0.469   2.445  11.742 -0.8661  0.8438 -0.8778
 8012SOL    HW235496   0.481   2.475  11.605 -2.0801  1.0597  2.1319
 8013SOL     OW35497   1.838   3.739   4.858 -0.0530 -0.5865 -0.4899
 8013SOL    HW135498   1.875   3.677   4.795 -0.5707 -0.3608 -1.0278
 8013SOL    HW235499   1.751   3.751   4.819 -0.3615  2.7463  1.2668
 8014SOL     OW35500   0.497   0.820  10.043  0.4548  0.0365 -0.0727
 8014SOL    HW135501   0.552   0.823   9.965  2.2010  0.5742  1.1806
 8014SOL    HW235502   0.426   0.883  10.030 -0.7856 -1.0466  1.3184
 8015SOL     OW35503   0.534   1.600  14.649  0.3324  0.3751 -0.0249
 8015SOL    HW135504   0.505   1.509  14.654 -1.5777  0.9801 -0.2779
 8015SOL    HW235505   0.629   1.590  14.658  0.1878 -1.9981 -1.1701
 8016SOL     OW35506   0.400   1.242   6.340 -0.0893 -0.6836 -0.0960
 8016SOL    HW135507   0.367   1.311   6.283 -0.1273 -1.1851 -0.6859
 8016SOL    HW235508   0.495   1.249   6.334 -0.0805  1.5162  2.5811
 8017SOL     OW35509   4.152   2.996   9.795 -0.0994  0.2286  0.2027
 8017SOL    HW135510   4.247   2.997   9.798 -0.0893  2.7513 -0.6665
 8017SOL    HW235511   4.141   2.995   9.700 -1.6153 -0.1800  0.3765
 8018SOL     OW35512   2.187   3.189   3.657 -0.0365 -0.5242  0.0469
 8018SOL    HW135513   2.123   3.163   3.590  0.5144  0.7441 -0.9579
 8018SOL    HW235514   2.266   3.183   3.605 -0.4077  0.2812 -0.6062
 8019SOL     OW35515   0.653   0.332   9.280 -0.0040 -0.2012  0.0796
 8019SOL    HW135516   0.675   0.240   9.267  0.7576  0.2448 -1.7229
 8019SOL    HW235517   0.725   0.363   9.334  0.8595 -1.4113 -0.3693
 8020SOL     OW35518   1.649   2.355   3.409 -0.3958  0.5436  0.4231
 8020SOL    HW135519   1.734   2.387   3.436 -0.7187  2.8203 -1.2727
 8020SOL    HW235520   1.666   2.263   3.386  1.3616  1.2275 -0.9931
 8021SOL     OW35521   4.118   4.264  14.224 -0.1731 -0.2444 -0.2782
 8021SOL    HW135522   4.055   4.233  14.290 -0.5194 -0.0560 -0.5165
 8021SOL    HW235523   4.116   4.188  14.165  1.7679 -1.2146  0.9013
 8022SOL     OW35524   0.844   1.425   6.754 -0.1629 -0.0413 -0.4490
 8022SOL    HW135525   0.860   1.345   6.803 -2.6027  0.5455  1.3002
 8022SOL    HW235526   0.825   1.489   6.823 -0.7506 -1.3601  0.5988
 8023SOL     OW35527   0.499   2.980   8.944 -0.8819  0.0867  0.2243
 8023SOL    HW135528   0.523   3.066   8.909  1.1861 -0.3639  0.5976
 8023SOL    HW235529   0.448   2.955   8.866 -0.1297 -0.6523 -0.0381
 8024SOL     OW35530   3.532   4.046   5.850  0.5846 -0.2044 -0.1609
 8024SOL    HW135531   3.521   4.104   5.775 -1.0918 -1.3200 -0.7687
 8024SOL    HW235532   3.529   4.104   5.926 -0.2070  1.3547 -1.3874
 8025SOL     OW35533   0.348   3.666   7.419 -0.1836  0.4556  0.1676
 8025SOL    HW135534   0.389   3.580   7.409 -1.1398  0.2520 -1.8935
 8025SOL    HW235535   0.273   3.627   7.464  0.8957 -0.4668  1.2022
 8026SOL     OW35536   2.026   2.381   2.417  0.1896 -0.5326  1.0829
 8026SOL    HW135537   2.115   2.347   2.425  0.5463  0.1140 -0.1922
 8026SOL    HW235538   1.984   2.295   2.425  0.5981 -0.8253  0.0161
 8027SOL     OW35539   2.851   2.470  10.610  0.0443 -0.5953  0.0948
 8027SOL    HW135540   2.945   2.467  10.632 -0.0449 -1.8648  0.2978
 8027SOL    HW235541   2.819   2.413  10.680  1.6070 -1.2479  0.2738
 8028SOL     OW35542   3.571   2.032   7.398 -0.2247 -0.4256 -0.4115
 8028SOL    HW135543   3.651   2.030   7.451 -0.5409  1.8920  0.1894
 8028SOL    HW235544   3.571   2.126   7.380 -0.6961 -0.4287 -0.4290
 8029SOL     OW35545   1.832   0.573   5.001 -0.2884  0.1950 -0.3777
 8029SOL    HW135546   1.824   0.486   4.962 -0.9610 -0.0138  0.2375
 8029SOL    HW235547   1.837   0.560   5.096  2.2946 -1.6892 -0.7851
 8030SOL     OW35548   2.273   2.197   6.035  0.2524 -0.1793  0.1266
 8030SOL    HW135549   2.296   2.176   6.126  3.6607  1.2330 -0.3796
 8030SOL    HW235550   2.205   2.264   6.043  0.3097 -0.2491  1.1815
 8031SOL     OW35551   0.801   4.231  16.302  0.0934 -0.1815 -0.1225
 8031SOL    HW135552   0.774   4.282  16.224  1.9603  1.8898  0.5916
 8031SOL    HW235553   0.775   4.296  16.367 -1.0571 -0.7419 -0.0177
 8032SOL     OW35554   4.708   0.334  12.895  0.3851  0.2274  0.0930
 8032SOL    HW135555   4.675   0.270  12.833  0.5052 -0.3277  0.6019
 8032SOL    HW235556   4.634   0.333  12.956 -0.0003  2.4865 -0.3202
 8033SOL     OW35557   2.184   1.713   8.962  0.0278 -0.0050  0.6297
 8033SOL    HW135558   2.197   1.619   8.970  0.0349 -0.1828 -1.4191
 8033SOL    HW235559   2.165   1.752   9.048 -4.9011  0.4593 -0.6241
 8034SOL     OW35560   1.247   0.230   1.580  0.3830 -0.6705  0.3463
 8034SOL    HW135561   1.239   0.242   1.674 -3.3787 -1.6176  0.1206
 8034SOL    HW235562   1.183   0.161   1.565  0.1987 -0.9031  2.3161
 8035SOL     OW35563   0.570   2.790  16.443  0.4753 -0.1705 -0.0563
 8035SOL    HW135564   0.552   2.843  16.520 -2.2168 -2.5706  0.9558
 8035SOL    HW235565   0.592   2.863  16.384 -0.6272  0.1549 -0.0770
 8036SOL     OW35566   0.928   2.607   5.561  0.1330  0.0643 -0.3858
 8036SOL    HW135567   1.011   2.587   5.519  0.7733 -0.6642  1.2583
 8036SOL    HW235568   0.906   2.522   5.599 -1.7526  0.9955  0.6358
 8037SOL     OW35569   0.175   2.307   1.755  0.0267 -0.4310 -0.4097
 8037SOL    HW135570   0.234   2.381   1.769 -0.2674 -0.2216 -0.2522
 8037SOL    HW235571   0.232   2.235   1.728 -1.3682 -2.5962  2.4026
 8038SOL     OW35572   3.910   1.916  16.531 -0.4247 -0.4188  0.0157
 8038SOL    HW135573   3.885   1.824  16.542 -0.3250 -0.5216 -0.6402
 8038SOL    HW235574   3.983   1.900  16.472 -0.2373 -2.8320  0.9019
 8039SOL     OW35575   4.240   1.923   7.958 -0.6110 -0.0492  0.5663
 8039SOL    HW135576   4.285   1.961   7.883 -0.6022  1.9209  1.5776
 8039SOL    HW235577   4.270   1.980   8.029  0.7217  1.0693 -0.9083
 8040SOL     OW35578   2.671   1.337   0.897 -0.3619  0.2729 -0.5610
 8040SOL    HW135579   2.579   1.337   0.923  0.2780 -0.9021  1.7430
 8040SOL    HW235580   2.702   1.255   0.935 -0.7932  1.7216  2.9537
 8041SOL     OW35581   4.245   2.850   2.740  0.2164 -0.0340  0.3232
 8041SOL    HW135582   4.317   2.827   2.681 -0.4769 -1.2017 -0.0703
 8041SOL    HW235583   4.197   2.878   2.662  0.7235 -2.8384 -0.9805
 8042SOL     OW35584   1.517   0.411   8.758 -0.0020 -0.1866  0.3560
 8042SOL    HW135585   1.561   0.426   8.842 -1.0470 -0.1911  0.9059
 8042SOL    HW235586   1.562   0.481   8.710  0.9913 -0.4062  0.9711
 8043SOL     OW35587   1.473   2.576  17.068  0.4233 -0.5063 -0.5149
 8043SOL    HW135588   1.558   2.579  17.111  0.0167 -0.6790  0.2983
 8043SOL    HW235589   1.464   2.668  17.042 -1.2863  0.1857  2.5442
 8044SOL     OW35590   3.630   0.508   1.912 -0.4173  0.0517 -0.1776
 8044SOL    HW135591   3.693   0.540   1.847 -0.6274 -0.0387 -0.4248
 8044SOL    HW235592   3.592   0.432   1.870 -2.4970  1.0174 -0.0288
 8045SOL     OW35593   1.994   2.100   6.917  0.7054  0.2349 -0.7524
 8045SOL    HW135594   2.038   2.020   6.889  1.9086  0.4835  0.4394
 8045SOL    HW235595   1.926   2.115   6.851  0.2075  0.0227 -0.2955
 8046SOL     OW35596   0.858   0.257   1.047  0.2727 -0.1666  0.1867
 8046SOL    HW135597   0.943   0.292   1.074  0.7531 -0.1709 -1.3186
 8046SOL    HW235598   0.844   0.195   1.118 -2.7363 -0.6477 -0.8230
 8047SOL     OW35599   1.974   3.135   4.427  0.1990 -1.0666 -0.0925
 8047SOL    HW135600   1.996   3.052   4.384 -1.2804 -0.1320 -2.6824
 8047SOL    HW235601   2.036   3.132   4.499 -0.2886 -2.7771  0.2750
 8048SOL     OW35602   4.051   1.674   4.284  0.2697  0.2768  0.2387
 8048SOL    HW135603   4.054   1.655   4.378  1.4025  1.8333  0.5245
 8048SOL    HW235604   4.142   1.693   4.264  0.1479  0.0396 -0.5274
 8049SOL     OW35605   1.295   0.913   7.374  0.7800 -0.2344 -0.0613
 8049SOL    HW135606   1.301   1.008   7.362 -1.0624  0.0507  1.2951
 8049SOL    HW235607   1.241   0.896   7.297  0.8804 -1.0787  0.0550
 8050SOL     OW35608   0.116   1.500   5.468  0.0778  0.3009 -0.2707
 8050SOL    HW135609   0.209   1.477   5.474 -0.3084 -1.3380 -0.5718
 8050SOL    HW235610   0.081   1.441   5.535 -2.9356  2.1916 -0.2199
 8051SOL     OW35611   2.595   4.059  12.375 -0.1687 -0.0167 -0.1490
 8051SOL    HW135612   2.549   4.133  12.414  1.2262  0.3451  0.7894
 8051SOL    HW235613   2.520   4.007  12.345  0.7624 -0.4036 -1.8140
 8052SOL     OW35614   1.670   3.112  12.630 -0.4470 -0.2552 -0.7454
 8052SOL    HW135615   1.596   3.069  12.587 -1.3231  1.2068 -0.7032
 8052SOL    HW235616   1.636   3.118  12.719 -0.0499  1.9652 -0.7606
 8053SOL     OW35617   1.550   3.585   3.731  0.2138  0.3157  0.6120
 8053SOL    HW135618   1.529   3.639   3.655  1.9043  0.5454  0.3111
 8053SOL    HW235619   1.643   3.564   3.720 -0.4823 -3.5126  1.8063
 8054SOL     OW35620   4.506   3.651   6.462  0.6870  0.0108 -0.1686
 8054SOL    HW135621   4.415   3.623   6.462  0.3184  1.2012  1.2222
 8054SOL    HW235622   4.501   3.736   6.418  2.9196  0.9410  1.3649
 8055SOL     OW35623   4.186   0.409  17.607  0.3829 -0.1297 -0.7409
 8055SOL    HW135624   4.112   0.395  17.548 -1.1054 -1.7188  1.5009
 8055SOL    HW235625   4.150   0.476  17.666 -0.2114 -0.3876 -0.8142
 8056SOL     OW35626   0.448   3.641  13.398  0.8426  0.0056 -0.2036
 8056SOL    HW135627   0.498   3.631  13.318  0.4312  0.6244 -0.5354
 8056SOL    HW235628   0.492   3.719  13.431 -1.0401  0.5466  1.0620
 8057SOL     OW35629   2.393   2.320   4.713 -0.0781  0.1030 -0.3517
 8057SOL    HW135630   2.415   2.304   4.621  3.2610  1.5328  0.2026
 8057SOL    HW235631   2.419   2.413   4.710 -0.2247  0.1776  0.9351
 8058SOL     OW35632   0.666   4.025   6.996  0.1212 -0.2449 -0.5175
 8058SOL    HW135633   0.684   3.940   6.956  0.6056  0.0631 -0.9596
 8058SOL    HW235634   0.605   4.001   7.066 -0.3071 -0.7055 -1.0439
 8059SOL     OW35635   0.749   2.815   8.926  0.1637 -0.5471  0.0406
 8059SOL    HW135636   0.713   2.751   8.987  2.1793 -1.4132  0.3294
 8059SOL    HW235637   0.682   2.883   8.931  0.3470 -0.3038 -0.7553
 8060SOL     OW35638   0.078   4.399  14.444  0.2917 -0.2599 -0.1559
 8060SOL    HW135639   0.042   4.476  14.488  0.4597 -0.3744  0.1812
 8060SOL    HW235640   0.103   4.434  14.358 -0.2655 -0.0743 -0.2424
 8061SOL     OW35641   1.135   3.523   6.798 -0.5285  0.3580  0.0265
 8061SOL    HW135642   1.087   3.606   6.792  0.8086  1.1476  0.3006
 8061SOL    HW235643   1.196   3.543   6.869 -2.6404  0.9177  1.6833
 8062SOL     OW35644   4.243   1.495   2.557  0.1579  0.4800  0.1772
 8062SOL    HW135645   4.285   1.533   2.634  1.0918 -0.4528  0.1357
 8062SOL    HW235646   4.150   1.516   2.563 -0.1207 -0.2143 -1.9073
 8063SOL     OW35647   2.016   2.934   6.279 -0.3226 -0.0416  0.1556
 8063SOL    HW135648   1.969   3.014   6.257 -1.5504 -1.5580 -2.7663
 8063SOL    HW235649   1.952   2.883   6.328 -1.6623  1.0520 -0.4712
 8064SOL     OW35650   2.438   1.324   2.205 -0.4616  0.4036 -0.1237
 8064SOL    HW135651   2.369   1.324   2.139 -3.3907  1.5212  2.8738
 8064SOL    HW235652   2.421   1.237   2.242 -0.6406  1.0175  1.2480
 8065SOL     OW35653   0.242   3.634  11.378  0.2494  0.9544 -0.2193
 8065SOL    HW135654   0.173   3.590  11.427  1.6953 -1.1219 -0.0550
 8065SOL    HW235655   0.213   3.720  11.409 -1.5453  0.5004 -0.6742
 8066SOL     OW35656   1.900   2.611   5.926  0.4626  0.1045 -0.0064
 8066SOL    HW135657   1.938   2.681   5.874 -0.7969  0.9734  0.2535
 8066SOL    HW235658   1.924   2.539   5.867 -2.6182 -0.0941 -1.0307
 8067SOL     OW35659   4.595   0.338  17.153 -0.1100 -0.3172  0.1011
 8067SOL    HW135660   4.549   0.402  17.098  1.3342 -0.0473 -0.7838
 8067SOL    HW235661   4.657   0.296  17.094 -0.8269 -1.5267  0.2159
 8068SOL     OW35662   3.269   1.840   4.777 -0.6167  0.6387  0.1454
 8068SOL    HW135663   3.193   1.795   4.814 -0.4193 -2.1243 -2.7759
 8068SOL    HW235664   3.272   1.927   4.815  1.2030  0.5821  0.1355
 8069SOL     OW35665   4.638   0.607  14.665 -0.3859  0.2693  0.5921
 8069SOL    HW135666   4.672   0.545  14.729  0.5689  0.0028 -0.1762
 8069SOL    HW235667   4.561   0.640  14.712 -0.5964 -0.3930  0.7062
 8070SOL     OW35668   3.091   4.716   7.602  0.3392  0.3512  0.0297
 8070SOL    HW135669   3.162   0.007   7.665 -0.8191  2.2707  1.0742
 8070SOL    HW235670   3.144   0.006   7.522  1.9646 -1.9772  0.9043
 8071SOL     OW35671   0.501   4.252   3.139 -0.4811  0.2967  0.5811
 8071SOL    HW135672   0.505   4.157   3.136  3.5052  0.4860 -0.7405
 8071SOL    HW235673   0.498   4.260   3.235 -1.9360  1.3565  0.4437
 8072SOL     OW35674   2.924   3.477  16.542 -0.9045 -0.2509 -0.4181
 8072SOL    HW135675   2.902   3.570  16.532  0.1324  0.1836  1.4236
 8072SOL    HW235676   2.986   3.474  16.615  0.9256 -1.8345 -2.0099
 8073SOL     OW35677   2.565   2.174   7.661  0.0378 -0.4964 -0.6476
 8073SOL    HW135678   2.588   2.202   7.573  1.0444 -3.7428 -1.4163
 8073SOL    HW235679   2.654   2.172   7.698 -1.1218 -1.5266  2.1562
 8074SOL     OW35680   2.535   0.963   0.794 -0.6633 -0.2020  0.3521
 8074SOL    HW135681   2.600   1.022   0.832 -1.2146  1.7161 -1.7210
 8074SOL    HW235682   2.592   0.886   0.797 -0.5872 -0.0935  1.7631
 8075SOL     OW35683   1.672   2.205   4.094 -0.1760  0.2751 -0.5719
 8075SOL    HW135684   1.706   2.118   4.077 -1.5129 -0.0983 -1.3599
 8075SOL    HW235685   1.627   2.235   4.015 -0.8995 -1.3292 -0.7558
 8076SOL     OW35686   2.015   3.512   7.141 -0.6429 -0.3830  0.0554
 8076SOL    HW135687   2.077   3.456   7.095  0.6320  1.2976 -0.2481
 8076SOL    HW235688   1.938   3.489   7.089 -1.7363 -0.4320  1.6874
 8077SOL     OW35689   4.700   0.058   1.582  0.1533 -0.0621 -0.0043
 8077SOL    HW135690   0.058   4.717   1.572  2.3949  2.7025  0.6437
 8077SOL    HW235691   0.007   0.128   1.521  1.9598  0.3416  1.1684
 8078SOL     OW35692   0.674   2.174   5.897 -0.2045 -0.1817  0.1582
 8078SOL    HW135693   0.660   2.203   5.807 -1.9931 -0.2835  0.3947
 8078SOL    HW235694   0.696   2.082   5.882  0.7630  0.2174 -0.8602
 8079SOL     OW35695   4.646   2.175   1.496  0.3459  0.3935  0.0181
 8079SOL    HW135696   4.642   2.082   1.517 -0.0489  0.3448 -0.2758
 8079SOL    HW235697   4.717   2.183   1.433  1.4067  0.0433  1.1659
 8080SOL     OW35698   3.252   3.059   8.979  0.5609  0.4016  0.0749
 8080SOL    HW135699   3.326   3.013   9.019 -1.7476 -1.5335  2.1111
 8080SOL    HW235700   3.252   3.021   8.891  0.0114 -2.2988  1.2463
 8081SOL     OW35701   3.381   4.217   5.662  0.5157  0.2815 -0.2219
 8081SOL    HW135702   3.392   4.302   5.704  1.6640 -0.8922  1.8147
 8081SOL    HW235703   3.292   4.192   5.686  0.3555  1.4995  0.4360
 8082SOL     OW35704   2.552   3.936   3.392  0.1191 -0.3692 -0.0105
 8082SOL    HW135705   2.560   4.011   3.451  1.3758  1.5583 -2.6206
 8082SOL    HW235706   2.600   3.959   3.312 -1.7882 -0.3050 -1.1552
 8083SOL     OW35707   3.499   3.023   2.068  0.7064 -0.1779  0.4273
 8083SOL    HW135708   3.484   2.947   2.123 -3.3304 -0.1222 -0.6269
 8083SOL    HW235709   3.414   3.062   2.046  1.3417 -0.7167 -3.0017
 8084SOL     OW35710   1.573   0.229  14.698 -0.1592  0.3909 -0.0037
 8084SOL    HW135711   1.624   0.232  14.779 -0.3804  0.1111  0.1437
 8084SOL    HW235712   1.638   0.202  14.633  1.2543  0.5327  1.3392
 8085SOL     OW35713   2.772   0.022  10.740  0.6420  0.4206 -0.7561
 8085SOL    HW135714   2.850   4.707  10.696  0.8456 -1.0437  0.6574
 8085SOL    HW235715   2.764   4.678  10.813 -0.8892 -0.7277 -1.8998
 8086SOL     OW35716   0.903   4.658  14.383  0.3146  0.1538 -0.2361
 8086SOL    HW135717   0.832   4.596  14.372  1.6474 -1.7158  1.8417
 8086SOL    HW235718   0.841   0.013  14.390  0.3879  0.3343 -1.5141
 8087SOL     OW35719   0.205   0.314   6.714  0.2356 -0.1135  0.0044
 8087SOL    HW135720   0.172   0.260   6.785 -0.2997  1.8106  1.1974
 8087SOL    HW235721   0.271   0.374   6.750 -1.5270  1.6445  0.2790
 8088SOL     OW35722   4.516   4.030  14.776  0.2210 -0.0514  0.4190
 8088SOL    HW135723   4.517   4.022  14.871 -0.2374  1.3861  0.5495
 8088SOL    HW235724   4.500   3.937  14.759  2.1258 -1.0321  3.9178
 8089SOL     OW35725   0.805   3.243  13.292  0.6545 -0.2072  0.2494
 8089SOL    HW135726   0.765   3.161  13.265 -2.2059  0.7417  1.5746
 8089SOL    HW235727   0.816   3.240  13.387  1.0396 -1.0200  0.1749
 8090SOL     OW35728   2.497   2.713   4.016  0.5554 -0.4426 -0.2768
 8090SOL    HW135729   2.488   2.772   3.941  1.6075  0.8242  0.6064
 8090SOL    HW235730   2.428   2.753   4.069 -0.0500 -0.3011 -1.1682
 8091SOL     OW35731   2.284   2.025  11.722 -0.1224 -0.0143  0.0941
 8091SOL    HW135732   2.309   1.938  11.690  2.4944  0.9881 -0.6048
 8091SOL    HW235733   2.241   2.002  11.804  1.0932 -1.7056  0.2537
 8092SOL     OW35734   1.772   0.283  17.269  0.2173  0.1178  0.5290
 8092SOL    HW135735   1.767   0.314  17.178 -0.2685 -0.5041  0.3411
 8092SOL    HW235736   1.681   0.253  17.270 -0.3987  1.9590  0.4408
 8093SOL     OW35737   0.964   2.614   0.463  0.1443  0.0613 -0.0092
 8093SOL    HW135738   0.968   2.545   0.397  0.0711  0.3844 -0.3529
 8093SOL    HW235739   0.874   2.604   0.495  0.1910  1.3380  0.5313
 8094SOL     OW35740   3.323   1.062   8.292  0.0119 -0.0103  0.3993
 8094SOL    HW135741   3.328   1.151   8.328 -0.5110 -0.2889  1.1710
 8094SOL    HW235742   3.385   1.021   8.353  0.3304  1.2321  0.9192
 8095SOL     OW35743   1.871   2.163   2.981  0.0334  0.9750  0.2775
 8095SOL    HW135744   1.857   2.154   2.887  2.7247  1.6427 -0.1989
 8095SOL    HW235745   1.776   2.162   2.994 -0.0446 -0.5136 -0.3815
 8096SOL     OW35746   4.243   3.021   9.035  0.3631  0.4170 -0.0296
 8096SOL    HW135747   4.260   3.054   9.123 -1.4279  0.3194  0.3442
 8096SOL    HW235748   4.199   3.095   8.994  1.2203  0.9162 -0.0599
 8097SOL     OW35749   1.058   4.638  11.410 -0.5618 -0.0590 -0.1802
 8097SOL    HW135750   0.987   4.694  11.379  0.1938  0.4849 -0.9429
 8097SOL    HW235751   1.095   4.609  11.326 -0.6604 -2.8139  0.7220
 8098SOL     OW35752   2.577   3.840   6.320 -0.2224  0.1567  0.3278
 8098SOL    HW135753   2.573   3.745   6.333 -2.1691  0.0390 -1.2973
 8098SOL    HW235754   2.533   3.848   6.236  0.4708  1.9701  0.1335
 8099SOL     OW35755   1.760   3.371   7.723  0.0265 -0.3469  0.1678
 8099SOL    HW135756   1.668   3.363   7.747 -0.1085  1.3364  0.1760
 8099SOL    HW235757   1.806   3.359   7.806  2.0059 -0.4190 -0.9318
 8100SOL     OW35758   2.613   0.074   4.579  0.4548 -0.4311 -0.7745
 8100SOL    HW135759   2.551   0.010   4.612  0.3665  1.1962  2.1894
 8100SOL    HW235760   2.663   0.022   4.515 -0.2479 -0.4628 -1.2939
 8101SOL     OW35761   1.341   0.351   3.403 -0.0920 -0.2042  0.5124
 8101SOL    HW135762   1.261   0.395   3.429 -0.2711 -0.5365  0.5247
 8101SOL    HW235763   1.316   0.318   3.317  1.6190 -0.7795  0.2375
 8102SOL     OW35764   0.011   1.287   3.777 -0.0270  0.3101  0.6494
 8102SOL    HW135765   4.701   1.361   3.831 -1.7204  0.4457 -0.3853
 8102SOL    HW235766   4.649   1.242   3.749  0.5364 -0.4582  0.2852
 8103SOL     OW35767   2.050   3.026   2.273  0.3457 -0.0893 -0.4732
 8103SOL    HW135768   1.990   3.014   2.199  0.5077  2.3741 -0.9964
 8103SOL    HW235769   2.073   2.933   2.283 -1.6852 -0.3249  1.8829
 8104SOL     OW35770   0.476   1.854  17.162 -0.2426 -0.5587  0.0021
 8104SOL    HW135771   0.504   1.922  17.224 -2.4759  0.7554 -0.4148
 8104SOL    HW235772   0.551   1.796  17.150  0.0373 -0.1497 -0.2514
 8105SOL     OW35773   1.081   4.084   5.462  0.4774  0.7213 -0.5576
 8105SOL    HW135774   1.076   4.142   5.386  1.3794 -0.0531 -1.2075
 8105SOL    HW235775   1.163   4.119   5.497  0.4923  2.5333 -2.4245
 8106SOL     OW35776   3.368   1.544   5.044  0.2565  0.2606 -0.1611
 8106SOL    HW135777   3.377   1.534   4.950  0.4983  1.0766 -0.2224
 8106SOL    HW235778   3.321   1.463   5.065  0.7352  0.0071 -0.0810
 8107SOL     OW35779   1.335   3.883   2.197  0.6165 -0.0646 -0.5190
 8107SOL    HW135780   1.372   3.947   2.257  0.1783  0.8738 -1.2435
 8107SOL    HW235781   1.331   3.937   2.118  0.3094  0.2146 -0.3133
 8108SOL     OW35782   3.623   4.580   0.607 -0.6960 -0.0415  0.4534
 8108SOL    HW135783   3.715   4.605   0.621 -0.5955 -0.1963  0.0691
 8108SOL    HW235784   3.594   4.633   0.533  1.6531  2.5091  1.3389
 8109SOL     OW35785   0.023   1.650   8.453  0.1551 -0.0282 -0.5032
 8109SOL    HW135786   4.717   1.742   8.447 -1.4007 -0.4802 -1.2869
 8109SOL    HW235787   0.011   1.639   8.547 -0.9486  1.5321 -0.4603
 8110SOL     OW35788   3.650   4.088   6.472 -0.2256 -0.6963  0.5247
 8110SOL    HW135789   3.714   4.107   6.540  0.4573  1.4034 -0.6923
 8110SOL    HW235790   3.634   4.179   6.447 -1.1903 -0.2388  2.7811
 8111SOL     OW35791   3.831   1.626   8.617  0.1572 -0.0406  0.2367
 8111SOL    HW135792   3.742   1.649   8.642 -1.0431 -3.8207 -0.4585
 8111SOL    HW235793   3.824   1.653   8.526  0.6874 -0.0287  0.1993
 8112SOL     OW35794   2.097   3.454   8.821  0.2264 -0.1716  0.9084
 8112SOL    HW135795   2.097   3.539   8.778  1.5883 -1.6886 -2.0346
 8112SOL    HW235796   2.004   3.438   8.838 -0.6895  1.3697 -2.5966
 8113SOL     OW35797   3.339   0.553  13.427  0.2569  0.2548 -0.1248
 8113SOL    HW135798   3.277   0.536  13.356  1.2849  1.0713 -1.2042
 8113SOL    HW235799   3.394   0.622  13.391 -1.4337  1.1907 -0.9153
 8114SOL     OW35800   1.856   3.361   2.864 -0.1715  0.6560 -0.3933
 8114SOL    HW135801   1.934   3.388   2.814 -0.0002 -0.2909 -0.6543
 8114SOL    HW235802   1.859   3.423   2.936 -0.4627  0.3402 -0.1107
 8115SOL     OW35803   3.054   0.613  11.233  0.0058  0.3390  0.3993
 8115SOL    HW135804   3.087   0.524  11.217  0.1207  0.4763 -0.1242
 8115SOL    HW235805   3.000   0.626  11.156  0.9198  0.3642 -0.2436
 8116SOL     OW35806   4.534   2.100   8.148 -0.3538  0.0549 -0.6547
 8116SOL    HW135807   4.567   2.047   8.075 -1.5907 -2.8973  0.8961
 8116SOL    HW235808   4.616   2.122   8.193 -0.2808  0.0299 -0.7763
 8117SOL     OW35809   1.950   3.251   5.470  0.8003  0.1367 -0.3712
 8117SOL    HW135810   1.940   3.340   5.435  0.5614  1.0074  1.9128
 8117SOL    HW235811   1.897   3.255   5.550  0.4163  0.8629 -0.6645
 8118SOL     OW35812   2.547   3.894   2.229  0.3480  0.4242  0.4645
 8118SOL    HW135813   2.640   3.917   2.239  0.2979  0.7265  0.2639
 8118SOL    HW235814   2.532   3.901   2.135  1.0649 -1.4852  0.2190
 8119SOL     OW35815   3.566   3.304   2.790 -0.3350 -0.2967  0.3261
 8119SOL    HW135816   3.584   3.268   2.703  1.0655  0.6516  0.2090
 8119SOL    HW235817   3.634   3.371   2.788 -0.4641 -0.1714  0.1604
 8120SOL     OW35818   2.046   4.055   9.468 -0.3151  0.0092 -0.0364
 8120SOL    HW135819   2.135   4.062   9.502  0.1552  0.0687 -1.3049
 8120SOL    HW235820   2.013   3.973   9.504 -0.4743  0.2786  0.4315
 8121SOL     OW35821   1.815   0.073   4.634 -0.4719  0.4306  0.7032
 8121SOL    HW135822   1.893   0.129   4.646  0.3069 -0.7725  1.2263
 8121SOL    HW235823   1.759   0.087   4.710  0.8309  1.1442  1.5297
 8122SOL     OW35824   4.537   0.477   4.850 -0.0353 -0.3129 -0.4177
 8122SOL    HW135825   4.465   0.537   4.869  0.4175 -0.5140  1.9032
 8122SOL    HW235826   4.565   0.512   4.766 -1.0737 -0.6106 -0.8935
 8123SOL     OW35827   1.899   0.132   6.505  0.1224  0.5841 -0.0546
 8123SOL    HW135828   1.845   0.071   6.555 -0.7826  0.9966 -0.5361
 8123SOL    HW235829   1.982   0.115   6.549 -0.6669 -0.0978  1.1841
 8124SOL     OW35830   1.864   3.868  16.378  0.0440  0.1801 -0.4047
 8124SOL    HW135831   1.914   3.895  16.300 -0.9089  0.1705 -1.0220
 8124SOL    HW235832   1.783   3.898  16.337 -0.6686  3.1645  3.1753
 8125SOL     OW35833   0.235   0.650   1.351 -0.2502 -1.0672  0.3957
 8125SOL    HW135834   0.169   0.708   1.312  0.5253 -0.8136 -0.5239
 8125SOL    HW235835   0.238   0.683   1.441 -0.5341 -0.9148  0.3491
 8126SOL     OW35836   3.404   1.099  11.511 -0.6306 -0.1495  0.5006
 8126SOL    HW135837   3.376   1.025  11.565  1.0449 -0.7610  0.5559
 8126SOL    HW235838   3.321   1.130  11.475 -0.2593  0.5416  0.2474
 8127SOL     OW35839   2.039   2.237   0.232 -0.4032  0.0231 -0.6864
 8127SOL    HW135840   2.015   2.168   0.171 -1.1121 -0.6801  0.3879
 8127SOL    HW235841   2.104   2.191   0.286 -0.5387  1.5992  0.8111
 8128SOL     OW35842   4.561   4.359   7.257 -0.0465  0.3915  0.8535
 8128SOL    HW135843   4.653   4.332   7.256  0.2376  1.4465 -1.0204
 8128SOL    HW235844   4.520   4.286   7.303 -0.9069  0.5359  0.3108
 8129SOL     OW35845   2.126   2.039   1.413 -0.2519 -0.5211 -0.7511
 8129SOL    HW135846   2.195   2.069   1.354  0.4540 -1.5702 -0.4478
 8129SOL    HW235847   2.160   2.061   1.500 -0.1009 -0.6197 -0.7853
 8130SOL     OW35848   3.319   3.437  15.928  0.5206  0.4944 -0.0767
 8130SOL    HW135849   3.246   3.388  15.966 -1.1907  0.4538 -3.3338
 8130SOL    HW235850   3.372   3.447  16.007 -1.1401 -1.8073  1.3232
 8131SOL     OW35851   0.373   3.036   9.197 -0.2189 -0.4214 -0.0758
 8131SOL    HW135852   0.383   3.020   9.103 -0.4271 -1.7380  0.1249
 8131SOL    HW235853   0.408   2.953   9.229 -0.9307 -0.4696  0.5516
 8132SOL     OW35854   2.510   0.875   9.809 -0.2742  0.0541  0.5517
 8132SOL    HW135855   2.524   0.784   9.784  2.0552  0.2053  1.2990
 8132SOL    HW235856   2.580   0.888   9.874 -0.2902 -1.5110  0.8787
 8133SOL     OW35857   1.974   2.813   3.293  0.1049  0.4131 -0.0290
 8133SOL    HW135858   2.044   2.852   3.345 -0.3231  0.8057  0.2512
 8133SOL    HW235859   1.990   2.863   3.213  0.1903 -0.0611 -0.3072
 8134SOL     OW35860   4.292   4.131   9.915  0.1008 -0.2987  0.3129
 8134SOL    HW135861   4.329   4.043   9.918  1.7830  0.4033  0.0776
 8134SOL    HW235862   4.269   4.141  10.008  3.3272  0.8613  0.9773
 8135SOL     OW35863   0.605   4.613   8.087  0.3530 -0.2468  0.3584
 8135SOL    HW135864   0.652   4.530   8.090  1.0270  0.1907  1.6610
 8135SOL    HW235865   0.654   4.661   8.153  0.5526 -0.4893  0.3893
 8136SOL     OW35866   2.262   3.001   5.512 -0.8213  0.1030 -0.3242
 8136SOL    HW135867   2.275   2.906   5.523  2.2327  0.5392 -0.2239
 8136SOL    HW235868   2.342   3.024   5.467 -1.0544  2.5951  0.5257
 8137SOL     OW35869   2.254   1.201  13.072 -0.1378 -0.1432  0.3381
 8137SOL    HW135870   2.183   1.137  13.061 -0.0870  0.1070 -1.4628
 8137SOL    HW235871   2.207   1.271  13.026 -0.7257 -1.3412 -0.9057
 8138SOL     OW35872   2.031   2.429   7.933  0.2645  0.1737 -0.0923
 8138SOL    HW135873   2.022   2.472   8.018  0.4827 -0.7547  0.3999
 8138SOL    HW235874   2.122   2.442   7.906  0.3808  2.1117  1.2343
 8139SOL     OW35875   2.931   0.513   5.059 -0.2517 -0.0224 -0.0922
 8139SOL    HW135876   2.878   0.443   5.021  0.4695 -0.6284  0.0148
 8139SOL    HW235877   2.984   0.509   4.979 -0.9417  1.2000 -0.6040
 8140SOL     OW35878   1.504   2.709   0.216  0.6151 -0.6612 -0.8156
 8140SOL    HW135879   1.553   2.648   0.160  1.4342 -0.0546 -0.7466
 8140SOL    HW235880   1.419   2.666   0.202  1.9216 -3.3708 -0.5079
 8141SOL     OW35881   1.499   1.459   6.535 -0.3767 -0.0932  0.1771
 8141SOL    HW135882   1.446   1.429   6.610 -1.0786 -1.0694 -0.7106
 8141SOL    HW235883   1.537   1.537   6.575 -0.2641  1.2465 -2.6004
 8142SOL     OW35884   3.677   0.554   5.280 -0.7551 -0.3349 -0.2432
 8142SOL    HW135885   3.761   0.581   5.316 -1.0137  0.1012  0.0278
 8142SOL    HW235886   3.690   0.459   5.272 -0.6523 -0.2020 -1.5135
 8143SOL     OW35887   0.084   0.691   5.830 -0.4786  0.2807 -0.0733
 8143SOL    HW135888   0.171   0.653   5.832 -1.2652 -1.5108  0.0522
 8143SOL    HW235889   0.034   0.618   5.794  1.6175 -0.1390 -2.1114
 8144SOL     OW35890   0.384   3.407   3.601  0.0908 -0.4460  0.3515
 8144SOL    HW135891   0.450   3.340   3.617  0.0497 -0.3634  0.8587
 8144SOL    HW235892   0.309   3.355   3.631  0.8058 -1.6216  0.1164
 8145SOL     OW35893   3.381   1.759   8.589 -0.7147  0.8912 -0.1508
 8145SOL    HW135894   3.474   1.773   8.605 -0.7059 -0.4914  1.0648
 8145SOL    HW235895   3.345   1.795   8.670  0.0860 -0.4956  0.8447
 8146SOL     OW35896   1.127   1.046   9.763  0.1309  0.4161 -0.4232
 8146SOL    HW135897   1.047   1.038   9.815 -0.8036 -0.6528 -2.0350
 8146SOL    HW235898   1.184   0.989   9.814 -1.8210  2.1323  3.6535
 8147SOL     OW35899   4.675   1.061   3.450  0.4700 -0.2060  0.0901
 8147SOL    HW135900   0.036   1.066   3.396 -0.0917  0.4465 -0.6659
 8147SOL    HW235901   4.672   0.968   3.473 -1.6023 -0.3411 -0.8111
 8148SOL     OW35902   4.414   0.890   1.445  0.6464  0.4169  0.4865
 8148SOL    HW135903   4.443   0.891   1.353 -1.5752 -2.5512 -0.2433
 8148SOL    HW235904   4.446   0.805   1.476 -0.8606 -0.3790 -0.1656
 8149SOL     OW35905   2.901   0.820   3.160  0.2882  0.0502  0.9517
 8149SOL    HW135906   2.952   0.756   3.110 -0.3285 -0.6029  1.1570
 8149SOL    HW235907   2.847   0.769   3.220 -0.1664 -1.2002 -0.5182
 8150SOL     OW35908   0.161   2.437   3.913  0.2642 -0.2592  0.7208
 8150SOL    HW135909   0.099   2.498   3.872 -0.6626 -1.0732  0.9089
 8150SOL    HW235910   0.215   2.432   3.834  0.8560 -0.1198  1.1174
 8151SOL     OW35911   0.494   4.299   8.989  0.1362 -0.1186 -0.7021
 8151SOL    HW135912   0.483   4.377   9.043 -1.7868 -0.7749 -0.1352
 8151SOL    HW235913   0.465   4.235   9.054  2.1962 -0.1066  0.2319
 8152SOL     OW35914   2.698   3.976  17.180 -0.1232  0.1696 -0.0054
 8152SOL    HW135915   2.653   4.042  17.233  1.6403  1.2067  0.1785
 8152SOL    HW235916   2.724   4.018  17.098  2.0968  1.5496  1.4019
 8153SOL     OW35917   0.717   3.858  14.713 -0.1096  0.2415 -0.2650
 8153SOL    HW135918   0.774   3.781  14.707  1.7045  1.4575  1.7768
 8153SOL    HW235919   0.636   3.812  14.737 -1.2896  0.5535 -3.6574
 8154SOL     OW35920   1.252   1.189   3.936 -0.7036  0.0683  0.1925
 8154SOL    HW135921   1.257   1.124   3.865  2.6508  0.2524  0.2681
 8154SOL    HW235922   1.343   1.195   3.967 -1.1765 -0.0336  1.5943
 8155SOL     OW35923   0.401   2.848   8.109 -0.2259  0.3525  0.2999
 8155SOL    HW135924   0.348   2.922   8.080  0.0312  0.0292 -1.0119
 8155SOL    HW235925   0.490   2.875   8.089  0.2832 -1.4382  0.1313
 8156SOL     OW35926   2.725   4.010  15.756  0.3060 -0.5652  0.8407
 8156SOL    HW135927   2.800   4.012  15.815 -1.5088  1.9783  3.0575
 8156SOL    HW235928   2.648   4.018  15.813 -0.7076 -0.9291 -0.4585
 8157SOL     OW35929   3.982   2.549   5.628 -0.0569 -0.5065 -0.2842
 8157SOL    HW135930   3.943   2.569   5.713  1.7803 -1.8113  0.8884
 8157SOL    HW235931   4.045   2.620   5.621 -0.9996  0.4088  0.5663
 8158SOL     OW35932   4.582   1.570  12.504 -0.3213 -0.4909 -0.3041
 8158SOL    HW135933   4.545   1.558  12.417  0.1320  2.2690 -0.8571
 8158SOL    HW235934   4.659   1.515  12.492  0.3864  0.1238  1.3825
 8159SOL     OW35935   3.683   2.016   6.058  0.3954 -0.0153 -0.5071
 8159SOL    HW135936   3.677   1.921   6.065 -2.5608 -0.0596 -3.1160
 8159SOL    HW235937   3.646   2.027   5.970 -1.7650  2.3191  0.6824
 8160SOL     OW35938   3.243   2.650  14.489  0.0181 -0.2718 -0.3065
 8160SOL    HW135939   3.315   2.592  14.514 -1.9413 -1.6204  2.2520
 8160SOL    HW235940   3.173   2.590  14.464  0.6798 -0.1859 -2.3233
 8161SOL     OW35941   2.455   2.430   1.471  0.4445 -0.1901 -0.3628
 8161SOL    HW135942   2.471   2.491   1.399 -0.8767 -2.0160 -2.2037
 8161SOL    HW235943   2.531   2.442   1.528  2.1139 -1.0109 -2.4282
 8162SOL     OW35944   4.345   1.134  12.486 -0.3599 -0.4320  0.3105
 8162SOL    HW135945   4.419   1.073  12.491  0.0340 -0.2522 -2.9295
 8162SOL    HW235946   4.371   1.194  12.416 -0.9403  1.9635  2.1470
 8163SOL     OW35947   2.736   3.207   7.068  0.0551  0.6227 -0.2213
 8163SOL    HW135948   2.814   3.238   7.115 -0.9937 -0.3067  2.1121
 8163SOL    HW235949   2.757   3.114   7.066 -2.8554 -0.0165 -0.1547
 8164SOL     OW35950   3.973   1.318   3.839  0.2239  0.3882 -0.2120
 8164SOL    HW135951   3.987   1.225   3.855 -2.8110  0.0494  0.4001
 8164SOL    HW235952   3.921   1.314   3.759  1.3398  1.3670 -1.0010
 8165SOL     OW35953   4.379   2.159   2.682 -0.0462 -0.4513  0.1333
 8165SOL    HW135954   4.373   2.069   2.714 -0.1571 -0.0785  1.1776
 8165SOL    HW235955   4.443   2.203   2.738  0.0436  0.5765 -0.7785
 8166SOL     OW35956   2.714   3.665  17.003  0.5004  0.4395  0.0400
 8166SOL    HW135957   2.633   3.648  16.954 -2.0865  0.0026  4.5517
 8166SOL    HW235958   2.755   3.724  16.938  2.3308  0.4863  1.2255
 8167SOL     OW35959   1.777   3.555  15.689 -0.2835  0.0161 -0.8549
 8167SOL    HW135960   1.856   3.503  15.704  0.8875  2.1788  0.5140
 8167SOL    HW235961   1.759   3.549  15.596  0.3971 -2.9960 -0.7832
 8168SOL     OW35962   0.437   2.594   3.132 -0.4743 -0.1106  0.3356
 8168SOL    HW135963   0.504   2.543   3.087 -0.0394  2.0766 -1.4802
 8168SOL    HW235964   0.444   2.686   3.106  1.9751 -0.1698  0.8523
 8169SOL     OW35965   0.187   1.585   3.208 -0.3079  0.8418  0.4485
 8169SOL    HW135966   0.221   1.592   3.119 -1.3701  2.6368  0.1931
 8169SOL    HW235967   0.186   1.489   3.215  1.1327  0.7753 -0.2937
 8170SOL     OW35968   2.344   4.707  14.651  0.2268 -0.1927  0.1319
 8170SOL    HW135969   2.359   4.621  14.691  3.1642  0.3392  0.1733
 8170SOL    HW235970   2.376   0.040  14.725  3.4265 -4.3013  1.5491
 8171SOL     OW35971   2.967   3.664   4.313  0.5998  0.3249  0.2199
 8171SOL    HW135972   2.929   3.663   4.401 -0.9890 -3.9859 -0.5443
 8171SOL    HW235973   2.895   3.699   4.262  1.4129  1.9698  0.1868
 8172SOL     OW35974   1.708   3.143   8.370 -0.0867  0.1641  0.3883
 8172SOL    HW135975   1.659   3.151   8.452 -1.7431 -2.9368 -0.3231
 8172SOL    HW235976   1.798   3.131   8.397  0.2058 -1.9441 -1.4999
 8173SOL     OW35977   0.416   3.677   6.125  0.1572 -0.3118 -0.3444
 8173SOL    HW135978   0.460   3.729   6.192 -0.0911  2.6929 -2.5334
 8173SOL    HW235979   0.483   3.644   6.066 -2.4269 -2.5557 -2.0552
 8174SOL     OW35980   1.914   3.259  11.446 -0.2637  1.0080  0.0073
 8174SOL    HW135981   1.819   3.261  11.431  0.0407  2.3733 -1.6749
 8174SOL    HW235982   1.919   3.196  11.518 -0.1877  1.5983  0.5213
 8175SOL     OW35983   2.019   4.554  11.082 -0.0207  0.0594  0.1610
 8175SOL    HW135984   2.032   4.616  11.011 -0.1924  1.2390  1.1534
 8175SOL    HW235985   1.938   4.592  11.118  0.2782  0.4308  0.4436
 8176SOL     OW35986   2.545   1.715  10.578 -0.0618 -0.6191  0.0379
 8176SOL    HW135987   2.608   1.693  10.509 -0.5061 -0.2545 -0.4835
 8176SOL    HW235988   2.592   1.679  10.653  0.1251  1.6293  0.9913
 8177SOL     OW35989   2.040   0.758   3.360 -0.6917 -0.2529 -0.1398
 8177SOL    HW135990   2.054   0.717   3.445  3.7290 -1.9124 -1.6365
 8177SOL    HW235991   1.947   0.752   3.342 -1.1016  4.9745  0.1653
 8178SOL     OW35992   0.115   3.724   6.490  0.2661 -0.0471 -0.1847
 8178SOL    HW135993   0.069   3.793   6.537  0.0976 -0.9813  1.0485
 8178SOL    HW235994   0.073   3.646   6.528 -3.0148  2.1035  0.5927
 8179SOL     OW35995   1.925   1.704  16.189 -0.1247  0.5976 -0.1715
 8179SOL    HW135996   1.997   1.644  16.208  0.6624  2.2663  2.0896
 8179SOL    HW235997   1.960   1.749  16.113 -1.3490  0.1142 -1.0242
 8180SOL     OW35998   2.578   2.559   4.685  0.2641  0.7170  0.2929
 8180SOL    HW135999   2.591   2.654   4.694 -1.3531  0.9121  0.6447
 8180SOL    HW236000   2.671   2.537   4.693 -0.1014 -1.4367 -1.5403
 8181SOL     OW36001   1.668   1.530   4.542 -0.2167  0.0594 -0.2209
 8181SOL    HW136002   1.714   1.584   4.606 -1.9617  0.9913  0.2577
 8181SOL    HW236003   1.655   1.454   4.598  0.9040  0.2025  0.2214
 8182SOL     OW36004   1.227   2.987   6.137  0.2483 -0.3470 -0.4863
 8182SOL    HW136005   1.183   2.966   6.220  0.3097 -0.4436 -0.4785
 8182SOL    HW236006   1.311   2.943   6.150  1.1623  1.1393 -1.3679
 8183SOL     OW36007   0.420   0.891   7.609 -0.1882 -0.5002  0.6788
 8183SOL    HW136008   0.448   0.802   7.590  1.0613 -0.1156  0.6965
 8183SOL    HW236009   0.410   0.888   7.704 -0.9578 -1.1059  0.5812
 8184SOL     OW36010   3.129   3.615   9.004 -0.2121 -0.0675 -0.4264
 8184SOL    HW136011   3.091   3.527   8.993 -0.2415 -0.0646 -0.3440
 8184SOL    HW236012   3.160   3.603   9.094  1.4579  0.7645 -0.8873
 8185SOL     OW36013   1.094   2.202   8.031 -0.5064  0.1574  0.6306
 8185SOL    HW136014   1.120   2.279   8.081  2.0241  0.6831 -1.4527
 8185SOL    HW236015   1.145   2.130   8.068 -0.0888 -0.3632 -0.9280
 8186SOL     OW36016   3.115   1.808   3.729 -0.2851 -1.0196 -0.7323
 8186SOL    HW136017   3.063   1.798   3.649 -1.2183  0.7607 -0.3551
 8186SOL    HW236018   3.167   1.728   3.737  0.3334 -0.3999  1.4998
 8187SOL     OW36019   3.801   4.664  16.469 -0.2577 -0.0152 -0.2729
 8187SOL    HW136020   3.804   0.017  16.405  0.1856  1.2896  1.1656
 8187SOL    HW236021   3.802   0.003  16.547  2.7562 -0.0845 -0.2647
 8188SOL     OW36022   4.130   4.488  17.604 -0.3855 -0.1318  0.0761
 8188SOL    HW136023   4.195   4.535  17.655 -1.8108  1.4207  0.4516
 8188SOL    HW236024   4.047   4.481  17.652 -0.3263  1.3210  0.3681
 8189SOL     OW36025   1.466   0.646   3.806 -0.3346 -0.1665 -0.3504
 8189SOL    HW136026   1.556   0.625   3.782 -0.7333 -0.4792 -1.5826
 8189SOL    HW236027   1.459   0.625   3.899  1.2150  0.6275 -0.0569
 8190SOL     OW36028   3.778   2.219   9.301  0.3608 -0.4477  0.4068
 8190SOL    HW136029   3.855   2.250   9.252 -0.4039 -1.0729 -1.1607
 8190SOL    HW236030   3.721   2.295   9.290  1.4908  0.1860 -1.2284
 8191SOL     OW36031   4.488   2.892   0.908  0.3337  0.1531  0.0351
 8191SOL    HW136032   4.482   2.984   0.882  0.4102  0.0238 -0.4363
 8191SOL    HW236033   4.469   2.887   1.002  1.9591  0.9839  0.4187
 8192SOL     OW36034   4.108   3.485  11.170  0.1848 -0.0633  0.2613
 8192SOL    HW136035   4.013   3.478  11.178  0.3605 -2.1091  0.4389
 8192SOL    HW236036   4.118   3.453  11.080  1.9728 -0.3636  0.5581
 8193SOL     OW36037   4.184   1.384   5.549 -0.3063  0.2605 -0.2343
 8193SOL    HW136038   4.140   1.349   5.472 -0.0133 -1.5197  0.4127
 8193SOL    HW236039   4.216   1.467   5.513  2.6282 -0.6552  0.3213
 8194SOL     OW36040   4.630   3.530  14.121  0.2455  0.0625 -0.2945
 8194SOL    HW136041   4.631   3.621  14.090  1.3663 -0.6091 -2.1927
 8194SOL    HW236042   4.664   3.482  14.046 -2.1929 -0.9800 -0.7327
 8195SOL     OW36043   3.232   4.470   3.287 -0.2233  0.0135 -0.7229
 8195SOL    HW136044   3.317   4.511   3.302  0.1924 -0.9085 -0.5473
 8195SOL    HW236045   3.190   4.478   3.372  1.1391 -1.1436  0.0601
 8196SOL     OW36046   2.436   3.984  12.048  0.2050 -0.1739 -0.6174
 8196SOL    HW136047   2.374   4.006  11.978  1.8732  0.0703 -2.0046
 8196SOL    HW236048   2.513   4.035  12.024 -0.1986  1.3501  1.3453
 8197SOL     OW36049   2.566   2.147   3.282  0.0502 -0.3057  0.1451
 8197SOL    HW136050   2.487   2.148   3.336 -0.2908  2.7845 -0.4376
 8197SOL    HW236051   2.637   2.138   3.346 -0.4528 -0.7548  0.6414
 8198SOL     OW36052   4.456   2.907  15.615 -0.4573 -0.7087 -0.4164
 8198SOL    HW136053   4.491   2.991  15.645 -1.7689 -0.2890 -0.0947
 8198SOL    HW236054   4.465   2.908  15.519 -0.1515  2.1884 -0.3522
 8199SOL     OW36055   0.658   2.400   3.418 -0.2977 -0.1032 -0.4342
 8199SOL    HW136056   0.639   2.481   3.370  2.9276  0.5311 -0.6345
 8199SOL    HW236057   0.742   2.381   3.378  1.1701 -0.4749  2.9017
 8200SOL     OW36058   0.835   2.560   6.863  0.0716 -0.2310 -0.2208
 8200SOL    HW136059   0.929   2.576   6.877 -0.0499 -1.3975  2.0491
 8200SOL    HW236060   0.812   2.594   6.777 -1.5581 -0.2398  0.2072
 8201SOL     OW36061   1.300   0.200   6.084  0.4944 -0.7098 -0.1507
 8201SOL    HW136062   1.366   0.228   6.148  0.0951 -1.0416  0.4098
 8201SOL    HW236063   1.220   0.209   6.136  1.2234 -1.6154  1.1329
 8202SOL     OW36064   1.472   2.353   5.358 -0.5237 -0.0103 -0.3619
 8202SOL    HW136065   1.419   2.280   5.391  0.2863 -1.6028 -2.5819
 8202SOL    HW236066   1.528   2.375   5.432  1.6531  0.3528 -2.1158
 8203SOL     OW36067   0.138   0.169   8.373 -0.2696  0.1764  0.1298
 8203SOL    HW136068   0.095   0.179   8.288 -1.4264 -0.0470  0.6861
 8203SOL    HW236069   0.089   0.093   8.405  0.9024 -0.5906  0.0787
 8204SOL     OW36070   4.070   3.447   5.354  0.1894  0.5109  0.3358
 8204SOL    HW136071   4.047   3.426   5.264 -1.0623  1.5653  0.4052
 8204SOL    HW236072   4.061   3.361   5.394  0.0719 -0.1589 -1.1252
 8205SOL     OW36073   1.518   1.561   3.460 -0.7752 -0.8723 -0.4475
 8205SOL    HW136074   1.580   1.495   3.430 -1.2618 -0.9434 -1.2912
 8205SOL    HW236075   1.440   1.532   3.412  0.2186 -0.9716 -2.0057
 8206SOL     OW36076   3.266   3.106  10.639  0.5553  0.1791  0.3616
 8206SOL    HW136077   3.244   3.015  10.620  1.1567  0.3054 -0.9978
 8206SOL    HW236078   3.182   3.150  10.625  0.4116 -0.3636 -0.5064
 8207SOL     OW36079   3.281   3.154   1.972  0.2041  0.6514 -0.2491
 8207SOL    HW136080   3.243   3.118   1.892 -1.2514 -3.4011  2.2357
 8207SOL    HW236081   3.300   3.245   1.951  3.0819  0.4490  1.4325
 8208SOL     OW36082   4.090   3.529   1.671 -0.7153 -0.0283  0.2772
 8208SOL    HW136083   4.052   3.514   1.585 -0.3591 -0.1601  0.1423
 8208SOL    HW236084   4.031   3.588   1.719 -0.4375 -0.1038  0.7158
 8209SOL     OW36085   2.106   2.166   1.903  0.0296  0.1548  0.0895
 8209SOL    HW136086   2.174   2.172   1.970  0.6884 -3.0843 -0.3214
 8209SOL    HW236087   2.028   2.174   1.958 -1.0568 -0.2007 -1.4020
 8210SOL     OW36088   2.197   0.367   3.553  0.1472  0.2033 -0.3074
 8210SOL    HW136089   2.141   0.290   3.566 -2.3716  2.1396  0.4807
 8210SOL    HW236090   2.274   0.331   3.510  0.7042  0.2104  0.6769
 8211SOL     OW36091   2.379   1.108   3.022  0.1113 -0.4989 -0.1216
 8211SOL    HW136092   2.428   1.085   3.101  0.1857 -2.5233 -0.7334
 8211SOL    HW236093   2.403   1.200   3.014 -1.6853  0.0645  1.1525
 8212SOL     OW36094   2.884   4.218   2.453 -0.0645 -0.5033 -0.4224
 8212SOL    HW136095   2.890   4.123   2.445 -0.6494 -0.8978  3.4939
 8212SOL    HW236096   2.977   4.240   2.459 -0.2273  0.8165 -2.8731
 8213SOL     OW36097   4.573   3.275  13.493  0.3848 -0.1991  0.1229
 8213SOL    HW136098   4.481   3.286  13.470  1.4051  1.4882 -3.1065
 8213SOL    HW236099   4.599   3.365  13.511  0.1177  0.0335 -0.6597
 8214SOL     OW36100   4.077   4.133   9.731  0.0182  0.2720 -0.4219
 8214SOL    HW136101   4.045   4.201   9.672 -0.4505 -0.6006 -1.1622
 8214SOL    HW236102   4.128   4.186   9.792  0.2518 -1.0878  0.5545
 8215SOL     OW36103   3.405   3.212   9.386 -0.3280  0.5528  0.3575
 8215SOL    HW136104   3.424   3.233   9.295 -0.4843 -1.0058 -0.0327
 8215SOL    HW236105   3.415   3.117   9.392 -1.1932  0.6362  3.1852
 8216SOL     OW36106   2.685   1.023   8.313 -0.2367  0.0166  0.0715
 8216SOL    HW136107   2.743   0.970   8.368  1.8836  0.6346 -1.5617
 8216SOL    HW236108   2.626   1.056   8.380 -0.0451 -1.1289  0.8018
 8217SOL     OW36109   3.539   4.561   1.533 -0.5795  0.1975  0.0036
 8217SOL    HW136110   3.468   4.595   1.479 -0.2020  0.5578 -0.2637
 8217SOL    HW236111   3.567   4.479   1.491  1.0442  0.5928  0.3316
 8218SOL     OW36112   3.533   4.161   7.769 -0.0304  0.3059 -0.3453
 8218SOL    HW136113   3.451   4.170   7.818  0.1629 -0.2314  0.0804
 8218SOL    HW236114   3.584   4.117   7.837 -1.2997  0.5895  0.7852
 8219SOL     OW36115   2.811   4.407   5.292 -0.3417  0.5837  0.0970
 8219SOL    HW136116   2.874   4.354   5.243 -1.3902 -0.2558 -0.3236
 8219SOL    HW236117   2.806   4.355   5.372  0.8975  0.0602 -0.1570
 8220SOL     OW36118   3.026   3.257   7.169 -0.0880  0.8660  0.3267
 8220SOL    HW136119   3.116   3.274   7.197  0.2844 -0.0275 -0.3336
 8220SOL    HW236120   2.979   3.265   7.252  0.6767 -2.2353  1.0665
 8221SOL     OW36121   1.105   0.005   3.005  0.0347 -0.3128 -0.6088
 8221SOL    HW136122   1.172   4.679   3.058 -0.7863  0.1759  0.8304
 8221SOL    HW236123   1.152   0.041   2.929  0.4898  1.4436  0.5025
 8222SOL     OW36124   2.922   0.514  10.112 -1.0077 -0.1329  0.0756
 8222SOL    HW136125   2.991   0.508  10.178 -0.4323 -0.7854 -0.5814
 8222SOL    HW236126   2.841   0.512  10.161 -1.4477  2.8237 -0.5073
 8223SOL     OW36127   1.946   1.571   3.989  0.4359  0.6417  0.0022
 8223SOL    HW136128   1.959   1.639   4.055  1.7874  0.3488  0.0303
 8223SOL    HW236129   1.873   1.606   3.938 -0.5170 -2.7461 -0.9373
 8224SOL     OW36130   4.663   0.324   4.414  0.7271  0.1169  0.4801
 8224SOL    HW136131   4.596   0.294   4.352  2.0421 -3.7920  0.9718
 8224SOL    HW236132   4.637   0.270   4.488  1.7582 -0.8225  0.1425
 8225SOL     OW36133   3.974   4.009   3.116 -0.0478 -0.9215 -0.6067
 8225SOL    HW136134   3.946   3.955   3.189 -0.8903  0.3375 -0.0045
 8225SOL    HW236135   4.067   3.984   3.112  0.4914  1.1204 -0.9654
 8226SOL     OW36136   0.998   4.572  16.449 -0.3849 -0.6013  0.5068
 8226SOL    HW136137   1.011   4.576  16.544  0.9959 -1.9905  0.3767
 8226SOL    HW236138   0.989   4.662  16.418 -0.8074 -1.4894 -1.9522
 8227SOL     OW36139   2.667   4.018   2.881  0.1693  0.3613 -0.1339
 8227SOL    HW136140   2.738   4.077   2.904 -0.9533  1.3930  0.7230
 8227SOL    HW236141   2.694   3.991   2.794  1.5528 -0.2872  0.5040
 8228SOL     OW36142   2.666   0.714   3.648 -0.3188 -0.6105 -0.6080
 8228SOL    HW136143   2.748   0.664   3.650 -0.3991 -0.6450  1.3818
 8228SOL    HW236144   2.601   0.645   3.663 -1.2043  0.4560  0.4154
 8229SOL     OW36145   2.379   3.626  12.302 -0.1304 -0.5885 -0.0502
 8229SOL    HW136146   2.304   3.566  12.305  0.3935 -1.2155  0.5633
 8229SOL    HW236147   2.385   3.645  12.396  2.7369 -2.2204  0.0889
 8230SOL     OW36148   4.251   0.613   4.786  0.0887 -0.0336 -0.5690
 8230SOL    HW136149   4.179   0.645   4.732 -0.0079  0.7169 -0.0106
 8230SOL    HW236150   4.220   0.528   4.817  1.1361  0.1789  1.0723
 8231SOL     OW36151   3.871   2.321  13.373  0.3091  0.5986  0.7354
 8231SOL    HW136152   3.885   2.233  13.409 -1.4593  0.8911  2.1500
 8231SOL    HW236153   3.866   2.308  13.278  2.4237  1.3840  0.5172
 8232SOL     OW36154   1.942   3.167  12.699 -0.5533 -0.7152 -0.3593
 8232SOL    HW136155   1.857   3.132  12.724 -1.2387  0.1717 -1.4885
 8232SOL    HW236156   1.967   3.217  12.777 -0.1789  0.5702 -1.3208
 8233SOL     OW36157   4.321   0.895   8.464  0.0103 -0.2718 -0.6503
 8233SOL    HW136158   4.359   0.818   8.506 -0.7520 -0.1451  0.2713
 8233SOL    HW236159   4.392   0.957   8.445 -0.2870  0.4560  0.5643
 8234SOL     OW36160   0.678   2.493  14.962 -0.0821  0.2180 -0.4575
 8234SOL    HW136161   0.655   2.585  14.973 -3.0717 -0.5343 -0.5012
 8234SOL    HW236162   0.689   2.498  14.867  2.9599 -0.0976 -0.1169
 8235SOL     OW36163   3.142   1.933   7.355  0.7936  0.1599  0.0905
 8235SOL    HW136164   3.218   1.991   7.348  2.1368 -1.6751 -0.6324
 8235SOL    HW236165   3.146   1.909   7.447 -0.4698 -0.8034 -0.1091
 8236SOL     OW36166   4.673   3.430  15.974 -0.5190 -0.5057 -0.1861
 8236SOL    HW136167   4.656   3.481  15.895 -1.3996  0.2212  0.4695
 8236SOL    HW236168   0.050   3.446  15.980 -0.6663  0.6477 -0.9278
 8237SOL     OW36169   3.805   0.723   3.829 -0.0973  0.3647  0.3365
 8237SOL    HW136170   3.866   0.706   3.901  0.8105  0.5470 -0.3982
 8237SOL    HW236171   3.740   0.654   3.846 -0.3957  0.5534 -0.0563
 8238SOL     OW36172   4.602   4.178   4.335  0.8112  0.3798  1.0396
 8238SOL    HW136173   4.566   4.165   4.247  1.9672 -2.0226  0.9155
 8238SOL    HW236174   4.669   4.109   4.332  0.2963 -0.1429  1.5174
 8239SOL     OW36175   2.595   4.201   2.296  0.5540  0.3915 -0.0888
 8239SOL    HW136176   2.640   4.268   2.347 -0.6558  0.1893  1.2570
 8239SOL    HW236177   2.669   4.161   2.251  1.5615  0.3096  1.6296
 8240SOL     OW36178   1.807   2.402  13.700  0.1873 -0.5719  0.5355
 8240SOL    HW136179   1.802   2.493  13.670 -2.1657 -0.1806  2.1486
 8240SOL    HW236180   1.766   2.415  13.785 -0.6417 -1.1135  0.2196
 8241SOL     OW36181   1.170   2.183   4.968  0.2410 -0.0266 -0.0124
 8241SOL    HW136182   1.212   2.207   5.051 -2.3045  0.6369  1.1000
 8241SOL    HW236183   1.186   2.089   4.965  0.2328 -0.0754  1.1438
 8242SOL     OW36184   1.325   0.715   4.775 -0.2554  0.7117  0.2602
 8242SOL    HW136185   1.318   0.688   4.684 -1.0912  0.4028  0.4128
 8242SOL    HW236186   1.406   0.666   4.789 -0.5929 -0.3814 -1.7353
 8243SOL     OW36187   0.168   2.012   6.080  0.5080  0.2038  0.4525
 8243SOL    HW136188   0.242   2.073   6.080  0.4726  0.2381  1.9204
 8243SOL    HW236189   0.215   1.929   6.072 -0.6907 -0.3734 -0.6949
 8244SOL     OW36190   2.784   0.007   7.849 -0.2837  0.1199  0.2777
 8244SOL    HW136191   2.716   4.710   7.783 -0.1727  1.7723 -0.2021
 8244SOL    HW236192   2.779   0.103   7.851 -1.3364  0.0902 -1.6107
 8245SOL     OW36193   3.414   1.893   6.827  0.0047  0.1875 -0.0877
 8245SOL    HW136194   3.489   1.835   6.839  0.0614  0.4178  0.6494
 8245SOL    HW236195   3.466   1.968   6.799  0.2467  0.7670  1.9129
 8246SOL     OW36196   1.725   4.514   3.674 -0.1426 -0.4220 -0.0108
 8246SOL    HW136197   1.804   4.541   3.628  0.1784  2.0999  2.0281
 8246SOL    HW236198   1.671   4.487   3.600 -0.2440  0.9813 -0.4358
 8247SOL     OW36199   1.603   3.099   1.745  0.4046 -0.0267  0.3987
 8247SOL    HW136200   1.514   3.079   1.719  1.1150 -1.1954 -1.1111
 8247SOL    HW236201   1.630   3.019   1.790 -1.8322 -0.0154  1.7729
 8248SOL     OW36202   2.535   1.321   8.927  0.2310  0.1032 -0.0925
 8248SOL    HW136203   2.498   1.233   8.938  0.6197  0.0936  1.1279
 8248SOL    HW236204   2.515   1.332   8.834 -2.4891  2.8016  0.7982
 8249SOL     OW36205   4.452   2.726   2.233  0.2185 -0.5676  0.3036
 8249SOL    HW136206   4.413   2.802   2.189  1.4845  0.9750  1.8586
 8249SOL    HW236207   4.531   2.763   2.271 -1.0568 -0.1808  2.5790
 8250SOL     OW36208   2.173   1.195   7.033 -0.6101 -0.1576 -0.1785
 8250SOL    HW136209   2.173   1.193   6.938 -3.1292 -0.8637 -0.1495
 8250SOL    HW236210   2.261   1.230   7.049 -1.7819  2.8751 -0.4647
 8251SOL     OW36211   0.124   0.898  14.165 -0.4720  0.4075  0.1306
 8251SOL    HW136212   0.209   0.916  14.124  0.1791 -0.2038  1.2210
 8251SOL    HW236213   0.063   0.958  14.123  0.4028  0.0002 -1.7268
 8252SOL     OW36214   3.531   0.204   3.176 -0.1866 -0.0729 -0.6784
 8252SOL    HW136215   3.577   0.259   3.239  0.8900 -0.4989 -1.1057
 8252SOL    HW236216   3.581   0.222   3.097 -1.2187  1.0735 -1.0749
 8253SOL     OW36217   0.631   1.598   8.006 -0.6621 -0.6895 -0.2179
 8253SOL    HW136218   0.660   1.519   8.053  1.2439 -0.1443 -0.4934
 8253SOL    HW236219   0.659   1.673   8.059 -2.5736 -0.2773  0.2074
 8254SOL     OW36220   0.587   3.836   5.803  1.0189  0.6307  0.2359
 8254SOL    HW136221   0.498   3.849   5.835  0.6719  0.7758 -0.8036
 8254SOL    HW236222   0.592   3.868   5.713  0.9248 -0.4547 -0.1495
 8255SOL     OW36223   2.579   0.319   1.129 -0.1643  0.0442  0.1602
 8255SOL    HW136224   2.633   0.240   1.118 -0.8798 -0.7434  2.2587
 8255SOL    HW236225   2.493   0.279   1.140 -0.5840  0.7376 -0.5953
 8256SOL     OW36226   2.596   3.883   3.104 -0.3545  0.2028 -0.1765
 8256SOL    HW136227   2.614   3.939   3.028 -0.9998  1.6812  0.7483
 8256SOL    HW236228   2.679   3.844   3.130 -0.6482 -0.2463  0.0878
 8257SOL     OW36229   2.043   4.188   0.749  0.0126  0.1089 -0.1724
 8257SOL    HW136230   2.097   4.152   0.820  0.5707  1.9606  0.3389
 8257SOL    HW236231   2.066   4.279   0.764  0.9397  0.1072 -1.6137
 8258SOL     OW36232   1.858   4.255  14.442  0.1797 -0.3504  0.0595
 8258SOL    HW136233   1.812   4.171  14.452  2.9655 -1.9340 -0.3650
 8258SOL    HW236234   1.903   4.263  14.526  0.0931 -2.5343  0.3189
 8259SOL     OW36235   0.777   0.957   3.001  0.4729  0.8108 -1.1680
 8259SOL    HW136236   0.791   0.864   3.014 -0.9606  0.3906 -2.6046
 8259SOL    HW236237   0.832   0.967   2.923  2.9576  2.6638  0.8402
 8260SOL     OW36238   1.888   2.161   1.398  0.0554  0.2341  0.5044
 8260SOL    HW136239   1.898   2.154   1.303 -2.0779 -1.1592  0.3735
 8260SOL    HW236240   1.973   2.121   1.418  0.0328 -0.2791 -0.4368
 8261SOL     OW36241   4.332   0.276  11.588  0.1646  0.2385 -0.9518
 8261SOL    HW136242   4.351   0.244  11.676 -1.7287 -1.1814 -1.0592
 8261SOL    HW236243   4.363   0.367  11.592  0.5787 -0.0207  1.5611
 8262SOL     OW36244   4.396   0.541   3.747 -0.2294 -0.0767  0.7672
 8262SOL    HW136245   4.487   0.515   3.729 -0.2411  1.5787 -1.7926
 8262SOL    HW236246   4.402   0.521   3.840 -1.1171  3.3818  1.5624
 8263SOL     OW36247   3.011   4.072   8.552  0.4417  0.7292  0.2718
 8263SOL    HW136248   2.936   4.059   8.609 -0.1902 -0.6981 -0.8999
 8263SOL    HW236249   3.073   4.014   8.597  1.6477  2.0201  0.2832
 8264SOL     OW36250   2.705   1.942   2.530  0.0623 -0.4756 -0.6639
 8264SOL    HW136251   2.690   2.034   2.507 -0.3155 -0.2130  0.6263
 8264SOL    HW236252   2.746   1.953   2.616  2.2744  2.5532 -2.0909
 8265SOL     OW36253   3.049   2.914   8.099  0.0509 -0.0600 -0.3266
 8265SOL    HW136254   2.991   2.989   8.086  0.6795  0.4318 -0.3116
 8265SOL    HW236255   3.101   2.947   8.172 -1.7601 -0.0434  0.9726
 8266SOL     OW36256   4.425   2.834  17.646  0.3558  0.2152 -0.0469
 8266SOL    HW136257   4.472   2.884   0.040 -3.6481  2.8272  0.7949
 8266SOL    HW236258   4.336   2.865  17.663 -0.0525 -1.3430  0.6597
 8267SOL     OW36259   1.475   3.007   1.486 -0.4338  0.6769 -0.8502
 8267SOL    HW136260   1.481   2.992   1.391  0.4971 -0.8782 -0.5399
 8267SOL    HW236261   1.496   3.098   1.508 -1.8627  0.7995 -0.0386
 8268SOL     OW36262   1.039   3.394   6.223 -0.0942  0.1661 -0.2490
 8268SOL    HW136263   1.122   3.346   6.221 -1.8342 -2.8651  0.0506
 8268SOL    HW236264   1.038   3.441   6.140  0.4498 -1.2252 -1.0418
 8269SOL     OW36265   3.375   2.456   4.887 -0.1709  0.8658  0.0871
 8269SOL    HW136266   3.374   2.538   4.838  1.0824  0.6555 -0.2792
 8269SOL    HW236267   3.280   2.447   4.901  0.0228 -2.7277 -0.7064
 8270SOL     OW36268   4.714   0.180   6.063 -0.4177  0.4434  0.3095
 8270SOL    HW136269   0.012   0.162   5.970  1.6923  0.4312  0.6541
 8270SOL    HW236270   4.619   0.188   6.066 -0.4034  0.7423 -0.1035
 8271SOL     OW36271   3.478   3.908   8.251 -0.1313 -0.3287  0.0204
 8271SOL    HW136272   3.547   3.905   8.318  0.5257 -1.0358 -0.6791
 8271SOL    HW236273   3.399   3.913   8.304 -0.8049 -0.6887 -0.9620
 8272SOL     OW36274   2.645   3.933  12.865  0.7986  0.0270 -0.1056
 8272SOL    HW136275   2.584   3.964  12.931  1.3696  0.4484  0.2252
 8272SOL    HW236276   2.595   3.863  12.823 -1.5368  2.3029 -1.1244
 8273SOL     OW36277   3.288   3.219   3.102  0.1932 -0.1304 -0.2313
 8273SOL    HW136278   3.230   3.167   3.158 -2.1795  0.4247 -2.1820
 8273SOL    HW236279   3.227   3.289   3.079 -2.0302 -2.0736 -0.2064
 8274SOL     OW36280   1.752   3.348   7.082  0.6571  0.3553  0.5476
 8274SOL    HW136281   1.813   3.279   7.108  0.5815 -0.1349 -0.5763
 8274SOL    HW236282   1.725   3.384   7.166 -1.4667 -0.7039  0.3274
 8275SOL     OW36283   3.224   1.015   1.441  0.1594  0.1096  0.0912
 8275SOL    HW136284   3.246   1.059   1.524  0.8950 -2.0065  1.0133
 8275SOL    HW236285   3.229   1.091   1.383  1.8307 -0.5840 -0.6771
 8276SOL     OW36286   2.508   0.017  15.754  0.5389 -0.2411 -0.2804
 8276SOL    HW136287   2.569   0.048  15.821  1.6179  0.9054 -1.8048
 8276SOL    HW236288   2.433   0.076  15.746 -0.4260 -1.3847  0.2576
 8277SOL     OW36289   0.035   1.615  14.778 -0.1027 -0.6349  0.0059
 8277SOL    HW136290   0.017   1.580  14.866  0.1099 -2.7665 -0.7870
 8277SOL    HW236291   4.661   1.629  14.754  0.4499  2.8309  0.0166
 8278SOL     OW36292   2.151   1.511   6.619  0.1251 -0.2142  0.1679
 8278SOL    HW136293   2.114   1.534   6.704  2.3254  2.0100  0.5316
 8278SOL    HW236294   2.202   1.432   6.639  0.8902 -0.2776 -2.0088
 8279SOL     OW36295   1.650   2.556   0.051  0.4022  0.4247  0.0447
 8279SOL    HW136296   1.636   2.551  17.629 -0.5233 -2.9415  0.3519
 8279SOL    HW236297   1.713   2.483   0.054  0.1716  0.1860 -0.7886
 8280SOL     OW36298   1.215   4.099   4.977  0.0865 -0.1106  0.2883
 8280SOL    HW136299   1.307   4.080   4.961 -0.1823 -1.4562  0.3735
 8280SOL    HW236300   1.182   4.069   4.892 -4.2823 -0.8161  2.2153
 8281SOL     OW36301   3.916   0.323   7.247  0.2936 -0.2844  0.4158
 8281SOL    HW136302   3.852   0.392   7.263  0.5345 -0.6177  2.7203
 8281SOL    HW236303   3.932   0.292   7.336 -1.3423 -2.8569 -0.1636
 8282SOL     OW36304   4.454   1.277   5.607  0.4238 -0.4368 -0.0527
 8282SOL    HW136305   4.382   1.328   5.644 -0.5194 -1.5567 -0.3524
 8282SOL    HW236306   4.401   1.201   5.584 -1.2393  1.3899 -2.3577
 8283SOL     OW36307   1.722   3.907   6.920 -0.2977 -0.5979  0.0686
 8283SOL    HW136308   1.670   3.966   6.974  0.8119  0.2192  0.2557
 8283SOL    HW236309   1.751   3.842   6.984 -0.3351 -1.6760 -1.0043
 8284SOL     OW36310   3.822   1.176  11.337 -0.1550 -0.0197  0.5150
 8284SOL    HW136311   3.907   1.132  11.337  1.2554  2.7084  0.0661
 8284SOL    HW236312   3.808   1.197  11.245 -1.3576  2.9952  1.4082
 8285SOL     OW36313   3.491   2.113   3.123  0.4852  0.0768  0.7025
 8285SOL    HW136314   3.534   2.195   3.148  0.8081 -0.0866  0.6828
 8285SOL    HW236315   3.529   2.095   3.037 -0.0710 -0.4340  0.5581
 8286SOL     OW36316   1.293   4.099   3.894  0.2100  0.2034 -0.2031
 8286SOL    HW136317   1.251   4.070   3.813 -2.3718  2.7247  0.2436
 8286SOL    HW236318   1.251   4.042   3.960 -3.2974  1.8853 -0.9833
 8287SOL     OW36319   2.933   2.728   8.337  0.7241 -0.1798  0.1468
 8287SOL    HW136320   2.862   2.762   8.393 -1.4626 -4.2679 -0.1151
 8287SOL    HW236321   2.905   2.754   8.249  1.7705 -0.1846 -0.1863
 8288SOL     OW36322   3.049   0.829   6.632 -0.0449 -0.1620  0.0291
 8288SOL    HW136323   3.052   0.788   6.546 -2.2304 -0.6572  0.1856
 8288SOL    HW236324   3.053   0.922   6.609 -1.0825 -0.6650 -2.1702
 8289SOL     OW36325   4.613   1.613   7.230 -0.0782 -0.4836 -0.1039
 8289SOL    HW136326   4.544   1.580   7.287 -1.0421  0.8317 -0.5141
 8289SOL    HW236327   4.573   1.694   7.198 -0.1958  0.4033  2.3017
 8290SOL     OW36328   1.536   4.503   2.125  0.0809  0.5532 -0.3850
 8290SOL    HW136329   1.499   4.472   2.043 -1.0314 -0.8949  0.6545
 8290SOL    HW236330   1.545   4.417   2.166 -1.0815 -0.3272 -2.0147
 8291SOL     OW36331   2.591   2.861  12.196  0.3276 -0.3421 -0.0410
 8291SOL    HW136332   2.658   2.928  12.195 -0.5536  0.4963 -1.5752
 8291SOL    HW236333   2.512   2.903  12.229  1.5317  0.2234  2.1240
 8292SOL     OW36334   1.614   4.005   9.014 -0.4284  0.0008 -0.2029
 8292SOL    HW136335   1.588   3.913   9.017  1.0206 -0.3705  0.5568
 8292SOL    HW236336   1.685   4.001   8.949 -0.3801  0.9908 -0.2074
 8293SOL     OW36337   3.412   3.197   6.700  0.3082  0.0669 -0.2142
 8293SOL    HW136338   3.475   3.192   6.772 -0.5144  1.1839  0.5903
 8293SOL    HW236339   3.469   3.217   6.626  0.0391 -0.5071 -0.5702
 8294SOL     OW36340   2.482   2.040   9.262 -0.2755 -0.2231 -0.3386
 8294SOL    HW136341   2.563   2.068   9.305 -0.3342 -0.5327 -0.0289
 8294SOL    HW236342   2.503   1.947   9.270  1.6283  0.1940 -0.3647
 8295SOL     OW36343   1.971   0.601   7.608 -0.0740 -0.0327 -0.0412
 8295SOL    HW136344   1.955   0.644   7.692  2.2520  1.3403 -0.2909
 8295SOL    HW236345   1.901   0.536   7.604 -1.1034  1.1608 -1.0851
 8296SOL     OW36346   2.497   2.666   1.300 -0.7095  0.0281 -0.2149
 8296SOL    HW136347   2.541   2.696   1.220 -0.8849 -1.1658 -0.7690
 8296SOL    HW236348   2.470   2.742   1.352 -0.6302 -1.3758  1.8679
 8297SOL     OW36349   0.653   4.321   4.842  0.5352 -0.2174 -0.0088
 8297SOL    HW136350   0.561   4.346   4.842  0.1419 -1.6606 -0.7306
 8297SOL    HW236351   0.668   4.275   4.924  1.5022  0.9118  0.4583
 8298SOL     OW36352   3.089   0.774   2.803 -1.3424  0.1736  0.6764
 8298SOL    HW136353   3.066   0.712   2.872 -0.5494 -1.7007 -0.7500
 8298SOL    HW236354   3.008   0.772   2.752 -1.2502 -2.2192  0.6189
 8299SOL     OW36355   1.779   2.517  10.838  0.0667  0.2245  0.0081
 8299SOL    HW136356   1.868   2.526  10.804 -0.3553  1.9600 -0.6293
 8299SOL    HW236357   1.794   2.572  10.915 -1.3305  0.7854 -0.1266
 8300SOL     OW36358   3.367   4.283   4.161 -0.0513  0.1073  0.1584
 8300SOL    HW136359   3.288   4.295   4.109 -0.3073 -1.8903  0.1023
 8300SOL    HW236360   3.420   4.350   4.118  1.0226 -1.6253 -1.2242
 8301SOL     OW36361   3.721   4.653   2.495  0.1353 -0.2293  0.3989
 8301SOL    HW136362   3.683   4.580   2.445  0.5382 -1.1314  1.4171
 8301SOL    HW236363   3.754   4.703   2.420  1.9876  0.2177  1.5315
 8302SOL     OW36364   3.311   4.679   2.506 -0.7492  0.5232 -0.1099
 8302SOL    HW136365   3.336   0.036   2.451  1.6099  0.4162  0.8277
 8302SOL    HW236366   3.354   4.710   2.585 -0.5125  0.4966 -0.2282
 8303SOL     OW36367   2.256   2.478  16.462  0.1447  0.3068 -0.3477
 8303SOL    HW136368   2.298   2.560  16.489 -0.2921  1.0946 -2.0374
 8303SOL    HW236369   2.304   2.475  16.380  0.5473 -0.3447 -0.0804
 8304SOL     OW36370   1.986   2.057   5.744  0.1067  0.1941 -0.0722
 8304SOL    HW136371   1.940   1.973   5.749  1.4741 -0.5154  0.8242
 8304SOL    HW236372   1.947   2.110   5.813 -1.1891  1.4836 -1.7995
 8305SOL     OW36373   4.469   3.866   4.598 -0.2084 -0.1085 -0.0367
 8305SOL    HW136374   4.481   3.922   4.674  1.5755  0.9915 -1.1288
 8305SOL    HW236375   4.543   3.807   4.615 -0.0452 -0.2419 -1.1976
 8306SOL     OW36376   1.713   0.215   2.594  0.0902  0.0266 -0.1051
 8306SOL    HW136377   1.735   0.228   2.502 -1.7010  0.4204 -0.4794
 8306SOL    HW236378   1.620   0.194   2.587  0.5604 -2.5998  1.6824
 8307SOL     OW36379   3.796   2.567  15.658  0.0338 -0.3463 -0.1376
 8307SOL    HW136380   3.807   2.525  15.573  0.8394 -2.7005  1.1175
 8307SOL    HW236381   3.789   2.659  15.635 -1.3058 -0.6084 -0.7995
 8308SOL     OW36382   2.042   0.321   8.191 -0.5083  0.0419  0.0388
 8308SOL    HW136383   2.060   0.246   8.134  1.3458  0.1577  0.4762
 8308SOL    HW236384   2.131   0.316   8.226 -1.0671  0.2251  1.4564
 8309SOL     OW36385   3.349   0.004   7.748  0.3283  0.4468 -0.2809
 8309SOL    HW136386   3.316   4.632   7.752 -0.4573  0.7342 -0.3432
 8309SOL    HW236387   3.430   0.003   7.697 -0.2476  0.6087 -1.2006
 8310SOL     OW36388   2.998   0.335   4.582  0.3006 -0.4116  0.2288
 8310SOL    HW136389   3.001   0.258   4.638 -1.6621 -0.7749 -0.1452
 8310SOL    HW236390   2.908   0.356   4.607  0.1639 -1.0216  0.2593
 8311SOL     OW36391   4.519   2.945  12.029  0.5625 -0.2119 -0.2200
 8311SOL    HW136392   4.548   2.886  12.097  2.0660  0.5939 -0.1609
 8311SOL    HW236393   4.538   3.030  12.067 -0.7935 -0.0156  0.0226
 8312SOL     OW36394   0.853   3.635  14.688  0.2953 -0.5191 -0.0288
 8312SOL    HW136395   0.868   3.584  14.609  1.9488  0.4807 -0.3609
 8312SOL    HW236396   0.928   3.611  14.742  0.2705 -0.8108 -0.1248
 8313SOL     OW36397   2.697   4.259   3.889 -0.5466 -0.7970 -0.1207
 8313SOL    HW136398   2.607   4.279   3.915 -1.3150 -2.4981 -1.4242
 8313SOL    HW236399   2.727   4.341   3.849 -2.0628 -0.2449 -0.1362
 8314SOL     OW36400   3.460   1.692   4.622 -0.2357 -0.2343 -0.5319
 8314SOL    HW136401   3.389   1.730   4.674 -0.8019 -1.5135 -0.3671
 8314SOL    HW236402   3.482   1.611   4.668  1.4849  1.0966  1.0418
 8315SOL     OW36403   1.046   2.746   2.166 -0.3322 -0.4039  0.2390
 8315SOL    HW136404   1.099   2.692   2.225 -1.1941 -3.2909 -1.6179
 8315SOL    HW236405   0.981   2.679   2.144  0.0694 -0.9560  0.7410
 8316SOL     OW36406   0.882   2.629   5.129  0.1932 -0.0935  0.1596
 8316SOL    HW136407   0.884   2.685   5.206 -0.2756 -0.5591  0.5096
 8316SOL    HW236408   0.800   2.649   5.083  0.7597 -0.5063 -1.0581
 8317SOL     OW36409   4.154   0.195   6.520 -0.1200  0.1025  0.0230
 8317SOL    HW136410   4.233   0.249   6.513 -0.0713 -0.0826 -0.8543
 8317SOL    HW236411   4.096   0.267   6.546  0.4523 -0.6957  3.5822
 8318SOL     OW36412   3.062   0.785  14.238  0.8523 -0.0073 -0.9037
 8318SOL    HW136413   3.062   0.837  14.318 -1.9809  0.5459 -1.2784
 8318SOL    HW236414   3.124   0.715  14.260  1.5267  1.2872  1.2811
 8319SOL     OW36415   3.699   3.391  15.890 -0.5037 -0.4913  0.3580
 8319SOL    HW136416   3.777   3.417  15.939  0.0157 -0.9160 -0.2586
 8319SOL    HW236417   3.731   3.313  15.846  0.7250  0.2058  0.0280
 8320SOL     OW36418   2.729   3.981  11.949 -0.1042 -0.0583  0.1451
 8320SOL    HW136419   2.775   4.037  11.887  0.6420  0.0561  0.7916
 8320SOL    HW236420   2.780   4.006  12.026  0.0864 -0.4003  0.1317
 8321SOL     OW36421   2.691   3.283   4.760 -0.5430  0.3752  0.0555
 8321SOL    HW136422   2.684   3.296   4.854  1.9485 -3.4652  0.7417
 8321SOL    HW236423   2.785   3.284   4.747 -0.1478  0.0237  2.9568
 8322SOL     OW36424   1.874   3.943  15.789 -0.1643 -0.4655  0.2871
 8322SOL    HW136425   1.817   4.020  15.782 -0.5088 -0.6520  1.0974
 8322SOL    HW236426   1.882   3.926  15.695 -1.5543 -1.9375  0.4388
 8323SOL     OW36427   1.951   0.980   6.004  0.1262  0.0985  0.1207
 8323SOL    HW136428   2.031   0.990   6.055  0.2003 -0.4793  0.1159
 8323SOL    HW236429   1.962   0.885   5.996 -0.0280  0.1059 -0.1919
 8324SOL     OW36430   4.660   3.133   6.717  0.1356 -0.3101 -0.0353
 8324SOL    HW136431   4.583   3.120   6.663 -1.2776  1.8816  1.4724
 8324SOL    HW236432   4.716   3.182   6.656  0.2512 -0.1553  0.1916
 8325SOL     OW36433   3.778   3.226   2.569 -0.3307  0.2322 -0.1460
 8325SOL    HW136434   3.824   3.185   2.642 -0.5306 -0.1365 -0.2239
 8325SOL    HW236435   3.795   3.161   2.500 -0.0324 -0.5995  0.7054
 8326SOL     OW36436   2.620   3.726   2.591 -0.1723  0.5196  0.2974
 8326SOL    HW136437   2.684   3.687   2.652  1.0815 -2.1024 -2.6753
 8326SOL    HW236438   2.657   3.813   2.576  0.6923  0.3886  1.5699
 8327SOL     OW36439   3.671   0.035   3.421 -0.0581  0.2323  0.1795
 8327SOL    HW136440   3.580   0.056   3.441 -0.3496 -2.4335  1.6525
 8327SOL    HW236441   3.710   0.122   3.413 -2.0748  1.2151  1.1732
 8328SOL     OW36442   4.327   2.547   8.684  0.1621 -0.5310 -0.3952
 8328SOL    HW136443   4.273   2.469   8.691 -0.7457  0.2728  1.6597
 8328SOL    HW236444   4.401   2.494   8.655  2.7645  1.3766  2.6847
 8329SOL     OW36445   1.344   1.498  15.743 -0.2903  0.3310  0.0090
 8329SOL    HW136446   1.400   1.444  15.799  0.9978  1.5525 -0.1126
 8329SOL    HW236447   1.278   1.433  15.717 -1.4082  0.8511  1.4993
 8330SOL     OW36448   4.218   2.353   2.861  0.8855 -0.0106  0.0602
 8330SOL    HW136449   4.202   2.276   2.915  0.4149  0.8593  1.1702
 8330SOL    HW236450   4.314   2.346   2.858  0.9185 -0.0181  1.0004
 8331SOL     OW36451   0.089   1.386   6.373 -0.0811  0.2632 -0.3084
 8331SOL    HW136452   0.103   1.309   6.317  0.3065  1.4303 -1.8163
 8331SOL    HW236453   4.711   1.379   6.385 -0.1601  2.2308  0.2544
 8332SOL     OW36454   4.521   3.316  10.673  0.3389  0.3846  0.0522
 8332SOL    HW136455   4.455   3.247  10.677 -0.2816  1.0364  1.3381
 8332SOL    HW236456   4.499   3.373  10.747  2.2071 -0.6307  1.3888
 8333SOL     OW36457   4.111   0.809   6.007 -0.4193 -0.1721 -0.6368
 8333SOL    HW136458   4.166   0.887   6.001 -0.5963  0.0217  0.3109
 8333SOL    HW236459   4.040   0.820   5.942 -0.0720 -1.5633 -1.2489
 8334SOL     OW36460   4.373   2.723   9.389 -0.5605  0.3938  0.3974
 8334SOL    HW136461   4.444   2.770   9.346  1.7240 -3.1539  0.3157
 8334SOL    HW236462   4.331   2.693   9.308  1.5937 -0.8856 -0.2399
 8335SOL     OW36463   2.523   2.090   4.166  0.6130 -0.0721  0.9378
 8335SOL    HW136464   2.575   2.171   4.173  0.8559 -0.0269 -1.4359
 8335SOL    HW236465   2.441   2.139   4.167  0.1093 -0.9049 -0.5747
 8336SOL     OW36466   2.251   3.170  13.040  0.2684  0.1458  0.3516
 8336SOL    HW136467   2.180   3.205  13.093  1.7257 -1.6562  3.5092
 8336SOL    HW236468   2.289   3.109  13.104  0.0009 -1.9589 -1.4924
 8337SOL     OW36469   0.338   0.334   6.451 -0.5815 -0.2440 -0.4122
 8337SOL    HW136470   0.293   0.305   6.530  0.1197  2.9134  1.1380
 8337SOL    HW236471   0.261   0.343   6.396  0.9157 -0.1272 -2.5108
 8338SOL     OW36472   2.806   0.264   5.580 -0.4710 -0.7151 -0.2081
 8338SOL    HW136473   2.865   0.322   5.628 -1.4206 -0.2388  0.3725
 8338SOL    HW236474   2.849   0.260   5.494 -0.5648  1.1041 -0.3261
 8339SOL     OW36475   3.482   2.899  15.476  0.9096  0.8036 -0.4229
 8339SOL    HW136476   3.555   2.845  15.505 -1.2167 -1.3859  0.9076
 8339SOL    HW236477   3.500   2.977  15.528 -1.1442 -0.5377  2.3379
 8340SOL     OW36478   0.734   0.137  14.385  0.0724  0.3454 -0.1212
 8340SOL    HW136479   0.664   0.162  14.324 -2.1449 -0.7497  1.9759
 8340SOL    HW236480   0.693   0.157  14.469  2.6598 -1.3811  1.5528
 8341SOL     OW36481   1.928   2.464   4.140 -0.9785  0.6733  0.4643
 8341SOL    HW136482   1.847   2.432   4.180 -0.7176  1.3760  1.5267
 8341SOL    HW236483   1.996   2.413   4.184 -0.8139  1.0380  0.6235
 8342SOL     OW36484   0.110   3.761   7.947  0.5300  0.2728  0.2056
 8342SOL    HW136485   0.187   3.706   7.965  1.1042  1.1084  0.2901
 8342SOL    HW236486   0.036   3.706   7.922  0.6569  0.4467 -0.5438
 8343SOL     OW36487   1.166   3.220   7.332 -0.4322 -0.0464  0.0838
 8343SOL    HW136488   1.147   3.240   7.423 -1.0106  1.9442 -0.4665
 8343SOL    HW236489   1.151   3.126   7.331 -0.9102  0.0079  2.4108
 8344SOL     OW36490   4.118   1.109   3.573  0.9831 -0.2172  0.3885
 8344SOL    HW136491   4.080   1.104   3.661  0.8720 -1.9835  0.2498
 8344SOL    HW236492   4.066   1.048   3.520  0.7860 -1.6508  2.2011
 8345SOL     OW36493   2.049   4.403   2.549 -0.2333  0.0307 -0.3642
 8345SOL    HW136494   2.093   4.385   2.632  2.3567  1.5559 -1.3764
 8345SOL    HW236495   2.065   4.494   2.526 -1.1516 -0.7036 -3.9272
 8346SOL     OW36496   4.222   3.555   6.730  0.1216 -0.0277 -1.2209
 8346SOL    HW136497   4.161   3.628   6.740  0.5367  0.4264 -2.0075
 8346SOL    HW236498   4.237   3.565   6.636 -0.3460  0.8447 -1.2011
 8347SOL     OW36499   0.617   2.453   2.131 -0.0487 -0.0447 -0.0334
 8347SOL    HW136500   0.533   2.420   2.099  0.8447 -0.4083 -1.9966
 8347SOL    HW236501   0.637   2.382   2.192  1.0778  0.2102 -0.1224
 8348SOL     OW36502   2.597   4.205   4.990 -0.4664  0.2243  0.0023
 8348SOL    HW136503   2.563   4.177   4.905  0.9069  0.0824 -0.5116
 8348SOL    HW236504   2.524   4.197   5.051 -1.3924  4.7799 -0.5475
 8349SOL     OW36505   3.188   0.173   1.766  0.2517  0.0277  0.4436
 8349SOL    HW136506   3.188   0.219   1.682  0.5691 -2.1157 -0.7416
 8349SOL    HW236507   3.121   0.106   1.749  1.1060 -0.7442  0.0855
 8350SOL     OW36508   1.579   0.448   7.819 -0.3339 -0.8079 -0.2386
 8350SOL    HW136509   1.582   0.429   7.913  0.9658 -1.6954 -0.4543
 8350SOL    HW236510   1.525   0.376   7.787  0.2783 -0.2489 -2.5584
 8351SOL     OW36511   3.537   0.098   9.862  0.0452  0.4323 -0.0678
 8351SOL    HW136512   3.542   0.119   9.769  0.7980 -0.6292 -0.2654
 8351SOL    HW236513   3.500   0.182   9.888 -0.1829 -0.1399  1.4954
 8352SOL     OW36514   0.207   1.915   3.016  0.3123 -0.2021  0.1640
 8352SOL    HW136515   0.300   1.916   2.994 -0.1194  2.4149 -1.6326
 8352SOL    HW236516   0.171   1.878   2.935 -0.9182 -0.1991  0.6964
 8353SOL     OW36517   4.468   0.548   0.817  0.6371 -0.6525 -0.0818
 8353SOL    HW136518   4.552   0.559   0.773 -1.1958  0.9123 -3.1665
 8353SOL    HW236519   4.414   0.595   0.753 -1.2122 -0.9847  1.2426
 8354SOL     OW36520   2.331   3.614   5.993  0.2843  0.0605 -0.1055
 8354SOL    HW136521   2.387   3.542   5.964 -1.3121 -0.6016 -1.5497
 8354SOL    HW236522   2.396   3.669   6.036  1.6070 -1.5303 -0.0814
 8355SOL     OW36523   0.550   2.090  17.586 -0.2481 -0.1970 -0.2672
 8355SOL    HW136524   0.621   2.153  17.576 -0.3719  0.1610  1.1112
 8355SOL    HW236525   0.527   2.118   0.002 -1.0588 -2.6042  0.2916
 8356SOL     OW36526   2.311   1.159  11.412 -0.4949  0.3741 -0.0616
 8356SOL    HW136527   2.259   1.110  11.348  1.0263  0.0129 -1.0279
 8356SOL    HW236528   2.393   1.161  11.363 -0.2580 -0.1838  0.3086
 8357SOL     OW36529   4.603   3.095   8.832 -0.4121  0.5474 -0.3271
 8357SOL    HW136530   4.680   3.081   8.887 -1.7979 -0.5818  1.3278
 8357SOL    HW236531   4.642   3.136   8.755 -0.6646 -0.2861 -0.9059
 8358SOL     OW36532   2.981   4.608   3.749  0.0682 -0.6305 -0.0052
 8358SOL    HW136533   2.903   4.563   3.784  1.5125 -1.3396  2.3215
 8358SOL    HW236534   2.959   4.701   3.736 -1.1719 -1.2192 -1.9951
 8359SOL     OW36535   0.061   3.326   8.493  0.0742  0.8971 -0.4369
 8359SOL    HW136536   0.134   3.359   8.441 -0.8183  3.0097 -0.3425
 8359SOL    HW236537   0.107   3.322   8.577 -1.7667  2.1321  0.6288
 8360SOL     OW36538   1.717   1.648   8.547 -0.3846  0.2107 -0.7541
 8360SOL    HW136539   1.634   1.632   8.503 -0.1120 -2.9574 -0.0817
 8360SOL    HW236540   1.685   1.705   8.617  1.4027  0.8276 -0.4309
 8361SOL     OW36541   0.608   3.246   3.074 -0.2980  0.5760 -0.4968
 8361SOL    HW136542   0.518   3.234   3.044  0.1811 -0.4971 -1.5054
 8361SOL    HW236543   0.595   3.320   3.133  2.2647  0.0775  0.6552
 8362SOL     OW36544   1.719   1.322   0.258  0.7825 -0.3256 -0.4876
 8362SOL    HW136545   1.703   1.367   0.341  3.5437  0.2457 -0.2866
 8362SOL    HW236546   1.724   1.232   0.290  0.0613 -0.9475 -2.1215
 8363SOL     OW36547   1.269   4.099   2.447  0.0785  0.1547  0.3228
 8363SOL    HW136548   1.217   4.029   2.488 -0.5553 -0.1368 -0.9809
 8363SOL    HW236549   1.357   4.070   2.472 -0.0832  1.0159  1.8499
 8364SOL     OW36550   1.432   2.131   7.951  0.0769  0.3317 -0.4737
 8364SOL    HW136551   1.393   2.136   8.038  0.5085 -0.2133 -0.2474
 8364SOL    HW236552   1.375   2.062   7.916 -1.1700  0.8988  0.4360
 8365SOL     OW36553   3.152   1.561   2.649  0.1431  0.1411 -0.0419
 8365SOL    HW136554   3.091   1.632   2.669  0.0117 -0.4984  1.8445
 8365SOL    HW236555   3.217   1.557   2.720  1.3249 -0.2704 -1.1454
 8366SOL     OW36556   1.769   1.090  17.613 -0.2997 -0.3820 -0.1079
 8366SOL    HW136557   1.695   1.040  17.645  0.5764 -2.2824 -1.0542
 8366SOL    HW236558   1.839   1.067   0.001  1.1155  2.9028 -0.4635
 8367SOL     OW36559   1.595   0.024   7.797 -0.4007 -0.3742  0.2363
 8367SOL    HW136560   1.557   0.052   7.881  0.9408 -0.0388  0.7317
 8367SOL    HW236561   1.566   4.651   7.796 -2.1556  0.1834 -0.0777
 8368SOL     OW36562   4.291   2.222   4.118 -0.3634 -0.5585 -0.4461
 8368SOL    HW136563   4.337   2.153   4.165 -0.5976 -0.0317  0.5637
 8368SOL    HW236564   4.342   2.234   4.038  2.0522 -1.3653  0.9794
 8369SOL     OW36565   1.356   1.566   8.966 -0.4489  0.0916 -0.7861
 8369SOL    HW136566   1.286   1.631   8.957 -0.6286 -0.0527 -0.4148
 8369SOL    HW236567   1.355   1.542   9.059 -1.8772 -0.0583 -0.8505
 8370SOL     OW36568   0.301   0.908   8.394 -0.3715  0.3072 -0.5674
 8370SOL    HW136569   0.248   0.838   8.433  0.8480  0.7550  1.9454
 8370SOL    HW236570   0.234   0.952   8.341 -0.5084 -0.3473 -0.9307
 8371SOL     OW36571   2.026   4.424   8.535 -0.2138  0.0610 -0.2735
 8371SOL    HW136572   2.039   4.518   8.520  1.5433 -0.3761 -1.5280
 8371SOL    HW236573   2.070   4.390   8.457  1.7949  3.0844 -0.4582
 8372SOL     OW36574   3.145   4.020  11.250 -0.3070 -0.6470 -0.1492
 8372SOL    HW136575   3.214   4.055  11.306 -1.6088  1.3906  0.1775
 8372SOL    HW236576   3.208   3.967  11.200 -0.1213 -0.8671  0.3187
 8373SOL     OW36577   2.100   1.918   4.048  0.4364  0.3486  0.1518
 8373SOL    HW136578   2.050   1.942   3.970  1.3673  1.6673 -0.0368
 8373SOL    HW236579   2.058   1.837   4.079 -2.7146  1.5610 -0.9249
 8374SOL     OW36580   2.360   4.397   0.735  0.1607 -0.3857 -0.3574
 8374SOL    HW136581   2.357   4.311   0.693 -1.2179  0.2996 -1.6332
 8374SOL    HW236582   2.268   4.420   0.749  0.6101  0.7785  0.7510
 8375SOL     OW36583   0.273   4.541   5.225 -0.6481  0.4507 -1.0586
 8375SOL    HW136584   0.339   4.556   5.157  0.2864 -0.2023 -0.2960
 8375SOL    HW236585   0.288   4.447   5.232  2.7515  1.0389 -0.0490
 8376SOL     OW36586   1.236   0.715  15.834  0.4100 -0.6338 -0.1917
 8376SOL    HW136587   1.175   0.650  15.801 -0.6515 -1.0285  2.5747
 8376SOL    HW236588   1.235   0.774  15.759  0.5938  0.5246  0.7182
 8377SOL     OW36589   1.065   2.238   0.086  0.4731  0.7619  0.4886
 8377SOL    HW136590   1.012   2.297   0.140 -0.2841  2.3679 -2.0038
 8377SOL    HW236591   1.152   2.278   0.091  0.6141  0.6040 -0.7681
 8378SOL     OW36592   0.588   2.852   8.456 -0.2876  0.0964  0.3978
 8378SOL    HW136593   0.513   2.911   8.447 -0.0533  0.4508  0.7952
 8378SOL    HW236594   0.639   2.891   8.385 -0.2741  0.1598  0.4434
 8379SOL     OW36595   1.785   4.653  14.845  0.1417 -0.3561 -0.2811
 8379SOL    HW136596   1.864   4.681  14.892 -0.4660  0.7079  0.0938
 8379SOL    HW236597   1.799   4.686  14.756 -1.0620 -0.9383 -0.6884
 8380SOL     OW36598   3.248   4.193   8.194 -0.5596  0.3012  0.4457
 8380SOL    HW136599   3.166   4.184   8.242 -0.5533  0.5699  0.5056
 8380SOL    HW236600   3.299   4.137   8.254 -2.8232 -2.1555  0.0629
 8381SOL     OW36601   1.292   3.047  12.880 -0.1061 -0.8034 -0.0500
 8381SOL    HW136602   1.343   3.121  12.912 -4.2875  1.9489  0.3589
 8381SOL    HW236603   1.307   2.985  12.951  0.5887 -0.7668 -0.1708
 8382SOL     OW36604   3.852   4.688   5.431  0.1333  0.0783  0.3797
 8382SOL    HW136605   3.901   4.716   5.354  0.0315  2.0405  1.0300
 8382SOL    HW236606   3.771   0.019   5.442  0.4279  0.8402 -0.7833
 8383SOL     OW36607   4.391   0.730   6.856 -0.0901  0.1988  0.2191
 8383SOL    HW136608   4.456   0.660   6.852 -0.7420 -0.4252  0.5448
 8383SOL    HW236609   4.368   0.720   6.949  1.9321  1.0509  0.8017
 8384SOL     OW36610   1.952   0.194  10.913  0.1925 -0.0113 -0.0108
 8384SOL    HW136611   1.963   0.102  10.890  0.6783  0.2197 -0.7066
 8384SOL    HW236612   1.963   0.241  10.830 -0.2380 -0.3160 -0.2383
 8385SOL     OW36613   1.147   4.591   8.457 -0.2478  0.6325  0.7350
 8385SOL    HW136614   1.181   4.502   8.449 -0.5190  0.5409  0.6086
 8385SOL    HW236615   1.106   4.597   8.544  0.1000 -0.7070  0.9976
 8386SOL     OW36616   3.661   1.115  16.485 -0.3154  0.3544  0.7184
 8386SOL    HW136617   3.753   1.133  16.501  0.0207  0.5860 -1.4828
 8386SOL    HW236618   3.658   1.125  16.390  0.3704  1.4254  0.8165
 8387SOL     OW36619   4.581   3.727  10.105  0.1932  0.1031  0.1277
 8387SOL    HW136620   4.664   3.703  10.147  0.2330 -0.8408 -0.4795
 8387SOL    HW236621   4.542   3.642  10.084  1.9367 -0.7485  0.3255
 8388SOL     OW36622   1.761   3.515   2.181 -0.2891 -0.4750 -0.2650
 8388SOL    HW136623   1.681   3.562   2.158  0.5330  1.1078  0.1507
 8388SOL    HW236624   1.743   3.483   2.270 -1.3170 -0.2702 -0.3936
 8389SOL     OW36625   2.481   1.397   4.666  0.3302  0.2972 -0.0550
 8389SOL    HW136626   2.514   1.479   4.703  2.1849  1.0097 -3.3373
 8389SOL    HW236627   2.525   1.400   4.582 -1.3390 -1.2746 -0.9780
 8390SOL     OW36628   3.910   3.861   7.288  0.3723 -0.4462  0.6093
 8390SOL    HW136629   3.853   3.847   7.363  0.4832  0.1165  0.7994
 8390SOL    HW236630   3.878   3.795   7.227 -0.7886 -0.3864  1.1590
 8391SOL     OW36631   1.302   3.710   7.252 -0.0889  0.5338  0.1328
 8391SOL    HW136632   1.354   3.687   7.175 -1.4394 -0.9309 -0.3566
 8391SOL    HW236633   1.286   3.621   7.285  2.8640 -0.7913 -2.0708
 8392SOL     OW36634   3.383   1.395   3.110  0.1735 -0.5620  0.2905
 8392SOL    HW136635   3.394   1.459   3.039  0.1288 -1.3560 -0.4305
 8392SOL    HW236636   3.461   1.342   3.093  1.2707  0.7430  1.2300
 8393SOL     OW36637   4.152   4.099   5.613 -0.2747 -0.6913 -0.2455
 8393SOL    HW136638   4.173   4.011   5.583  2.4492 -0.1708  0.1862
 8393SOL    HW236639   4.071   4.118   5.566 -0.1398 -3.1687 -1.4853
 8394SOL     OW36640   0.200   2.771   6.313 -0.2042 -0.3003 -0.4796
 8394SOL    HW136641   0.175   2.679   6.303 -0.8761 -0.4978  3.0260
 8394SOL    HW236642   0.115   2.807   6.340 -0.2850  0.8097 -2.2221
 8395SOL     OW36643   4.626   3.073   7.453  0.3139  0.5025  0.7092
 8395SOL    HW136644   4.680   3.032   7.521 -0.7419 -1.6441  0.2528
 8395SOL    HW236645   4.669   3.037   7.375 -1.0898  1.1619 -0.3830
 8396SOL     OW36646   4.633   2.234  16.028 -0.4762 -0.2754 -0.3405
 8396SOL    HW136647   0.005   2.208  16.004 -0.6986  1.5797 -3.1342
 8396SOL    HW236648   4.614   2.300  15.962 -0.7857 -0.7703 -0.7532
 8397SOL     OW36649   0.671   1.105   5.871  0.1087 -0.2973 -0.0982
 8397SOL    HW136650   0.618   1.114   5.791  0.1943 -0.1228 -0.1351
 8397SOL    HW236651   0.756   1.136   5.838 -0.8595  1.2381 -1.1508
 8398SOL     OW36652   0.094   2.536   4.307 -0.0015  0.1093 -0.0416
 8398SOL    HW136653   0.166   2.560   4.249 -1.0802  1.6740 -0.7369
 8398SOL    HW236654   0.027   2.570   4.249  1.2355  2.5912  0.0007
 8399SOL     OW36655   0.132   4.635   8.517 -0.3198 -0.1713 -0.2628
 8399SOL    HW136656   0.167   4.554   8.481  1.6549  0.4676  0.2077
 8399SOL    HW236657   0.071   4.611   8.587  0.1496 -0.8850 -0.1083
 8400SOL     OW36658   1.624   3.629   6.264 -0.0071  0.0564 -0.1696
 8400SOL    HW136659   1.589   3.563   6.205  0.8288 -1.6088  1.2148
 8400SOL    HW236660   1.575   3.611   6.344 -1.2385 -3.6459 -1.7937
 8401SOL     OW36661   2.072   3.472   1.228  0.2255 -0.2569  0.6169
 8401SOL    HW136662   2.160   3.464   1.192 -1.2314  1.2378 -3.3249
 8401SOL    HW236663   2.082   3.557   1.272  0.8086  0.2757 -0.5532
 8402SOL     OW36664   3.797   1.847   7.539  0.4523 -0.1912  0.0667
 8402SOL    HW136665   3.750   1.827   7.620  0.2445  1.2175  0.2972
 8402SOL    HW236666   3.827   1.934   7.565  0.1376 -0.2133  0.5023
 8403SOL     OW36667   3.263   3.170   4.630  0.5783  0.0771  0.0889
 8403SOL    HW136668   3.249   3.078   4.606  1.5983 -1.0216  3.7796
 8403SOL    HW236669   3.306   3.202   4.550  0.5397  0.6862  0.3127
 8404SOL     OW36670   3.027   4.027   1.651 -1.1278 -0.3755  0.2095
 8404SOL    HW136671   2.949   4.050   1.601  0.2208 -0.3031 -1.8872
 8404SOL    HW236672   3.002   3.945   1.693 -1.2026  1.2665  3.3487
 8405SOL     OW36673   1.068   1.282   5.110 -0.2477  0.2843 -0.1421
 8405SOL    HW136674   1.045   1.189   5.108  1.2903 -0.0402 -2.6950
 8405SOL    HW236675   0.995   1.315   5.162 -0.6971 -1.6938  0.4717
 8406SOL     OW36676   4.033   2.515   9.410  0.1113  0.7233 -0.4619
 8406SOL    HW136677   4.113   2.476   9.373 -0.5652 -0.4323 -0.7144
 8406SOL    HW236678   3.997   2.441   9.459  0.3337  1.0185  0.1514
 8407SOL     OW36679   2.616   2.273  15.630  0.1173  0.0259 -0.1230
 8407SOL    HW136680   2.711   2.277  15.638  0.2634 -1.9520 -0.7437
 8407SOL    HW236681   2.592   2.210  15.699  1.5760 -0.4627 -0.0675
 8408SOL     OW36682   3.254   4.357   4.851  0.0807  0.0534  0.3043
 8408SOL    HW136683   3.200   4.382   4.776  0.0949  0.6064  0.4779
 8408SOL    HW236684   3.196   4.286   4.878  0.5346 -0.2363  0.5009
 8409SOL     OW36685   1.496   1.335   0.515 -0.1550  0.2965  0.1940
 8409SOL    HW136686   1.527   1.415   0.555  0.1990  0.0502  0.4108
 8409SOL    HW236687   1.540   1.274   0.574 -1.2048  0.9857  1.6961
 8410SOL     OW36688   1.642   2.796   2.592 -0.3753  0.7507 -0.0937
 8410SOL    HW136689   1.719   2.852   2.603  0.6027 -0.7153  0.5321
 8410SOL    HW236690   1.683   2.719   2.633 -3.1199  0.6080  2.3729
 8411SOL     OW36691   1.980   0.468   8.565  0.2722 -0.1465  0.2599
 8411SOL    HW136692   1.995   0.553   8.605 -1.0347 -0.0408  0.5393
 8411SOL    HW236693   1.981   0.489   8.471  0.0404  2.1102  0.7720
 8412SOL     OW36694   3.606   3.307   4.469  0.0844 -0.0265  0.0869
 8412SOL    HW136695   3.619   3.392   4.511 -2.2712 -1.0845  2.9051
 8412SOL    HW236696   3.516   3.298   4.438  0.5695  1.7600 -1.8516
 8413SOL     OW36697   0.346   4.362   8.772 -0.5161 -0.0096 -0.0971
 8413SOL    HW136698   0.274   4.306   8.802  0.3309 -2.0323 -1.7638
 8413SOL    HW236699   0.408   4.336   8.841 -2.8492 -0.3962  1.8548
 8414SOL     OW36700   3.329   2.632   4.460 -0.0710  0.0840 -0.3173
 8414SOL    HW136701   3.305   2.547   4.498 -2.3503  0.9139  0.1055
 8414SOL    HW236702   3.280   2.641   4.379 -0.4915  0.4361 -0.0228
 8415SOL     OW36703   1.747   4.335   3.874  0.1912 -0.2025 -0.5221
 8415SOL    HW136704   1.747   4.414   3.928 -0.9376 -0.1242 -0.6324
 8415SOL    HW236705   1.754   4.383   3.792 -2.9202  2.6700  0.8933
 8416SOL     OW36706   1.416   1.201   8.219 -0.1389 -0.1928 -0.4718
 8416SOL    HW136707   1.468   1.273   8.256  0.9962 -2.2378  1.9283
 8416SOL    HW236708   1.475   1.164   8.154  0.8185  1.3541 -0.4906
 8417SOL     OW36709   2.813   1.912   3.078 -0.4838  0.3150  0.1665
 8417SOL    HW136710   2.892   1.872   3.114 -1.1577  0.0010  1.2663
 8417SOL    HW236711   2.758   1.917   3.156  0.9936 -0.8510  1.2916
 8418SOL     OW36712   2.129   3.390   2.712  0.3056 -0.8558  0.3238
 8418SOL    HW136713   2.081   3.425   2.637  1.0083 -1.1281 -0.2516
 8418SOL    HW236714   2.172   3.472   2.740  1.0718 -0.7401 -1.1894
 8419SOL     OW36715   1.303   0.920   9.041 -0.5429  0.5209 -0.4811
 8419SOL    HW136716   1.283   1.013   9.048 -0.9280  0.4333 -0.4077
 8419SOL    HW236717   1.254   0.894   9.119 -1.0026  2.0334 -0.2751
 8420SOL     OW36718   3.454   3.218   4.128 -0.4386 -0.1420  0.2658
 8420SOL    HW136719   3.435   3.141   4.074  2.6465 -1.2367  0.7192
 8420SOL    HW236720   3.534   3.253   4.088 -0.0539 -0.2176  0.9727
 8421SOL     OW36721   3.837   0.924   6.089  0.0494 -0.2272 -0.1229
 8421SOL    HW136722   3.927   0.894   6.077  0.4509  0.9299 -0.0526
 8421SOL    HW236723   3.781   0.848   6.071  0.4332 -1.0356  2.1172
 8422SOL     OW36724   3.724   2.333   2.035 -0.3140  0.7989  0.0624
 8422SOL    HW136725   3.718   2.253   2.088  0.1413  2.4144  2.5775
 8422SOL    HW236726   3.818   2.336   2.014 -0.2667  0.4569  0.2205
 8423SOL     OW36727   2.963   2.782   3.942  0.7446  0.4002  0.0993
 8423SOL    HW136728   2.972   2.702   3.993  0.1895  0.1659 -0.1647
 8423SOL    HW236729   2.897   2.762   3.875  0.5716  0.1788  0.3333
 8424SOL     OW36730   3.311   2.254   3.895 -0.4997  0.0746  0.5031
 8424SOL    HW136731   3.400   2.277   3.866  0.4385  0.2967  3.5416
 8424SOL    HW236732   3.311   2.163   3.864  1.2188  0.0664  0.5039
 8425SOL     OW36733   0.983   0.849   7.433  0.1346  0.4270  0.7702
 8425SOL    HW136734   0.899   0.856   7.388 -0.7073  1.8862  2.5930
 8425SOL    HW236735   0.953   0.901   7.508  0.5865  3.6510 -1.2962
 8426SOL     OW36736   2.652   4.412   2.551 -0.4047 -0.4608 -0.0621
 8426SOL    HW136737   2.694   4.443   2.470  0.1274 -1.6891 -0.2595
 8426SOL    HW236738   2.716   4.425   2.621 -0.2655  0.2116 -0.3122
 8427SOL     OW36739   0.473   1.385   2.174 -0.0291 -0.0851  0.5293
 8427SOL    HW136740   0.474   1.295   2.208 -1.0542 -0.1654  0.3733
 8427SOL    HW236741   0.414   1.435   2.230  0.9136 -0.0363  1.4717
 8428SOL     OW36742   3.264   2.090   6.128  0.3547 -0.4183 -0.4228
 8428SOL    HW136743   3.335   2.129   6.076  1.5189 -0.7254  0.9254
 8428SOL    HW236744   3.250   2.012   6.075  1.8388 -0.5433 -0.6422
 8429SOL     OW36745   2.279   3.992  11.426  0.5824  0.6511 -0.8066
 8429SOL    HW136746   2.324   4.076  11.440  0.4769  0.4318  0.8575
 8429SOL    HW236747   2.297   3.943  11.506  0.4055  1.2970 -0.3714
 8430SOL     OW36748   4.055   0.151   8.128 -0.3737  0.4836 -0.0530
 8430SOL    HW136749   4.031   0.178   8.039 -1.7548 -1.6997 -0.3335
 8430SOL    HW236750   3.981   0.096   8.153 -0.4952 -0.1052 -1.6856
 8431SOL     OW36751   4.143   4.363   5.386 -0.6662  0.1939 -0.4576
 8431SOL    HW136752   4.084   4.295   5.417 -0.2170  0.9540  2.0627
 8431SOL    HW236753   4.086   4.392   5.315  0.5464 -0.4247 -1.6746
 8432SOL     OW36754   2.289   0.880   3.971  0.3665  0.0998  0.5496
 8432SOL    HW136755   2.298   0.886   3.876 -1.9191  1.4104  0.4042
 8432SOL    HW236756   2.194   0.892   3.985 -0.0043  0.3442 -2.2196
 8433SOL     OW36757   3.596   3.891   6.856 -0.3580  0.2589 -0.2363
 8433SOL    HW136758   3.614   3.820   6.917  0.3473  1.3809  0.8687
 8433SOL    HW236759   3.604   3.853   6.769 -1.7035 -1.8236  0.5556
 8434SOL     OW36760   3.365   0.665   1.138 -0.1282 -0.0435  0.1335
 8434SOL    HW136761   3.383   0.687   1.230  3.0502  1.2452 -0.7839
 8434SOL    HW236762   3.448   0.695   1.101 -0.5024  0.7673 -0.0499
 8435SOL     OW36763   4.677   1.353  11.704 -0.3383  0.0026  0.2388
 8435SOL    HW136764   4.707   1.370  11.794 -1.0411 -0.7561  0.6114
 8435SOL    HW236765   0.033   1.306  11.665  0.7039  2.5126 -0.7945
 8436SOL     OW36766   3.767   3.602   0.047  0.0019 -0.0249 -0.3466
 8436SOL    HW136767   3.740   3.557  17.640 -0.1465  0.4191 -0.5518
 8436SOL    HW236768   3.854   3.564   0.047 -0.1195 -0.3168 -1.3617
 8437SOL     OW36769   1.677   3.813   2.852  0.4665 -0.1462  0.2241
 8437SOL    HW136770   1.631   3.897   2.855 -2.7335 -1.9534  1.4344
 8437SOL    HW236771   1.767   3.846   2.841  0.4995 -1.1241 -2.4359
 8438SOL     OW36772   3.312   2.194  10.825 -0.4263  0.1149 -0.1077
 8438SOL    HW136773   3.250   2.154  10.886  0.2613  0.8787  1.1080
 8438SOL    HW236774   3.258   2.212  10.748  0.2775 -1.2348 -0.9112
 8439SOL     OW36775   3.806   1.734   3.808 -0.4880 -0.3323  0.2660
 8439SOL    HW136776   3.864   1.681   3.863  1.2681  1.6034  0.3111
 8439SOL    HW236777   3.722   1.703   3.842 -1.5093  4.2534  1.9533
 8440SOL     OW36778   3.671   1.207   9.621  0.3233 -0.3164 -0.2608
 8440SOL    HW136779   3.661   1.185   9.528 -0.7565 -2.5844  0.3815
 8440SOL    HW236780   3.613   1.146   9.667  0.3437 -1.3557 -1.6187
 8441SOL     OW36781   4.081   1.306   2.400 -0.1792 -0.4318 -0.0333
 8441SOL    HW136782   4.115   1.321   2.311 -0.4361 -3.1186 -0.5714
 8441SOL    HW236783   4.140   1.373   2.436  0.9279 -1.8059  0.7215
 8442SOL     OW36784   2.839   4.307   5.814 -0.1096 -0.6505  0.1320
 8442SOL    HW136785   2.884   4.385   5.846  1.6622 -0.5942 -2.4582
 8442SOL    HW236786   2.748   4.330   5.801 -0.4151 -0.8982  1.8243
 8443SOL     OW36787   2.782   3.292   6.644 -0.1507 -0.1025  0.8090
 8443SOL    HW136788   2.776   3.200   6.618 -1.6938 -0.8582  3.7775
 8443SOL    HW236789   2.786   3.338   6.561  0.4632  0.1987  1.0063
 8444SOL     OW36790   0.354   0.550   8.603  0.5627  0.5170  0.4208
 8444SOL    HW136791   0.261   0.529   8.610  0.7783 -0.3437  0.6624
 8444SOL    HW236792   0.389   0.472   8.647  0.7952 -0.0664 -0.8072
 8445SOL     OW36793   1.908   3.580   1.926  0.1293  0.1072 -0.2594
 8445SOL    HW136794   1.990   3.625   1.907 -0.2521  1.2142  0.6472
 8445SOL    HW236795   1.851   3.631   1.868 -1.4140 -1.0595  0.2052
 8446SOL     OW36796   4.364   3.675   3.750 -0.1317  0.1588  0.0701
 8446SOL    HW136797   4.285   3.621   3.748 -0.3160  0.4164  0.4156
 8446SOL    HW236798   4.366   3.725   3.832  0.1170 -0.1700  0.2635
 8447SOL     OW36799   4.087   0.774   2.991 -0.0135  0.4167 -0.5762
 8447SOL    HW136800   4.143   0.838   3.036 -1.9237  1.6169  0.0871
 8447SOL    HW236801   4.031   0.834   2.941 -1.2955 -1.0830 -0.9352
 8448SOL     OW36802   2.573   1.351  14.011  0.0502  0.8841 -0.3013
 8448SOL    HW136803   2.477   1.357  14.015  0.0024 -0.5701  0.8273
 8448SOL    HW236804   2.573   1.389  14.098 -2.0165 -0.6478  0.3700
 8449SOL     OW36805   3.830   3.474   6.804  0.0048 -0.0117 -0.0723
 8449SOL    HW136806   3.835   3.379   6.794 -0.3878 -0.1562  1.0930
 8449SOL    HW236807   3.919   3.502   6.785  0.3034 -0.4746  0.6639
 8450SOL     OW36808   2.722   1.565   5.478  0.3766  0.1738 -0.0637
 8450SOL    HW136809   2.708   1.481   5.522  1.7388  0.9186  1.8101
 8450SOL    HW236810   2.634   1.579   5.444 -0.8810 -3.9111  1.4698
 8451SOL     OW36811   2.644   2.562   8.898 -0.3093 -0.3357  0.1807
 8451SOL    HW136812   2.570   2.539   8.955 -0.9379 -0.6596 -0.7590
 8451SOL    HW236813   2.685   2.477   8.884 -2.5716 -1.4003 -0.0456
 8452SOL     OW36814   3.129   0.755   0.980 -0.1350 -0.2963 -0.0649
 8452SOL    HW136815   3.181   0.712   1.048  2.0435  1.9582 -0.3135
 8452SOL    HW236816   3.189   0.743   0.906 -2.2458  1.4878 -2.0400
 8453SOL     OW36817   4.326   2.761   3.293  0.3703 -0.0077 -0.3899
 8453SOL    HW136818   4.379   2.812   3.232 -1.3058  0.1165 -1.7664
 8453SOL    HW236819   4.383   2.684   3.297 -0.6300 -0.7176  0.2411
 8454SOL     OW36820   1.160   2.686  11.790  0.2327  0.4704  0.1245
 8454SOL    HW136821   1.080   2.726  11.823 -0.1206  0.8240 -1.1549
 8454SOL    HW236822   1.134   2.597  11.763 -1.6975  0.7619  1.0331
 8455SOL     OW36823   3.890   1.231   2.545  0.4618 -0.2221 -0.6015
 8455SOL    HW136824   3.969   1.257   2.498  1.4355 -2.6760 -0.3218
 8455SOL    HW236825   3.907   1.139   2.566  1.3862  0.0319 -0.2614
 8456SOL     OW36826   3.532   2.807   9.632 -0.0561 -0.0615  0.2749
 8456SOL    HW136827   3.604   2.748   9.653 -2.6105 -3.5229 -0.6720
 8456SOL    HW236828   3.467   2.758   9.682 -0.1908 -0.1498  0.0155
 8457SOL     OW36829   1.222   0.847   9.296 -0.1505 -0.2442 -0.0748
 8457SOL    HW136830   1.201   0.937   9.322  0.3866 -0.6629  1.7791
 8457SOL    HW236831   1.213   0.810   9.383  0.6603  0.5309  0.3458
 8458SOL     OW36832   1.329   3.774   6.465 -0.2330 -0.2579  0.2914
 8458SOL    HW136833   1.350   3.853   6.515 -0.1664  0.7350 -1.2969
 8458SOL    HW236834   1.242   3.750   6.494  0.4546 -2.3638  0.6288
 8459SOL     OW36835   4.560   3.435   6.999  0.4030  0.8353 -0.8777
 8459SOL    HW136836   4.593   3.523   6.981 -2.3313  2.2191  0.8269
 8459SOL    HW236837   4.479   3.450   7.048  0.6198 -0.2664 -0.1832
 8460SOL     OW36838   2.491   2.215   5.870 -0.1934  0.3326 -0.3554
 8460SOL    HW136839   2.423   2.178   5.926  1.6112  0.2322  1.7742
 8460SOL    HW236840   2.535   2.279   5.925  0.7169 -2.2238  1.8975
 8461SOL     OW36841   1.782   2.405   5.120 -0.2151  0.1294 -0.0389
 8461SOL    HW136842   1.702   2.447   5.088 -0.0679 -0.7244 -1.5313
 8461SOL    HW236843   1.842   2.480   5.113 -1.1513  0.6879 -2.1023
 8462SOL     OW36844   2.285   2.899   9.010  0.4901 -0.7947  0.1170
 8462SOL    HW136845   2.365   2.952   9.015 -0.7610  1.1895 -0.9785
 8462SOL    HW236846   2.227   2.953   9.063  1.2861  0.4748 -0.3027
 8463SOL     OW36847   2.582   2.951   1.988  0.0280 -0.0683 -0.1138
 8463SOL    HW136848   2.601   3.021   2.050 -0.2188  1.7632 -2.0733
 8463SOL    HW236849   2.504   2.977   1.939 -0.1598 -1.0781 -0.3617
 8464SOL     OW36850   2.776   1.251   1.435 -0.7898  0.4842  0.4571
 8464SOL    HW136851   2.764   1.207   1.351 -1.7374  0.6080  0.5193
 8464SOL    HW236852   2.852   1.307   1.420 -0.4401  0.1794  1.0771
 8465SOL     OW36853   1.648   4.100   1.108  0.1890 -0.4395 -0.2495
 8465SOL    HW136854   1.554   4.085   1.104 -0.1786  1.5402  1.3372
 8465SOL    HW236855   1.654   4.194   1.090  1.6276 -0.5601 -0.4718
 8466SOL     OW36856   3.587   3.728  11.183 -0.1732  1.3284 -0.0460
 8466SOL    HW136857   3.604   3.695  11.095 -0.2101  0.6269  0.2105
 8466SOL    HW236858   3.659   3.788  11.203  2.3771 -1.3348 -1.1975
 8467SOL     OW36859   3.031   1.058   5.313 -0.7044 -0.0497  0.5532
 8467SOL    HW136860   3.006   1.097   5.229  1.4453  0.5066  0.1789
 8467SOL    HW236861   3.090   1.130   5.334 -0.2091 -0.1263 -0.5969
 8468SOL     OW36862   0.188   1.343   3.541  0.5256 -0.6064  0.5072
 8468SOL    HW136863   0.103   1.311   3.573 -1.5617  1.5886 -2.7149
 8468SOL    HW236864   0.239   1.264   3.555 -0.4895 -0.6261  3.9464
 8469SOL     OW36865   2.121   2.017  11.428 -0.0473 -0.4634 -0.2947
 8469SOL    HW136866   2.093   1.927  11.442 -0.9437 -0.2545 -0.7043
 8469SOL    HW236867   2.038   2.066  11.429 -0.3259 -1.0192  3.3285
 8470SOL     OW36868   0.350   0.007  14.546  0.0751 -0.2452 -0.0196
 8470SOL    HW136869   0.436   0.034  14.579 -0.7059  1.6679  0.4831
 8470SOL    HW236870   0.373   4.653  14.487 -1.7989  0.7525 -1.9555
 8471SOL     OW36871   2.979   0.736  16.886 -0.4772 -0.5650 -0.3249
 8471SOL    HW136872   2.886   0.762  16.887 -0.0660  0.8898  0.2072
 8471SOL    HW236873   2.962   0.658  16.833 -0.6487 -0.5012 -0.3645
 8472SOL     OW36874   3.273   0.078   4.905  0.2409  0.3429 -0.7016
 8472SOL    HW136875   3.313   0.003   4.949 -2.6615 -1.3371 -0.9178
 8472SOL    HW236876   3.341   0.085   4.838  2.6946  0.8501  1.8162
 8473SOL     OW36877   2.593   4.112   8.431  0.3314 -0.0799  0.2586
 8473SOL    HW136878   2.638   4.084   8.351  0.6684  0.0065  0.4171
 8473SOL    HW236879   2.634   4.193   8.460  2.9414 -1.3651  0.1772
 8474SOL     OW36880   4.567   1.559   8.251 -0.0524 -0.2661 -0.7645
 8474SOL    HW136881   4.622   1.562   8.329  1.0124  1.5989 -1.5750
 8474SOL    HW236882   4.479   1.573   8.288  0.2064  0.1614 -0.3198
 8475SOL     OW36883   3.263   2.870   4.551 -0.2860 -0.1024 -0.1486
 8475SOL    HW136884   3.293   2.795   4.498 -0.6564 -0.0255 -0.4691
 8475SOL    HW236885   3.180   2.887   4.506  0.3025  0.7655 -0.8972
 8476SOL     OW36886   3.657   2.869  16.967  0.0308  0.0342 -0.3964
 8476SOL    HW136887   3.617   2.953  16.989  0.3894  0.6231 -2.0527
 8476SOL    HW236888   3.594   2.799  16.987 -1.6479  1.4146 -0.8422
 8477SOL     OW36889   2.233   2.269   8.104 -0.1836 -0.0352 -0.1892
 8477SOL    HW136890   2.146   2.228   8.109 -0.0267 -0.3485 -0.0489
 8477SOL    HW236891   2.252   2.277   8.010  0.4261 -1.9888 -0.2204
 8478SOL     OW36892   1.871   0.056  11.766 -0.0649  0.2455  0.1923
 8478SOL    HW136893   1.809   0.118  11.806 -0.3300 -0.0639  0.2624
 8478SOL    HW236894   1.928   0.116  11.719 -1.2761  1.2896  0.0308
 8479SOL     OW36895   1.626   0.899   8.193  0.0923 -0.1191  0.1261
 8479SOL    HW136896   1.610   0.952   8.270  1.8550  0.1469  0.3064
 8479SOL    HW236897   1.659   0.822   8.239  0.1809  1.1496  2.1759
 8480SOL     OW36898   2.604   4.278   1.487  0.1147 -0.4972 -0.1129
 8480SOL    HW136899   2.524   4.227   1.475 -1.5580  2.6836 -2.5716
 8480SOL    HW236900   2.658   4.201   1.506 -2.7070 -1.7912  2.5076
 8481SOL     OW36901   4.652   1.504   2.858  0.1068 -0.6822 -0.9128
 8481SOL    HW136902   4.701   1.437   2.810  0.8955  0.6629 -1.9863
 8481SOL    HW236903   4.639   1.556   2.779 -0.8599 -0.6992 -0.7627
 8482SOL     OW36904   2.510   2.693  11.993 -0.5662 -0.1431 -0.5223
 8482SOL    HW136905   2.540   2.761  12.053  0.6871 -1.6477  0.5434
 8482SOL    HW236906   2.579   2.627  11.994  0.4537  0.9052 -1.3205
 8483SOL     OW36907   1.924   0.872   8.781  0.0865  0.4384 -0.2053
 8483SOL    HW136908   1.868   0.807   8.822 -1.6102  1.6205 -0.6439
 8483SOL    HW236909   1.883   0.946   8.825 -0.2075 -0.4836  1.0520
 8484SOL     OW36910   4.118   4.581   0.994  0.2663  0.2301  0.4287
 8484SOL    HW136911   4.076   4.509   0.947  1.3173 -1.4152  2.0106
 8484SOL    HW236912   4.056   4.638   1.039  0.1789  0.3735  0.1274
 8485SOL     OW36913   4.622   1.861  14.171  0.5085  0.3537 -0.8025
 8485SOL    HW136914   4.532   1.859  14.202  1.1107  0.4430  0.9775
 8485SOL    HW236915   4.656   1.877  14.260 -0.9608 -1.3513  0.0394
 8486SOL     OW36916   2.492   1.163   4.774  0.2355  0.3123 -0.7862
 8486SOL    HW136917   2.406   1.162   4.732  0.6695 -1.5831 -1.6904
 8486SOL    HW236918   2.516   1.250   4.742 -2.1024  1.2999  0.2408
 8487SOL     OW36919   1.868   1.702   2.472 -0.6587 -0.1231  0.5115
 8487SOL    HW136920   1.802   1.756   2.429 -0.3454  0.9886  1.4497
 8487SOL    HW236921   1.931   1.762   2.513  1.6913 -1.2162 -1.4727
 8488SOL     OW36922   3.137   2.449  10.591 -1.1726  0.1229 -0.2884
 8488SOL    HW136923   3.231   2.448  10.604 -1.0718 -3.7526 -1.5097
 8488SOL    HW236924   3.112   2.357  10.590 -2.0031  0.3625 -2.1046
 8489SOL     OW36925   3.129   1.316   8.467 -0.1473 -0.2796  0.1423
 8489SOL    HW136926   3.123   1.376   8.541  0.4139  1.0156 -0.8508
 8489SOL    HW236927   3.221   1.292   8.461  0.0398  0.4990 -0.1808
 8490SOL     OW36928   0.651   1.060   0.764 -0.9623  0.3000 -0.3866
 8490SOL    HW136929   0.689   1.139   0.802 -0.1339  0.3515 -1.3233
 8490SOL    HW236930   0.689   0.990   0.816 -1.3035 -0.3764 -1.0535
 8491SOL     OW36931   3.906   3.643   3.694  0.3407 -0.5096  0.1484
 8491SOL    HW136932   3.815   3.661   3.718 -0.0338 -1.1872 -0.7708
 8491SOL    HW236933   3.902   3.643   3.598  1.2493  1.1204  0.1192
 8492SOL     OW36934   3.250   3.539   6.390  0.2207 -0.6006 -0.5041
 8492SOL    HW136935   3.253   3.447   6.364 -1.9412 -0.3746 -1.5726
 8492SOL    HW236936   3.275   3.574   6.304  1.1301  2.0657  0.8571
 8493SOL     OW36937   0.354   2.703  12.674  0.2351  0.3507  0.2025
 8493SOL    HW136938   0.360   2.773  12.739 -3.0538  0.0660  0.8001
 8493SOL    HW236939   0.356   2.626  12.730  1.2642  0.5410  0.4250
 8494SOL     OW36940   1.855   0.637   8.922 -0.8635 -0.6374  0.2908
 8494SOL    HW136941   1.781   0.576   8.924 -1.3453 -0.0704 -0.8409
 8494SOL    HW236942   1.926   0.575   8.940 -0.5912  0.4850  3.0762
 8495SOL     OW36943   0.650   3.720   0.625  0.4717  0.0926  0.7451
 8495SOL    HW136944   0.711   3.695   0.556 -0.5164  1.1613 -0.5027
 8495SOL    HW236945   0.633   3.812   0.608  0.4690  0.3075  1.8715
 8496SOL     OW36946   3.782   2.122   2.180  0.1775  0.2719 -0.0111
 8496SOL    HW136947   3.851   2.087   2.123  0.3390 -0.4273  0.6248
 8496SOL    HW236948   3.835   2.125   2.259  1.3743 -0.8041 -0.7659
 8497SOL     OW36949   0.977   3.071   5.993  0.0861 -0.2100  0.2423
 8497SOL    HW136950   1.047   3.024   6.038 -0.0727 -0.1694  0.5337
 8497SOL    HW236951   0.904   3.012   6.013  0.1405 -0.9532 -1.7647
 8498SOL     OW36952   0.747   3.521  16.672  0.4031  0.0843  0.5934
 8498SOL    HW136953   0.776   3.440  16.715  1.2649  0.5386  0.8803
 8498SOL    HW236954   0.689   3.478  16.609  0.4439 -0.3203  0.8268
 8499SOL     OW36955   2.696   4.095   0.821  0.6968 -0.2236 -0.1236
 8499SOL    HW136956   2.751   4.100   0.900 -0.4697 -2.6922  0.8227
 8499SOL    HW236957   2.738   4.160   0.765 -1.8194  0.4822 -1.1586
 8500SOL     OW36958   3.653   2.310   0.357  0.6554 -0.3323  0.9893
 8500SOL    HW136959   3.673   2.221   0.329  1.2706 -0.1015  0.6919
 8500SOL    HW236960   3.718   2.315   0.428  2.4382  0.1554 -0.6637
 8501SOL     OW36961   3.391   3.054   2.872 -0.2712 -0.0755 -0.0514
 8501SOL    HW136962   3.323   2.996   2.906 -0.0565  0.8071  1.8895
 8501SOL    HW236963   3.418   2.994   2.802 -0.4639 -0.6184  0.3336
 8502SOL     OW36964   0.845   1.978  15.701 -0.2669  0.1280 -0.4172
 8502SOL    HW136965   0.866   2.071  15.711 -1.2148  0.5242 -2.1822
 8502SOL    HW236966   0.784   1.955  15.771  2.0091 -0.0555  1.5283
 8503SOL     OW36967   1.806   2.290  11.231  0.4281 -0.2035 -0.2531
 8503SOL    HW136968   1.756   2.254  11.157 -0.9946  0.3932  0.4211
 8503SOL    HW236969   1.896   2.295  11.198 -0.5329  0.7540 -2.7173
 8504SOL     OW36970   4.314   4.031  17.076 -0.9063  0.0105 -0.2772
 8504SOL    HW136971   4.388   4.000  17.023 -0.6924  1.6510 -0.9559
 8504SOL    HW236972   4.303   4.110  17.023  1.4472  0.1224 -0.6206
 8505SOL     OW36973   2.115   1.488  10.164 -0.1760 -0.6402 -0.1611
 8505SOL    HW136974   2.126   1.582  10.177 -1.0648 -0.7092  1.1336
 8505SOL    HW236975   2.191   1.457  10.115  1.5239  1.7093  1.0098
 8506SOL     OW36976   3.793   3.212   5.225  0.0118 -0.3060 -0.2706
 8506SOL    HW136977   3.724   3.164   5.270  1.7178 -1.3684  1.1860
 8506SOL    HW236978   3.746   3.282   5.179  1.2062  0.2118 -0.6808
 8507SOL     OW36979   1.690   3.478   8.581 -0.2882  0.5487 -0.1465
 8507SOL    HW136980   1.687   3.570   8.555 -1.9559  0.7768  0.8825
 8507SOL    HW236981   1.650   3.433   8.506  1.0569 -0.8828 -0.0125
 8508SOL     OW36982   2.758   4.654   5.344  0.2715 -0.2155 -0.3354
 8508SOL    HW136983   2.797   4.648   5.431  0.1537  0.9857 -0.1972
 8508SOL    HW236984   2.774   4.564   5.315  0.1950  0.0597 -1.2504
 8509SOL     OW36985   2.515   3.552   7.146  0.4429 -0.3038  0.4227
 8509SOL    HW136986   2.520   3.530   7.239  0.2849 -1.3528  0.1786
 8509SOL    HW236987   2.609   3.564   7.129  0.9383 -1.7538  2.1735
 8510SOL     OW36988   1.365   1.360  12.626 -0.3528  0.4771  0.0975
 8510SOL    HW136989   1.393   1.323  12.542 -0.4502 -0.0039  0.2754
 8510SOL    HW236990   1.336   1.448  12.603 -0.7879  0.2338 -0.2933
 8511SOL     OW36991   3.181   4.322  12.384 -0.4842  0.1183 -0.1581
 8511SOL    HW136992   3.246   4.274  12.435 -0.4158 -1.6305 -1.8770
 8511SOL    HW236993   3.182   4.263  12.309  1.2980 -0.8091  0.5823
 8512SOL     OW36994   2.571   0.371   0.858 -0.0304 -0.4140  0.1329
 8512SOL    HW136995   2.557   0.372   0.953  0.3393 -1.5629  0.1909
 8512SOL    HW236996   2.666   0.364   0.860 -0.1764 -2.2580  1.1966
 8513SOL     OW36997   3.357   4.537   1.081  0.3952 -0.3408  0.2014
 8513SOL    HW136998   3.332   4.513   1.170 -1.1730 -0.3845 -0.2554
 8513SOL    HW236999   3.364   4.447   1.048  0.6975  1.0176 -3.3912
 8514SOL     OW37000   2.308   4.163  12.899  0.2475 -0.7485  0.1754
 8514SOL    HW137001   2.317   4.259  12.899 -0.2259 -0.7016  0.0115
 8514SOL    HW237002   2.308   4.133  12.809  1.3162 -0.0892 -0.0308
 8515SOL     OW37003   1.853   4.663   7.882 -0.6273 -0.6922 -0.3405
 8515SOL    HW137004   1.898   4.686   7.801  1.2902 -3.1113  0.0488
 8515SOL    HW237005   1.768   4.707   7.875 -0.5050 -0.2370  1.0725
 8516SOL     OW37006   1.690   2.913   2.294 -0.1583  0.5826  0.7551
 8516SOL    HW137007   1.677   2.992   2.243  2.8561  0.2098 -0.5973
 8516SOL    HW237008   1.744   2.945   2.367  2.9050  0.6433 -1.5169
 8517SOL     OW37009   1.163   2.508   1.085 -0.5284  0.2324  0.8691
 8517SOL    HW137010   1.169   2.447   1.158 -0.1776 -1.5888 -0.6774
 8517SOL    HW237011   1.158   2.447   1.012  0.1586 -0.9219  1.8002
 8518SOL     OW37012   2.145   1.461   5.852 -0.5890 -0.6244  0.1573
 8518SOL    HW137013   2.224   1.510   5.873 -2.0101  1.3592  0.8924
 8518SOL    HW237014   2.101   1.458   5.937  2.1342  2.6613  1.7046
 8519SOL     OW37015   1.905   4.696   5.924  0.4437 -0.4809 -0.1354
 8519SOL    HW137016   1.999   4.714   5.935 -0.4015  2.6450  2.2484
 8519SOL    HW237017   1.904   4.607   5.890 -1.3974  0.6863 -3.1130
 8520SOL     OW37018   1.060   0.231   7.039  0.9727 -0.3119  0.3518
 8520SOL    HW137019   1.053   0.161   6.975 -1.0040 -0.6258  0.9049
 8520SOL    HW237020   1.151   0.258   7.028  0.3404  0.7940 -2.1382
 8521SOL     OW37021   0.581   0.710   1.528 -0.4281 -0.0053  0.3142
 8521SOL    HW137022   0.529   0.698   1.449 -0.7485 -1.4147  0.7391
 8521SOL    HW237023   0.671   0.684   1.507  0.0688  0.3704  1.9430
 8522SOL     OW37024   2.099   2.222  14.288  0.3492  0.2600  0.5371
 8522SOL    HW137025   2.089   2.134  14.253 -2.9428  0.9518 -0.2535
 8522SOL    HW237026   2.162   2.259  14.226 -1.9090  2.3403 -0.5059
 8523SOL     OW37027   0.297   4.407   2.323  0.6427 -0.0819 -0.1034
 8523SOL    HW137028   0.356   4.376   2.391  1.1516  1.9013  0.3580
 8523SOL    HW237029   0.260   4.484   2.364  1.4420  0.5026 -0.4803
 8524SOL     OW37030   1.396   3.823   9.787 -0.2656 -0.0541 -0.2237
 8524SOL    HW137031   1.384   3.844   9.879  2.4207 -2.5839  0.7098
 8524SOL    HW237032   1.465   3.757   9.790 -1.3437 -1.2090 -0.5064
 8525SOL     OW37033   3.910   3.046  11.018 -0.1430  0.1873  0.1199
 8525SOL    HW137034   3.945   2.977  11.075  0.9817 -0.6487 -1.5956
 8525SOL    HW237035   3.848   3.087  11.078 -0.4050 -1.2599  0.8427
 8526SOL     OW37036   4.637   2.491   9.454 -0.5194 -0.6524  0.3519
 8526SOL    HW137037   4.573   2.432   9.414 -2.1235  0.3218  1.4737
 8526SOL    HW237038   4.653   2.529   9.368 -0.5881 -2.5727 -0.5015
 8527SOL     OW37039   3.493   1.658  10.634  0.1030 -0.2147  0.0496
 8527SOL    HW137040   3.490   1.611  10.717  0.6642  0.6493  0.5555
 8527SOL    HW237041   3.504   1.585  10.574 -0.5129 -0.1196 -0.1862
 8528SOL     OW37042   0.770   0.462   7.816 -0.1320  0.2218  0.5095
 8528SOL    HW137043   0.761   0.550   7.778  0.4743 -0.1187 -0.4056
 8528SOL    HW237044   0.690   0.462   7.868  0.3767 -0.0028  1.2875
 8529SOL     OW37045   0.866   1.304   5.337  1.2431 -0.2977 -0.5038
 8529SOL    HW137046   0.841   1.265   5.421  1.1810 -0.6666 -0.6972
 8529SOL    HW237047   0.782   1.329   5.298  1.4337 -2.0617 -2.0119
 8530SOL     OW37048   3.651   3.675  11.552 -0.2073  0.3529  0.3186
 8530SOL    HW137049   3.600   3.754  11.573 -0.6187 -0.1377  1.1861
 8530SOL    HW237050   3.613   3.621  11.622 -2.2510 -1.5663 -2.2953
 8531SOL     OW37051   0.995   0.129   3.881 -0.0862  0.5773  0.8427
 8531SOL    HW137052   1.049   0.050   3.880 -0.2432  0.4832  0.1239
 8531SOL    HW237053   1.047   0.190   3.830  0.7085 -1.3310 -0.6106
 8532SOL     OW37054   4.495   2.407   5.978 -0.6393  0.2034 -0.4701
 8532SOL    HW137055   4.488   2.429   6.071 -0.2218 -0.1616 -0.3506
 8532SOL    HW237056   4.444   2.470   5.927  1.9406  1.0871 -1.9200
 8533SOL     OW37057   4.715   1.049   7.974 -0.1421  0.2594 -0.4792
 8533SOL    HW137058   4.622   1.057   7.951 -0.4809  3.8578  2.0003
 8533SOL    HW237059   0.028   1.005   7.895 -0.2926 -0.5945 -0.0628
 8534SOL     OW37060   1.776   2.952   8.735  0.5833 -0.2811 -0.3094
 8534SOL    HW137061   1.691   2.993   8.753  1.1042  0.6694 -0.0505
 8534SOL    HW237062   1.751   2.862   8.757 -1.1787  0.3648  0.3043
 8535SOL     OW37063   2.382   0.350   3.333  0.5643  0.0549  0.7171
 8535SOL    HW137064   2.317   0.410   3.295  1.3729 -0.8579 -2.1315
 8535SOL    HW237065   2.339   0.266   3.320 -1.3088  1.3008 -1.3229
 8536SOL     OW37066   3.971   2.793   9.933  0.1094 -0.1520 -0.4864
 8536SOL    HW137067   4.000   2.780   9.843 -1.4579  0.4734 -1.0881
 8536SOL    HW237068   3.953   2.700   9.948  0.6762 -0.6026 -2.5968
 8537SOL     OW37069   3.714   2.846   4.254  0.8916 -0.3524 -0.3898
 8537SOL    HW137070   3.676   2.858   4.167 -2.7200  0.6119  1.3410
 8537SOL    HW237071   3.736   2.938   4.269 -0.2137 -0.2662  0.7271
 8538SOL     OW37072   2.217   0.431   6.461  0.3266  0.5443 -0.2892
 8538SOL    HW137073   2.185   0.476   6.539  1.2201  1.4282 -0.4289
 8538SOL    HW237074   2.183   0.341   6.468 -0.5370  0.6840 -2.7725
 8539SOL     OW37075   3.130   0.221   6.496 -0.0401  0.1939 -0.4443
 8539SOL    HW137076   3.096   0.202   6.583  1.0875 -0.2232 -0.0862
 8539SOL    HW237077   3.202   0.282   6.515  0.0838  0.4755 -1.8421
 8540SOL     OW37078   4.416   3.823   3.980  0.2672  0.1941  0.1539
 8540SOL    HW137079   4.378   3.882   4.045 -1.1286  0.4518 -0.9018
 8540SOL    HW237080   4.474   3.883   3.935  1.0927  0.5763  1.7132
 8541SOL     OW37081   1.111   2.866   2.788  0.0330 -0.1371 -0.1878
 8541SOL    HW137082   1.153   2.816   2.718 -0.5116  1.2735 -1.5062
 8541SOL    HW237083   1.025   2.866   2.746  0.0753  1.8130 -0.2399
 8542SOL     OW37084   3.627   4.381   3.742  0.0818 -0.2050 -0.2355
 8542SOL    HW137085   3.684   4.435   3.797  2.2000 -2.8432  0.1359
 8542SOL    HW237086   3.704   4.344   3.699 -0.6753 -1.0310 -0.8831
 8543SOL     OW37087   2.087   4.696  10.830  0.1486 -0.4572  0.3377
 8543SOL    HW137088   2.170   0.022  10.850  0.0076 -0.6345  1.2948
 8543SOL    HW237089   2.125   4.634  10.768  0.1119  0.2516 -0.3869
 8544SOL     OW37090   2.040   3.980  14.730 -0.4646  0.4546  0.1497
 8544SOL    HW137091   2.103   3.966  14.660 -0.0543  1.1672  0.3765
 8544SOL    HW237092   2.015   3.890  14.747 -1.0401  0.5207 -0.3373
 8545SOL     OW37093   3.679   1.817  14.956  0.0563 -0.4757  0.4843
 8545SOL    HW137094   3.628   1.767  15.020 -1.2036  0.4866  0.2171
 8545SOL    HW237095   3.638   1.792  14.873  0.3871 -3.0502  1.0820
 8546SOL     OW37096   3.118   2.603   9.801 -0.0224 -0.2489  0.2888
 8546SOL    HW137097   3.145   2.643   9.883  1.1814 -0.2088 -0.1191
 8546SOL    HW237098   3.022   2.609   9.801  0.0313  0.6233  0.0417
 8547SOL     OW37099   0.251   1.885   8.214  0.2801  0.2851 -0.0360
 8547SOL    HW137100   0.170   1.839   8.191 -0.4563  2.1269 -1.0888
 8547SOL    HW237101   0.299   1.814   8.257 -1.8784 -0.8668  0.5124
 8548SOL     OW37102   1.797   0.011  11.096 -0.2293 -0.0844  0.1012
 8548SOL    HW137103   1.751   4.699  11.017  0.5108 -2.7920  0.6841
 8548SOL    HW237104   1.831   0.097  11.071  2.1457 -0.7316  1.0940
 8549SOL     OW37105   3.107   3.922   0.753 -0.2401 -0.3274 -0.0601
 8549SOL    HW137106   3.051   3.952   0.682  0.5370  1.7567  0.2187
 8549SOL    HW237107   3.162   3.864   0.700  2.8441 -1.4484  4.3237
 8550SOL     OW37108   0.434   4.318   5.493 -0.1879  0.1694  0.0495
 8550SOL    HW137109   0.482   4.273   5.562 -2.0516  0.3670  1.4665
 8550SOL    HW237110   0.478   4.403   5.488 -1.8480  1.2782  4.3745
 8551SOL     OW37111   1.009   0.017   7.629 -0.3803 -0.2197  0.3782
 8551SOL    HW137112   0.953   4.714   7.555 -1.0420  0.9174  0.5679
 8551SOL    HW237113   1.085   0.056   7.586 -0.9870 -0.3953 -0.8373
 8552SOL     OW37114   2.957   1.147  14.443 -0.5829  0.1482  0.1629
 8552SOL    HW137115   2.962   1.164  14.537 -0.5316 -1.7821  0.5205
 8552SOL    HW237116   3.004   1.064  14.438 -0.8042  0.0685 -0.6720
 8553SOL     OW37117   0.916   1.561   9.788  0.5146 -0.5875 -0.0519
 8553SOL    HW137118   0.886   1.479   9.749  3.2340 -1.9300  0.6318
 8553SOL    HW237119   1.010   1.541   9.797  0.6776 -0.6880 -1.9892
 8554SOL     OW37120   2.493   0.191   8.166 -0.0176 -0.0018  0.3733
 8554SOL    HW137121   2.583   0.210   8.194 -0.1868 -0.2901  1.1034
 8554SOL    HW237122   2.474   0.273   8.119 -1.3715 -0.9074 -0.6504
 8555SOL     OW37123   0.495   1.729   9.925 -0.2485 -0.2393 -0.7438
 8555SOL    HW137124   0.478   1.820   9.947  2.7621  0.2761 -0.6694
 8555SOL    HW237125   0.590   1.728   9.933 -0.3599  0.2851  0.8185
 8556SOL     OW37126   4.163   0.686   6.255 -1.2876 -0.0109 -0.0869
 8556SOL    HW137127   4.161   0.720   6.165  0.3191  1.4696  0.4486
 8556SOL    HW237128   4.178   0.763   6.309 -0.8176 -0.6254  0.6563
 8557SOL     OW37129   4.307   4.517  14.398 -0.2873 -0.7515 -0.0148
 8557SOL    HW137130   4.386   4.488  14.444 -0.9134 -0.5006  1.2272
 8557SOL    HW237131   4.240   4.511  14.466  0.2705 -1.7164  0.4525
 8558SOL     OW37132   2.449   0.677   9.521 -0.1349 -0.7701  0.3016
 8558SOL    HW137133   2.404   0.751   9.562  0.3128 -0.4892  0.2794
 8558SOL    HW237134   2.487   0.627   9.593  0.9179 -0.0523  0.2464
 8559SOL     OW37135   3.472   4.183   2.037 -0.2680  0.1457  0.1264
 8559SOL    HW137136   3.443   4.092   2.041 -0.8246  0.3290  0.1594
 8559SOL    HW237137   3.464   4.203   1.944 -3.0579 -0.4789  0.2530
 8560SOL     OW37138   1.924   3.820  11.647  0.6212 -0.5203 -0.6500
 8560SOL    HW137139   1.974   3.900  11.662 -3.2520  1.7449  0.2587
 8560SOL    HW237140   1.845   3.853  11.604 -0.0659  0.5030  1.4304
 8561SOL     OW37141   2.782   0.732   5.054 -0.0538  0.2974 -0.3632
 8561SOL    HW137142   2.839   0.658   5.032 -0.6457  0.2483 -1.6791
 8561SOL    HW237143   2.797   0.787   4.977 -1.3726 -0.8485 -1.4240
 8562SOL     OW37144   3.655   1.894   1.638 -0.1925 -0.1659  0.1428
 8562SOL    HW137145   3.624   1.967   1.585  0.3750 -0.3750 -0.4767
 8562SOL    HW237146   3.745   1.918   1.658 -0.8520  1.0819  1.6311
 8563SOL     OW37147   2.625   1.949   7.886 -1.2767 -0.1788 -0.6515
 8563SOL    HW137148   2.682   2.027   7.885 -0.8709 -0.4635  0.4715
 8563SOL    HW237149   2.683   1.886   7.929  0.1278  0.4852 -1.5700
 8564SOL     OW37150   3.818   1.308   6.909  0.6256 -0.1258  0.0093
 8564SOL    HW137151   3.734   1.309   6.864  0.8670  1.0375 -0.4207
 8564SOL    HW237152   3.828   1.214   6.927 -1.1082 -0.5157 -1.0970
 8565SOL     OW37153   4.661   3.643   6.137  0.1767  0.0960  0.9405
 8565SOL    HW137154   4.635   3.566   6.188  1.3549  0.8884  2.7430
 8565SOL    HW237155   0.030   3.662   6.171  0.3937 -0.8197  0.9010
 8566SOL     OW37156   2.599   1.746   0.376 -0.0786  0.6499 -0.1452
 8566SOL    HW137157   2.552   1.740   0.293  0.7848  0.4408 -0.6158
 8566SOL    HW237158   2.634   1.658   0.389 -0.9204  0.3479  0.0409
 8567SOL     OW37159   0.181   3.662  10.035  0.4423 -0.3049  0.1423
 8567SOL    HW137160   0.141   3.586  10.076 -2.1381  1.0050  0.0737
 8567SOL    HW237161   0.242   3.669  10.108 -0.3080  0.2671  0.7176
 8568SOL     OW37162   2.820   0.299   4.905 -0.0624 -0.2846 -0.8040
 8568SOL    HW137163   2.759   0.265   4.840 -0.6751  0.6590 -0.7119
 8568SOL    HW237164   2.867   0.230   4.952 -0.6798  0.3736  0.7833
 8569SOL     OW37165   0.381   2.974   9.834 -0.4730  0.3038 -0.6391
 8569SOL    HW137166   0.466   2.959   9.874 -2.3501 -0.5655  2.9693
 8569SOL    HW237167   0.396   3.028   9.756 -1.2936 -1.1096 -1.7774
 8570SOL     OW37168   4.380   3.072   4.247  0.4435  0.4022  0.0689
 8570SOL    HW137169   4.339   3.149   4.207 -0.2270  0.1537  0.2969
 8570SOL    HW237170   4.389   3.102   4.337 -4.2229  0.3610  0.5399
 8571SOL     OW37171   3.182   3.012   6.662  0.1401 -0.2694  0.0293
 8571SOL    HW137172   3.147   3.043   6.578 -0.7332  0.7141  0.7500
 8571SOL    HW237173   3.217   3.090   6.705  1.2076  0.0533 -1.4350
 8572SOL     OW37174   1.383   3.305   7.668 -0.4327 -0.5968  0.3026
 8572SOL    HW137175   1.444   3.237   7.696 -2.2337 -1.5759  1.7825
 8572SOL    HW237176   1.428   3.336   7.589  0.6785 -3.5000 -0.1683
 8573SOL     OW37177   0.577   2.797  10.288  0.4465  0.2104  0.1658
 8573SOL    HW137178   0.517   2.760  10.353  0.6707 -0.7193 -0.1535
 8573SOL    HW237179   0.618   2.714  10.265 -1.2102 -0.8367  0.9963
 8574SOL     OW37180   4.369   2.748   2.542  0.1585 -0.1097  0.6862
 8574SOL    HW137181   4.305   2.738   2.471  0.3058  1.5454  0.3231
 8574SOL    HW237182   4.422   2.669   2.555  0.0775 -0.4318 -0.9701
 8575SOL     OW37183   2.080   0.493   5.428  0.2457 -0.0007 -0.2284
 8575SOL    HW137184   2.119   0.529   5.348  1.8168  0.0167  0.5551
 8575SOL    HW237185   2.161   0.458   5.464  1.0154  2.6819  0.6544
 8576SOL     OW37186   1.112   1.928   1.115 -0.5923 -0.1717  0.0002
 8576SOL    HW137187   1.072   1.842   1.127 -1.7476  0.4684  0.7705
 8576SOL    HW237188   1.048   1.971   1.058  0.1744  0.8732 -0.0688
 8577SOL     OW37189   2.856   2.412   6.209 -0.4320 -0.1712 -0.1111
 8577SOL    HW137190   2.863   2.503   6.180 -0.9959  0.2222  1.0121
 8577SOL    HW237191   2.908   2.366   6.142 -0.3073  0.0375 -0.1575
 8578SOL     OW37192   1.520   3.656   2.151 -0.0525  0.0533 -0.7220
 8578SOL    HW137193   1.454   3.722   2.174 -0.6393 -0.9134  0.4154
 8578SOL    HW237194   1.456   3.593   2.117  0.4413 -0.9281  0.1536
 8579SOL     OW37195   0.967   1.290  12.770 -0.1285  0.3694 -0.4566
 8579SOL    HW137196   0.916   1.270  12.692 -0.8187 -0.1349  0.1205
 8579SOL    HW237197   0.908   1.311  12.843  1.1072 -1.4537  1.0733
 8580SOL     OW37198   3.145   2.005   2.871  0.3602  0.2743 -0.5212
 8580SOL    HW137199   3.196   1.994   2.791  2.4144  0.8058  0.7105
 8580SOL    HW237200   3.177   1.926   2.916 -0.1041  0.0062 -0.6660
 8581SOL     OW37201   3.276   0.608   3.465 -0.2374  0.2821 -1.0158
 8581SOL    HW137202   3.194   0.568   3.438 -1.1505  0.8962  0.8964
 8581SOL    HW237203   3.247   0.672   3.530  0.1223 -0.7210  0.1385
 8582SOL     OW37204   0.070   0.481   3.359  0.8579  0.3348  0.6364
 8582SOL    HW137205   0.064   0.436   3.444 -0.2526 -3.6557 -1.5523
 8582SOL    HW237206   0.043   0.417   3.294 -0.4287 -0.1560  1.6505
 8583SOL     OW37207   2.186   0.228  14.698 -0.1296  0.1210 -0.3352
 8583SOL    HW137208   2.198   0.224  14.793 -0.0077  1.8959 -0.2770
 8583SOL    HW237209   2.149   0.142  14.679 -1.2007  0.4003  0.4619
 8584SOL     OW37210   2.986   3.887   5.782  0.5252 -0.2805 -0.1720
 8584SOL    HW137211   2.939   3.870   5.700  2.6344 -1.3312 -1.1599
 8584SOL    HW237212   2.911   3.911   5.837  1.7336 -0.4961  1.5546
 8585SOL     OW37213   4.244   2.973   7.096 -0.1959 -0.2891  0.2550
 8585SOL    HW137214   4.189   2.997   7.021  0.1602 -1.7463 -0.4753
 8585SOL    HW237215   4.327   3.017   7.076 -1.6284  2.1614 -0.3346
 8586SOL     OW37216   2.424   4.623   0.986 -0.7114 -0.3157 -0.1297
 8586SOL    HW137217   2.340   4.578   0.992  0.0620 -1.6457  0.6531
 8586SOL    HW237218   2.406   4.703   0.937 -1.8418 -1.2547 -1.2527
 8587SOL     OW37219   1.527   0.965   5.233 -0.2895 -0.5714 -0.5969
 8587SOL    HW137220   1.621   0.966   5.254 -0.5536 -0.9508  0.5662
 8587SOL    HW237221   1.528   0.891   5.171  1.2386  0.2331 -1.5432
 8588SOL     OW37222   2.276   4.700   6.770 -0.5064 -0.0290  0.0518
 8588SOL    HW137223   2.230   0.003   6.851 -0.6157 -4.6662  1.1156
 8588SOL    HW237224   2.333   4.629   6.799 -0.0863 -0.9354 -2.9356
 8589SOL     OW37225   1.139   4.469   8.965  0.0728 -0.5610 -0.1497
 8589SOL    HW137226   1.107   4.396   8.912  0.8652  0.1484 -1.6330
 8589SOL    HW237227   1.228   4.435   8.974 -0.4138 -2.3263 -2.0074
 8590SOL     OW37228   2.735   4.520   1.501 -0.3661 -0.0346  0.5274
 8590SOL    HW137229   2.781   4.548   1.422  0.6780  0.5733  1.3534
 8590SOL    HW237230   2.696   4.439   1.466  2.5500 -1.2351  0.0338
 8591SOL     OW37231   3.881   4.203  17.062  0.5062  0.3567 -0.6737
 8591SOL    HW137232   3.808   4.198  17.001 -0.8583  4.0906  0.6774
 8591SOL    HW237233   3.872   4.130  17.123  1.4611 -0.6962 -1.7955
 8592SOL     OW37234   3.786   3.414   8.701  0.6802 -0.1566  0.0083
 8592SOL    HW137235   3.726   3.439   8.771 -0.1292  0.9486 -1.0899
 8592SOL    HW237236   3.730   3.369   8.638 -0.4286  3.0449 -1.2501
 8593SOL     OW37237   2.910   2.824   7.204 -0.2459 -0.2768  0.4254
 8593SOL    HW137238   2.910   2.733   7.173 -0.8351 -1.2480  3.3379
 8593SOL    HW237239   2.980   2.826   7.269 -0.9422  1.6612  1.1071
 8594SOL     OW37240   2.329   2.462   6.856 -0.8525  0.1603  0.2531
 8594SOL    HW137241   2.249   2.424   6.892 -1.8859  0.1532 -2.0118
 8594SOL    HW237242   2.376   2.387   6.892 -2.7757 -1.5122 -0.7033
 8595SOL     OW37243   3.096   3.350   8.039 -0.3232 -0.1238 -0.5788
 8595SOL    HW137244   3.002   3.348   8.020 -0.5787 -1.5953  0.7833
 8595SOL    HW237245   3.103   3.419   8.105  2.7854 -0.4728 -0.5601
 8596SOL     OW37246   1.500   0.800   3.022  0.1960  0.4656  0.2937
 8596SOL    HW137247   1.433   0.732   3.011  0.6032 -0.2674  2.3111
 8596SOL    HW237248   1.585   0.757   3.014  0.0537  0.3085 -0.3763
 8597SOL     OW37249   0.090   1.926   5.341  0.0443  0.4069  0.7976
 8597SOL    HW137250   0.040   2.007   5.337 -1.6460 -0.6994 -0.4380
 8597SOL    HW237251   0.147   1.924   5.264  0.5539  0.3042  1.1686
 8598SOL     OW37252   3.255   4.652   2.044 -0.1689 -0.1789 -0.1751
 8598SOL    HW137253   3.230   4.616   1.959 -2.1208  0.0502  0.3101
 8598SOL    HW237254   3.345   4.681   2.026 -0.7719  1.5922 -0.3869
 8599SOL     OW37255   1.426   0.593   4.459 -0.2554  0.2629 -0.0634
 8599SOL    HW137256   1.421   0.597   4.363 -2.5708 -0.4047  0.0230
 8599SOL    HW237257   1.504   0.647   4.471  0.6651 -0.6224 -2.0631
 8600SOL     OW37258   4.650   3.113   5.988 -0.1772 -0.0811  0.0986
 8600SOL    HW137259   4.667   3.189   5.933  1.8666 -0.6495 -0.0575
 8600SOL    HW237260   4.712   3.046   5.958 -0.5159 -0.4548  0.2372
 8601SOL     OW37261   0.113   1.929   8.829 -0.1871  0.1280  0.2375
 8601SOL    HW137262   0.077   1.848   8.864  1.8236 -0.8751 -0.0086
 8601SOL    HW237263   0.026   1.967   8.814 -0.3809 -0.2397  0.4342
 8602SOL     OW37264   2.335   0.729   0.728  0.4128  0.2323 -0.1645
 8602SOL    HW137265   2.247   0.761   0.748  0.4920  1.1877 -1.4009
 8602SOL    HW237266   2.374   0.816   0.737  1.0209  0.1356 -1.8756
 8603SOL     OW37267   2.464   3.430   3.432  0.1491  0.0833  0.5348
 8603SOL    HW137268   2.520   3.376   3.487  1.4910  1.2291  0.2675
 8603SOL    HW237269   2.516   3.509   3.422  3.3717 -2.0549  0.2927
 8604SOL     OW37270   1.761   0.359   4.518 -0.2308  0.5938 -0.3145
 8604SOL    HW137271   1.689   0.303   4.546 -1.4015  1.8364 -0.8236
 8604SOL    HW237272   1.824   0.290   4.495 -0.7312  0.2642 -0.7114
 8605SOL     OW37273   2.272   1.819   5.911 -0.3503 -0.1270  0.3167
 8605SOL    HW137274   2.179   1.820   5.889 -1.0777  2.0766  3.5297
 8605SOL    HW237275   2.272   1.866   5.995 -0.2376  1.4371 -0.5647
 8606SOL     OW37276   2.911   1.498  13.205 -0.3756 -0.6305 -0.3156
 8606SOL    HW137277   2.910   1.485  13.111  1.6951 -0.2837 -0.3789
 8606SOL    HW237278   2.985   1.440  13.226  0.1541  0.3970  0.6317
 8607SOL     OW37279   1.961   0.085   5.418 -0.0407  0.4134  0.1406
 8607SOL    HW137280   2.037   0.054   5.370 -0.6438 -1.8393  0.6624
 8607SOL    HW237281   1.995   0.088   5.507 -2.0950 -0.8577  0.9633
 8608SOL     OW37282   2.710   2.069   6.075 -0.3114 -0.2518 -0.0129
 8608SOL    HW137283   2.765   2.145   6.057  0.4070 -0.9824 -0.8462
 8608SOL    HW237284   2.770   1.998   6.055  2.7211  1.5489  2.5793
 8609SOL     OW37285   3.627   1.421   4.218 -0.3246 -0.2762 -0.1761
 8609SOL    HW137286   3.605   1.353   4.155 -2.7251  2.4016 -2.2262
 8609SOL    HW237287   3.558   1.408   4.282  0.0332  0.3767  0.3458
 8610SOL     OW37288   3.297   3.835   6.813  0.3265  0.3960  0.8405
 8610SOL    HW137289   3.316   3.743   6.798 -1.0927  0.0117  1.3822
 8610SOL    HW237290   3.202   3.836   6.799  0.5649 -0.5349 -0.8497
 8611SOL     OW37291   1.787   2.704   8.852  0.5845  0.6142  0.3161
 8611SOL    HW137292   1.708   2.652   8.838  0.5734  1.0993 -1.3770
 8611SOL    HW237293   1.841   2.626   8.845 -0.0626  0.1834  0.1770
 8612SOL     OW37294   3.381   3.373  14.865  0.4957  0.5610 -0.0303
 8612SOL    HW137295   3.318   3.316  14.821  3.3267 -1.1857 -1.8357
 8612SOL    HW237296   3.428   3.299  14.903 -0.0069  1.0020  1.4506
 8613SOL     OW37297   4.362   2.896   8.267 -0.7000  0.8496  0.1899
 8613SOL    HW137298   4.330   2.892   8.357 -0.3490 -1.2866  0.2193
 8613SOL    HW237299   4.309   2.822   8.237  0.8538  0.0396 -0.5438
 8614SOL     OW37300   1.923   0.131   2.745 -0.2868  0.4527  0.2596
 8614SOL    HW137301   1.844   0.155   2.696 -0.9278 -3.8172 -0.7845
 8614SOL    HW237302   1.988   0.151   2.677  0.0957  0.9524  0.7784
 8615SOL     OW37303   3.655   2.973  10.516  0.5100 -0.2368 -0.8193
 8615SOL    HW137304   3.739   3.006  10.548 -0.4834  0.1424  1.4225
 8615SOL    HW237305   3.597   3.027  10.570  0.9228 -0.4154 -0.2030
 8616SOL     OW37306   4.626   4.654  16.070 -0.0355 -0.4713  0.2584
 8616SOL    HW137307   4.576   4.687  15.995  0.9145  1.2662  0.3763
 8616SOL    HW237308   4.572   4.580  16.096  1.1163 -1.9173 -1.4936
 8617SOL     OW37309   2.835   3.611   6.306 -0.2317 -0.3923  0.3865
 8617SOL    HW137310   2.774   3.631   6.235 -1.2805 -0.4554  1.2874
 8617SOL    HW237311   2.790   3.540   6.351 -2.1085 -0.6217 -1.8892
 8618SOL     OW37312   2.285   0.886   9.639  0.0438  0.3555  0.5984
 8618SOL    HW137313   2.221   0.919   9.701  1.5860 -1.2544  3.0541
 8618SOL    HW237314   2.360   0.868   9.695  0.8790 -0.0993 -0.6545
 8619SOL     OW37315   0.273   4.056   2.882  0.0719 -0.1399  0.3908
 8619SOL    HW137316   0.215   4.012   2.820  2.0837 -1.5259 -0.4932
 8619SOL    HW237317   0.352   4.028   2.837  0.2251  1.7841 -0.5469
 8620SOL     OW37318   1.880   4.277   6.120  0.6541 -0.1034 -0.3953
 8620SOL    HW137319   1.968   4.295   6.088  0.7170 -1.7859 -1.1728
 8620SOL    HW237320   1.883   4.326   6.202 -0.9271  2.4179 -1.8483
 8621SOL     OW37321   0.523   2.552   6.131  0.1148  0.0266 -0.6148
 8621SOL    HW137322   0.583   2.477   6.137 -1.1400 -0.8087  1.3655
 8621SOL    HW237323   0.485   2.545   6.218 -1.1367 -0.8222 -1.2367
 8622SOL     OW37324   3.285   2.008   3.791 -0.1092  0.2918  0.3292
 8622SOL    HW137325   3.320   1.993   3.703  0.6903 -3.4893  1.2832
 8622SOL    HW237326   3.222   1.936   3.785  1.0300 -0.5683 -1.5326
 8623SOL     OW37327   4.553   2.762  15.173 -0.0423  0.2762 -0.3382
 8623SOL    HW137328   4.470   2.754  15.127 -0.2543 -3.9171  0.7446
 8623SOL    HW237329   4.566   2.669  15.193 -0.1636  0.0113 -1.5142
 8624SOL     OW37330   3.520   4.056   3.073 -0.3990 -0.0991  0.9646
 8624SOL    HW137331   3.485   4.144   3.083 -2.7959 -1.0036  0.5354
 8624SOL    HW237332   3.460   4.018   3.010 -1.5912 -1.6752  3.0265
 8625SOL     OW37333   2.064   2.227  11.121  0.1423  0.1196 -0.1575
 8625SOL    HW137334   2.158   2.214  11.134 -0.1402  0.1084  1.8876
 8625SOL    HW237335   2.059   2.258  11.030 -0.7444 -0.5006 -0.3268
 8626SOL     OW37336   4.036   0.325   4.515 -0.6377  0.2560 -0.2762
 8626SOL    HW137337   4.020   0.352   4.424  0.9077  0.6802 -0.4325
 8626SOL    HW237338   4.013   0.233   4.511  0.4760  0.0215 -1.5939
 8627SOL     OW37339   1.802   2.703   7.174  0.0884 -0.2297 -0.1890
 8627SOL    HW137340   1.775   2.636   7.111 -1.0467 -0.2346  0.2889
 8627SOL    HW237341   1.876   2.659   7.216  1.3140  1.0294 -1.0285
 8628SOL     OW37342   0.187   0.550   1.069 -0.0453 -0.3115 -0.4853
 8628SOL    HW137343   0.161   0.598   1.148  2.9032  1.1781 -0.4175
 8628SOL    HW237344   0.117   0.486   1.059  0.3103 -0.6871 -0.5739
 8629SOL     OW37345   4.684   2.691  14.194 -0.5784  0.2493 -0.2605
 8629SOL    HW137346   4.615   2.757  14.187 -0.1691  0.8440  1.1347
 8629SOL    HW237347   0.039   2.728  14.245 -1.5792  0.9242  0.6722
 8630SOL     OW37348   1.207   2.707   5.423 -0.2555  0.4694 -0.6180
 8630SOL    HW137349   1.275   2.677   5.363 -0.8960  0.8527 -1.5419
 8630SOL    HW237350   1.266   2.770   5.466  1.1790 -0.9978 -0.4576
 8631SOL     OW37351   0.379   0.388   5.957 -0.0387  0.1262  0.2328
 8631SOL    HW137352   0.351   0.300   5.933 -0.3043 -0.0247  1.0676
 8631SOL    HW237353   0.470   0.377   5.985 -0.5215 -3.8391  0.1780
 8632SOL     OW37354   2.580   4.473   5.107 -0.0216  0.3174  0.6149
 8632SOL    HW137355   2.534   4.392   5.126  0.4915  0.0409  0.6957
 8632SOL    HW237356   2.668   4.452   5.139  0.1417 -0.7560 -0.5426
 8633SOL     OW37357   4.464   0.517   3.177 -0.3733 -0.2323 -0.8255
 8633SOL    HW137358   4.558   0.511   3.161  0.5767  2.9579  3.5228
 8633SOL    HW237359   4.417   0.473   3.106 -1.7905 -0.0218 -0.0211
 8634SOL     OW37360   3.400   3.397  10.224  0.3659 -0.1189 -0.2805
 8634SOL    HW137361   3.321   3.439  10.256 -1.4615 -1.8870 -2.5192
 8634SOL    HW237362   3.472   3.452  10.256  1.2261 -0.8535 -0.9575
 8635SOL     OW37363   1.661   2.297   0.359 -0.5783 -0.2046 -0.0799
 8635SOL    HW137364   1.612   2.289   0.440 -2.7957  1.6635 -1.2232
 8635SOL    HW237365   1.716   2.218   0.366  0.7245  0.5549 -1.7872
 8636SOL     OW37366   3.245   3.859  11.665 -0.0835  0.0617  0.8359
 8636SOL    HW137367   3.201   3.872  11.581  0.7900 -3.0793 -0.0632
 8636SOL    HW237368   3.217   3.775  11.702  0.3488 -0.0339  0.9387
 8637SOL     OW37369   2.000   3.678   2.939  0.6570 -0.5971 -0.1595
 8637SOL    HW137370   1.942   3.688   2.863  0.9379 -0.7959 -0.4006
 8637SOL    HW237371   2.082   3.688   2.891  1.2205  0.0231  0.9498
 8638SOL     OW37372   1.388   4.015  16.154  0.1769  0.2312  0.3234
 8638SOL    HW137373   1.431   4.054  16.077 -1.9548 -0.0865 -1.0375
 8638SOL    HW237374   1.383   3.923  16.130 -1.7952  0.8709 -1.7534
 8639SOL     OW37375   4.329   2.216  10.562  0.3387 -0.0557  0.2242
 8639SOL    HW137376   4.243   2.249  10.533 -0.7190 -2.4433  0.6159
 8639SOL    HW237377   4.331   2.131  10.518  1.2401  0.6779 -1.1376
 8640SOL     OW37378   3.261   3.523  11.026  0.3050 -0.4114 -0.4075
 8640SOL    HW137379   3.219   3.439  11.041 -1.8193  0.6767 -0.2566
 8640SOL    HW237380   3.220   3.554  10.945 -2.4153 -1.2674  0.6653
 8641SOL     OW37381   4.448   0.967   6.707 -0.4995  0.0894  0.0518
 8641SOL    HW137382   4.430   0.901   6.774  3.0813 -0.6824  0.2503
 8641SOL    HW237383   4.526   0.938   6.659  0.5059  0.0392  1.7007
 8642SOL     OW37384   1.087   3.497  11.366 -0.4060  0.0676  0.2686
 8642SOL    HW137385   1.085   3.406  11.336 -0.3934  0.1978 -0.1236
 8642SOL    HW237386   1.003   3.504  11.412 -1.4680 -2.1174 -1.2928
 8643SOL     OW37387   1.911   4.016   6.284  0.0439 -0.1561  0.0464
 8643SOL    HW137388   1.941   4.029   6.374  0.4693 -0.5257 -0.0443
 8643SOL    HW237389   1.902   4.104   6.248 -1.2545  0.2753  1.4165
 8644SOL     OW37390   0.735   1.559   6.289  0.2624  0.3196  0.4643
 8644SOL    HW137391   0.761   1.467   6.293  0.0003  0.2593  0.8621
 8644SOL    HW237392   0.692   1.569   6.374  2.1865 -2.5787  1.7684
 8645SOL     OW37393   3.218   1.249   5.389 -0.3295 -0.5592  0.1105
 8645SOL    HW137394   3.205   1.336   5.427 -1.0467 -1.1216  1.1765
 8645SOL    HW237395   3.289   1.210   5.442  0.1049 -0.1883 -0.2067
 8646SOL     OW37396   2.745   3.513   3.139 -0.3718  0.0477  0.2366
 8646SOL    HW137397   2.662   3.509   3.092 -0.0234 -0.7141 -0.3127
 8646SOL    HW237398   2.722   3.472   3.222  4.1300  2.3675  2.6442
 8647SOL     OW37399   2.676   1.547   1.581 -0.6144  0.3876 -0.2104
 8647SOL    HW137400   2.673   1.596   1.663  2.6354 -0.5349  0.4587
 8647SOL    HW237401   2.635   1.466   1.613 -1.6640  1.1486  0.3785
 8648SOL     OW37402   3.433   1.128   5.231 -0.5253  0.1257  0.3724
 8648SOL    HW137403   3.408   1.078   5.153  1.6023  0.7234 -0.7004
 8648SOL    HW237404   3.355   1.182   5.239  1.1719  2.5916  0.3172
 8649SOL     OW37405   2.358   3.078   4.051  0.2005  0.8823  0.4046
 8649SOL    HW137406   2.294   3.122   3.996  0.3894 -1.5037 -1.6814
 8649SOL    HW237407   2.338   3.106   4.141 -1.0110 -0.6613  0.6119
 8650SOL     OW37408   0.041   4.678   5.258  0.1975  0.3038  0.4907
 8650SOL    HW137409   0.108   4.610   5.261  0.1069  0.2442  1.1508
 8650SOL    HW237410   0.048   4.701   5.165 -2.2419 -2.0416 -0.2563
 8651SOL     OW37411   3.784   1.984  11.701  0.2432 -0.7355  0.4309
 8651SOL    HW137412   3.754   2.029  11.621 -0.7218  0.9384  1.7302
 8651SOL    HW237413   3.799   1.896  11.669 -1.5902 -0.5738 -0.8838
 8652SOL     OW37414   1.146   4.464  13.006 -0.2035 -0.3371  0.4462
 8652SOL    HW137415   1.126   4.415  12.926 -0.4671  1.5194 -0.6277
 8652SOL    HW237416   1.191   4.540  12.969 -0.9391  0.2597  0.7550
 8653SOL     OW37417   2.961   0.446   6.474  0.2511 -0.5514  0.7872
 8653SOL    HW137418   3.018   0.373   6.496 -0.9403 -1.8313 -0.3381
 8653SOL    HW237419   2.877   0.409   6.448 -0.1040 -0.6489  2.0577
 8654SOL     OW37420   4.619   0.145  12.718 -0.1636 -0.1056  0.3351
 8654SOL    HW137421   4.690   0.153  12.654  0.2881 -0.9668  0.7351
 8654SOL    HW237422   4.562   0.103  12.653  1.2800 -1.5192 -0.0124
 8655SOL     OW37423   0.042   2.844   3.102 -0.0460 -0.5452 -0.5537
 8655SOL    HW137424   0.076   2.775   3.045 -0.1501 -1.0950  0.0472
 8655SOL    HW237425   0.088   2.805   3.177  1.4474  1.7247 -0.2633
 8656SOL     OW37426   2.363   4.076   2.332  0.3473  0.0934  0.4540
 8656SOL    HW137427   2.411   4.007   2.285 -2.3176  0.0901 -2.3135
 8656SOL    HW237428   2.426   4.147   2.336  0.6078  0.0435 -2.5410
 8657SOL     OW37429   2.613   4.419   0.994  0.2923 -0.2655  0.0076
 8657SOL    HW137430   2.572   4.364   0.928  2.0940 -0.9226 -0.5630
 8657SOL    HW237431   2.562   4.500   0.992 -1.4305 -1.3440  1.6312
 8658SOL     OW37432   1.456   4.406  10.878  0.5512 -0.0967  0.2897
 8658SOL    HW137433   1.440   4.500  10.868 -1.7006 -0.9044 -3.7361
 8658SOL    HW237434   1.544   4.394  10.843 -0.1683  0.1496 -1.5767
 8659SOL     OW37435   3.920   4.379   7.655 -0.3572 -0.2661  0.8628
 8659SOL    HW137436   3.841   4.399   7.605  1.4981  0.0130 -1.9791
 8659SOL    HW237437   3.889   4.359   7.743  2.4953 -0.2147  1.9108
 8660SOL     OW37438   4.636   0.737   1.786 -0.3172 -0.6829 -0.0997
 8660SOL    HW137439   0.011   0.717   1.771 -0.1617  0.5257 -0.7659
 8660SOL    HW237440   4.592   0.687   1.718 -1.8086  0.6499 -0.1146
 8661SOL     OW37441   3.137   4.349   1.056  0.3099  0.1672  0.1223
 8661SOL    HW137442   3.129   4.257   1.031  3.4974 -1.1584  4.0200
 8661SOL    HW237443   3.044   4.373   1.057  0.0345 -0.8522 -0.6712
 8662SOL     OW37444   0.088   2.873  17.235  1.1204 -0.2820  0.4192
 8662SOL    HW137445   0.132   2.814  17.173  0.0156 -0.4558 -0.2048
 8662SOL    HW237446   0.156   2.890  17.300  1.6269  2.1144 -0.7222
 8663SOL     OW37447   1.492   1.476   9.340 -0.4392 -0.1545  0.5961
 8663SOL    HW137448   1.537   1.560   9.337  0.4790 -0.6425  0.8644
 8663SOL    HW237449   1.502   1.443   9.429  0.3408 -0.0856  0.5346
 8664SOL     OW37450   4.615   3.869   7.102 -0.2735 -0.0538  0.0151
 8664SOL    HW137451   4.682   3.863   7.170  1.2053 -0.5011 -1.4845
 8664SOL    HW237452   4.672   3.874   7.026 -0.7140 -0.1699 -0.3258
 8665SOL     OW37453   3.900   3.434   5.625  0.3936  0.6712 -0.3163
 8665SOL    HW137454   3.859   3.508   5.581 -3.4288 -0.3359  1.5760
 8665SOL    HW237455   3.817   3.393   5.648  0.8283 -0.7149 -1.2131
 8666SOL     OW37456   3.471   2.261   5.942  0.4018 -0.1072  1.0255
 8666SOL    HW137457   3.434   2.236   5.857 -0.9179  1.1187  1.2501
 8666SOL    HW237458   3.565   2.265   5.923 -0.0261 -0.0313 -1.0967
 8667SOL     OW37459   4.669   4.166   0.599  0.1934  0.4477 -0.3855
 8667SOL    HW137460   4.716   4.143   0.518  0.1664 -3.6015  0.7102
 8667SOL    HW237461   4.625   4.081   0.611  0.7942  0.5452  2.5984
 8668SOL     OW37462   1.148   2.604   7.866  0.0451  0.0568 -0.7257
 8668SOL    HW137463   1.116   2.534   7.809  2.7748 -2.8420  1.3504
 8668SOL    HW237464   1.225   2.626   7.814 -0.1766 -0.2425 -1.1916
 8669SOL     OW37465   4.068   4.146   3.731 -0.0544 -0.0217  0.4616
 8669SOL    HW137466   4.154   4.108   3.749 -0.5043 -0.8391  0.8866
 8669SOL    HW237467   4.095   4.237   3.728  0.8009 -0.2061  1.9268
 8670SOL     OW37468   4.059   2.442   4.272 -0.3061  0.3526 -0.5648
 8670SOL    HW137469   4.115   2.368   4.296  0.9065  1.5297  0.2014
 8670SOL    HW237470   4.127   2.502   4.245  0.1675  1.0190  2.1902
 8671SOL     OW37471   4.128   2.809   6.850 -0.0579  0.1177 -0.5820
 8671SOL    HW137472   4.158   2.839   6.765 -0.7796 -0.1454 -0.9279
 8671SOL    HW237473   4.038   2.841   6.849 -0.3905 -0.9173 -2.4084
 8672SOL     OW37474   0.121   0.430   8.492  0.0918  0.5232 -0.3705
 8672SOL    HW137475   0.048   0.448   8.433  0.8643 -0.4071 -1.6211
 8672SOL    HW237476   0.150   0.350   8.447 -1.1371  1.7110 -3.2743
 8673SOL     OW37477   3.591   4.651   9.473 -0.2365  0.3184  0.4746
 8673SOL    HW137478   3.562   0.021   9.449  2.2437  0.7931 -0.8007
 8673SOL    HW237479   3.683   4.672   9.490  0.1971 -0.6984 -0.5198
 8674SOL     OW37480   1.176   1.407   6.438  0.2434  0.0825 -0.0940
 8674SOL    HW137481   1.253   1.413   6.382  0.5002 -0.9726  0.1689
 8674SOL    HW237482   1.120   1.347   6.388 -0.5960 -0.1044  1.0772
 8675SOL     OW37483   2.046   1.266  14.274  0.1010 -0.4815  0.0707
 8675SOL    HW137484   2.060   1.180  14.236  0.7695  0.2960 -1.4558
 8675SOL    HW237485   2.011   1.323  14.205 -0.3907  0.2637  0.9274
 8676SOL     OW37486   2.654   1.377   8.176 -0.5740 -0.3423  0.2138
 8676SOL    HW137487   2.581   1.316   8.185 -0.0021 -1.3588 -1.8970
 8676SOL    HW237488   2.728   1.317   8.178 -1.2441 -1.2183 -0.9310
 8677SOL     OW37489   1.937   2.717   8.488 -0.1188 -0.0997  0.1857
 8677SOL    HW137490   1.850   2.682   8.469 -0.5688  0.2987  1.4614
 8677SOL    HW237491   1.984   2.634   8.489 -0.7581 -0.4609  0.0972
 8678SOL     OW37492   0.983   3.795   3.255 -0.3424  0.0974  0.1421
 8678SOL    HW137493   0.986   3.739   3.178 -0.9182 -1.8075  1.5101
 8678SOL    HW237494   0.953   3.729   3.318  1.6754  1.2864  2.3684
 8679SOL     OW37495   1.708   4.059   5.339  0.0275  0.4402 -0.3879
 8679SOL    HW137496   1.648   4.124   5.304  1.9444  2.5410  0.1846
 8679SOL    HW237497   1.686   3.984   5.284 -2.0700  1.1029 -0.4495
 8680SOL     OW37498   1.383   4.296   8.105  0.3031 -0.5919 -0.2706
 8680SOL    HW137499   1.293   4.303   8.073 -0.0563  0.6961  1.0034
 8680SOL    HW237500   1.374   4.317   8.198 -1.7632 -0.9855 -0.3742
 8681SOL     OW37501   0.171   0.854   3.651  0.5562 -0.3434 -0.3829
 8681SOL    HW137502   0.183   0.796   3.726 -0.5941  1.2112  1.0140
 8681SOL    HW237503   0.077   0.842   3.643 -0.2773  4.1244  2.4747
 8682SOL     OW37504   0.370   0.301  12.184  0.6176 -0.0737 -0.1166
 8682SOL    HW137505   0.461   0.272  12.186  0.9191  0.8457 -0.7176
 8682SOL    HW237506   0.346   0.300  12.277 -0.9413  0.1424 -0.5267
 8683SOL     OW37507   1.482   2.491   3.243 -0.4117  0.2661  0.0100
 8683SOL    HW137508   1.526   2.425   3.297 -0.3801  0.1077 -0.2056
 8683SOL    HW237509   1.496   2.568   3.298  1.5135  1.4438 -2.1116
 8684SOL     OW37510   1.471   1.598  11.322  0.3290 -0.1541  0.6010
 8684SOL    HW137511   1.507   1.596  11.233 -2.2281 -0.7451 -0.4328
 8684SOL    HW237512   1.485   1.688  11.351  0.4366  0.1508 -0.3969
 8685SOL     OW37513   0.935   3.916  16.338  0.7784 -0.2180  0.0302
 8685SOL    HW137514   1.025   3.884  16.329 -0.1304 -2.5004 -0.9383
 8685SOL    HW237515   0.883   3.853  16.289 -0.5941  0.8547  0.1012
 8686SOL     OW37516   1.795   4.714  14.035  0.1198 -0.0202  0.8368
 8686SOL    HW137517   1.886   4.715  14.003  0.6322 -0.7800  2.2825
 8686SOL    HW237518   1.760   4.648  13.975 -1.5561  0.4921  1.2746
 8687SOL     OW37519   0.443   0.797   2.655 -0.2002 -0.0743  0.4138
 8687SOL    HW137520   0.400   0.880   2.676 -1.4663 -0.2360 -1.5672
 8687SOL    HW237521   0.493   0.771   2.733  0.5977  3.2613  0.9860
 8688SOL     OW37522   3.997   2.865   9.111  0.3125 -0.5885  0.1288
 8688SOL    HW137523   4.024   2.841   9.200  0.1354 -4.7815 -0.9594
 8688SOL    HW237524   4.079   2.847   9.065 -0.0315 -0.8335 -0.3841
 8689SOL     OW37525   0.111   2.000   1.986  0.4741 -0.1684  0.7076
 8689SOL    HW137526   0.165   1.984   1.909 -0.6160 -0.5177  0.0220
 8689SOL    HW237527   0.178   2.029   2.048  1.5122 -0.3581 -0.3161
 8690SOL     OW37528   4.259   2.056   2.280 -0.2081  0.1960 -0.2461
 8690SOL    HW137529   4.213   2.085   2.359 -2.3067 -0.6465 -1.1531
 8690SOL    HW237530   4.238   1.962   2.277 -1.7788  0.5402 -0.4629
 8691SOL     OW37531   0.943   0.881  15.066  0.5018  0.2699 -0.5576
 8691SOL    HW137532   0.920   0.838  15.148 -0.6958  1.6336 -0.1961
 8691SOL    HW237533   0.865   0.935  15.055  0.8970  0.5734 -1.8658
 8692SOL     OW37534   3.861   0.563  10.614 -0.0136  0.0899  0.2150
 8692SOL    HW137535   3.828   0.489  10.665  2.1674  0.0443  1.5435
 8692SOL    HW237536   3.882   0.516  10.534 -0.1850  0.1003  0.1637
 8693SOL     OW37537   1.307   1.763  15.700 -0.0410  0.1053 -0.0209
 8693SOL    HW137538   1.311   1.668  15.710  1.2776  0.3044  1.2894
 8693SOL    HW237539   1.397   1.785  15.679  0.6382 -2.6781 -0.0753
 8694SOL     OW37540   1.626   3.284   0.715 -0.3930  0.3247 -0.0591
 8694SOL    HW137541   1.719   3.265   0.701  0.2374  1.8975  1.9529
 8694SOL    HW237542   1.595   3.286   0.625 -2.7823  0.2131  0.7648
 8695SOL     OW37543   4.113   0.916  15.960  0.2694  0.8225  0.3573
 8695SOL    HW137544   4.022   0.887  15.957  0.6027  0.1171 -3.0323
 8695SOL    HW237545   4.111   1.007  15.932 -2.2876  0.7092  0.1822
 8696SOL     OW37546   1.806   1.835   6.666  0.1785 -0.4142 -0.3170
 8696SOL    HW137547   1.876   1.793   6.616  0.8690  0.6086 -0.2184
 8696SOL    HW237548   1.821   1.927   6.642 -0.2499 -0.5672 -1.1733
 8697SOL     OW37549   0.519   2.754  14.581 -0.0294 -0.1286  0.0548
 8697SOL    HW137550   0.470   2.835  14.596 -0.6733 -0.0838 -2.3378
 8697SOL    HW237551   0.527   2.771  14.487 -2.7515 -1.2887 -0.3748
 8698SOL     OW37552   4.259   1.436   6.514 -0.3724 -0.5335  0.3828
 8698SOL    HW137553   4.351   1.418   6.535 -0.7617 -3.0015  0.0208
 8698SOL    HW237554   4.216   1.373   6.571 -0.9353 -0.6639 -0.1843
 8699SOL     OW37555   3.834   4.380   5.464 -0.1036  0.1160  0.4303
 8699SOL    HW137556   3.793   4.465   5.478  0.7666  0.6204 -0.0597
 8699SOL    HW237557   3.861   4.397   5.373 -0.2697  0.2453  0.4056
 8700SOL     OW37558   2.254   1.429   1.642 -0.3736 -0.2873  0.1087
 8700SOL    HW137559   2.213   1.493   1.700  2.0292  0.4634  1.0183
 8700SOL    HW237560   2.310   1.489   1.592 -0.8850  0.6784  0.7044
 8701SOL     OW37561   1.606   3.684  11.693  0.0744  0.3357  0.3389
 8701SOL    HW137562   1.539   3.640  11.745  0.9259 -0.1892  1.0037
 8701SOL    HW237563   1.552   3.714  11.620 -0.4312  0.7231  0.8817
 8702SOL     OW37564   4.332   0.159  11.207  0.5927  0.2674 -0.2378
 8702SOL    HW137565   4.381   0.197  11.134 -0.6617  2.0191 -0.1537
 8702SOL    HW237566   4.346   0.067  11.184  1.0650  0.6456 -1.4510
 8703SOL     OW37567   2.172   2.833  13.630  0.3134  0.3993 -0.8507
 8703SOL    HW137568   2.101   2.881  13.673 -0.5366 -0.5202 -1.2446
 8703SOL    HW237569   2.239   2.900  13.613  1.0433 -0.0299  0.3168
 8704SOL     OW37570   0.420   1.255   4.150  0.0654 -1.1102 -0.5581
 8704SOL    HW137571   0.463   1.340   4.140 -0.1085 -0.4678  4.2051
 8704SOL    HW237572   0.415   1.226   4.059 -1.5769 -0.2201 -0.7575
 8705SOL     OW37573   0.864   2.608   8.298  0.3916 -0.2562  0.0353
 8705SOL    HW137574   0.773   2.592   8.271  0.5606 -0.4466 -0.4371
 8705SOL    HW237575   0.901   2.628   8.212 -1.8133 -0.0367 -0.8689
 8706SOL     OW37576   1.574   3.331  15.530  0.2348  0.3720  0.2737
 8706SOL    HW137577   1.593   3.277  15.453 -0.9615 -0.1777  0.3760
 8706SOL    HW237578   1.632   3.301  15.599  1.7269 -0.0693 -1.1608
 8707SOL     OW37579   4.247   4.585   1.392 -0.3657 -0.4009  0.3931
 8707SOL    HW137580   4.317   4.650   1.399  1.4247 -2.5096  2.3085
 8707SOL    HW237581   4.276   4.550   1.307  3.1175  0.9630  1.0147
 8708SOL     OW37582   2.081   3.674  15.813  0.3240  0.8436 -0.1494
 8708SOL    HW137583   2.105   3.740  15.749  1.1492  1.3312  0.6668
 8708SOL    HW237584   2.057   3.606  15.750  0.2053  0.0699  0.7245
 8709SOL     OW37585   2.239   2.087  15.343  0.2328  0.2287  0.0406
 8709SOL    HW137586   2.274   2.174  15.364 -0.8282  0.8557 -0.7296
 8709SOL    HW237587   2.225   2.057  15.433 -0.5618  1.6913  0.4222
 8710SOL     OW37588   3.143   4.073   0.991 -0.7209  0.0026  0.0562
 8710SOL    HW137589   3.102   4.036   0.912 -0.3939  1.5834 -0.8550
 8710SOL    HW237590   3.228   4.096   0.952 -1.1843 -2.4641 -2.4356
 8711SOL     OW37591   0.367   2.482   1.815 -0.1730 -0.4852 -0.8502
 8711SOL    HW137592   0.326   2.565   1.840  2.3357  0.2296  0.8457
 8711SOL    HW237593   0.400   2.511   1.730 -1.9978 -0.3416 -1.5183
 8712SOL     OW37594   3.337   1.931   5.120  0.5380  0.4290  0.1618
 8712SOL    HW137595   3.371   1.851   5.159 -1.3831  0.1352  1.2517
 8712SOL    HW237596   3.412   1.954   5.066  2.2978 -0.4784  2.2439
 8713SOL     OW37597   0.430   2.702   7.267 -0.1927 -0.5517 -0.2945
 8713SOL    HW137598   0.392   2.618   7.240 -0.4793 -0.6382  0.3697
 8713SOL    HW237599   0.379   2.723   7.345 -0.6178  0.8100 -0.9461
 8714SOL     OW37600   1.764   0.442   7.588  0.3290  0.3771  0.2872
 8714SOL    HW137601   1.712   0.474   7.515  0.7393 -0.1370 -0.2234
 8714SOL    HW237602   1.703   0.429   7.660  2.2082 -2.0277  1.4307
 8715SOL     OW37603   0.744   4.651   9.054  0.3144 -0.4007  0.6337
 8715SOL    HW137604   0.734   4.699   8.972 -2.2462 -0.1156  1.1114
 8715SOL    HW237605   0.839   4.653   9.063  0.3600  0.6341 -0.0841
 8716SOL     OW37606   3.137   0.466   1.833 -0.5159 -0.4650 -0.5774
 8716SOL    HW137607   3.224   0.470   1.874  0.1040  1.7589 -2.1086
 8716SOL    HW237608   3.084   0.441   1.908 -0.4741 -0.7655 -0.6452
 8717SOL     OW37609   0.429   0.791  13.222 -0.3130  0.4643  0.6117
 8717SOL    HW137610   0.428   0.828  13.134  0.7307 -2.4647 -0.6245
 8717SOL    HW237611   0.449   0.699  13.203 -1.4990  0.2264  0.5538
 8718SOL     OW37612   0.598   3.218   3.607  0.1289 -0.9849 -0.6399
 8718SOL    HW137613   0.666   3.247   3.546  0.9181  2.2966  1.7808
 8718SOL    HW237614   0.637   3.150   3.662 -1.0906  0.3594  1.8950
 8719SOL     OW37615   1.399   4.537   4.775  0.8416 -0.6332  0.2267
 8719SOL    HW137616   1.475   4.526   4.832  0.7191  0.0550  0.5224
 8719SOL    HW237617   1.381   4.445   4.754 -1.3855  0.0283 -0.8419
 8720SOL     OW37618   2.688   0.693   7.913 -0.0146 -0.0041  0.8492
 8720SOL    HW137619   2.636   0.678   7.991  0.8331 -1.8412  1.0815
 8720SOL    HW237620   2.752   0.758   7.942 -0.8267  1.5836 -0.8962
 8721SOL     OW37621   4.393   2.926   8.811 -0.0155 -0.2520  0.2345
 8721SOL    HW137622   4.355   2.929   8.899  1.2109 -2.8796  0.8315
 8721SOL    HW237623   4.465   2.986   8.829  0.4449 -1.2810  1.7736
 8722SOL     OW37624   3.379   3.479  14.519  0.5327  0.2348  0.0045
 8722SOL    HW137625   3.466   3.518  14.511 -0.0726  1.1160 -2.4545
 8722SOL    HW237626   3.399   3.400  14.569 -0.6001 -0.5412 -0.7590
 8723SOL     OW37627   2.366   3.198   2.534 -0.1350  0.3499 -0.6504
 8723SOL    HW137628   2.287   3.241   2.501 -1.5825 -1.5976  0.3062
 8723SOL    HW237629   2.429   3.238   2.473  2.7573 -1.5205  1.1274
 8724SOL     OW37630   3.037   2.228   7.358  0.0035  0.0152 -0.2238
 8724SOL    HW137631   3.022   2.145   7.314 -1.5068  0.5199 -0.6736
 8724SOL    HW237632   3.132   2.226   7.358  0.0497  1.7497 -0.4561
 8725SOL     OW37633   1.313   1.833   4.934  0.9571  0.6298 -0.2027
 8725SOL    HW137634   1.244   1.850   4.998  0.7144  1.3485 -0.6557
 8725SOL    HW237635   1.383   1.883   4.976  0.3830  2.2594 -1.1529
 8726SOL     OW37636   3.809   1.681   6.291  0.4345  0.1544  0.0321
 8726SOL    HW137637   3.865   1.738   6.344 -2.1931  2.1060  0.7161
 8726SOL    HW237638   3.848   1.594   6.294 -0.6985 -0.3792 -0.7854
 8727SOL     OW37639   3.953   0.575   7.747 -0.2515 -0.2317  0.1464
 8727SOL    HW137640   4.019   0.515   7.783  1.8690  1.2272 -1.3177
 8727SOL    HW237641   3.905   0.519   7.687 -0.2418  2.0600 -1.9910
 8728SOL     OW37642   3.743   2.331   5.930 -0.3275  0.6480  0.2089
 8728SOL    HW137643   3.786   2.415   5.911  1.5261 -0.6137 -1.1659
 8728SOL    HW237644   3.816   2.279   5.961 -0.5450  0.0230 -0.3228
 8729SOL     OW37645   0.578   1.580  17.068 -0.2403  0.1613 -0.1393
 8729SOL    HW137646   0.647   1.618  17.122 -1.3654  0.6736  0.9477
 8729SOL    HW237647   0.628   1.563  16.988  1.0961 -0.9457  0.9395
 8730SOL     OW37648   0.050   2.776   8.096 -0.5009  0.3194 -0.6976
 8730SOL    HW137649   0.122   2.715   8.106 -0.6724  0.0857 -0.8663
 8730SOL    HW237650   0.005   2.769   8.180  0.2718  1.4955 -0.1880
 8731SOL     OW37651   3.645   3.337   6.242 -0.3485 -0.5336  0.2360
 8731SOL    HW137652   3.700   3.268   6.205  0.3161 -0.0075  0.2450
 8731SOL    HW237653   3.673   3.401   6.177  1.5315 -0.5615  1.0107
 8732SOL     OW37654   0.314   0.703   7.359 -0.1430  0.2969  0.2708
 8732SOL    HW137655   0.369   0.692   7.437 -1.4048  0.9646  1.2544
 8732SOL    HW237656   0.316   0.798   7.351 -2.6471  0.3597  0.5063
 8733SOL     OW37657   0.332   4.652   8.832  0.3546  0.1907  0.3125
 8733SOL    HW137658   0.372   4.566   8.821  0.2554  0.1154  0.5527
 8733SOL    HW237659   0.348   4.657   8.926  0.7336 -1.8392  0.3484
 8734SOL     OW37660   3.681   3.538   1.749 -0.6056 -0.0787 -0.1493
 8734SOL    HW137661   3.708   3.555   1.659  0.0111 -0.1220  0.0309
 8734SOL    HW237662   3.752   3.481   1.777 -1.1781  0.1901  1.9018
 8735SOL     OW37663   2.167   2.322  15.688 -0.0300  0.4006 -0.3864
 8735SOL    HW137664   2.237   2.386  15.700  0.1783 -0.2243  1.8176
 8735SOL    HW237665   2.198   2.296  15.602  1.7334 -0.0023  0.3722
 8736SOL     OW37666   3.801   3.465  11.453  0.0622 -0.0443  0.0060
 8736SOL    HW137667   3.736   3.526  11.488 -0.6812 -1.4557  1.0685
 8736SOL    HW237668   3.870   3.461  11.519 -0.0523  0.6929  0.1709
 8737SOL     OW37669   2.190   4.182   8.310  0.1143 -0.5175  0.3938
 8737SOL    HW137670   2.108   4.219   8.278  0.3448  1.1452  1.6762
 8737SOL    HW237671   2.217   4.128   8.236  0.4627  3.2363 -2.2066
 8738SOL     OW37672   4.094   3.550  13.232 -0.3495 -0.3011  0.5526
 8738SOL    HW137673   4.135   3.552  13.145  1.2826  0.6490  1.3414
 8738SOL    HW237674   4.173   3.575  13.280 -1.1310  1.1031  1.1139
 8739SOL     OW37675   4.345   3.644   8.197 -0.7754  0.3573 -0.3620
 8739SOL    HW137676   4.364   3.659   8.104 -0.4554  1.2590 -0.1547
 8739SOL    HW237677   4.421   3.587   8.209 -1.4586 -0.1695  1.4745
 8740SOL     OW37678   3.777   1.903   8.140 -0.1235  0.8128  0.2191
 8740SOL    HW137679   3.694   1.865   8.112  1.5289 -1.6301 -1.4292
 8740SOL    HW237680   3.801   1.836   8.204 -1.8227 -0.8725 -0.9098
 8741SOL     OW37681   1.431   4.055   8.814  0.3505 -0.5124 -0.6984
 8741SOL    HW137682   1.496   4.027   8.878  0.1456  1.2389  0.2749
 8741SOL    HW237683   1.398   3.974   8.774 -0.1634 -0.9752  0.6880
 8742SOL     OW37684   2.333   2.196   9.090 -0.1270 -0.1428  0.3078
 8742SOL    HW137685   2.395   2.149   9.145 -1.3146 -0.1766  1.6058
 8742SOL    HW237686   2.258   2.193   9.150 -0.0791  0.4723  0.3962
 8743SOL     OW37687   2.549   2.963  17.259  0.1410 -0.5328 -0.1282
 8743SOL    HW137688   2.519   2.873  17.252  1.2490 -0.8486 -0.8463
 8743SOL    HW237689   2.639   2.935  17.244  0.2487  0.2781 -1.0405
 8744SOL     OW37690   2.644   1.588   7.831 -0.2296 -0.0106  0.0381
 8744SOL    HW137691   2.702   1.527   7.877 -0.1556 -0.2766 -0.4126
 8744SOL    HW237692   2.597   1.524   7.778  0.6506 -0.5767 -0.0605
 8745SOL     OW37693   3.447   4.018   1.727 -0.0994  0.2680  0.1206
 8745SOL    HW137694   3.410   3.935   1.758 -0.3128  1.5347  3.2743
 8745SOL    HW237695   3.445   4.009   1.632 -2.5749 -1.4900  0.3322
 8746SOL     OW37696   3.166   1.001   3.982 -0.3082 -0.5740  0.7833
 8746SOL    HW137697   3.220   0.923   3.993 -0.6654 -0.6649  1.8771
 8746SOL    HW237698   3.214   1.075   4.020 -2.5464  1.1151  0.3208
 8747SOL     OW37699   3.508   1.915   7.801  0.3539 -0.0626 -0.5321
 8747SOL    HW137700   3.437   1.870   7.756  1.1003 -1.4881 -0.2702
 8747SOL    HW237701   3.574   1.846   7.800 -1.6845 -2.0397  1.7494
 8748SOL     OW37702   2.283   0.197   9.134  0.1941  0.4734  0.5727
 8748SOL    HW137703   2.361   0.248   9.158  1.3427  0.2311 -2.6939
 8748SOL    HW237704   2.207   0.228   9.184 -0.5123  1.1709 -0.9284
 8749SOL     OW37705   4.223   3.214  14.306  0.0893  0.1716 -0.1183
 8749SOL    HW137706   4.266   3.190  14.388  0.0431 -0.9268 -0.4035
 8749SOL    HW237707   4.266   3.294  14.275 -0.3124  0.3537 -0.2001
 8750SOL     OW37708   2.764   3.000   3.407 -0.1164  0.2599 -0.1858
 8750SOL    HW137709   2.732   2.912   3.428 -2.8335  1.5142  1.0423
 8750SOL    HW237710   2.856   2.975   3.405 -0.6022 -1.4807 -0.3899
 8751SOL     OW37711   4.538   1.368   6.398  0.2229 -0.3005 -0.3667
 8751SOL    HW137712   4.528   1.285   6.351  1.6269 -0.7691  0.1818
 8751SOL    HW237713   4.487   1.418   6.334  1.9516 -1.5898 -2.7773
 8752SOL     OW37714   2.929   2.278   4.550  0.0177 -0.3319 -0.3352
 8752SOL    HW137715   2.981   2.233   4.617 -2.1875  0.7653  2.1192
 8752SOL    HW237716   2.935   2.212   4.481  0.2267 -1.6327  0.9175
 8753SOL     OW37717   3.350   2.175   9.794  0.4108  0.6483  0.1092
 8753SOL    HW137718   3.390   2.196   9.878  0.2237 -0.9154  0.5916
 8753SOL    HW237719   3.263   2.215   9.797  0.2528  0.3927 -1.0245
 8754SOL     OW37720   0.427   4.381   7.466  0.1645  0.4274  0.3549
 8754SOL    HW137721   0.396   4.444   7.401 -1.1261 -3.4618 -2.7519
 8754SOL    HW237722   0.519   4.373   7.441  0.7283 -0.1686  2.6164
 8755SOL     OW37723   4.643   1.853   9.074 -0.3097  0.0129  0.1318
 8755SOL    HW137724   4.634   1.762   9.100  2.4870 -0.1207  0.6063
 8755SOL    HW237725   0.013   1.878   9.102 -0.0421  1.3654 -1.8854
 8756SOL     OW37726   2.480   2.242   6.954  0.2281  0.1696  0.9059
 8756SOL    HW137727   2.406   2.201   6.999  0.0768  0.1230  0.6120
 8756SOL    HW237728   2.553   2.180   6.947 -0.4127 -0.4458 -0.2762
 8757SOL     OW37729   1.867   2.627  11.595  0.3784  0.4430 -0.0534
 8757SOL    HW137730   1.854   2.535  11.618 -1.2731  0.6716 -0.0169
 8757SOL    HW237731   1.937   2.628  11.530  0.8723  2.7851  0.5322
 8758SOL     OW37732   2.710   1.848  15.109 -0.2745  0.2112 -0.5126
 8758SOL    HW137733   2.674   1.826  15.023 -1.4618  0.9973 -0.2247
 8758SOL    HW237734   2.636   1.900  15.142 -0.4108  0.3047 -0.9696
 8759SOL     OW37735   2.288   4.460   3.576  0.1452 -0.4857 -0.2362
 8759SOL    HW137736   2.361   4.408   3.543 -0.6901 -0.3153 -2.3689
 8759SOL    HW237737   2.338   4.533   3.612 -3.0190  1.7133 -0.2791
 8760SOL     OW37738   0.904   4.266   7.438 -0.3557 -0.3089 -0.1304
 8760SOL    HW137739   0.943   4.318   7.508 -0.4540 -1.0254  0.4476
 8760SOL    HW237740   0.959   4.189   7.448 -1.2618 -1.0187 -0.6498
 8761SOL     OW37741   0.002   0.152   2.268 -0.0762 -0.0691 -0.0705
 8761SOL    HW137742   4.713   0.223   2.203 -0.0051  2.4511  2.6917
 8761SOL    HW237743   4.639   0.103   2.249  1.0267 -2.5345  1.7726
 8762SOL     OW37744   2.282   4.270  11.576 -0.3050 -0.2820 -0.5279
 8762SOL    HW137745   2.322   4.315  11.501 -1.1618  1.1942 -0.0895
 8762SOL    HW237746   2.191   4.265  11.548  0.3764 -0.0862 -2.8614
 8763SOL     OW37747   0.661   2.575   1.737  0.3002 -0.3144 -0.0882
 8763SOL    HW137748   0.646   2.670   1.744 -2.2547 -0.7673  0.5818
 8763SOL    HW237749   0.598   2.561   1.666 -0.9207  1.7151  0.5801
 8764SOL     OW37750   4.009   0.487  10.911 -0.3893  0.3462 -0.2358
 8764SOL    HW137751   3.943   0.554  10.929  1.5073  2.1734 -0.0293
 8764SOL    HW237752   4.045   0.521  10.829 -0.1771  1.4645  0.3205
 8765SOL     OW37753   1.224   3.487  17.099 -0.5773  0.5578 -0.7425
 8765SOL    HW137754   1.278   3.512  17.173 -0.9228 -1.2088  0.1034
 8765SOL    HW237755   1.140   3.462  17.138 -1.0766  0.7746 -1.6808
 8766SOL     OW37756   2.646   2.563   1.621 -0.1933 -0.1683  0.1169
 8766SOL    HW137757   2.705   2.633   1.650 -0.0078  0.4623 -1.7880
 8766SOL    HW237758   2.709   2.498   1.591  1.3052  1.9110 -1.2693
 8767SOL     OW37759   3.094   4.201   1.384 -0.2424  0.0850  0.0176
 8767SOL    HW137760   3.165   4.253   1.345  0.0058  0.1244  0.5161
 8767SOL    HW237761   3.123   4.111   1.395 -0.3137  0.0806  0.1720
 8768SOL     OW37762   3.004   0.187   0.216 -0.1107  0.6033  0.3246
 8768SOL    HW137763   2.952   0.110   0.237  0.8727  0.2724  1.5828
 8768SOL    HW237764   2.937   0.252   0.237  0.8825  1.9482 -0.6187
 8769SOL     OW37765   2.462   2.446   9.060 -0.0965 -0.1393  0.4845
 8769SOL    HW137766   2.460   2.492   9.144  2.7054  0.3447  0.2892
 8769SOL    HW237767   2.427   2.359   9.083  1.7795 -0.6786  1.3542
 8770SOL     OW37768   0.386   0.718   0.985  0.0689 -0.6144  0.5873
 8770SOL    HW137769   0.366   0.810   0.965  1.0296 -1.5905 -4.9141
 8770SOL    HW237770   0.304   0.670   0.989 -0.6935  0.6202 -0.3076
 8771SOL     OW37771   0.850   1.830   9.727 -0.3979  0.3333 -0.8636
 8771SOL    HW137772   0.866   1.736   9.733 -1.3579  0.0870 -2.2269
 8771SOL    HW237773   0.852   1.851   9.820  2.1463  0.2703 -0.8997
 8772SOL     OW37774   0.111   3.077   0.027 -0.0709  0.3105  0.3644
 8772SOL    HW137775   0.046   3.020   0.067 -0.7671  0.7400 -0.1349
 8772SOL    HW237776   0.163   3.108   0.101  2.1751 -1.2268 -0.6158
 8773SOL     OW37777   2.109   4.025  15.935 -0.1633 -0.0764  0.2836
 8773SOL    HW137778   2.161   4.051  15.859  0.4047 -0.2878  0.6011
 8773SOL    HW237779   2.046   3.962  15.899  0.3503 -0.9650  0.9566
 8774SOL     OW37780   1.417   0.925   4.029 -0.2955 -0.8385 -0.2746
 8774SOL    HW137781   1.331   0.889   4.008 -1.1433  0.6928  0.5348
 8774SOL    HW237782   1.385   0.976   4.103 -0.2761 -0.7840 -0.3036
 8775SOL     OW37783   3.682   2.541   9.157  0.2802 -0.0636  0.2273
 8775SOL    HW137784   3.711   2.581   9.239  2.5740  1.3984 -1.2903
 8775SOL    HW237785   3.723   2.599   9.093  0.4572  0.6908  1.0427
 8776SOL     OW37786   2.599   4.268   9.567 -0.1844 -0.3254  0.1084
 8776SOL    HW137787   2.535   4.229   9.627  0.6360 -0.6603  0.7603
 8776SOL    HW237788   2.573   4.227   9.485 -0.3953 -0.9950  0.5069
 8777SOL     OW37789   3.939   2.627  13.682 -0.8891  0.2504 -0.3738
 8777SOL    HW137790   3.987   2.568  13.623  0.8729  0.4479  0.8636
 8777SOL    HW237791   3.846   2.621  13.660 -0.9177  2.0165 -0.6882
 8778SOL     OW37792   2.377   2.047   2.334 -0.1653 -0.0412 -0.4809
 8778SOL    HW137793   2.350   2.036   2.243 -0.7674 -2.1608 -0.0307
 8778SOL    HW237794   2.337   1.970   2.375 -1.9825  0.1906 -1.8319
 8779SOL     OW37795   2.373   3.783   2.521  0.2464  0.4050 -0.1199
 8779SOL    HW137796   2.370   3.744   2.434 -1.2443  1.7386 -0.6752
 8779SOL    HW237797   2.463   3.766   2.549 -0.2162  1.3251  1.9421
 8780SOL     OW37798   0.502   1.161   3.252  0.2055  0.3595 -0.0868
 8780SOL    HW137799   0.576   1.123   3.298  0.3077  1.2467  0.4845
 8780SOL    HW237800   0.501   1.112   3.170 -0.8147 -2.1036  1.3924
 8781SOL     OW37801   4.414   2.870  11.786 -0.4441  0.1209  0.4731
 8781SOL    HW137802   4.476   2.909  11.847 -0.1371 -1.9401  1.4914
 8781SOL    HW237803   4.356   2.840  11.856  1.5602 -0.6837  1.7648
 8782SOL     OW37804   4.122   0.586  12.023  0.0823  0.2154 -0.6801
 8782SOL    HW137805   4.104   0.552  11.935 -2.0507 -1.7267  0.4859
 8782SOL    HW237806   4.199   0.641  12.012 -0.0408  0.3509 -0.8554
 8783SOL     OW37807   1.705   4.268   1.623 -0.1878 -0.4441  0.7707
 8783SOL    HW137808   1.646   4.197   1.597 -0.7488 -0.9356  3.3765
 8783SOL    HW237809   1.745   4.221   1.697  0.3398  0.4907  1.0759
 8784SOL     OW37810   4.432   0.142   1.063 -0.1085  0.0815 -0.0619
 8784SOL    HW137811   4.461   0.051   1.058  2.4677  0.8338  1.5406
 8784SOL    HW237812   4.482   0.176   1.137 -0.7759  0.8295  0.0400
 8785SOL     OW37813   1.147   0.005  13.399 -0.5317 -0.0832 -0.2433
 8785SOL    HW137814   1.130   4.637  13.438  1.0951  0.1006  0.8638
 8785SOL    HW237815   1.067   0.052  13.421 -0.9187 -0.3580 -1.0428
 8786SOL     OW37816   3.119   3.928  11.916  0.3655 -0.4855  0.1015
 8786SOL    HW137817   3.058   3.912  11.988  0.8278 -1.4891  0.2683
 8786SOL    HW237818   3.057   3.936  11.843  1.0668 -1.9317 -0.6405
 8787SOL     OW37819   1.212   2.521   3.880 -0.3476  0.2625  0.0130
 8787SOL    HW137820   1.191   2.505   3.788 -0.7547  0.1615  0.1249
 8787SOL    HW237821   1.293   2.571   3.870  1.1562 -1.9477  1.0113
 8788SOL     OW37822   0.698   1.041   6.896  0.5577  0.0315 -0.2866
 8788SOL    HW137823   0.603   1.050   6.906  0.3490  1.1113 -3.2740
 8788SOL    HW237824   0.726   1.088   6.818  1.3007 -1.0830 -0.6829
 8789SOL     OW37825   0.320   0.962   6.116  0.4976  0.0141  0.1738
 8789SOL    HW137826   0.387   1.015   6.159 -2.0450  2.5963  0.9565
 8789SOL    HW237827   0.301   1.027   6.049  0.8384  0.2071  0.2600
 8790SOL     OW37828   2.456   0.785  10.582 -0.3245  0.2125  0.7119
 8790SOL    HW137829   2.505   0.841  10.522  0.7354  0.0605  1.4273
 8790SOL    HW237830   2.471   0.693  10.563  0.8343  0.5001  0.2543
 8791SOL     OW37831   1.562   2.563   8.715 -0.2759  0.7040 -0.0101
 8791SOL    HW137832   1.532   2.548   8.625 -0.2650  0.1494  0.0799
 8791SOL    HW237833   1.474   2.575   8.750 -0.5682  0.0612 -0.5252
 8792SOL     OW37834   2.748   2.203  10.754 -0.7288  0.4030  0.2679
 8792SOL    HW137835   2.799   2.135  10.798  1.7529  2.4751  0.5748
 8792SOL    HW237836   2.699   2.158  10.685 -1.6185  0.0919  1.1029
 8793SOL     OW37837   4.652   3.501  11.072 -0.3960 -0.1548 -0.1139
 8793SOL    HW137838   4.602   3.495  10.991 -0.0432  0.0691 -0.3516
 8793SOL    HW237839   0.024   3.521  11.043 -0.3666 -1.4031 -0.8828
 8794SOL     OW37840   3.181   1.426   3.983  0.6252  0.3206 -0.3750
 8794SOL    HW137841   3.194   1.454   4.073  1.6866  1.6560 -0.9490
 8794SOL    HW237842   3.221   1.339   3.990 -2.6346 -1.3014 -1.4560
 8795SOL     OW37843   3.756   0.823   6.965  0.3148  0.0370  0.0253
 8795SOL    HW137844   3.814   0.835   6.890  0.9928 -1.0354  0.3953
 8795SOL    HW237845   3.697   0.897   6.947  0.5363  0.2920  0.3619
 8796SOL     OW37846   1.974   3.785   7.124  0.8962  0.0196  0.2607
 8796SOL    HW137847   1.994   3.818   7.212  2.2946  0.7998 -0.3387
 8796SOL    HW237848   2.010   3.696   7.128  0.3798 -0.2053 -0.0507
 8797SOL     OW37849   3.303   3.268   2.584 -0.0477 -0.2982 -0.5606
 8797SOL    HW137850   3.348   3.218   2.651 -1.9082  0.7543  1.4575
 8797SOL    HW237851   3.224   3.291   2.634 -0.0465  1.5321 -1.3783
 8798SOL     OW37852   3.143   1.351   8.937  0.5222  0.7585  0.0857
 8798SOL    HW137853   3.100   1.313   9.014  1.5115 -0.2162  0.1575
 8798SOL    HW237854   3.145   1.443   8.963  1.6581  1.0395 -1.0092
 8799SOL     OW37855   0.596   3.550   6.768 -0.3416  0.2457 -0.0784
 8799SOL    HW137856   0.552   3.600   6.700  0.5572  0.7411 -0.3012
 8799SOL    HW237857   0.598   3.462   6.729 -2.5725  0.7916 -1.3906
 8800SOL     OW37858   2.408   0.578  16.550  0.1755  0.0294  0.1732
 8800SOL    HW137859   2.501   0.598  16.565  0.6946 -1.2459 -1.2243
 8800SOL    HW237860   2.396   0.521  16.625 -1.6306 -3.0963 -2.4678
 8801SOL     OW37861   3.275   2.240   9.388  0.3630 -0.1897 -0.2020
 8801SOL    HW137862   3.183   2.216   9.381  0.2188  0.8705 -1.7484
 8801SOL    HW237863   3.260   2.334   9.378 -1.3407 -0.3239  0.9958
 8802SOL     OW37864   2.109   3.953   6.926 -0.1079 -0.0389  0.0032
 8802SOL    HW137865   2.057   3.900   6.986  1.8028 -0.4436  1.3153
 8802SOL    HW237866   2.155   3.885   6.875  2.2130 -0.1279  2.2087
 8803SOL     OW37867   1.577   4.589   6.939  0.1782  0.1725 -0.4974
 8803SOL    HW137868   1.542   4.661   6.992  0.5759  0.9738 -1.3224
 8803SOL    HW237869   1.516   4.519   6.960 -1.2449  1.6512  0.3338
 8804SOL     OW37870   0.356   1.472  17.171 -0.1594  0.1464  0.5294
 8804SOL    HW137871   0.381   1.397  17.117 -0.6525 -0.2628  0.8618
 8804SOL    HW237872   0.428   1.534  17.162 -1.0359  1.2228  0.9610
 8805SOL     OW37873   0.878   0.467   2.038  0.2040 -0.2452 -0.1259
 8805SOL    HW137874   0.889   0.392   1.979  2.0403  0.7786 -1.0927
 8805SOL    HW237875   0.971   0.489   2.049 -0.7319  2.3681  2.7124
 8806SOL     OW37876   1.179   0.746   9.542  0.3501  0.0641 -0.5165
 8806SOL    HW137877   1.258   0.773   9.589 -0.4407  1.6028 -0.1079
 8806SOL    HW237878   1.193   0.657   9.575 -0.5946 -0.5762 -1.8600
 8807SOL     OW37879   2.934   3.190   3.081  0.2887 -0.4809 -0.2825
 8807SOL    HW137880   2.982   3.262   3.041  0.0935 -0.2642 -0.1255
 8807SOL    HW237881   2.984   3.172   3.161 -0.5545 -1.0881  0.1082
 8808SOL     OW37882   2.299   1.225  10.195  0.3671 -0.2447 -0.3061
 8808SOL    HW137883   2.391   1.209  10.171  0.7723  0.6190  0.7092
 8808SOL    HW237884   2.276   1.283  10.122 -1.3160 -2.2874 -1.3898
 8809SOL     OW37885   3.965   2.496   6.215 -0.4924 -0.9378 -0.4280
 8809SOL    HW137886   4.046   2.457   6.181 -0.1440 -1.3765  0.9035
 8809SOL    HW237887   3.971   2.499   6.310 -1.4478  0.0296 -0.3978
 8810SOL     OW37888   1.941   0.324   6.152 -0.2329  0.3082  0.2539
 8810SOL    HW137889   1.952   0.244   6.204 -0.7599  0.3175  0.3804
 8810SOL    HW237890   1.864   0.350   6.203 -0.6710 -4.1022  1.8781
 8811SOL     OW37891   3.244   4.212   5.367 -0.1026  0.1661 -0.0162
 8811SOL    HW137892   3.186   4.179   5.435  1.2489 -0.0639  1.0455
 8811SOL    HW237893   3.222   4.305   5.370 -2.4328 -0.4343  0.9343
 8812SOL     OW37894   4.573   2.031   8.785  0.6900 -0.1237  0.1427
 8812SOL    HW137895   4.504   1.964   8.779 -0.6199  1.2669 -0.1856
 8812SOL    HW237896   4.529   2.102   8.831  1.0579 -0.1925  0.6035
 8813SOL     OW37897   0.988   4.071   3.337  0.6474  0.3546 -0.6369
 8813SOL    HW137898   0.975   3.980   3.310  0.0221  0.4900 -0.7925
 8813SOL    HW237899   1.010   4.115   3.255  0.5716  1.0027 -0.3025
 8814SOL     OW37900   0.257   2.721   8.798 -0.0354  0.4623  0.3016
 8814SOL    HW137901   0.331   2.762   8.753  1.2574  1.3339  3.2364
 8814SOL    HW237902   0.179   2.770   8.771 -0.5357 -1.9187 -2.5610
 8815SOL     OW37903   0.874   2.208   1.886  0.0031  0.0783 -0.7792
 8815SOL    HW137904   0.863   2.302   1.888  2.9969  0.4003  0.6801
 8815SOL    HW237905   0.842   2.197   1.796 -2.1870 -0.7575  0.1159
 8816SOL     OW37906   1.906   4.334  10.948 -0.6497 -0.0246 -0.1139
 8816SOL    HW137907   1.948   4.400  11.002  0.7306 -0.1758 -1.0162
 8816SOL    HW237908   1.891   4.376  10.863 -1.1593 -0.1447 -0.0854
 8817SOL     OW37909   3.900   1.016   3.439 -0.6378 -0.2597 -0.0451
 8817SOL    HW137910   3.894   1.007   3.344 -0.2974 -1.4423  0.0445
 8817SOL    HW237911   3.874   0.926   3.461 -2.9146  0.9915  2.3379
 8818SOL     OW37912   2.031   1.452   3.188  0.3844  0.5252  0.4625
 8818SOL    HW137913   1.949   1.408   3.209  0.0431  0.4828 -0.9689
 8818SOL    HW237914   2.001   1.541   3.170  0.0607  0.2738 -0.2237
 8819SOL     OW37915   0.240   1.876   4.658  0.7326  0.2398 -0.2089
 8819SOL    HW137916   0.225   1.808   4.593 -0.6905  0.7095 -0.3689
 8819SOL    HW237917   0.241   1.954   4.603 -0.8726 -0.5962 -1.4021
 8820SOL     OW37918   4.411   3.368   3.603 -0.1612  0.2679 -0.0688
 8820SOL    HW137919   4.405   3.273   3.609 -1.7468  0.3932  0.2803
 8820SOL    HW237920   4.441   3.375   3.513  0.8118  0.4839  0.2688
 8821SOL     OW37921   4.453   2.335   8.570  0.4794  0.0302 -0.0381
 8821SOL    HW137922   4.449   2.281   8.491  1.2212  0.8251 -0.6225
 8821SOL    HW237923   4.513   2.292   8.631  1.3756 -1.3423 -1.9080
 8822SOL     OW37924   0.983   1.265   1.172  0.1210  0.0780  0.2479
 8822SOL    HW137925   1.043   1.228   1.107 -0.6391 -2.0573  0.7677
 8822SOL    HW237926   0.991   1.215   1.254  0.4823 -0.0398  0.1416
 8823SOL     OW37927   3.232   4.238   7.295  0.3486 -0.0315  0.2139
 8823SOL    HW137928   3.152   4.187   7.278  1.3457 -1.4130 -0.2944
 8823SOL    HW237929   3.212   4.288   7.374 -0.6475  2.2294 -1.4736
 8824SOL     OW37930   1.858   1.055  14.430 -0.0278 -0.0262  0.1934
 8824SOL    HW137931   1.861   1.050  14.335  1.5160  0.1141  0.2406
 8824SOL    HW237932   1.853   0.962  14.451 -0.1676 -0.2754 -0.9455
 8825SOL     OW37933   3.154   0.162   5.587 -0.2866 -0.3423 -0.2261
 8825SOL    HW137934   3.119   0.210   5.512 -0.6225  0.7767  0.6344
 8825SOL    HW237935   3.177   0.080   5.544 -2.9591  0.8545 -3.9318
 8826SOL     OW37936   1.644   1.243   6.404 -0.0080 -0.0380  0.6148
 8826SOL    HW137937   1.594   1.274   6.479 -1.5507 -1.3117  0.1134
 8826SOL    HW237938   1.579   1.181   6.370 -1.7539  1.0345  1.9589
 8827SOL     OW37939   2.232   3.660   2.783 -0.2646 -0.2004  0.3031
 8827SOL    HW137940   2.304   3.666   2.844  1.0078 -3.0920 -0.9281
 8827SOL    HW237941   2.271   3.705   2.708 -0.9416 -0.9948 -0.5280
 8828SOL     OW37942   2.433   3.732   2.962 -0.7091 -0.2178  0.2670
 8828SOL    HW137943   2.482   3.779   3.030 -0.4354 -0.2911  0.1230
 8828SOL    HW237944   2.408   3.805   2.905  1.2499 -1.3370 -2.0891
 8829SOL     OW37945   0.219   3.383   3.997  0.2194  0.2213 -0.5461
 8829SOL    HW137946   0.314   3.373   3.993  0.0189 -2.5488  1.1591
 8829SOL    HW237947   0.212   3.463   4.049 -2.0024 -0.2619 -0.0655
 8830SOL     OW37948   2.549   1.808   5.597  0.6235  0.1833 -0.2222
 8830SOL    HW137949   2.543   1.851   5.683  2.8020 -1.5463  0.8190
 8830SOL    HW237950   2.547   1.876   5.530 -1.0562 -0.7036 -1.0663
 8831SOL     OW37951   4.093   3.140   5.489  0.1397  0.5526 -0.3836
 8831SOL    HW137952   4.036   3.177   5.556  1.5283 -0.5212  1.4253
 8831SOL    HW237953   4.037   3.105   5.420 -0.9496 -1.2590  1.4084
 8832SOL     OW37954   1.328   0.713   2.770  0.4569  0.7601 -0.1460
 8832SOL    HW137955   1.372   0.652   2.711 -0.8948  0.5188 -0.9166
 8832SOL    HW237956   1.281   0.650   2.825  2.3424  1.1009  1.8221
 8833SOL     OW37957   2.905   2.074   2.044  0.2887 -0.3693  0.0933
 8833SOL    HW137958   2.862   2.109   1.966  0.8664 -0.8311 -0.4339
 8833SOL    HW237959   2.976   2.025   2.003 -0.0525 -0.5016 -0.3521
 8834SOL     OW37960   0.445   3.198   3.995 -0.2119  0.4935  0.2895
 8834SOL    HW137961   0.401   3.133   3.941  2.1909  0.1926 -1.3254
 8834SOL    HW237962   0.536   3.168   4.004  1.5099  4.4828 -3.5521
 8835SOL     OW37963   3.017   0.379   1.324  0.0497  0.0142  0.2020
 8835SOL    HW137964   2.943   0.339   1.370 -0.1671  1.7739  1.3710
 8835SOL    HW237965   3.050   0.450   1.380  2.5991 -1.0009  0.0107
 8836SOL     OW37966   3.121   0.084  17.024 -0.0768 -0.1589 -0.3494
 8836SOL    HW137967   3.164   0.132  16.953 -1.6343 -1.1524 -1.9606
 8836SOL    HW237968   3.192   0.076  17.088  0.2932  1.8622 -0.5124
 8837SOL     OW37969   4.595   4.712   3.652 -0.1130 -0.4559  0.4981
 8837SOL    HW137970   4.679   4.676   3.623 -1.2922 -1.0365 -2.2169
 8837SOL    HW237971   4.600   4.688   3.744  1.5088 -0.0891  0.4977
 8838SOL     OW37972   0.856   2.354   5.977 -0.1413 -0.3072  0.5220
 8838SOL    HW137973   0.811   2.346   6.061  0.2479  1.5539  0.9141
 8838SOL    HW237974   0.807   2.285   5.933 -1.0960  0.4675  0.3790
 8839SOL     OW37975   2.594   3.821   1.895  0.2927  0.4244  0.5204
 8839SOL    HW137976   2.648   3.896   1.871  1.6117 -0.9864 -0.8778
 8839SOL    HW237977   2.657   3.752   1.878 -0.7061 -0.2338 -0.5175
 8840SOL     OW37978   0.723   2.202   9.139 -0.1683  0.4126 -0.0986
 8840SOL    HW137979   0.800   2.154   9.170 -0.7666 -0.8069 -0.5072
 8840SOL    HW237980   0.687   2.245   9.216 -0.3977 -0.9478  0.5590
 8841SOL     OW37981   3.569   2.323   8.066 -0.0415 -0.0722  0.5141
 8841SOL    HW137982   3.559   2.255   8.133  1.6995  0.0754  0.9271
 8841SOL    HW237983   3.514   2.390   8.106 -0.4243 -0.6864  1.0174
 8842SOL     OW37984   3.503   3.615  10.935 -0.4889  0.1099  0.3843
 8842SOL    HW137985   3.548   3.576  10.860 -0.7219  0.6168 -0.0207
 8842SOL    HW237986   3.427   3.560  10.951 -0.7350  0.6029  0.9152
 8843SOL     OW37987   3.649   1.672  11.700 -0.2947 -0.2628  0.5723
 8843SOL    HW137988   3.719   1.686  11.637 -0.5898 -1.2925  0.0279
 8843SOL    HW237989   3.702   1.651  11.777  1.2483  3.5953  0.6003
 8844SOL     OW37990   1.743   4.469   8.014  0.7201 -0.7200  0.0625
 8844SOL    HW137991   1.820   4.412   8.009  1.8351  0.7317  0.4713
 8844SOL    HW237992   1.772   4.537   7.953 -0.9782  0.1875  0.2710
 8845SOL     OW37993   0.176   3.101   4.320 -0.1194 -0.5284 -0.5765
 8845SOL    HW137994   0.085   3.115   4.292 -0.4763  1.9218  1.7245
 8845SOL    HW237995   0.205   3.192   4.308  1.3754 -1.3448 -3.0946
 8846SOL     OW37996   1.019   4.278   8.831 -0.0957  0.1368  0.1978
 8846SOL    HW137997   0.936   4.314   8.863 -1.5639 -2.5604 -0.6055
 8846SOL    HW237998   0.987   4.213   8.769  0.0451 -0.9574  1.2525
 8847SOL     OW37999   1.139   1.294  15.783 -0.7971 -0.1043 -0.8720
 8847SOL    HW138000   1.206   1.275  15.848 -0.2093  0.0724 -1.4325
 8847SOL    HW238001   1.069   1.235  15.812 -1.6978  0.5748 -1.6508
 8848SOL     OW38002   4.175   2.361   3.320  0.2781 -0.6560  0.5974
 8848SOL    HW138003   4.178   2.271   3.289  1.4840  0.1404 -1.6535
 8848SOL    HW238004   4.149   2.400   3.236  0.6586 -1.3235  0.1754
 8849SOL     OW38005   2.350   4.616   0.511  0.3718 -0.4425 -0.2472
 8849SOL    HW138006   2.267   4.568   0.506 -1.3379  2.4453  0.9037
 8849SOL    HW238007   2.334   4.677   0.583 -0.0259 -2.4269  1.3671
 8850SOL     OW38008   3.222   3.038  11.134  0.1589  0.0246  0.1439
 8850SOL    HW138009   3.153   3.082  11.184  0.5441 -1.5130  1.9993
 8850SOL    HW238010   3.242   2.964  11.192 -2.2520 -0.5296  0.2645
 8851SOL     OW38011   4.315   3.488   6.075  0.1850 -0.3547  0.3603
 8851SOL    HW138012   4.219   3.484   6.072  0.1560  0.2993  0.4331
 8851SOL    HW238013   4.345   3.428   6.143  0.2628 -2.6929 -1.7789
 8852SOL     OW38014   4.679   0.899   2.280 -0.4918  0.4747  0.2316
 8852SOL    HW138015   4.584   0.886   2.273 -0.3102 -0.2484 -0.9046
 8852SOL    HW238016   4.686   0.913   2.375  1.0348  0.8195  0.0598
 8853SOL     OW38017   3.824   3.080   7.605  0.3889  0.3826 -0.5525
 8853SOL    HW138018   3.859   3.135   7.675 -2.1639  0.6341  0.5009
 8853SOL    HW238019   3.833   3.139   7.530  2.1358  2.0512  0.9577
 8854SOL     OW38020   0.961   2.355  13.055  0.0129 -0.0991 -0.9776
 8854SOL    HW138021   1.021   2.419  13.016  1.7937 -1.1557  0.0716
 8854SOL    HW238022   0.894   2.409  13.097  0.0646  0.0797 -1.1223
 8855SOL     OW38023   1.142   4.475  14.931  0.2396 -0.1278 -0.6878
 8855SOL    HW138024   1.213   4.517  14.978 -0.0819  0.0458 -0.3608
 8855SOL    HW238025   1.132   4.528  14.852  0.1151 -0.5076 -0.9271
 8856SOL     OW38026   3.883   4.448   4.542 -0.0179  0.0191 -0.4290
 8856SOL    HW138027   3.845   4.457   4.629 -0.0081  0.4657 -0.4672
 8856SOL    HW238028   3.976   4.438   4.562  0.0111  0.9899 -0.0837
 8857SOL     OW38029   2.979   2.485   8.483  0.3292 -0.1159 -1.3273
 8857SOL    HW138030   2.974   2.544   8.408 -0.4307  0.5370 -0.7656
 8857SOL    HW238031   2.890   2.449   8.477  0.0938  0.5266 -1.6443
 8858SOL     OW38032   0.697   3.189   5.435  0.8732 -0.0615 -0.1163
 8858SOL    HW138033   0.681   3.144   5.518 -3.1169 -1.4551 -1.6342
 8858SOL    HW238034   0.711   3.120   5.370 -0.9110  1.3108 -1.9790
 8859SOL     OW38035   0.969   2.846   3.748 -0.2985 -0.2567  0.3794
 8859SOL    HW138036   0.953   2.937   3.724 -0.8629 -0.7443 -1.1228
 8859SOL    HW238037   0.886   2.819   3.708  0.2148 -0.3682 -0.6163
 8860SOL     OW38038   0.394   1.791   3.477 -0.0351 -0.8083  0.0626
 8860SOL    HW138039   0.430   1.838   3.402  0.7264  1.0051  1.5561
 8860SOL    HW238040   0.315   1.749   3.444 -0.7128  0.9080 -0.4524
 8861SOL     OW38041   2.254   2.870   2.540  0.0447  0.0475  0.1305
 8861SOL    HW138042   2.220   2.951   2.578  3.2826  1.8855 -0.8537
 8861SOL    HW238043   2.224   2.866   2.450 -1.4130  1.5239  0.5611
 8862SOL     OW38044   3.941   4.473  13.095 -0.3178 -0.0158 -0.1871
 8862SOL    HW138045   4.002   4.546  13.105  0.1588 -0.4438  0.0358
 8862SOL    HW238046   3.882   4.511  13.030 -0.6230 -0.1166  0.0302
 8863SOL     OW38047   0.837   0.004  16.833  0.3313  0.1495 -0.2082
 8863SOL    HW138048   0.915   0.010  16.778  0.3444 -1.2617 -0.3345
 8863SOL    HW238049   0.765   4.706  16.773 -1.0947  0.1623  1.4991
 8864SOL     OW38050   1.836   4.566   7.193 -0.1369  0.0218  0.0226
 8864SOL    HW138051   1.875   4.480   7.207 -1.0478 -0.3395  0.3304
 8864SOL    HW238052   1.837   4.548   7.099 -0.0512  2.2087 -0.3841
 8865SOL     OW38053   2.290   1.893   8.790 -0.2345 -0.5773 -0.3691
 8865SOL    HW138054   2.330   1.944   8.861  2.2172 -0.6072 -1.7087
 8865SOL    HW238055   2.260   1.818   8.841  0.8420 -1.0825 -0.4717
 8866SOL     OW38056   0.988   3.776   6.896  0.7829  0.3307  0.1654
 8866SOL    HW138057   0.959   3.747   6.982  1.8329  0.0184  0.4135
 8866SOL    HW238058   0.905   3.756   6.853  0.3517 -0.1596  1.2334
 8867SOL     OW38059   2.624   4.317  11.551 -0.1248  0.0035  0.0723
 8867SOL    HW138060   2.597   4.296  11.461  2.6849 -0.4497 -0.6685
 8867SOL    HW238061   2.584   4.399  11.578 -2.2177 -0.8592 -0.4448
 8868SOL     OW38062   1.519   0.660  15.841 -0.2445  0.3986  0.0793
 8868SOL    HW138063   1.428   0.685  15.824 -0.2310  0.1483 -0.3569
 8868SOL    HW238064   1.555   0.748  15.852  0.1692  0.0295  1.6503
 8869SOL     OW38065   1.081   2.654   6.593 -0.5831  0.2090  0.3084
 8869SOL    HW138066   1.043   2.588   6.535  1.3386 -1.6996  1.2200
 8869SOL    HW238067   1.136   2.595   6.645 -1.1980  1.8806  2.8603
 8870SOL     OW38068   3.713   2.875  13.304 -0.5300  0.2037  0.3129
 8870SOL    HW138069   3.739   2.901  13.216  0.2181  0.1378  0.5142
 8870SOL    HW238070   3.731   2.781  13.303  2.3956  0.7914 -1.3504
 8871SOL     OW38071   2.773   1.247   4.333  0.0128 -0.6699  0.1878
 8871SOL    HW138072   2.736   1.254   4.245  0.8551 -1.0000 -0.1883
 8871SOL    HW238073   2.748   1.331   4.372  1.3920  0.4297 -1.2911
 8872SOL     OW38074   3.268   3.328   6.237  0.5791 -0.2211 -0.4020
 8872SOL    HW138075   3.280   3.234   6.246 -2.0294 -0.4896  0.1365
 8872SOL    HW238076   3.209   3.334   6.163 -0.5637 -0.7396  0.4633
 8873SOL     OW38077   4.613   3.575   7.927 -0.5698  0.1485 -0.4004
 8873SOL    HW138078   4.565   3.498   7.958  1.5023 -0.7600  0.5082
 8873SOL    HW238079   4.540   3.637   7.915 -2.2525 -1.3614  2.0358
 8874SOL     OW38080   2.173   4.145   4.123  0.2708  0.1900  0.0567
 8874SOL    HW138081   2.181   4.201   4.045  1.0938  0.8934  0.6416
 8874SOL    HW238082   2.201   4.065   4.080  0.4213  1.2067 -1.7577
 8875SOL     OW38083   3.442   1.457   2.295 -0.6541  0.0157  0.4591
 8875SOL    HW138084   3.366   1.428   2.345 -0.0431 -1.8926  0.2967
 8875SOL    HW238085   3.424   1.550   2.280 -1.2746 -0.6093 -2.5871
 8876SOL     OW38086   2.922   0.278  14.192  0.1891 -0.1104  0.6747
 8876SOL    HW138087   3.002   0.329  14.178 -1.0627  0.9888 -2.3414
 8876SOL    HW238088   2.858   0.343  14.223  0.7973  0.0094  1.7026
 8877SOL     OW38089   4.162   1.962   4.515 -0.3947  0.4892  0.4274
 8877SOL    HW138090   4.238   1.978   4.571 -0.8620  2.0106  0.6248
 8877SOL    HW238091   4.100   1.935   4.584 -1.1909  0.0517 -0.4539
 8878SOL     OW38092   1.722   3.361   1.801  0.5482 -0.5734 -0.4258
 8878SOL    HW138093   1.795   3.354   1.862  0.8923  0.3060 -0.7380
 8878SOL    HW238094   1.714   3.456   1.800 -0.0118 -0.6155  0.5898
 8879SOL     OW38095   2.305   1.631   0.556  0.0350  0.1020 -0.2331
 8879SOL    HW138096   2.347   1.549   0.583  1.4862  0.8238 -0.3067
 8879SOL    HW238097   2.222   1.598   0.522  1.1241 -2.7009 -0.1824
 8880SOL     OW38098   0.741   0.082   3.840 -0.5008  0.0315  0.6759
 8880SOL    HW138099   0.833   0.057   3.835 -0.7025 -0.5190 -0.2165
 8880SOL    HW238100   0.734   0.127   3.755 -0.6279 -3.0141 -0.9049
 8881SOL     OW38101   0.796   3.073  13.793 -0.2578  0.0094  0.5192
 8881SOL    HW138102   0.702   3.054  13.801 -0.1570 -0.4769  0.5613
 8881SOL    HW238103   0.824   2.984  13.771 -2.3899 -0.0059 -2.1398
 8882SOL     OW38104   4.320   0.247  15.113 -0.2879  0.3516  0.8496
 8882SOL    HW138105   4.373   0.184  15.161 -1.7339 -0.2103  1.7050
 8882SOL    HW238106   4.259   0.199  15.057 -0.4137 -0.5669  1.7881
 8883SOL     OW38107   0.147   3.866   9.343  0.0956  0.0979  0.1435
 8883SOL    HW138108   0.155   3.930   9.413 -0.9731  2.5593 -1.9816
 8883SOL    HW238109   0.055   3.849   9.363  0.3092 -0.1213  0.9304
 8884SOL     OW38110   0.864   2.854   4.836  0.2779  0.3543 -0.1047
 8884SOL    HW138111   0.917   2.795   4.784  0.1988 -0.0798  0.3102
 8884SOL    HW238112   0.926   2.907   4.886 -0.3488  0.5860  0.4399
 8885SOL     OW38113   2.546   1.160   8.488  0.2241 -0.0233  0.5498
 8885SOL    HW138114   2.608   1.218   8.532  0.7613 -1.2919  1.4707
 8885SOL    HW238115   2.491   1.146   8.566 -1.9209 -0.2809 -1.0165
 8886SOL     OW38116   2.424   0.808   7.837 -0.4010 -0.5568 -0.1330
 8886SOL    HW138117   2.460   0.776   7.919  1.8858 -1.0008 -1.3251
 8886SOL    HW238118   2.330   0.824   7.850 -0.9903 -1.6613 -2.9083
 8887SOL     OW38119   0.924   0.601   3.727  0.1638 -0.2343  0.2698
 8887SOL    HW138120   0.951   0.573   3.814 -2.9512 -0.3709  1.1933
 8887SOL    HW238121   0.831   0.579   3.726  0.6373 -2.2771 -1.0448
 8888SOL     OW38122   0.830   2.169  14.936 -0.5222  0.1525 -0.2557
 8888SOL    HW138123   0.922   2.194  14.933 -0.6359  0.8478  2.1321
 8888SOL    HW238124   0.804   2.201  14.850 -0.3160 -1.1691 -0.8192
 8889SOL     OW38125   4.026   3.843   2.845 -0.1416 -0.0872  0.1350
 8889SOL    HW138126   3.959   3.860   2.779 -0.7006 -1.1910  0.4324
 8889SOL    HW238127   3.979   3.860   2.926 -0.0542 -2.3695  0.6599
 8890SOL     OW38128   2.935   2.983   2.679  0.3131 -0.7021  0.1375
 8890SOL    HW138129   2.944   2.943   2.593  0.4049  0.0369 -0.1932
 8890SOL    HW238130   2.871   2.920   2.713  1.6635 -2.5641 -0.7934
 8891SOL     OW38131   1.254   3.962  10.328  0.2838  0.2409  0.1271
 8891SOL    HW138132   1.289   4.019  10.397  2.9618 -0.7506 -0.4133
 8891SOL    HW238133   1.167   3.934  10.357  0.1599  0.8813  0.3895
 8892SOL     OW38134   0.960   0.423   8.724 -0.2830  0.1084  0.0717
 8892SOL    HW138135   0.999   0.412   8.637 -1.3425  2.4443 -0.7172
 8892SOL    HW238136   1.001   0.503   8.758 -1.2062  1.0829 -1.0782
 8893SOL     OW38137   2.246   3.318   7.242 -0.4655  0.4552  0.2931
 8893SOL    HW138138   2.318   3.377   7.222  2.2129 -3.0802 -0.3827
 8893SOL    HW238139   2.283   3.238   7.207 -1.0159 -0.1551  1.0881
 8894SOL     OW38140   2.008   2.559   5.168 -0.5750  0.0495 -0.3248
 8894SOL    HW138141   1.983   2.644   5.131 -3.7448  0.0912  1.8990
 8894SOL    HW238142   2.083   2.534   5.115 -0.7975 -2.2885  0.4758
 8895SOL     OW38143   0.786   3.587   8.957  0.2888  0.6029  0.3220
 8895SOL    HW138144   0.699   3.607   8.990  0.4150 -0.5294  1.3377
 8895SOL    HW238145   0.781   3.646   8.882  1.6068 -0.3157 -0.4828
 8896SOL     OW38146   1.647   2.776   3.134  0.0855 -0.3560 -0.5000
 8896SOL    HW138147   1.557   2.755   3.158  0.4155 -0.4984  0.5999
 8896SOL    HW238148   1.681   2.769   3.223  0.4173  1.2968 -0.4878
 8897SOL     OW38149   3.846   2.364   3.037  0.3990 -0.0461 -0.0808
 8897SOL    HW138150   3.926   2.416   3.039  1.3153 -1.3671 -1.7653
 8897SOL    HW238151   3.879   2.274   3.043  0.2387 -0.0092  1.3386
 8898SOL     OW38152   3.237   1.988   1.832 -0.5591  0.3018  0.2497
 8898SOL    HW138153   3.161   1.982   1.773  0.2205  0.2579 -0.7524
 8898SOL    HW238154   3.205   1.930   1.901  3.0807 -1.6003  0.2989
 8899SOL     OW38155   3.665   4.107  10.293 -0.4637  0.0079 -0.1488
 8899SOL    HW138156   3.746   4.072  10.255  0.1326  1.6651 -0.4164
 8899SOL    HW238157   3.627   4.160  10.223 -2.8199 -0.9255  0.4323
 8900SOL     OW38158   0.541   3.247   1.667  0.4377 -0.8093 -0.4317
 8900SOL    HW138159   0.597   3.289   1.602  0.2702  0.1959  0.0702
 8900SOL    HW238160   0.602   3.255   1.741  0.2779 -2.0604 -0.1746
 8901SOL     OW38161   0.389   0.411   5.650  0.1451  0.6344 -0.4384
 8901SOL    HW138162   0.359   0.332   5.696  0.4740  1.2835  0.8797
 8901SOL    HW238163   0.482   0.401   5.670  0.3717  0.9682 -1.3450
 8902SOL     OW38164   3.534   3.888   1.201 -0.0636  0.8875  0.2543
 8902SOL    HW138165   3.471   3.940   1.150  0.0330  3.0592  2.3944
 8902SOL    HW238166   3.618   3.908   1.159  0.1493  0.7283  0.6116
 8903SOL     OW38167   4.365   1.043   7.348 -0.0288 -0.3597 -0.2576
 8903SOL    HW138168   4.385   1.046   7.442 -0.1527 -0.7515 -0.2212
 8903SOL    HW238169   4.343   0.951   7.339  3.7153 -1.2224 -0.8981
 8904SOL     OW38170   0.651   3.969   7.339  0.2762 -0.1320  0.6430
 8904SOL    HW138171   0.700   3.965   7.420  0.0191  0.9334  0.8424
 8904SOL    HW238172   0.703   3.921   7.274  0.9913  1.4810  0.0436
 8905SOL     OW38173   3.740   1.031   5.729 -0.1024 -0.1213 -0.1621
 8905SOL    HW138174   3.646   1.049   5.733 -0.0629 -0.2563  1.1435
 8905SOL    HW238175   3.750   1.034   5.634  0.8707 -2.1607 -0.1257
 8906SOL     OW38176   2.014   4.259   9.271 -0.6746  0.4789 -0.1175
 8906SOL    HW138177   1.995   4.204   9.347  2.4122  2.2411  1.8977
 8906SOL    HW238178   1.943   4.322   9.279 -2.3601 -1.4599  0.1528
 8907SOL     OW38179   0.165   0.029   4.792 -0.0685 -0.1629 -0.3650
 8907SOL    HW138180   0.215   4.666   4.810  0.0211  0.2867  1.3989
 8907SOL    HW238181   0.224   0.089   4.747 -0.6636  0.5885 -0.1256
 8908SOL     OW38182   4.433   3.552  13.440  0.4888 -0.2679  0.3249
 8908SOL    HW138183   4.500   3.618  13.427  0.4639 -0.2586  0.2423
 8908SOL    HW238184   4.373   3.595  13.502  1.0241 -0.3285  0.8841
 8909SOL     OW38185   2.460   2.844   4.328 -0.4426  0.4049 -0.1935
 8909SOL    HW138186   2.420   2.926   4.356 -1.5962 -0.0673 -0.4830
 8909SOL    HW238187   2.390   2.813   4.270 -2.0882  1.8760  1.0127
 8910SOL     OW38188   2.765   3.189  16.105  1.0285 -0.2099 -0.0264
 8910SOL    HW138189   2.777   3.266  16.159 -2.7509  0.9392 -0.8348
 8910SOL    HW238190   2.672   3.198  16.083  0.8842  1.1769  1.2338
 8911SOL     OW38191   2.224   3.836   1.357  0.2606  0.3180  0.4344
 8911SOL    HW138192   2.200   3.847   1.265  0.7705  0.4788  0.3221
 8911SOL    HW238193   2.146   3.808   1.405 -0.2565 -2.0056 -1.7438
 8912SOL     OW38194   1.014   1.752   4.133  0.0594 -0.2296  0.0026
 8912SOL    HW138195   0.990   1.724   4.221 -0.0561  0.5380  0.2083
 8912SOL    HW238196   1.064   1.826   4.165 -0.4216  0.2903 -0.4467
 8913SOL     OW38197   2.227   2.410   1.640  0.2763 -0.3221 -0.3452
 8913SOL    HW138198   2.311   2.422   1.597  0.8893 -1.8262  0.4323
 8913SOL    HW238199   2.197   2.499   1.624 -0.4855 -0.4009  0.6395
 8914SOL     OW38200   4.713   0.425   7.704  0.3191  0.1432 -0.9011
 8914SOL    HW138201   4.715   0.426   7.800  0.0662 -0.7727 -0.8877
 8914SOL    HW238202   0.023   0.336   7.685  0.3125 -0.5889  2.4564
 8915SOL     OW38203   1.664   2.163   3.780  0.7444 -0.8457  0.1929
 8915SOL    HW138204   1.729   2.226   3.813 -0.0731 -0.5775  1.3164
 8915SOL    HW238205   1.718   2.131   3.708 -1.7259 -0.6949 -1.7415
 8916SOL     OW38206   2.980   0.934   1.298  0.3624  0.4453 -0.0770
 8916SOL    HW138207   3.002   0.936   1.205 -0.9205 -1.4200 -0.4299
 8916SOL    HW238208   3.054   0.978   1.338  0.3353  0.4763 -0.0611
 8917SOL     OW38209   2.476   1.438   7.410 -0.4377 -0.5044  0.3522
 8917SOL    HW138210   2.499   1.460   7.320  1.4984 -0.7718  0.7879
 8917SOL    HW238211   2.405   1.374   7.398  0.4036 -1.5044  0.7559
 8918SOL     OW38212   4.085   2.304   7.963  0.7060  0.7332  0.4676
 8918SOL    HW138213   4.087   2.395   7.994  0.5785  0.3023  1.7543
 8918SOL    HW238214   4.128   2.300   7.878  2.6991 -0.7242  1.5405
 8919SOL     OW38215   0.925   0.647  10.227 -0.6696  0.0662 -0.1157
 8919SOL    HW138216   0.860   0.699  10.273 -0.9687 -1.0805  0.7658
 8919SOL    HW238217   0.939   0.575  10.288 -1.8698  1.2513  1.5408
 8920SOL     OW38218   4.624   4.423  16.311  0.2281  0.2552 -0.1718
 8920SOL    HW138219   4.569   4.429  16.233 -2.3761 -1.9262  1.4997
 8920SOL    HW238220   4.579   4.490  16.362 -0.4319  0.2221 -0.7185
 8921SOL     OW38221   3.747   2.156   6.757 -0.0930  0.4215 -0.3022
 8921SOL    HW138222   3.654   2.138   6.740  0.3896 -1.6083 -0.8229
 8921SOL    HW238223   3.741   2.201   6.841  2.5197 -1.0253  0.6615
 8922SOL     OW38224   0.799   0.597   5.561  0.4332  0.1844  0.0764
 8922SOL    HW138225   0.765   0.631   5.478  0.2982  0.6532  0.3226
 8922SOL    HW238226   0.891   0.595   5.535  0.3334 -0.0836 -0.2514
 8923SOL     OW38227   2.358   4.431   6.337 -0.2044 -0.2309  0.2609
 8923SOL    HW138228   2.423   4.460   6.273 -0.3842 -1.3779 -0.4350
 8923SOL    HW238229   2.283   4.481   6.304 -1.3495 -0.5587  2.3209
 8924SOL     OW38230   1.372   2.471   8.054 -0.5286 -0.4414 -0.2525
 8924SOL    HW138231   1.308   2.482   7.984  1.2450 -0.2442 -1.8517
 8924SOL    HW238232   1.318   2.460   8.132  2.1683 -0.0510  1.7015
 8925SOL     OW38233   4.644   3.631   4.991  0.0373 -0.4627 -0.0647
 8925SOL    HW138234   4.570   3.612   5.050 -0.9300  0.6405 -0.9265
 8925SOL    HW238235   0.004   3.616   5.045  0.4487  2.2842  0.1155
 8926SOL     OW38236   3.402   2.563   9.129 -0.8231 -0.2441  0.8360
 8926SOL    HW138237   3.494   2.540   9.147  0.6080  2.3305 -3.1730
 8926SOL    HW238238   3.401   2.648   9.086  1.0142 -1.5631 -1.8158
 8927SOL     OW38239   4.451   0.056   6.014  0.1792 -0.3336 -0.0899
 8927SOL    HW138240   4.421   0.010   5.935  0.7602 -0.7454 -0.0736
 8927SOL    HW238241   4.388   0.021   6.077  1.8124  1.2670  2.4357
 8928SOL     OW38242   1.406   1.815   5.353  0.5125  1.1778  0.0188
 8928SOL    HW138243   1.479   1.819   5.291  0.5793  0.2797  0.0419
 8928SOL    HW238244   1.323   1.817   5.306  1.2440  0.4698 -1.2857
 8929SOL     OW38245   4.203   2.921  10.099  0.1513  0.1946  0.1484
 8929SOL    HW138246   4.208   2.881  10.185 -1.1141  0.6135  0.4197
 8929SOL    HW238247   4.253   2.858  10.048 -0.1720 -0.5316  0.7322
 8930SOL     OW38248   1.696   0.801   4.125 -0.4134 -0.6203  0.7492
 8930SOL    HW138249   1.709   0.884   4.078 -1.4301 -0.4551  0.7632
 8930SOL    HW238250   1.605   0.779   4.107 -0.5342 -0.5148  1.2272
 8931SOL     OW38251   2.429   0.713   4.450  0.6354 -0.7042  0.3085
 8931SOL    HW138252   2.340   0.747   4.447  0.8886 -0.1987 -1.4800
 8931SOL    HW238253   2.459   0.766   4.524  1.3805  0.4958 -0.8562
 8932SOL     OW38254   1.986   1.032  11.724 -0.3596 -0.0511  0.4072
 8932SOL    HW138255   1.921   0.963  11.726 -1.7001  1.1673 -1.9211
 8932SOL    HW238256   1.944   1.101  11.775  0.6343  1.2470 -0.5192
 8933SOL     OW38257   0.338   4.490  16.191 -0.1225  0.5119  0.0198
 8933SOL    HW138258   0.403   4.509  16.124  0.9037 -3.7774 -0.1719
 8933SOL    HW238259   0.336   4.574  16.237  1.1030  0.4734  0.1199
 8934SOL     OW38260   3.348   1.514   7.632  0.8209 -0.0190 -0.9436
 8934SOL    HW138261   3.347   1.489   7.539 -0.8936  0.4837 -1.0481
 8934SOL    HW238262   3.432   1.474   7.655  0.9209 -0.2584 -1.7199
 8935SOL     OW38263   4.357   0.555   1.804  0.2533 -0.2484  0.1675
 8935SOL    HW138264   4.290   0.491   1.827 -0.8301  0.2486 -1.6607
 8935SOL    HW238265   4.401   0.568   1.888  0.1750  1.3451 -0.0378
 8936SOL     OW38266   0.758   2.433   2.726  0.8951 -0.1574  0.2344
 8936SOL    HW138267   0.691   2.391   2.673 -1.3498  2.9547  0.5602
 8936SOL    HW238268   0.700   2.477   2.789  0.3271  0.0446 -0.4338
 8937SOL     OW38269   0.422   2.675  12.362  0.2053 -0.8900 -0.5922
 8937SOL    HW138270   0.437   2.586  12.395  1.2958 -0.0400  1.1993
 8937SOL    HW238271   0.496   2.691  12.303 -0.4249  0.7344 -0.9559
 8938SOL     OW38272   3.321   2.893   3.589  0.4682  0.3992 -0.6634
 8938SOL    HW138273   3.243   2.912   3.640  0.9428 -0.0778  0.2474
 8938SOL    HW238274   3.307   2.801   3.568  0.8493  0.6225 -1.9038
 8939SOL     OW38275   0.004   4.697  10.488 -0.0787  0.6316 -0.0435
 8939SOL    HW138276   0.062   0.049  10.458  0.6632  0.5659  1.2424
 8939SOL    HW238277   0.063   4.625  10.512 -2.8425 -1.3790  0.7559
 8940SOL     OW38278   0.325   2.037   4.440  0.8458  0.2663  0.1468
 8940SOL    HW138279   0.285   2.115   4.402  0.7242  1.1657  2.1364
 8940SOL    HW238280   0.405   2.027   4.389  0.5840 -1.2374  0.0287
 8941SOL     OW38281   0.603   4.374   4.373  0.1572  0.1822 -0.0263
 8941SOL    HW138282   0.631   4.336   4.290 -0.7711  1.5185 -0.9517
 8941SOL    HW238283   0.691   4.389   4.406 -0.1967  0.2334  0.9013
 8942SOL     OW38284   3.580   3.330   0.272 -0.3978 -0.0966  0.4916
 8942SOL    HW138285   3.557   3.282   0.352  0.4683  0.9011  1.3319
 8942SOL    HW238286   3.496   3.373   0.260  0.1658  0.6456 -0.8750
 8943SOL     OW38287   4.342   2.605  12.186  0.0444  0.3498 -1.1942
 8943SOL    HW138288   4.308   2.617  12.275 -2.4257  0.1545 -2.1150
 8943SOL    HW238289   4.435   2.624  12.202 -0.6382  0.9228  2.1560
 8944SOL     OW38290   3.388   1.019   4.669 -0.4240  0.1583  0.2401
 8944SOL    HW138291   3.474   0.984   4.694 -0.2228  0.2742 -0.2876
 8944SOL    HW238292   3.349   0.946   4.622  0.5032  0.5691 -1.1865
 8945SOL     OW38293   0.508   3.776   2.535  0.1217  0.8142 -0.5495
 8945SOL    HW138294   0.602   3.785   2.549  0.4702 -2.1726 -1.0951
 8945SOL    HW238295   0.512   3.752   2.443  1.8176 -0.1643 -0.2147
 8946SOL     OW38296   0.708   3.383   1.508 -0.3202  0.4874 -0.7690
 8946SOL    HW138297   0.658   3.462   1.486 -3.0658 -0.5035  1.9213
 8946SOL    HW238298   0.786   3.409   1.556  0.3036  3.0644 -3.1585
 8947SOL     OW38299   2.984   0.613  17.589 -0.0177  0.5247 -0.1249
 8947SOL    HW138300   3.061   0.665  17.614 -1.4155  1.8153  1.4612
 8947SOL    HW238301   2.985   0.626  17.494  1.7276  1.0088 -0.0561
 8948SOL     OW38302   2.734   4.707   0.820 -0.3619 -0.1199  0.8025
 8948SOL    HW138303   2.689   0.031   0.746  2.1605 -1.0152 -1.2406
 8948SOL    HW238304   2.705   0.046   0.891 -2.9440 -0.7704  0.2501
 8949SOL     OW38305   0.255   0.288   5.021 -0.1870 -0.3213 -0.0920
 8949SOL    HW138306   0.192   0.216   5.019  1.9263 -2.0892 -2.2183
 8949SOL    HW238307   0.202   0.352   4.974 -0.5590 -1.4649 -1.2325
 8950SOL     OW38308   2.865   0.024   6.693  0.1127  0.2593  0.0162
 8950SOL    HW138309   2.802   0.034   6.765  1.1836  0.6036  0.9093
 8950SOL    HW238310   2.912   0.106   6.705 -0.4640  0.9841 -2.8732
 8951SOL     OW38311   0.201   1.327  11.584  0.0137  0.6168  0.0905
 8951SOL    HW138312   0.261   1.252  11.578 -0.5419  0.1281  0.6033
 8951SOL    HW238313   0.271   1.392  11.584  1.3564 -0.8268 -1.4063
 8952SOL     OW38314   3.307   3.251   7.241  0.3579 -0.0310 -0.3383
 8952SOL    HW138315   3.353   3.207   7.169 -1.3689  0.3560 -1.6691
 8952SOL    HW238316   3.307   3.182   7.308  4.4257 -0.6104 -0.9346
 8953SOL     OW38317   1.839   3.676  10.523 -0.7587  0.1843  0.1425
 8953SOL    HW138318   1.769   3.691  10.459  0.4691  0.0591 -1.2492
 8953SOL    HW238319   1.849   3.764  10.559  0.1603 -0.2039  0.8488
 8954SOL     OW38320   1.806   2.988   7.621 -0.1707  0.5018 -0.3262
 8954SOL    HW138321   1.873   2.966   7.556 -1.2564 -0.5882 -1.0942
 8954SOL    HW238322   1.870   3.001   7.691 -0.4797 -1.1298  0.2388
 8955SOL     OW38323   2.740   4.338   8.522  0.5061 -0.9266  0.1070
 8955SOL    HW138324   2.811   4.399   8.546 -0.4304 -0.4268  1.6047
 8955SOL    HW238325   2.707   4.393   8.451  0.1195 -0.6344  0.5147
 8956SOL     OW38326   3.580   2.024   3.895 -1.1329 -0.1013  0.6622
 8956SOL    HW138327   3.615   2.013   3.983  0.3998  1.1609  0.1986
 8956SOL    HW238328   3.487   2.020   3.919 -1.1760  1.0798  0.6991
 8957SOL     OW38329   1.197   0.394  13.850 -0.7954  0.3181  0.4965
 8957SOL    HW138330   1.215   0.359  13.763 -0.7145  0.0300  0.6288
 8957SOL    HW238331   1.270   0.451  13.875  0.0140 -0.2907 -0.4930
 8958SOL     OW38332   0.729   2.150   3.626 -0.4555  0.3068 -0.1163
 8958SOL    HW138333   0.641   2.136   3.660  0.1804 -0.5611  1.1795
 8958SOL    HW238334   0.728   2.116   3.537  1.5043  2.3902 -0.9381
 8959SOL     OW38335   4.515   0.235   5.707 -0.5931  0.3280 -0.2279
 8959SOL    HW138336   4.463   0.155   5.707 -1.7868  1.1114 -0.7680
 8959SOL    HW238337   4.454   0.297   5.666 -0.9277  0.4657  0.4819
 8960SOL     OW38338   3.340   0.240   9.483 -0.5319  0.4166 -0.0731
 8960SOL    HW138339   3.375   0.234   9.394 -0.7349 -1.8931  0.0081
 8960SOL    HW238340   3.251   0.275   9.474 -1.2448 -1.4636 -0.2060
 8961SOL     OW38341   2.498   1.806   7.706  0.1893 -0.0223  0.1579
 8961SOL    HW138342   2.540   1.854   7.778  0.6758 -1.2827  0.7156
 8961SOL    HW238343   2.524   1.720   7.738  1.1201  0.6602  1.2154
 8962SOL     OW38344   4.641   2.817  16.295 -0.3612  0.7326 -0.3524
 8962SOL    HW138345   4.713   2.763  16.262 -0.2181  2.2042 -2.4597
 8962SOL    HW238346   4.564   2.766  16.270  1.4850 -1.4767 -1.5252
 8963SOL     OW38347   3.622   1.716   2.658 -0.8069 -0.7988 -0.2060
 8963SOL    HW138348   3.531   1.689   2.644 -0.9628 -1.3236  1.8050
 8963SOL    HW238349   3.679   1.651   2.616  0.6026 -0.4990  1.2227
 8964SOL     OW38350   1.029   2.601  15.985  0.0593 -0.1426  0.2905
 8964SOL    HW138351   1.036   2.518  16.032 -2.1387  1.2043  3.0084
 8964SOL    HW238352   1.007   2.662  16.055 -1.3681 -0.3285  0.0165
 8965SOL     OW38353   0.306   3.268   3.105 -0.0800 -0.0154  0.4900
 8965SOL    HW138354   0.308   3.364   3.101 -0.1970 -0.0201  0.3166
 8965SOL    HW238355   0.215   3.252   3.077 -0.3873  1.1434  0.8428
 8966SOL     OW38356   0.710   4.300   7.070 -0.5284  0.0045 -0.3978
 8966SOL    HW138357   0.686   4.300   7.163 -1.3150  2.3023 -0.6010
 8966SOL    HW238358   0.691   4.209   7.046 -0.6656  0.4177 -1.8375
 8967SOL     OW38359   2.824   3.958   2.256  0.5761 -0.5215  0.5621
 8967SOL    HW138360   2.911   3.918   2.247  0.7233  0.2104 -1.2154
 8967SOL    HW238361   2.841   4.035   2.202 -0.3872 -1.0473 -0.5035
 8968SOL     OW38362   3.293   0.588   2.224  0.1951 -0.2633 -0.0542
 8968SOL    HW138363   3.292   0.684   2.226 -1.1981 -0.3011  0.7292
 8968SOL    HW238364   3.202   0.568   2.205  0.8930 -0.0254 -3.8093
 8969SOL     OW38365   1.530   2.601  11.509  0.1330  0.5153  0.4678
 8969SOL    HW138366   1.590   2.607  11.435 -0.2933 -0.8402  0.0195
 8969SOL    HW238367   1.543   2.512  11.542 -0.7458  0.1859 -0.0841
 8970SOL     OW38368   3.739   3.746   2.996 -0.2032 -0.0743 -0.3814
 8970SOL    HW138369   3.784   3.755   3.080 -3.2338  1.0989  1.1186
 8970SOL    HW238370   3.722   3.836   2.968  0.5416 -0.3110 -1.6280
 8971SOL     OW38371   1.350   3.913   7.412  0.2079  0.3542  0.7258
 8971SOL    HW138372   1.327   3.988   7.357  0.9197 -0.9706 -1.3820
 8971SOL    HW238373   1.322   3.840   7.356 -2.5570  1.7862  0.2124
 8972SOL     OW38374   4.711   4.555  16.878  0.1761 -0.0649  0.0685
 8972SOL    HW138375   0.080   4.555  16.837 -0.3542  1.2768 -1.0684
 8972SOL    HW238376   4.667   4.526  16.797 -0.6298 -0.3632  0.6122
 8973SOL     OW38377   1.491   4.561  13.613 -0.1498  0.1121 -0.3969
 8973SOL    HW138378   1.563   4.617  13.642  1.3683 -2.1142  0.0545
 8973SOL    HW238379   1.530   4.522  13.536 -1.9409  0.4550 -1.4864
 8974SOL     OW38380   3.014   1.261   5.677  0.0151  0.1098  0.1725
 8974SOL    HW138381   3.065   1.267   5.758 -1.1040 -1.7947  1.0389
 8974SOL    HW238382   3.055   1.333   5.630  1.8343 -0.6911  0.5321
 8975SOL     OW38383   1.890   0.429  13.906 -0.0144  0.7609 -0.5395
 8975SOL    HW138384   1.980   0.398  13.906 -0.5624 -0.8484 -3.7858
 8975SOL    HW238385   1.895   0.456  13.998  0.8560 -1.2628  0.0063
 8976SOL     OW38386   0.883   3.448  16.940  0.5682  0.4325  0.3799
 8976SOL    HW138387   0.795   3.433  16.973  0.4669 -0.7995 -0.4222
 8976SOL    HW238388   0.934   3.380  16.985  0.5557 -0.3047 -0.6956
 8977SOL     OW38389   4.472   4.691   2.331  0.0436  0.0195  0.2436
 8977SOL    HW138390   4.472   4.687   2.427  2.3607  2.7791  0.3630
 8977SOL    HW238391   4.483   4.598   2.311 -1.3895 -0.6499  2.5746
 8978SOL     OW38392   2.123   4.520   5.522  0.3698 -0.4748  0.0335
 8978SOL    HW138393   2.036   4.480   5.532  0.7366 -1.0910  0.7794
 8978SOL    HW238394   2.130   4.533   5.428 -0.6847 -2.3975 -0.3045
 8979SOL     OW38395   2.502   3.469   2.979 -0.1068 -0.1688  0.5948
 8979SOL    HW138396   2.468   3.558   2.986 -1.0551 -0.3092 -2.2384
 8979SOL    HW238397   2.417   3.425   2.979  0.0699 -0.5164  3.2380
 8980SOL     OW38398   2.073   3.926   8.539 -0.4352 -0.2042  0.1982
 8980SOL    HW138399   1.985   3.961   8.533 -1.0720 -1.5959  1.2871
 8980SOL    HW238400   2.072   3.874   8.458  0.4695 -1.5200  1.0217
 8981SOL     OW38401   1.110   1.826   0.317  1.1662  0.0348  0.1549
 8981SOL    HW138402   1.081   1.780   0.238  2.9725  1.7466 -1.5264
 8981SOL    HW238403   1.127   1.758   0.382  0.2403 -0.0724  0.2736
 8982SOL     OW38404   4.291   1.777   3.925 -0.1843  0.6787 -0.0683
 8982SOL    HW138405   4.314   1.684   3.928 -0.1513  0.6834 -0.1783
 8982SOL    HW238406   4.378   1.817   3.919 -0.3034  0.9726  0.1499
 8983SOL     OW38407   1.828   0.747   0.716 -0.3270 -0.0269 -0.0362
 8983SOL    HW138408   1.914   0.729   0.753  1.4820  1.4288 -3.6145
 8983SOL    HW238409   1.781   0.772   0.796 -0.4683  2.5792 -0.9626
 8984SOL     OW38410   4.591   1.316   3.327 -0.3692 -0.5186 -0.0522
 8984SOL    HW138411   4.645   1.241   3.351  1.4591  0.5438 -0.8559
 8984SOL    HW238412   4.645   1.337   3.251  1.5320  0.4392  1.5513
 8985SOL     OW38413   0.567   2.464  12.421  0.5245 -0.4088  0.4655
 8985SOL    HW138414   0.640   2.508  12.463 -0.8942  1.1302  1.3311
 8985SOL    HW238415   0.576   2.372  12.445  1.6227  0.0835  1.9244
 8986SOL     OW38416   2.048   4.142  11.259  0.3316  0.6421 -0.4636
 8986SOL    HW138417   2.082   4.227  11.230  1.2663 -0.0018 -1.2782
 8986SOL    HW238418   2.117   4.109  11.317  0.2185 -0.2316 -0.8218
 8987SOL     OW38419   3.427   3.637   7.156 -0.3026 -0.4962  0.6853
 8987SOL    HW138420   3.514   3.673   7.138 -0.6179  1.2066  2.6375
 8987SOL    HW238421   3.407   3.577   7.084  1.2845  0.2359 -0.3502
 8988SOL     OW38422   0.458   2.227   8.729  0.1773  0.1193  0.6925
 8988SOL    HW138423   0.533   2.170   8.744 -1.1135 -1.6668  0.3121
 8988SOL    HW238424   0.401   2.179   8.789 -0.3123  0.3558  0.4218
 8989SOL     OW38425   1.057   1.808   9.329 -0.5984  0.5172  0.1384
 8989SOL    HW138426   1.079   1.867   9.401  2.3194 -0.6676  0.2154
 8989SOL    HW238427   1.148   1.789   9.303 -0.9493 -2.2051  0.9348
 8990SOL     OW38428   3.907   1.817  16.947 -0.6608 -0.4512  0.1768
 8990SOL    HW138429   3.952   1.893  16.909  1.9430 -2.4687 -0.7423
 8990SOL    HW238430   3.903   1.858  17.034  0.5496 -0.8885  0.4363
 8991SOL     OW38431   2.382   0.308  15.493  0.2170  0.1420 -0.5087
 8991SOL    HW138432   2.461   0.301  15.440  0.7499 -0.9730  0.4495
 8991SOL    HW238433   2.318   0.326  15.424  1.3598  0.3892 -1.4956
 8992SOL     OW38434   3.480   3.647   3.766 -0.0721  0.0050 -0.6977
 8992SOL    HW138435   3.427   3.683   3.695 -1.4679 -0.4859  0.0902
 8992SOL    HW238436   3.465   3.553   3.757 -0.8196  0.1566 -1.0511
 8993SOL     OW38437   0.872   2.007  16.639 -0.4286  0.1482  0.0902
 8993SOL    HW138438   0.878   2.050  16.724 -1.6771  3.0502 -1.3081
 8993SOL    HW238439   0.797   2.049  16.598  1.2826 -0.3129 -3.5084
 8994SOL     OW38440   4.286   2.421   9.298  0.1784 -0.7765  0.2780
 8994SOL    HW138441   4.287   2.485   9.227  2.0124  1.2965  2.1659
 8994SOL    HW238442   4.369   2.377   9.283  0.2025 -1.1188  1.4117
 8995SOL     OW38443   2.817   2.375  10.352 -0.2188  0.0806  0.4144
 8995SOL    HW138444   2.724   2.358  10.338 -0.3138  0.9633 -0.0262
 8995SOL    HW238445   2.816   2.399  10.444  0.3320 -0.5538  0.5852
 8996SOL     OW38446   3.533   3.834   6.026  0.3624 -0.0295 -0.0331
 8996SOL    HW138447   3.539   3.886   6.105  0.6081 -0.0291 -0.0531
 8996SOL    HW238448   3.502   3.894   5.958  0.2978 -0.7312 -0.6287
 8997SOL     OW38449   0.760   0.998   5.056 -0.3057 -0.0391 -0.3123
 8997SOL    HW138450   0.751   1.065   4.989 -0.4108  0.7356  0.4758
 8997SOL    HW238451   0.852   1.013   5.077 -0.8284  1.3250  1.0967
 8998SOL     OW38452   0.235   2.740   2.258 -0.0098 -0.3338 -0.1616
 8998SOL    HW138453   0.155   2.785   2.285  0.1334  0.4318 -1.0079
 8998SOL    HW238454   0.262   2.825   2.224 -0.6891 -1.2238 -2.8888
 8999SOL     OW38455   3.548   0.813   5.035 -0.3408 -0.3054 -0.2178
 8999SOL    HW138456   3.461   0.851   5.027 -0.0532  0.4754  0.3815
 8999SOL    HW238457   3.525   0.722   5.056 -0.6626  0.1917  1.5849
 9000SOL     OW38458   2.388   0.670   4.928  0.1499 -0.0162  0.1127
 9000SOL    HW138459   2.438   0.588   4.928  1.3395  0.7041  0.7370
 9000SOL    HW238460   2.325   0.659   4.857 -0.1088 -2.0596  0.6588
 9001SOL     OW38461   2.709   2.769   4.260  0.5314 -0.1279  0.0579
 9001SOL    HW138462   2.692   2.745   4.169  2.4539  2.0713 -0.8721
 9001SOL    HW238463   2.618   2.788   4.284  0.3039  0.6214 -1.3967
 9002SOL     OW38464   1.100   2.851   9.244  0.0608 -0.1423  0.3321
 9002SOL    HW138465   1.093   2.946   9.235  4.3332  0.1972  0.6610
 9002SOL    HW238466   1.143   2.853   9.329 -0.8473  0.2413  0.7932
 9003SOL     OW38467   1.096   2.446   7.217 -0.2171  0.3028  0.4463
 9003SOL    HW138468   1.138   2.496   7.287  1.7261  0.1406 -0.6092
 9003SOL    HW238469   1.008   2.483   7.210 -0.7394 -1.3529 -1.6955
 9004SOL     OW38470   1.966   2.682   7.866 -0.5328 -0.5817  0.1542
 9004SOL    HW138471   1.970   2.634   7.783 -0.0166 -0.6438  0.2191
 9004SOL    HW238472   1.972   2.607   7.925 -0.7918 -0.3549  0.4666
 9005SOL     OW38473   1.529   1.488  16.362  0.2709  0.4658  0.7011
 9005SOL    HW138474   1.567   1.443  16.437  0.9277 -0.0295  0.0702
 9005SOL    HW238475   1.585   1.565  16.349 -1.0409  1.2425 -0.3565
 9006SOL     OW38476   3.546   2.310   8.741  0.4475  0.2213  0.1444
 9006SOL    HW138477   3.493   2.389   8.733 -2.3337 -1.9277 -2.3464
 9006SOL    HW238478   3.616   2.337   8.801 -0.3449 -0.0798  1.2154
 9007SOL     OW38479   4.632   2.742   9.908 -0.5427  0.1619  0.0216
 9007SOL    HW138480   4.655   2.758   9.817  3.0604 -1.2395  0.7139
 9007SOL    HW238481   4.599   2.653   9.890 -1.4420  0.3723  0.6368
 9008SOL     OW38482   3.054   3.787   2.004 -0.4130 -0.1634  0.4912
 9008SOL    HW138483   3.002   3.794   1.924  0.9110  1.6498 -0.2236
 9008SOL    HW238484   3.107   3.708   1.994 -0.6510  0.1568 -3.4526
 9009SOL     OW38485   3.460   4.709   1.771 -0.3722 -0.7561  0.1418
 9009SOL    HW138486   3.502   4.629   1.740 -1.9862 -1.3410 -0.5441
 9009SOL    HW238487   3.369   4.697   1.743  0.3012 -0.7734 -2.0438
 9010SOL     OW38488   2.547   0.863   8.947 -0.1929  0.2380 -0.2942
 9010SOL    HW138489   2.600   0.862   8.868  2.3937  1.8223  1.4251
 9010SOL    HW238490   2.563   0.777   8.984  1.1218  0.9816  0.8420
 9011SOL     OW38491   0.925   1.312   9.687 -0.1415  0.4445  0.1445
 9011SOL    HW138492   0.878   1.262   9.620  0.3630  2.6165 -1.8118
 9011SOL    HW238493   0.940   1.237   9.746  2.7288 -0.1692 -1.3939
 9012SOL     OW38494   2.846   4.149   0.142 -0.7395  0.5713  0.4828
 9012SOL    HW138495   2.792   4.083   0.100 -0.1403  0.3904 -0.0111
 9012SOL    HW238496   2.855   4.130   0.235 -2.9442  0.5541  0.6804
 9013SOL     OW38497   3.616   3.091  17.581  0.1635 -0.0402 -0.3730
 9013SOL    HW138498   3.529   3.055  17.565 -0.6882  1.0085  1.9020
 9013SOL    HW238499   3.671   3.030  17.531  1.4300 -0.4941  1.5445
 9014SOL     OW38500   0.578   4.650  14.701  0.3525  0.0854 -0.2369
 9014SOL    HW138501   0.605   4.646  14.793 -2.3047 -1.7755  0.4520
 9014SOL    HW238502   0.646   4.596  14.661  0.3053 -0.5067  0.4774
 9015SOL     OW38503   3.838   2.575   5.854 -0.0002  0.0972  0.1231
 9015SOL    HW138504   3.840   2.606   5.944 -1.1923  1.0079 -0.1610
 9015SOL    HW238505   3.746   2.593   5.833  0.6331  1.5082 -1.4446
 9016SOL     OW38506   2.235   1.199   5.895  0.1881  0.7896 -0.2950
 9016SOL    HW138507   2.226   1.291   5.869 -0.2810  1.5493  2.6119
 9016SOL    HW238508   2.174   1.186   5.967 -0.2942  1.4104 -0.5981
 9017SOL     OW38509   3.468   3.448   6.003 -0.3579  0.1969  0.0495
 9017SOL    HW138510   3.464   3.353   5.989 -0.5396  0.1477  0.4515
 9017SOL    HW238511   3.422   3.443   6.087 -1.3733  0.6119 -0.4697
 9018SOL     OW38512   2.600   2.956   6.368  0.5748  0.1562 -0.6738
 9018SOL    HW138513   2.690   2.976   6.395 -0.1101  0.1210  1.5908
 9018SOL    HW238514   2.558   3.040   6.385  1.1455  0.2293  0.3480
 9019SOL     OW38515   0.647   1.912   4.061  0.0498  0.2488  0.2798
 9019SOL    HW138516   0.726   1.929   4.011  0.1258  0.4999  0.4880
 9019SOL    HW238517   0.610   1.840   4.010 -0.5091 -0.1356  1.2296
 9020SOL     OW38518   0.947   2.562   3.529 -0.0256  0.7386 -0.1730
 9020SOL    HW138519   0.940   2.609   3.446  1.6159 -0.3096 -0.8942
 9020SOL    HW238520   1.030   2.515   3.526  0.4143  1.5182 -0.3481
 9021SOL     OW38521   2.714   0.093  15.920 -0.0406 -0.4027 -0.0428
 9021SOL    HW138522   2.777   0.140  15.864  1.0940 -2.3911 -0.4330
 9021SOL    HW238523   2.715   0.141  16.003 -0.6859  1.0280 -0.8645
 9022SOL     OW38524   3.421   0.618   0.544 -0.3227  0.2500 -0.0322
 9022SOL    HW138525   3.497   0.675   0.557 -0.2374  0.7209 -2.5725
 9022SOL    HW238526   3.346   0.676   0.557 -1.9282 -2.2039  1.4760
 9023SOL     OW38527   1.235   0.593   4.243  0.0363  0.3133  0.9080
 9023SOL    HW138528   1.249   0.585   4.148  0.8598  1.2847  0.9437
 9023SOL    HW238529   1.169   0.524   4.250 -0.5901  0.9141  0.8447
 9024SOL     OW38530   1.823   4.100   8.144  0.0990  0.2664 -0.3794
 9024SOL    HW138531   1.884   4.157   8.097 -0.8374  0.7798 -0.9810
 9024SOL    HW238532   1.874   4.020   8.154  0.9139  1.0971  2.2113
 9025SOL     OW38533   2.180   1.910   6.521 -1.0407  0.3792  0.2247
 9025SOL    HW138534   2.173   1.985   6.580 -2.8072  0.7338 -0.4300
 9025SOL    HW238535   2.239   1.946   6.456  0.3537  3.2814  3.1010
 9026SOL     OW38536   0.230   1.307   5.166 -0.4554  0.3086 -0.3273
 9026SOL    HW138537   0.221   1.367   5.092 -0.3430  0.4590 -0.2207
 9026SOL    HW238538   0.139   1.280   5.177 -1.1094  2.0021 -1.5758
 9027SOL     OW38539   2.154   1.383   7.802 -0.4112  0.1709  0.0740
 9027SOL    HW138540   2.196   1.301   7.775  2.5031  1.0127  2.1171
 9027SOL    HW238541   2.061   1.362   7.811 -0.8229  0.8280 -2.5815
 9028SOL     OW38542   1.797   1.587   2.138  0.4559 -0.4467  0.3026
 9028SOL    HW138543   1.766   1.669   2.176  0.8252  0.2390 -0.8651
 9028SOL    HW238544   1.878   1.580   2.188  0.7373 -0.2117 -0.1254
 9029SOL     OW38545   3.978   2.334   1.938 -0.0233 -0.8349 -0.0699
 9029SOL    HW138546   4.069   2.313   1.960 -0.0509 -1.5405 -0.6309
 9029SOL    HW238547   3.973   2.297   1.850 -0.8587 -0.8262 -0.0239
 9030SOL     OW38548   0.507   3.984   3.416 -0.0798 -0.3324 -0.0939
 9030SOL    HW138549   0.423   4.025   3.433  0.2929  0.1178  0.6607
 9030SOL    HW238550   0.487   3.905   3.365  2.2541  1.1090 -3.2243
 9031SOL     OW38551   1.043   4.503   1.828 -0.3652 -0.2723 -0.7262
 9031SOL    HW138552   0.963   4.467   1.788 -0.2942 -1.8098  0.5254
 9031SOL    HW238553   1.099   4.525   1.755  2.1417  2.3234  2.0090
 9032SOL     OW38554   0.286   1.805   4.198 -0.2657  0.0153  0.3494
 9032SOL    HW138555   0.262   1.891   4.162 -0.4553  0.3412  1.2425
 9032SOL    HW238556   0.232   1.743   4.149 -0.0719  0.3674 -0.3015
 9033SOL     OW38557   2.312   0.234   7.884  0.3091  0.1876 -0.1973
 9033SOL    HW138558   2.404   0.261   7.873 -0.0665  1.3761 -0.4767
 9033SOL    HW238559   2.268   0.262   7.804  2.2782 -0.7077 -1.5904
 9034SOL     OW38560   4.078   1.584   3.525 -0.0772 -0.9243 -0.2474
 9034SOL    HW138561   4.133   1.507   3.510 -1.6347 -2.0545 -0.2067
 9034SOL    HW238562   4.010   1.538   3.574  0.1408 -0.9270  0.0521
 9035SOL     OW38563   4.186   3.244   2.426 -0.4534  0.6860 -0.9381
 9035SOL    HW138564   4.256   3.309   2.433 -1.0615  1.2720 -0.2423
 9035SOL    HW238565   4.112   3.303   2.412 -1.4239 -0.1890  0.4863
 9036SOL     OW38566   4.174   1.262   4.319  0.2994 -0.0708  0.6214
 9036SOL    HW138567   4.262   1.250   4.356  0.6299 -0.6192 -0.3519
 9036SOL    HW238568   4.132   1.322   4.381  0.1008 -0.1861  0.5982
 9037SOL     OW38569   2.046   1.568   4.472 -0.0602  0.5110  0.4722
 9037SOL    HW138570   1.973   1.629   4.487  1.1758  1.9241  0.7629
 9037SOL    HW238571   2.008   1.481   4.462 -1.1186  1.0976 -0.6596
 9038SOL     OW38572   0.033   0.061  16.296 -0.6210  0.0777 -0.2128
 9038SOL    HW138573   4.710   4.709  16.244  0.6337 -1.5765  1.0482
 9038SOL    HW238574   4.693   0.134  16.272 -0.5324  0.7740  1.7049
 9039SOL     OW38575   1.142   4.584   5.426 -0.5667  0.7707 -0.3759
 9039SOL    HW138576   1.057   4.539   5.421 -0.0727 -0.3808  1.4639
 9039SOL    HW238577   1.109   4.660   5.473  2.0262  1.6261  0.0883
 9040SOL     OW38578   4.431   4.013   8.200  0.0524  0.3304 -0.1984
 9040SOL    HW138579   4.468   3.932   8.235  1.2097  1.7885  1.9403
 9040SOL    HW238580   4.508   4.052   8.157 -0.0059  2.3916  1.5731
 9041SOL     OW38581   0.131   2.500   6.280 -0.2573 -0.2072 -0.3647
 9041SOL    HW138582   0.176   2.419   6.304 -1.0372  0.1353  2.2014
 9041SOL    HW238583   0.083   2.470   6.203 -3.9033  0.8133  1.5151
 9042SOL     OW38584   0.781   1.775  10.613 -0.3068 -0.0759 -0.1730
 9042SOL    HW138585   0.700   1.826  10.616 -1.3140 -1.6366 -0.8798
 9042SOL    HW238586   0.758   1.686  10.585  1.0897 -0.7069  0.7208
 9043SOL     OW38587   1.289   4.285   1.098 -0.2811  0.7918  0.7580
 9043SOL    HW138588   1.310   4.194   1.078 -0.0746  0.7473  1.1915
 9043SOL    HW238589   1.306   4.287   1.192 -1.2389 -0.5543  0.9556
 9044SOL     OW38590   3.958   2.528   8.368 -0.4925 -0.2364  0.3984
 9044SOL    HW138591   3.977   2.435   8.379  0.4218  0.1536  2.2819
 9044SOL    HW238592   4.010   2.575   8.434 -1.1790 -0.9191  1.4319
 9045SOL     OW38593   1.275   0.460   3.992  0.3596  0.4267  0.8614
 9045SOL    HW138594   1.363   0.451   3.956  0.7999  0.6534  1.8837
 9045SOL    HW238595   1.281   0.373   4.032  0.1165  0.7803  1.6621
 9046SOL     OW38596   4.701   4.049   6.332  0.7596 -0.1667 -0.1057
 9046SOL    HW138597   4.612   4.076   6.309  1.9903  3.1723 -0.9080
 9046SOL    HW238598   0.006   3.990   6.259 -3.8680 -3.5887  1.2413
 9047SOL     OW38599   4.323   1.074  12.785  0.1245 -0.2921 -0.3260
 9047SOL    HW138600   4.324   1.169  12.789  0.0828 -0.2139 -2.4449
 9047SOL    HW238601   4.309   1.062  12.691  1.7466 -1.3518 -0.4374
 9048SOL     OW38602   2.248   1.760   3.803  0.1134 -0.0128  0.0673
 9048SOL    HW138603   2.257   1.673   3.764  3.3065  1.2348 -2.0405
 9048SOL    HW238604   2.155   1.779   3.790  0.1096 -0.1830 -0.1472
 9049SOL     OW38605   3.738   4.412   2.665 -0.0861 -0.2368  0.0699
 9049SOL    HW138606   3.753   4.489   2.610 -0.6080 -0.5895 -0.5710
 9049SOL    HW238607   3.754   4.451   2.751  0.1027 -1.1609  0.4495
 9050SOL     OW38608   3.903   4.542  11.177  0.3645  0.4398  0.4885
 9050SOL    HW138609   3.882   4.606  11.245 -0.4810  2.1117 -1.3461
 9050SOL    HW238610   3.845   4.471  11.206  1.6646 -0.9689 -0.3206
 9051SOL     OW38611   4.291   1.708   7.538 -0.5909  0.1591 -0.7472
 9051SOL    HW138612   4.331   1.644   7.480  0.2447 -0.2576  0.2947
 9051SOL    HW238613   4.359   1.776   7.534  0.2300 -0.6144  0.2094
 9052SOL     OW38614   2.756   4.547   3.454  0.3197 -0.0815  0.5480
 9052SOL    HW138615   2.673   4.587   3.430  0.8205  2.3583  2.9315
 9052SOL    HW238616   2.817   4.610   3.416 -0.1264  1.0654  1.7253
 9053SOL     OW38617   3.323   4.186  10.392  0.0538  0.0406  0.0038
 9053SOL    HW138618   3.400   4.241  10.374  0.1725  0.3888  1.5657
 9053SOL    HW238619   3.281   4.168  10.308 -2.2811  0.1714  1.1550
 9054SOL     OW38620   0.058   2.870   8.706  0.1131 -0.9480 -0.5936
 9054SOL    HW138621   0.011   2.791   8.679 -1.1564 -1.0554  1.9677
 9054SOL    HW238622   0.035   2.933   8.638 -0.9359 -0.3785  0.2781
 9055SOL     OW38623   2.041   0.532   3.049  0.0555  0.0721  0.1845
 9055SOL    HW138624   1.972   0.596   3.033 -0.6089 -0.9480 -0.9706
 9055SOL    HW238625   2.049   0.485   2.966 -2.0337 -1.1417  0.6767
 9056SOL     OW38626   2.808   1.579   0.504  0.0790  0.2895 -0.0744
 9056SOL    HW138627   2.848   1.656   0.543 -0.5173  0.3268  0.4659
 9056SOL    HW238628   2.883   1.535   0.463 -0.5868  1.9308 -3.0751
 9057SOL     OW38629   0.134   2.220   8.961 -0.2892 -0.2872  0.0505
 9057SOL    HW138630   0.167   2.264   8.882 -1.1937 -1.1492 -0.8129
 9057SOL    HW238631   0.205   2.159   8.980  0.8017  0.9662 -0.0327
 9058SOL     OW38632   2.652   3.638   5.745 -0.0585 -0.2527 -0.6297
 9058SOL    HW138633   2.734   3.686   5.758  0.3039 -0.7977 -0.8888
 9058SOL    HW238634   2.593   3.700   5.702 -1.5270 -0.5948  0.8880
 9059SOL     OW38635   1.862   1.657  15.304 -0.0710 -0.5818 -0.3722
 9059SOL    HW138636   1.885   1.661  15.211  0.8464 -0.1906 -0.1300
 9059SOL    HW238637   1.768   1.672  15.312 -0.0757  0.1424 -1.6463
 9060SOL     OW38638   1.081   0.887   3.019  0.7221 -0.2146 -0.0016
 9060SOL    HW138639   1.066   0.912   3.110 -0.4245 -2.5874  0.4683
 9060SOL    HW238640   1.017   0.816   3.016  0.6002 -0.0833 -0.4350
 9061SOL     OW38641   4.656   2.874   6.325 -0.0090  0.7766 -0.7443
 9061SOL    HW138642   4.668   2.834   6.239 -3.6923 -0.4897 -0.6678
 9061SOL    HW238643   4.675   2.966   6.305  1.6012  0.0702 -2.4171
 9062SOL     OW38644   3.691   4.357   6.412  0.6410 -0.4437 -0.0980
 9062SOL    HW138645   3.785   4.339   6.408  0.4404 -2.2033  2.6451
 9062SOL    HW238646   3.682   4.392   6.500  1.8359  1.3149 -0.6755
 9063SOL     OW38647   0.023   1.270   5.657  0.5007  0.0457 -0.0057
 9063SOL    HW138648   0.014   1.178   5.633  0.7502 -0.0813  0.3862
 9063SOL    HW238649   4.652   1.295   5.630  0.2001  0.7165  1.5761
 9064SOL     OW38650   2.933   3.235   4.863 -0.4870  0.2973 -0.3811
 9064SOL    HW138651   3.025   3.210   4.869 -0.3952  0.9632  0.9104
 9064SOL    HW238652   2.931   3.302   4.931 -1.8843 -2.6726  2.5030
 9065SOL     OW38653   1.008   0.820   1.661  0.0041 -0.1315 -0.1748
 9065SOL    HW138654   1.078   0.787   1.716 -1.3197 -0.0428  1.5664
 9065SOL    HW238655   1.036   0.806   1.571  0.9996  1.9247 -0.1814
 9066SOL     OW38656   2.858   2.467   7.376  0.0837  0.2642  0.0020
 9066SOL    HW138657   2.882   2.506   7.459  0.1829  0.3483 -0.0664
 9066SOL    HW238658   2.918   2.394   7.382 -0.1020  0.0594 -0.5983
 9067SOL     OW38659   3.319   0.360  17.122  0.3779  0.1768  0.3068
 9067SOL    HW138660   3.250   0.327  17.065  1.0563 -0.7699  0.0261
 9067SOL    HW238661   3.366   0.428  17.073  0.9617  0.4271  1.2134
 9068SOL     OW38662   1.876   3.029   4.786  0.2020 -0.0534  0.2972
 9068SOL    HW138663   1.823   3.106   4.805  1.2671  0.8661 -0.5101
 9068SOL    HW238664   1.938   3.036   4.858 -0.2390 -0.8248  0.7518
 9069SOL     OW38665   2.375   2.678  13.495 -0.0850  0.6834  0.0579
 9069SOL    HW138666   2.304   2.667  13.432  1.7607 -2.2030 -1.4964
 9069SOL    HW238667   2.326   2.721  13.566 -2.8226  1.4545 -2.3015
 9070SOL     OW38668   1.339   3.857   3.560 -0.4867  0.1520 -0.1841
 9070SOL    HW138669   1.315   3.868   3.469  0.0406 -1.1978 -0.4918
 9070SOL    HW238670   1.264   3.896   3.604 -0.5900 -1.0086  0.6666
 9071SOL     OW38671   1.991   3.898   8.138  0.0660  0.2737 -0.3908
 9071SOL    HW138672   2.068   3.884   8.194 -1.1655  1.7252  1.6467
 9071SOL    HW238673   1.940   3.822   8.164 -0.1175 -0.1055 -1.8742
 9072SOL     OW38674   3.838   3.365   0.507  0.4664 -0.0584  0.1288
 9072SOL    HW138675   3.788   3.419   0.446  2.1204  1.6968  0.3211
 9072SOL    HW238676   3.786   3.371   0.587 -1.7235  0.6777 -1.3546
 9073SOL     OW38677   0.148   2.549  14.397  0.4391  0.3225 -0.5978
 9073SOL    HW138678   0.076   2.486  14.392  0.8617 -0.2636  0.7706
 9073SOL    HW238679   0.185   2.529  14.483 -0.4276 -2.2088 -0.8001
 9074SOL     OW38680   2.769   3.248   7.363  0.4485  0.1374  0.2125
 9074SOL    HW138681   2.697   3.207   7.315  0.9672 -0.7578  0.1961
 9074SOL    HW238682   2.791   3.177   7.423 -1.8078 -1.4040 -0.7524
 9075SOL     OW38683   0.882   3.431   1.708 -0.4836 -0.1426  0.2106
 9075SOL    HW138684   0.863   3.518   1.744 -0.2620  0.6359 -1.5694
 9075SOL    HW238685   0.833   3.372   1.765 -2.5988  1.4587  0.0190
 9076SOL     OW38686   0.443   1.621  10.480 -0.0615 -0.1689  0.1485
 9076SOL    HW138687   0.397   1.679  10.541 -0.5181 -1.1908  0.7890
 9076SOL    HW238688   0.470   1.553  10.542  0.9846  0.5010  0.4182
 9077SOL     OW38689   4.519   4.644   7.351  0.1394  0.1675  0.1814
 9077SOL    HW138690   4.482   4.606   7.431  0.1854 -0.3052 -0.0216
 9077SOL    HW238691   4.551   4.571   7.298 -0.3485 -0.0944  0.2530
 9078SOL     OW38692   0.521   0.981  16.027 -0.0671 -0.0690 -0.4705
 9078SOL    HW138693   0.595   1.019  15.980 -0.3109  1.7828  0.5968
 9078SOL    HW238694   0.470   1.062  16.022 -1.8354 -1.2499 -1.3915
 9079SOL     OW38695   4.213   0.009   6.178 -0.2246  0.0606  0.1857
 9079SOL    HW138696   4.159   4.699   6.104 -2.0155  0.4562  1.3409
 9079SOL    HW238697   4.166   0.089   6.200 -1.2692 -0.8006  1.0434
 9080SOL     OW38698   0.005   0.454   6.608 -0.2264 -0.3627 -0.2271
 9080SOL    HW138699   0.039   0.521   6.548  0.9354 -1.1759 -0.4978
 9080SOL    HW238700   0.087   0.413   6.638  0.9909  2.5815  0.4631
 9081SOL     OW38701   2.429   2.938   3.850 -0.4983  0.4507  0.3137
 9081SOL    HW138702   2.449   3.013   3.794  1.8204  1.3711  2.3662
 9081SOL    HW238703   2.416   2.981   3.935 -0.0422  0.7172  0.2477
 9082SOL     OW38704   1.319   0.299   2.595 -0.1839  0.2001 -0.4504
 9082SOL    HW138705   1.380   0.237   2.554  0.7106  0.4779  0.4511
 9082SOL    HW238706   1.374   0.378   2.603 -1.9516  1.3639  0.1138
 9083SOL     OW38707   1.755   4.577   5.345  0.3130 -0.1382 -0.4671
 9083SOL    HW138708   1.781   4.651   5.400  0.1297 -1.5109  1.4688
 9083SOL    HW238709   1.819   4.583   5.274  0.6584  1.1696 -0.0481
 9084SOL     OW38710   2.851   3.830   5.556  0.3313 -0.2442 -0.3546
 9084SOL    HW138711   2.758   3.831   5.535  0.2692  0.3705 -0.0319
 9084SOL    HW238712   2.894   3.779   5.487  0.3972 -1.0325  0.2556
 9085SOL     OW38713   2.831   2.895   2.094  0.2006  0.4610 -0.2169
 9085SOL    HW138714   2.739   2.883   2.070  0.4323  0.6438 -1.2055
 9085SOL    HW238715   2.850   2.809   2.131 -2.6158 -0.9086 -1.9387
 9086SOL     OW38716   4.050   3.438   6.069  0.4179 -0.5484  0.2887
 9086SOL    HW138717   4.025   3.508   6.129  1.5020  1.0467 -1.1384
 9086SOL    HW238718   3.964   3.404   6.045  2.3398 -3.9816 -1.7084
 9087SOL     OW38719   0.004   0.489   4.614 -0.0090  0.1357 -0.5134
 9087SOL    HW138720   4.699   0.441   4.534 -2.6262 -0.6652  0.7064
 9087SOL    HW238721   0.068   0.546   4.572 -1.1524 -0.0877 -2.5532
 9088SOL     OW38722   2.372   4.637   4.064 -0.2132  0.0174 -0.3126
 9088SOL    HW138723   2.307   4.641   3.993  0.0623 -0.5369 -0.5942
 9088SOL    HW238724   2.324   4.678   4.136 -0.1087  0.4690 -0.4980
 9089SOL     OW38725   3.474   4.445   2.943 -0.9690  0.0385 -0.4734
 9089SOL    HW138726   3.450   4.531   2.978  1.8266  0.4113  0.4975
 9089SOL    HW238727   3.558   4.461   2.901 -1.9504  0.3864 -2.3191
 9090SOL     OW38728   2.820   3.224   4.026  0.1180  0.1425  0.1969
 9090SOL    HW138729   2.844   3.303   3.976 -1.5739  0.5027 -0.0297
 9090SOL    HW238730   2.728   3.241   4.046 -0.6325 -2.2771 -1.2423
 9091SOL     OW38731   3.503   1.213   3.474  0.2756 -0.3388  0.4155
 9091SOL    HW138732   3.593   1.227   3.445 -0.1555 -0.5218 -1.0086
 9091SOL    HW238733   3.454   1.274   3.418  1.4101  1.6499  1.5763
 9092SOL     OW38734   2.889   0.336  16.973 -0.6540 -0.0826  0.0176
 9092SOL    HW138735   2.801   0.301  16.964 -0.6513  0.6977 -3.1413
 9092SOL    HW238736   2.936   0.254  16.991 -1.5653 -0.0833  2.4506
 9093SOL     OW38737   2.178   3.799   5.839  0.2569  0.2891 -0.5584
 9093SOL    HW138738   2.109   3.797   5.905  0.9761  1.4229  0.2402
 9093SOL    HW238739   2.237   3.736   5.880  1.7068  1.6090 -0.6098
 9094SOL     OW38740   2.828   4.387   0.397 -0.2021 -0.1760  0.2940
 9094SOL    HW138741   2.754   4.400   0.456 -0.2183 -0.2515  0.2904
 9094SOL    HW238742   2.852   4.295   0.401 -0.8257 -0.3604 -0.2008
 9095SOL     OW38743   2.194   3.395  16.440 -0.3427  0.2341 -0.6789
 9095SOL    HW138744   2.200   3.491  16.432  2.6500 -0.0506 -1.7294
 9095SOL    HW238745   2.123   3.375  16.379 -1.5550 -0.9357  1.1279
 9096SOL     OW38746   4.230   2.677  17.527 -0.2315  0.8236  0.1638
 9096SOL    HW138747   4.314   2.688  17.572  1.2426 -2.8334 -1.7141
 9096SOL    HW238748   4.255   2.718  17.444  0.8438  2.1310  1.1143
 9097SOL     OW38749   0.131   4.573   7.844  0.2698  0.1033  0.4791
 9097SOL    HW138750   0.158   4.506   7.780  1.5376  1.6908 -0.6298
 9097SOL    HW238751   0.167   4.536   7.924  1.0875 -0.3214 -0.0810
 9098SOL     OW38752   1.898   3.615  11.071  0.1204 -0.2848  0.4379
 9098SOL    HW138753   1.906   3.696  11.020 -0.2864 -0.7100 -0.3066
 9098SOL    HW238754   1.905   3.641  11.163  0.1025  2.4010 -0.3221
 9099SOL     OW38755   3.339   1.104  10.800  0.5385  0.6908 -0.1998
 9099SOL    HW138756   3.267   1.137  10.747 -0.7153 -0.3169  0.8954
 9099SOL    HW238757   3.336   1.152  10.883  0.3455 -2.4073  1.5609
 9100SOL     OW38758   0.275   0.904   6.486  0.3277  0.1948 -0.0483
 9100SOL    HW138759   0.227   0.971   6.438 -1.2862 -1.7723 -1.2063
 9100SOL    HW238760   0.338   0.957   6.534  0.0285  1.3381 -0.9345
 9101SOL     OW38761   1.795   4.417  11.284  0.2875 -0.3624 -0.3805
 9101SOL    HW138762   1.722   4.467  11.247 -1.5764 -3.2227 -0.6160
 9101SOL    HW238763   1.835   4.488  11.333  0.6439 -2.0983  1.8578
 9102SOL     OW38764   1.291   0.748  16.465  0.1536  0.3495 -0.0803
 9102SOL    HW138765   1.381   0.722  16.446 -0.1418  0.8740 -2.1750
 9102SOL    HW238766   1.313   0.834  16.502 -0.2310  0.8997 -1.1287
 9103SOL     OW38767   0.309   3.798  16.791  0.7868 -0.0168  0.4589
 9103SOL    HW138768   0.317   3.771  16.700 -0.3879  0.7445  0.1304
 9103SOL    HW238769   0.400   3.819  16.814 -0.0241  3.6728  0.2711
 9104SOL     OW38770   0.832   0.128   7.177  0.2528 -0.3835  0.2561
 9104SOL    HW138771   0.922   0.159   7.164  0.0490  0.9950  2.1722
 9104SOL    HW238772   0.819   0.077   7.097  0.5234  3.0306 -2.0025
 9105SOL     OW38773   1.795   0.646   0.312  0.9411  0.6263  0.2088
 9105SOL    HW138774   1.858   0.718   0.308 -0.5910  1.9312 -0.9940
 9105SOL    HW238775   1.753   0.655   0.226  0.4149 -0.4202  0.3630
 9106SOL     OW38776   4.262   0.088   2.885 -0.1579  0.2737  0.8435
 9106SOL    HW138777   4.254   0.142   2.806 -0.1339 -1.0196 -0.0372
 9106SOL    HW238778   4.357   0.076   2.884 -0.3318 -1.0039  0.7449
 9107SOL     OW38779   2.541   3.517   5.218  0.3399 -0.0214 -0.0024
 9107SOL    HW138780   2.507   3.606   5.223 -1.9626 -0.9740  1.5086
 9107SOL    HW238781   2.457   3.472   5.229  1.2173 -1.5371  0.5953
 9108SOL     OW38782   0.159   3.234   7.540  0.2382 -0.3875 -0.1505
 9108SOL    HW138783   0.152   3.167   7.472 -0.7899 -0.4322 -0.0065
 9108SOL    HW238784   0.076   3.282   7.543  0.0554 -0.6531 -0.9502
 9109SOL     OW38785   1.251   0.568   9.275  0.0721 -0.1319 -0.2619
 9109SOL    HW138786   1.313   0.636   9.250 -0.0966  0.7989  1.8155
 9109SOL    HW238787   1.167   0.609   9.256  0.7961  1.7450  0.6142
 9110SOL     OW38788   4.632   2.051   4.743 -0.7192  0.8849  0.0461
 9110SOL    HW138789   4.703   2.030   4.803 -1.3155 -1.3853 -0.0194
 9110SOL    HW238790   4.569   2.102   4.793 -1.3857 -0.6570  0.7898
 9111SOL     OW38791   1.331   3.001  16.503  0.2135 -1.0318  0.0409
 9111SOL    HW138792   1.254   2.945  16.515 -0.6968  0.0570 -0.6093
 9111SOL    HW238793   1.344   3.005  16.408 -1.1294  0.6186 -0.0814
 9112SOL     OW38794   1.353   1.246   1.589 -0.2266  0.0131 -0.1522
 9112SOL    HW138795   1.281   1.285   1.639  1.2171  0.6463  1.4270
 9112SOL    HW238796   1.366   1.310   1.519 -0.2079 -0.3741 -0.5034
 9113SOL     OW38797   3.511   3.175   6.426  0.1201 -0.0212  0.0113
 9113SOL    HW138798   3.426   3.164   6.383  0.3724  2.2621 -1.0359
 9113SOL    HW238799   3.540   3.245   6.368 -1.0559  0.6320  0.2293
 9114SOL     OW38800   1.097   3.022   4.572  0.2440  0.7676  0.3115
 9114SOL    HW138801   1.123   2.934   4.546 -1.4551  0.2999  0.1791
 9114SOL    HW238802   1.152   3.071   4.511  2.0479  0.2891  1.5684
 9115SOL     OW38803   3.242   2.465  13.222 -0.2866  0.9274 -0.1826
 9115SOL    HW138804   3.160   2.481  13.176 -1.2118 -0.6957  0.8924
 9115SOL    HW238805   3.283   2.391  13.177 -0.6393  0.0813  0.9055
 9116SOL     OW38806   0.220   0.091  14.788  0.3172 -0.0642  0.0580
 9116SOL    HW138807   0.280   0.079  14.715  2.3300 -0.2123  1.7550
 9116SOL    HW238808   0.283   0.092  14.860  1.2980 -0.8537 -0.7942
 9117SOL     OW38809   0.676   4.470  16.789 -0.2682 -0.4506 -0.0649
 9117SOL    HW138810   0.590   4.511  16.791  0.1476  0.4886 -1.2222
 9117SOL    HW238811   0.663   4.406  16.859 -1.0565 -2.2989 -1.8819
 9118SOL     OW38812   3.036   3.556  17.257  0.8758 -0.1169  0.0232
 9118SOL    HW138813   2.993   3.638  17.280  0.1411  0.3331 -3.0206
 9118SOL    HW238814   3.088   3.528  17.333  0.2208  0.2712  0.6139
 9119SOL     OW38815   3.728   1.733   5.023  0.1625 -0.0446 -0.0487
 9119SOL    HW138816   3.733   1.765   4.933 -1.2140  0.2411 -0.0315
 9119SOL    HW238817   3.814   1.694   5.037 -0.3182 -1.1088 -0.1305
 9120SOL     OW38818   0.249   2.791  14.358 -0.0812  0.3159  0.2404
 9120SOL    HW138819   0.330   2.758  14.318  1.9495  1.1486  3.6732
 9120SOL    HW238820   0.215   2.702  14.370  0.0451 -0.0242 -1.8530
 9121SOL     OW38821   2.754   1.423   6.704 -0.9335  0.4001  0.4626
 9121SOL    HW138822   2.689   1.438   6.772 -1.0009  0.2559  0.4306
 9121SOL    HW238823   2.832   1.434   6.759  0.5585 -2.0925 -1.1266
 9122SOL     OW38824   4.084   4.097   6.635 -0.5019  0.0569 -0.8446
 9122SOL    HW138825   4.162   4.144   6.664 -0.0617 -0.4054 -1.2804
 9122SOL    HW238826   4.129   4.014   6.622 -0.6380 -0.0162 -0.8414
 9123SOL     OW38827   1.038   1.806   2.247 -0.6098 -0.5654 -0.0924
 9123SOL    HW138828   1.039   1.802   2.152  0.6951 -1.9488 -0.0248
 9123SOL    HW238829   1.032   1.711   2.257  0.6836 -0.8994 -2.6737
 9124SOL     OW38830   4.030   2.376   0.820 -0.2081 -0.4609  0.0481
 9124SOL    HW138831   4.052   2.318   0.893 -0.6861 -0.6942  0.0061
 9124SOL    HW238832   4.100   2.342   0.765  0.8287 -0.9794  1.6900
 9125SOL     OW38833   2.071   3.911   6.094  0.2297 -0.8785 -0.3316
 9125SOL    HW138834   2.066   3.980   6.027  2.3636 -0.0777  0.3510
 9125SOL    HW238835   1.996   3.932   6.150 -0.3050 -2.6188 -0.4186
 9126SOL     OW38836   3.238   2.594   7.421  0.0778 -0.7091 -0.2902
 9126SOL    HW138837   3.266   2.558   7.504 -1.8681  1.2574  1.2199
 9126SOL    HW238838   3.273   2.536   7.353 -2.3080 -0.7295 -1.5161
 9127SOL     OW38839   4.203   1.630   4.541  0.1574  0.0924  0.3210
 9127SOL    HW138840   4.185   1.710   4.589  0.8198  0.3263  0.1770
 9127SOL    HW238841   4.297   1.640   4.528  0.1113  0.7969  0.5747
 9128SOL     OW38842   1.930   4.266   4.177  0.2024 -0.4144  0.4442
 9128SOL    HW138843   2.006   4.209   4.170 -0.3948 -1.2373  0.6257
 9128SOL    HW238844   1.963   4.347   4.138 -1.4706 -0.0715 -0.2917
 9129SOL     OW38845   2.668   4.672   1.712  0.3893 -0.4450 -0.6564
 9129SOL    HW138846   2.697   4.619   1.638  1.2151 -1.1851  0.1965
 9129SOL    HW238847   2.600   4.614   1.747  1.6052 -0.2784  2.0036
 9130SOL     OW38848   2.706   0.694  14.466  0.0707 -0.4117 -0.1868
 9130SOL    HW138849   2.728   0.625  14.403  0.8381  0.3393 -0.7224
 9130SOL    HW238850   2.720   0.772  14.412 -3.0985  1.1808  1.2933
 9131SOL     OW38851   2.481   1.987  12.618 -0.4198 -0.1749  0.4247
 9131SOL    HW138852   2.427   2.018  12.691  0.7527 -0.4637  1.4305
 9131SOL    HW238853   2.513   2.072  12.589 -1.9442 -0.4344 -2.0233
 9132SOL     OW38854   3.881   1.354   6.089 -0.4492 -0.5914 -0.2872
 9132SOL    HW138855   3.867   1.421   6.023  1.1885  0.3671  0.3511
 9132SOL    HW238856   3.856   1.280   6.034 -0.1638 -1.4562  0.7402
 9133SOL     OW38857   4.643   2.630   4.119  0.1968 -0.7718 -0.0778
 9133SOL    HW138858   4.577   2.698   4.132  0.4941 -1.0340  2.7267
 9133SOL    HW238859   4.628   2.609   4.027  2.1229  1.4119 -0.8987
 9134SOL     OW38860   4.425   3.684   2.496 -0.3823 -0.1001 -0.4400
 9134SOL    HW138861   4.521   3.687   2.490 -0.3411 -0.1036  0.2430
 9134SOL    HW238862   4.395   3.765   2.537  0.7463  0.8790 -1.5477
 9135SOL     OW38863   2.778   3.853   8.384 -0.3219  0.0790  0.1068
 9135SOL    HW138864   2.789   3.945   8.410  2.1856  0.0813 -0.9942
 9135SOL    HW238865   2.863   3.818   8.360 -1.2608 -2.2166  0.1828
 9136SOL     OW38866   2.731   1.537   8.908 -0.4745  0.3147 -0.2877
 9136SOL    HW138867   2.733   1.494   8.823  3.0728  1.9854 -1.0323
 9136SOL    HW238868   2.824   1.530   8.927 -0.5336  0.8533  0.2036
 9137SOL     OW38869   3.178   2.046   3.163 -0.2064  0.6681 -0.0210
 9137SOL    HW138870   3.268   2.075   3.151 -1.2312  3.0626 -1.8729
 9137SOL    HW238871   3.144   2.070   3.077  1.4213  1.8744 -0.3183
 9138SOL     OW38872   3.572   4.587   6.308 -0.4735 -0.2075 -0.2218
 9138SOL    HW138873   3.615   4.637   6.378 -1.0988 -1.4092  1.0254
 9138SOL    HW238874   3.633   4.513   6.307 -1.0281 -0.6845  1.3021
 9139SOL     OW38875   2.367   3.803   7.161  0.2475  0.3577  0.1864
 9139SOL    HW138876   2.409   3.719   7.140 -1.1383  1.1198 -5.7718
 9139SOL    HW238877   2.381   3.855   7.081 -0.2440 -0.7293 -0.6154
 9140SOL     OW38878   1.092   0.672  11.580 -0.0620  0.0947 -0.1617
 9140SOL    HW138879   1.028   0.704  11.516 -0.7780 -2.3194 -0.6335
 9140SOL    HW238880   1.100   0.743  11.644 -0.6961  0.8856 -0.9593
 9141SOL     OW38881   0.458   2.244   6.613  0.6335 -0.2328  0.1667
 9141SOL    HW138882   0.445   2.166   6.667  1.6750 -1.1267 -0.8694
 9141SOL    HW238883   0.488   2.302   6.684  1.2680  0.3713 -0.5930
 9142SOL     OW38884   3.960   1.336   3.147 -0.4058 -0.7469  0.0612
 9142SOL    HW138885   4.035   1.352   3.204  0.1493 -0.7161 -0.6749
 9142SOL    HW238886   3.954   1.241   3.138  1.0830 -1.0286  2.0891
 9143SOL     OW38887   3.635   3.175  13.673  0.2140  0.7778  0.1567
 9143SOL    HW138888   3.676   3.250  13.631 -0.0042  0.7074 -0.1828
 9143SOL    HW238889   3.681   3.107  13.624  0.3090  0.3050  0.8845
 9144SOL     OW38890   0.157   0.514   2.470 -0.6004 -0.2527 -0.3069
 9144SOL    HW138891   0.179   0.578   2.537 -1.3406  0.0481 -0.3532
 9144SOL    HW238892   0.194   0.554   2.391  1.2308 -0.6032  0.3656
 9145SOL     OW38893   2.581   1.395  10.281  0.6545 -0.1436  0.4293
 9145SOL    HW138894   2.633   1.470  10.306  0.1922  0.6801 -1.0905
 9145SOL    HW238895   2.525   1.397  10.359  0.2420  3.8417  0.0131
 9146SOL     OW38896   3.495   0.919   3.577 -0.0394 -0.2627  0.0802
 9146SOL    HW138897   3.438   0.929   3.654 -0.7378 -0.7843 -0.3660
 9146SOL    HW238898   3.527   1.009   3.577 -0.3693 -0.1358  1.3666
 9147SOL     OW38899   1.510   0.428   6.865  0.1416  0.1016  0.4775
 9147SOL    HW138900   1.527   0.522   6.853 -0.0329  0.6124  4.0550
 9147SOL    HW238901   1.597   0.390   6.851 -0.1474 -0.6788  0.8529
 9148SOL     OW38902   1.202   4.161  10.606  0.1972 -0.1409  0.4559
 9148SOL    HW138903   1.142   4.096  10.644  1.4152 -1.6712 -0.2175
 9148SOL    HW238904   1.287   4.119  10.615  0.2921 -0.2082 -0.7358
 9149SOL     OW38905   2.197   0.629   4.765  0.0355 -0.1530 -0.3432
 9149SOL    HW138906   2.130   0.561   4.759  3.2836 -3.3751 -0.0218
 9149SOL    HW238907   2.173   0.685   4.691  1.7177  0.6991 -0.2469
 9150SOL     OW38908   1.995   2.963  11.018 -0.3738  0.9369  0.7050
 9150SOL    HW138909   2.083   2.989  10.989 -1.2266 -2.2219 -4.6989
 9150SOL    HW238910   1.947   2.932  10.942  2.8195 -1.4306 -0.3384
 9151SOL     OW38911   1.786   1.343   6.847 -0.7742 -0.4052 -0.4182
 9151SOL    HW138912   1.814   1.318   6.935 -1.6116  0.8813  0.2107
 9151SOL    HW238913   1.764   1.436   6.850 -2.5178 -0.8671  0.9098
 9152SOL     OW38914   2.760   0.972   5.336 -0.1607  0.1656 -0.3406
 9152SOL    HW138915   2.786   0.939   5.422 -1.3114  0.4808  0.1309
 9152SOL    HW238916   2.834   0.951   5.278  1.2013  2.1627  0.6699
 9153SOL     OW38917   0.167   2.381   6.609 -0.2133 -0.8024  0.0391
 9153SOL    HW138918   0.232   2.378   6.679 -1.2697 -1.3545  0.9877
 9153SOL    HW238919   0.215   2.338   6.538  0.5801 -0.5427  0.4216
 9154SOL     OW38920   1.780   4.019   8.442 -0.5930 -0.9576 -0.1476
 9154SOL    HW138921   1.734   4.084   8.496 -0.9132  0.1648 -1.7636
 9154SOL    HW238922   1.750   4.039   8.354 -2.0914 -0.3809  0.4973
 9155SOL     OW38923   0.041   0.462  14.848 -0.0416  0.2612 -0.5301
 9155SOL    HW138924   0.072   0.487  14.934  1.6317  0.5690 -1.2309
 9155SOL    HW238925   0.017   0.372  14.868 -1.4807  0.6773 -0.3353
 9156SOL     OW38926   0.139   4.251   3.276 -0.0651  0.0884  0.6213
 9156SOL    HW138927   0.212   4.253   3.338 -0.2728  1.4490  0.8309
 9156SOL    HW238928   0.084   4.179   3.307 -0.9521  0.7121  0.5000
 9157SOL     OW38929   1.976   3.077   3.533 -0.1659 -0.1505  0.2831
 9157SOL    HW138930   1.897   3.118   3.569  0.5963  3.4168 -2.0414
 9157SOL    HW238931   1.969   3.107   3.443 -1.0985 -1.1017  0.0447
 9158SOL     OW38932   3.807   1.193   1.292 -0.3752  0.4575  0.0561
 9158SOL    HW138933   3.800   1.132   1.365  0.5645 -1.0866 -1.1492
 9158SOL    HW238934   3.764   1.145   1.220  1.2174  1.9428 -1.8880
 9159SOL     OW38935   4.324   2.064   4.751  0.6874 -0.2004 -0.5895
 9159SOL    HW138936   4.261   2.083   4.821  1.6714  0.0313  0.2299
 9159SOL    HW238937   4.372   2.147   4.752  0.6340 -0.1604 -2.0157
 9160SOL     OW38938   1.008   3.496  17.272  0.1418  0.5675 -0.6788
 9160SOL    HW138939   0.918   3.482  17.303  0.1456  2.3338  0.1604
 9160SOL    HW238940   1.057   3.446  17.337  0.6476 -0.3585 -1.7827
 9161SOL     OW38941   0.997   3.241   2.666 -0.7277 -0.2194 -0.1033
 9161SOL    HW138942   0.930   3.239   2.734 -2.9962 -0.1963 -2.3186
 9161SOL    HW238943   0.950   3.190   2.600  0.3655  1.7028 -2.3589
 9162SOL     OW38944   0.545   2.437   7.648 -0.0614  0.2535  0.0029
 9162SOL    HW138945   0.577   2.350   7.670  0.9171  0.7979  0.7244
 9162SOL    HW238946   0.552   2.428   7.553 -1.2265  2.0046 -0.2547
 9163SOL     OW38947   3.694   2.905  17.366  0.0373 -0.8250  0.4208
 9163SOL    HW138948   3.651   2.820  17.379  0.3687 -1.3219 -1.7537
 9163SOL    HW238949   3.769   2.874  17.315 -0.4270  0.2738 -0.9173
 9164SOL     OW38950   0.890   2.455   1.806 -0.3561  0.6792 -0.4426
 9164SOL    HW138951   0.940   2.511   1.866 -1.5859  2.4093 -1.0194
 9164SOL    HW238952   0.814   2.506   1.777 -1.1121 -0.9900 -1.3881
 9165SOL     OW38953   1.109   0.477  14.421 -0.8146 -0.2058 -0.0631
 9165SOL    HW138954   1.092   0.496  14.513 -0.7123 -0.8399  0.0841
 9165SOL    HW238955   1.041   0.537  14.388 -0.5366  1.2483  2.0179
 9166SOL     OW38956   0.804   4.100   1.733  0.4349  0.3220 -0.0226
 9166SOL    HW138957   0.845   4.018   1.704  0.6285  0.4999 -0.2547
 9166SOL    HW238958   0.828   4.091   1.825 -0.1185  0.1294  0.1031
 9167SOL     OW38959   3.845   1.587   4.497  0.0728  0.1406 -0.4299
 9167SOL    HW138960   3.896   1.507   4.485  0.9670  0.6523 -0.0521
 9167SOL    HW238961   3.823   1.617   4.409 -1.0150  0.3751 -0.0809
 9168SOL     OW38962   4.061   2.324   6.747 -0.0672  0.0847 -0.3710
 9168SOL    HW138963   4.067   2.231   6.767 -0.1768 -0.0070 -0.7657
 9168SOL    HW238964   4.022   2.352   6.830  2.0329  2.4956 -0.2070
 9169SOL     OW38965   0.722   2.108   7.019 -0.0455 -0.0042 -0.5876
 9169SOL    HW138966   0.794   2.131   7.077 -0.6418  0.8447 -0.1726
 9169SOL    HW238967   0.648   2.110   7.080  1.7828 -1.3635  1.6510
 9170SOL     OW38968   2.369   3.277   4.259  0.3166 -0.1121 -0.2287
 9170SOL    HW138969   2.422   3.318   4.327  1.5950 -2.3552  0.1257
 9170SOL    HW238970   2.284   3.292   4.300  0.8123  1.2652  0.2554
 9171SOL     OW38971   3.658   2.754  10.900 -0.2434  0.0000  0.2608
 9171SOL    HW138972   3.577   2.798  10.875 -0.2427 -0.5787 -0.8059
 9171SOL    HW238973   3.656   2.673  10.849  0.4406  0.4510 -0.4883
 9172SOL     OW38974   1.849   0.438   0.480 -0.4515  0.2220 -0.2117
 9172SOL    HW138975   1.787   0.487   0.426  0.1109  1.3893  0.2104
 9172SOL    HW238976   1.832   0.347   0.455  1.2373 -0.6055  1.6634
 9173SOL     OW38977   1.747   0.661   3.243  0.8027 -0.0251 -0.0324
 9173SOL    HW138978   1.717   0.664   3.152 -0.1310  0.4862  0.2861
 9173SOL    HW238979   1.752   0.566   3.250 -1.8776 -0.2826 -1.4160
 9174SOL     OW38980   2.568   0.347  15.303 -0.2026 -0.2292 -0.3801
 9174SOL    HW138981   2.645   0.334  15.247  0.0505  2.5455 -0.6990
 9174SOL    HW238982   2.588   0.434  15.339  0.2034  0.6725 -2.7703
 9175SOL     OW38983   0.950   3.898  10.375  0.2379 -0.1228  0.1725
 9175SOL    HW138984   0.887   3.828  10.392  3.4865 -2.7762  1.0982
 9175SOL    HW238985   0.903   3.978  10.398 -1.6181 -0.9705 -0.6623
 9176SOL     OW38986   4.592   3.682   4.160  0.1135  0.6474 -0.4442
 9176SOL    HW138987   4.551   3.606   4.203 -1.6596  1.5192 -0.5814
 9176SOL    HW238988   4.520   3.693   4.097 -0.0684  2.0506  0.0085
 9177SOL     OW38989   1.382   4.347   6.966 -0.2702 -0.0163  0.2564
 9177SOL    HW138990   1.311   4.408   6.987  1.1878  1.6744  0.2353
 9177SOL    HW238991   1.339   4.306   6.891 -1.7989 -0.8464  1.5746
 9178SOL     OW38992   2.816   2.628   2.149 -0.0338  0.0469 -0.2222
 9178SOL    HW138993   2.821   2.542   2.192 -0.0466  1.0089  1.6841
 9178SOL    HW238994   2.739   2.657   2.198  0.1678  0.8641 -0.3975
 9179SOL     OW38995   2.038   3.116   1.294 -0.3573  0.5779  0.1112
 9179SOL    HW138996   2.110   3.060   1.265 -2.1854 -2.1555  0.9342
 9179SOL    HW238997   2.028   3.166   1.212 -1.3700  0.5961  0.2392
 9180SOL     OW38998   0.524   4.136   2.452 -0.2851 -0.1475  0.1290
 9180SOL    HW138999   0.439   4.099   2.432  0.5487 -2.7102  1.2978
 9180SOL    HW239000   0.539   4.183   2.370  0.6189  0.3078  0.5437
 9181SOL     OW39001   1.473   4.006   4.876  0.5571  0.7660 -0.1967
 9181SOL    HW139002   1.554   3.997   4.926  0.0433  1.1184  0.7180
 9181SOL    HW239003   1.505   3.995   4.787 -0.0292  0.5557 -0.3807
 9182SOL     OW39004   3.549   4.047   4.224  0.1827 -0.2071  0.5498
 9182SOL    HW139005   3.558   4.037   4.129 -3.3556 -2.5262  0.4764
 9182SOL    HW239006   3.516   4.135   4.236  0.7458  0.7085 -4.5279
 9183SOL     OW39007   3.718   0.618   2.370 -0.2826 -0.0635 -0.3859
 9183SOL    HW139008   3.779   0.578   2.433  0.3629 -0.1727 -1.0885
 9183SOL    HW239009   3.730   0.561   2.294  1.4223 -3.2568  2.2926
 9184SOL     OW39010   2.797   2.460   1.859 -0.2495 -0.4611 -0.2338
 9184SOL    HW139011   2.791   2.513   1.779  3.5258 -1.0128 -0.9037
 9184SOL    HW239012   2.834   2.520   1.923 -1.1767  2.6886 -2.6636
 9185SOL     OW39013   0.683   1.647   5.874 -0.0026 -0.5818  0.0874
 9185SOL    HW139014   0.750   1.605   5.820  0.8119  1.0685 -0.2027
 9185SOL    HW239015   0.627   1.572   5.893 -1.1784  0.7285  1.7887
 9186SOL     OW39016   0.123   0.526   1.626 -0.3704 -0.1376  0.0664
 9186SOL    HW139017   0.120   0.470   1.548 -0.6474 -1.6700  1.1735
 9186SOL    HW239018   0.205   0.500   1.669  1.3618  2.9261 -1.3536
 9187SOL     OW39019   4.451   1.725   4.825 -0.7658 -0.0875  0.3566
 9187SOL    HW139020   4.461   1.807   4.776 -0.9181  1.4868  2.9538
 9187SOL    HW239021   4.416   1.762   4.906 -0.8195  0.6725 -0.0099
 9188SOL     OW39022   4.383   1.261   4.980 -0.0635 -0.2611  0.5880
 9188SOL    HW139023   4.293   1.235   5.001  0.0231 -0.9037  0.1601
 9188SOL    HW239024   4.384   1.356   4.990 -5.0833 -0.1514  0.0651
 9189SOL     OW39025   0.957   1.906   9.990  0.2531  0.2377  0.3669
 9189SOL    HW139026   0.900   1.885  10.064 -1.6732  0.2129 -1.1148
 9189SOL    HW239027   1.030   1.846  10.007  0.5506 -0.3301 -2.9476
 9190SOL     OW39028   2.168   2.185   6.632 -0.1590 -0.2767 -0.3238
 9190SOL    HW139029   2.102   2.210   6.696  0.2581 -0.0506  0.0234
 9190SOL    HW239030   2.254   2.200   6.672 -1.5051 -0.2578  2.5080
 9191SOL     OW39031   4.314   0.861  14.059  0.1550 -0.1655 -0.2019
 9191SOL    HW139032   4.263   0.795  14.011  1.4764 -0.0000 -1.8072
 9191SOL    HW239033   4.252   0.896  14.123 -1.6589 -1.6082 -1.1682
 9192SOL     OW39034   0.181   1.785   1.532 -0.2735 -0.2245 -0.4522
 9192SOL    HW139035   0.117   1.855   1.519 -0.4219  0.0762  1.9311
 9192SOL    HW239036   0.167   1.736   1.451  1.0449  0.8597 -1.3474
 9193SOL     OW39037   1.134   4.203   5.215 -0.1445  0.4102 -0.1926
 9193SOL    HW139038   1.153   4.144   5.142 -0.1190 -1.3412  1.2643
 9193SOL    HW239039   1.212   4.258   5.210 -1.1530  2.0282  1.8056
 9194SOL     OW39040   3.633   1.802   2.912 -0.5518 -0.6342  0.7173
 9194SOL    HW139041   3.568   1.872   2.905  0.7924  0.3978 -1.7598
 9194SOL    HW239042   3.646   1.773   2.821  1.0116  1.6382  0.2009
 9195SOL     OW39043   1.701   2.498   4.330  0.3244 -0.2920 -0.4600
 9195SOL    HW139044   1.733   2.491   4.420 -0.0138 -2.7015 -0.5173
 9195SOL    HW239045   1.614   2.459   4.341 -0.0555  0.6144 -0.2403
 9196SOL     OW39046   0.118   0.542  11.903  0.3450 -0.3655 -0.1728
 9196SOL    HW139047   0.090   0.454  11.927 -1.4047  0.1554 -0.3564
 9196SOL    HW239048   0.209   0.523  11.879  0.1959 -0.5487 -0.5844
 9197SOL     OW39049   3.180   3.819  13.903 -0.6888  0.0438 -0.0035
 9197SOL    HW139050   3.163   3.814  13.997 -1.6944  0.3666 -0.1631
 9197SOL    HW239051   3.269   3.787  13.896 -1.6700 -2.4272 -1.1200
 9198SOL     OW39052   4.328   4.057   4.120  1.2008 -0.5309  0.1261
 9198SOL    HW139053   4.309   4.081   4.211  0.0211  0.8299 -0.4758
 9198SOL    HW239054   4.371   4.138   4.091  0.5880 -1.4868 -3.4674
 9199SOL     OW39055   0.531   1.214   5.643 -0.3426 -0.1162  0.3373
 9199SOL    HW139056   0.559   1.180   5.557 -0.6097 -0.6468  0.4586
 9199SOL    HW239057   0.437   1.227   5.631 -0.1579  1.0452  0.1909
 9200SOL     OW39058   2.956   4.273   5.569  0.0695  0.1906  0.2941
 9200SOL    HW139059   2.927   4.189   5.534  2.5118 -0.1997 -0.7576
 9200SOL    HW239060   2.938   4.264   5.662 -0.9657 -0.3844  0.0333
 9201SOL     OW39061   1.322   0.325   9.282  0.4767  0.0813 -0.3170
 9201SOL    HW139062   1.311   0.420   9.282 -1.5272 -0.1384 -0.4589
 9201SOL    HW239063   1.416   0.324   9.299  0.5467 -0.1930 -0.7244
 9202SOL     OW39064   0.748   1.691   9.947  0.0543  0.1717 -0.6101
 9202SOL    HW139065   0.753   1.664  10.039  1.7238  0.1607 -0.7075
 9202SOL    HW239066   0.810   1.631   9.905  2.3605  1.4675  0.9301
 9203SOL     OW39067   0.332   1.237   7.611 -0.0066 -0.2014 -0.0736
 9203SOL    HW139068   0.422   1.207   7.620 -0.0047 -0.0783  0.3207
 9203SOL    HW239069   0.350   1.319   7.565 -1.2325 -0.2712 -0.6798
 9204SOL     OW39070   3.372   1.898   8.876 -0.1787  0.7113  0.4664
 9204SOL    HW139071   3.447   1.954   8.856  0.5870  0.2580  2.0199
 9204SOL    HW239072   3.357   1.921   8.968 -1.6070  0.8893  0.1934
 9205SOL     OW39073   2.138   1.378   3.912 -0.3774  0.0259  0.6103
 9205SOL    HW139074   2.080   1.454   3.911  0.5757  0.7551  0.5469
 9205SOL    HW239075   2.205   1.403   3.847  0.9094  0.3258  2.0609
 9206SOL     OW39076   4.325   1.174  17.081  0.0308  1.1063 -0.1411
 9206SOL    HW139077   4.265   1.215  17.018 -0.3519  1.5532  0.5158
 9206SOL    HW239078   4.297   1.227  17.155  1.7412  0.1249  1.1973
 9207SOL     OW39079   0.750   1.738   8.273  0.3656  0.2242  0.6272
 9207SOL    HW139080   0.730   1.689   8.353 -1.2713  0.3372  0.2858
 9207SOL    HW239081   0.826   1.687   8.247  0.5189  0.5666  0.3986
 9208SOL     OW39082   3.431   3.824   5.052 -0.2707 -0.6976 -0.0710
 9208SOL    HW139083   3.407   3.731   5.051 -0.4835 -0.6426  0.0072
 9208SOL    HW239084   3.408   3.848   4.962 -1.0623 -0.5925  0.1623
 9209SOL     OW39085   2.128   0.295   9.334  0.5026  0.0649  0.3184
 9209SOL    HW139086   2.167   0.302   9.421 -0.1696 -0.9752  0.7025
 9209SOL    HW239087   2.093   0.384   9.330  0.5772  0.1317  1.1495
 9210SOL     OW39088   0.981   1.930  10.488 -0.1657  0.2569 -0.1380
 9210SOL    HW139089   0.935   2.013  10.481  0.0671  0.4291  0.3728
 9210SOL    HW239090   0.911   1.878  10.529 -0.5397  1.2397  0.4769
 9211SOL     OW39091   0.436   0.121   8.065  0.2485  0.1094  0.4333
 9211SOL    HW139092   0.358   0.074   8.094  0.5622 -0.2691  0.6580
 9211SOL    HW239093   0.494   0.045   8.053  1.5710  1.2390 -0.3590
 9212SOL     OW39094   4.490   2.643   8.900 -0.0948  0.3926  0.0985
 9212SOL    HW139095   4.494   2.653   8.805 -0.9434 -2.1313 -0.1857
 9212SOL    HW239096   4.562   2.581   8.909 -0.9165 -0.9156 -2.5070
 9213SOL     OW39097   2.460   2.056   0.171 -0.3326 -0.0341 -0.8977
 9213SOL    HW139098   2.534   2.060   0.232 -1.7379 -0.2428  0.8268
 9213SOL    HW239099   2.427   1.968   0.188  0.5034 -0.2978 -0.6272
 9214SOL     OW39100   1.708   2.231  10.979 -0.4197 -0.1598  0.2180
 9214SOL    HW139101   1.623   2.202  10.946  0.3103 -2.3404  0.2174
 9214SOL    HW239102   1.734   2.291  10.910 -1.1109  1.6881  1.5829
 9215SOL     OW39103   4.325   0.275   2.696 -0.6095  0.2507  0.5114
 9215SOL    HW139104   4.278   0.357   2.681 -1.5229 -0.5135 -0.8159
 9215SOL    HW239105   4.347   0.254   2.605 -2.6657  0.2419  0.0156
 9216SOL     OW39106   3.628   0.596   4.110 -0.2417 -0.7116 -0.4652
 9216SOL    HW139107   3.605   0.610   4.018 -2.0938 -3.9261 -0.5062
 9216SOL    HW239108   3.638   0.501   4.115  0.3064 -0.6234  0.1109
 9217SOL     OW39109   3.977   1.139   8.302  0.3694  0.3932  0.1670
 9217SOL    HW139110   4.004   1.050   8.280  3.3624  1.6327 -1.0887
 9217SOL    HW239111   4.063   1.179   8.295  0.1834  0.4321 -2.1582
 9218SOL     OW39112   2.051   3.109   7.702  0.3435  0.0626  1.1093
 9218SOL    HW139113   2.080   3.128   7.791 -0.1808 -4.0562  2.1710
 9218SOL    HW239114   2.112   3.038   7.681 -0.9392 -0.7148  0.0041
 9219SOL     OW39115   4.342   4.388   7.541 -0.2154 -0.0866 -0.2360
 9219SOL    HW139116   4.285   4.454   7.581 -0.1529  0.4091 -0.9647
 9219SOL    HW239117   4.411   4.376   7.606  0.9804  2.0564 -1.1276
 9220SOL     OW39118   1.689   2.467  10.406  0.4546  0.2498  0.4199
 9220SOL    HW139119   1.685   2.560  10.385 -0.0429 -0.0927 -1.0201
 9220SOL    HW239120   1.777   2.470  10.444  0.8479 -0.7600 -0.4019
 9221SOL     OW39121   3.181   3.633   9.868 -0.0608 -0.1656  0.2879
 9221SOL    HW139122   3.266   3.639   9.912  0.7164  0.6929 -1.3298
 9221SOL    HW239123   3.118   3.595   9.929 -0.2492 -1.8601 -0.9683
 9222SOL     OW39124   4.637   2.580   9.186  0.2525 -0.0538 -0.0025
 9222SOL    HW139125   4.644   2.501   9.133 -1.4379  0.0843 -0.4185
 9222SOL    HW239126   4.651   2.650   9.123  2.8154  0.1966  0.8535
 9223SOL     OW39127   3.910   3.876   8.135 -0.0594  0.3982  0.6115
 9223SOL    HW139128   3.995   3.867   8.178  0.0891 -2.9441 -0.3543
 9223SOL    HW239129   3.934   3.886   8.043  1.2265 -1.4222  0.7386
 9224SOL     OW39130   1.173   1.060  12.088  0.1510  0.0042  0.4140
 9224SOL    HW139131   1.224   0.979  12.099 -0.2198 -0.3773 -0.6187
 9224SOL    HW239132   1.095   1.035  12.137 -0.1361 -0.4487 -0.2628
 9225SOL     OW39133   2.609   0.330  15.640 -0.1130  0.3566 -0.4663
 9225SOL    HW139134   2.520   0.301  15.621  0.0969 -1.5772  1.4454
 9225SOL    HW239135   2.620   0.390  15.567 -1.7233 -0.8693 -1.7087
 9226SOL     OW39136   4.586   3.911   0.634 -0.2506 -0.8050 -0.3377
 9226SOL    HW139137   4.543   3.843   0.583 -0.4994 -0.3627 -0.7191
 9226SOL    HW239138   4.670   3.869   0.655  0.3881 -0.0558 -1.3604
 9227SOL     OW39139   1.219   3.054   3.298  0.1046 -0.4394 -0.4941
 9227SOL    HW139140   1.288   3.051   3.364  1.0078  0.0247 -1.4152
 9227SOL    HW239141   1.267   3.032   3.219 -0.0269 -1.6933 -0.2231
 9228SOL     OW39142   2.084   4.450  14.878 -0.2225 -0.1756  0.4346
 9228SOL    HW139143   2.014   4.394  14.913 -0.6925  0.1914  0.0640
 9228SOL    HW239144   2.050   4.471  14.792 -1.7293 -5.9544 -0.4245
 9229SOL     OW39145   0.545   2.619   7.856 -0.0492 -0.1927  0.5007
 9229SOL    HW139146   0.563   2.546   7.797  3.2757  2.3356 -1.5957
 9229SOL    HW239147   0.449   2.622   7.863 -0.1321 -1.5300 -0.0140
 9230SOL     OW39148   0.708   0.295   8.394 -0.7330 -0.4360  0.1047
 9230SOL    HW139149   0.788   0.283   8.343 -0.9585 -3.5057  0.4959
 9230SOL    HW239150   0.711   0.212   8.442  2.7949 -0.3209  0.0847
 9231SOL     OW39151   4.349   0.476   2.176  0.7251 -0.1354 -0.6413
 9231SOL    HW139152   4.324   0.427   2.098  1.9361 -3.2410  0.9373
 9231SOL    HW239153   4.429   0.432   2.205  0.5933  0.0337 -0.0227
 9232SOL     OW39154   1.615   3.938  11.192  0.4440  0.3401  0.2226
 9232SOL    HW139155   1.652   4.022  11.218 -2.0404  1.3067  0.6713
 9232SOL    HW239156   1.558   3.971  11.123 -1.0349 -0.8175  0.8902
 9233SOL     OW39157   2.137   3.856  12.424 -0.3123 -0.4272 -0.6802
 9233SOL    HW139158   2.218   3.881  12.380  1.1298  2.2622  3.4694
 9233SOL    HW239159   2.169   3.792  12.488  1.8954 -0.7583 -2.1418
 9234SOL     OW39160   1.172   0.185   4.094 -0.0989 -0.1987  0.1058
 9234SOL    HW139161   1.079   0.191   4.073  0.3194  0.3733 -1.5799
 9234SOL    HW239162   1.159   0.192   4.188 -0.4058  4.4583 -0.3192
 9235SOL     OW39163   0.802   2.606  13.983 -0.1588 -0.0621 -0.0724
 9235SOL    HW139164   0.800   2.536  13.918 -0.5608 -2.2404  2.2996
 9235SOL    HW239165   0.790   2.678  13.921  0.9667 -0.7867 -1.1314
 9236SOL     OW39166   3.310   0.116  17.228 -0.1197  0.1398  0.3172
 9236SOL    HW139167   3.382   0.088  17.284 -0.3129 -0.4773  0.2553
 9236SOL    HW239168   3.337   0.204  17.201  0.9155  1.0236  4.1582
 9237SOL     OW39169   4.677   0.171  14.816  0.3162  0.4028  0.1788
 9237SOL    HW139170   0.037   0.131  14.779 -0.2868 -2.5313  2.1247
 9237SOL    HW239171   4.604   0.115  14.791  0.0307  1.4100 -1.2268
 9238SOL     OW39172   3.409   2.329   0.221  0.6588 -0.1914 -0.5234
 9238SOL    HW139173   3.487   2.347   0.274  0.0819 -1.0196  0.6066
 9238SOL    HW239174   3.408   2.395   0.152 -2.4736  1.0786  0.7187
 9239SOL     OW39175   4.582   2.222   3.637 -0.1316  0.1264  0.2250
 9239SOL    HW139176   4.645   2.164   3.595  0.1604  0.5741  0.0392
 9239SOL    HW239177   4.516   2.226   3.568  0.3873  0.3848 -0.2595
 9240SOL     OW39178   3.352   0.335  12.328 -0.5306  0.3314  0.2552
 9240SOL    HW139179   3.269   0.299  12.298 -0.7567 -0.3133  1.6877
 9240SOL    HW239180   3.384   0.261  12.380  0.5341  0.2203 -0.5611
 9241SOL     OW39181   4.498   0.981   3.914 -0.2102  0.3730  0.4736
 9241SOL    HW139182   4.447   1.042   3.967  0.4981  1.6010 -0.2512
 9241SOL    HW239183   4.587   1.012   3.933 -0.5030  2.3742 -1.4294
 9242SOL     OW39184   3.301   0.303   7.749 -0.8246 -0.0808 -0.3020
 9242SOL    HW139185   3.269   0.214   7.762 -0.1884 -0.1301  0.9583
 9242SOL    HW239186   3.352   0.316   7.829  1.4437  0.0860 -1.7534
 9243SOL     OW39187   1.567   1.240   8.935 -0.9636 -0.7569  0.4010
 9243SOL    HW139188   1.518   1.225   9.015 -0.4954 -0.8053  0.6780
 9243SOL    HW239189   1.594   1.331   8.943 -3.9981  0.2094 -0.7296
 9244SOL     OW39190   2.049   2.256   2.707  0.0235  0.0730  1.0999
 9244SOL    HW139191   1.967   2.212   2.685  3.1023 -3.7634 -2.7979
 9244SOL    HW239192   2.088   2.265   2.620 -1.2894 -2.9787  0.2031
 9245SOL     OW39193   4.228   4.235  14.520  0.1041  0.2695 -0.8037
 9245SOL    HW139194   4.197   4.325  14.518  1.0291  0.5861 -1.2369
 9245SOL    HW239195   4.171   4.192  14.456  1.6475  0.3168 -2.2251
 9246SOL     OW39196   2.941   2.363   9.152 -0.0536 -0.2172 -0.3529
 9246SOL    HW139197   2.939   2.414   9.233 -0.2384  0.5974 -0.8600
 9246SOL    HW239198   2.884   2.288   9.168 -0.2772  0.0672  0.1857
 9247SOL     OW39199   3.430   3.955  13.664  0.2679 -0.5964  0.6267
 9247SOL    HW139200   3.335   3.951  13.653  0.6365 -1.7885 -1.9507
 9247SOL    HW239201   3.463   3.900  13.594 -1.0079 -1.6929  0.8757
 9248SOL     OW39202   0.607   1.726   1.738 -0.8677 -0.3339  0.0588
 9248SOL    HW139203   0.579   1.660   1.801  0.5387 -0.8919  0.1154
 9248SOL    HW239204   0.695   1.747   1.770 -1.5100  0.8729  1.0121
 9249SOL     OW39205   0.186   2.806   5.402  0.4971  0.4701 -0.6301
 9249SOL    HW139206   0.239   2.881   5.428  0.1917 -0.0975  1.6864
 9249SOL    HW239207   0.130   2.860   5.346  2.0228  1.1097 -1.5243
 9250SOL     OW39208   1.703   1.814   3.432 -0.6507 -0.0069 -0.0396
 9250SOL    HW139209   1.647   1.766   3.371  3.7175 -1.2716 -3.0936
 9250SOL    HW239210   1.638   1.813   3.502 -2.0046 -1.9250 -1.2954
 9251SOL     OW39211   1.113   4.248  17.357 -0.6591  0.6069  0.5186
 9251SOL    HW139212   1.181   4.229  17.421 -0.4462 -2.1630 -0.4888
 9251SOL    HW239213   1.035   4.209  17.397  1.2256 -2.6145  1.0203
 9252SOL     OW39214   3.689   3.019  16.432 -0.0838 -0.4790 -0.7537
 9252SOL    HW139215   3.745   3.045  16.359 -1.1574  1.9589 -0.7340
 9252SOL    HW239216   3.758   2.990  16.491 -0.4181 -0.1750 -0.2043
 9253SOL     OW39217   0.382   0.100   2.212  0.0499 -0.0497  0.0883
 9253SOL    HW139218   0.344   0.019   2.247  0.6552 -0.5046 -0.2985
 9253SOL    HW239219   0.411   0.150   2.288 -0.4726  0.7840 -0.2517
 9254SOL     OW39220   4.260   2.054   0.851  0.4230  0.1686 -0.3437
 9254SOL    HW139221   4.350   2.088   0.852  0.3183  0.3810  2.3026
 9254SOL    HW239222   4.219   2.119   0.908 -0.8865 -1.6655  0.8103
 9255SOL     OW39223   2.362   3.022  17.054  0.2848 -0.2748  0.0023
 9255SOL    HW139224   2.398   2.997  17.139  1.1462 -0.5129 -0.4323
 9255SOL    HW239225   2.319   3.103  17.083  0.1536 -0.8849  1.5479
 9256SOL     OW39226   4.200   1.922   6.308 -0.9365 -0.1911 -0.3375
 9256SOL    HW139227   4.262   1.982   6.267  0.0408  0.0111  1.4139
 9256SOL    HW239228   4.175   1.962   6.392  0.9152 -2.6240  1.3733
 9257SOL     OW39229   2.451   4.536   6.902 -0.2449  0.2945 -0.1347
 9257SOL    HW139230   2.482   4.554   6.991  0.4202  0.2178 -0.3526
 9257SOL    HW239231   2.531   4.507   6.859 -1.1251 -2.3435  0.0062
 9258SOL     OW39232   2.035   2.221  11.636  0.4541  0.1239  0.0987
 9258SOL    HW139233   2.076   2.144  11.676 -0.3807 -0.6175 -0.4773
 9258SOL    HW239234   2.030   2.275  11.716 -0.3991 -1.1784  0.9251
 9259SOL     OW39235   0.873   2.169   2.538 -0.0627  0.1115  0.1878
 9259SOL    HW139236   0.877   2.075   2.518  0.8625  0.3207 -0.6475
 9259SOL    HW239237   0.958   2.166   2.583  0.1964  2.9677 -0.1387
 9260SOL     OW39238   1.909   0.855  17.445  0.0278  0.1186  0.1980
 9260SOL    HW139239   1.973   0.873  17.513 -0.4927  1.0179  0.4470
 9260SOL    HW239240   1.959   0.880  17.368 -0.3896  2.5834  0.7179
 9261SOL     OW39241   2.325   0.885  17.567  0.4509  0.0577 -0.1427
 9261SOL    HW139242   2.237   0.920  17.580 -0.6440 -1.4514 -3.5950
 9261SOL    HW239243   2.309   0.792  17.580 -0.6082  0.2892  0.1638
 9262SOL     OW39244   1.169   2.009   6.332  0.2652 -0.5480 -0.1044
 9262SOL    HW139245   1.187   1.977   6.244 -2.5197 -1.8080 -0.2449
 9262SOL    HW239246   1.105   2.074   6.302  2.3705  2.2013  1.3647
 9263SOL     OW39247   3.563   3.516   8.874 -0.8818 -0.1128  0.5168
 9263SOL    HW139248   3.578   3.506   8.968 -0.1817 -0.7834  0.3264
 9263SOL    HW239249   3.484   3.570   8.870 -1.4858 -1.2284 -2.7118
 9264SOL     OW39250   1.182   1.896   5.149  0.2405 -0.1840  0.1415
 9264SOL    HW139251   1.098   1.855   5.170 -0.3459  1.5727  1.2588
 9264SOL    HW239252   1.173   1.984   5.185 -1.6458 -0.3414  0.0208
 9265SOL     OW39253   3.527   0.320   2.841 -0.0149 -0.0936 -0.0234
 9265SOL    HW139254   3.590   0.353   2.904  0.9639  0.4395 -1.2895
 9265SOL    HW239255   3.543   0.374   2.764  2.8402 -1.3724 -0.3243
 9266SOL     OW39256   3.727   2.478   7.178 -0.2550  0.6525 -0.5773
 9266SOL    HW139257   3.820   2.479   7.201 -0.5694  0.4895  0.7260
 9266SOL    HW239258   3.694   2.543   7.240 -0.5455  2.0904 -2.2543
 9267SOL     OW39259   4.151   0.691   0.181  0.2351 -0.3310 -0.4493
 9267SOL    HW139260   4.093   0.764   0.204  0.8359  0.6271 -1.9616
 9267SOL    HW239261   4.211   0.736   0.122 -0.8054  0.2097 -1.1077
 9268SOL     OW39262   2.968   3.691   7.329  0.4494 -0.2293  0.3249
 9268SOL    HW139263   3.002   3.627   7.392 -1.3171 -1.1221  0.3848
 9268SOL    HW239264   3.045   3.744   7.309 -1.1777  2.6039  1.6285
 9269SOL     OW39265   1.700   2.874   1.842 -0.1812  0.5765  0.0778
 9269SOL    HW139266   1.672   2.814   1.911  0.5692 -0.0744 -0.1799
 9269SOL    HW239267   1.739   2.814   1.778  0.6725  1.8665 -0.6219
 9270SOL     OW39268   2.574   2.042   5.451 -0.0055  0.0833  0.0682
 9270SOL    HW139269   2.652   2.000   5.415 -0.3311 -1.5460  1.2819
 9270SOL    HW239270   2.591   2.136   5.438  0.7247 -0.0793 -0.1729
 9271SOL     OW39271   2.315   2.999   3.112  0.5319  0.2195 -0.2293
 9271SOL    HW139272   2.221   2.998   3.095  0.2421  0.6541  1.2756
 9271SOL    HW239273   2.352   3.043   3.035 -0.3964 -2.5370 -2.2334
 9272SOL     OW39274   4.653   4.135  14.349 -0.4966  0.0854  0.1428
 9272SOL    HW139275   4.678   4.104  14.262 -1.9097  0.5924 -0.4514
 9272SOL    HW239276   0.016   4.129  14.400 -0.2893 -1.2178 -0.3338
 9273SOL     OW39277   3.978   3.029   5.289 -0.8089 -0.1132 -0.3369
 9273SOL    HW139278   3.908   3.085   5.256 -0.7484  0.4528  0.4955
 9273SOL    HW239279   3.973   2.975   5.210 -0.6992 -1.9145  0.9018
 9274SOL     OW39280   2.798   0.394   4.191 -0.0825  0.6323 -0.5145
 9274SOL    HW139281   2.764   0.480   4.166  1.7254  1.5988  0.3936
 9274SOL    HW239282   2.733   0.362   4.254 -0.5871 -0.4123 -1.5769
 9275SOL     OW39283   1.407   1.611   8.667  0.0799  0.2157  0.1893
 9275SOL    HW139284   1.346   1.555   8.619 -0.5237  1.7758 -0.8593
 9275SOL    HW239285   1.413   1.551   8.741 -3.3883 -2.3883 -1.6435
 9276SOL     OW39286   0.865   3.393  14.233 -0.3434  0.2814  0.1554
 9276SOL    HW139287   0.781   3.410  14.191  0.4929  0.8994 -1.2793
 9276SOL    HW239288   0.894   3.321  14.177  1.2534 -0.9729  2.5898
 9277SOL     OW39289   2.869   2.289   6.788 -0.4283  0.0011 -0.1587
 9277SOL    HW139290   2.804   2.259   6.725 -0.4363 -0.2656 -0.0237
 9277SOL    HW239291   2.820   2.307   6.868  0.1382 -2.8154  0.8164
 9278SOL     OW39292   2.648   0.101   5.128 -0.3180  0.4256 -0.3649
 9278SOL    HW139293   2.640   0.072   5.037  0.5643 -0.8355 -0.0417
 9278SOL    HW239294   2.666   0.014   5.165  0.0754  0.2545 -0.9556
 9279SOL     OW39295   4.471   3.163   0.860  0.1683 -0.0302 -0.3600
 9279SOL    HW139296   4.502   3.250   0.832  0.4877 -0.3228 -0.9085
 9279SOL    HW239297   4.398   3.186   0.919 -0.5359 -0.6545 -0.9856
 9280SOL     OW39298   1.731   0.814   0.096 -0.0953 -0.0831 -0.1016
 9280SOL    HW139299   1.731   0.813   0.001 -0.8329 -2.9634 -0.0565
 9280SOL    HW239300   1.812   0.863   0.107 -1.3898  1.6273  1.8899
 9281SOL     OW39301   0.884   2.022   6.237 -0.6599  0.4935 -0.0098
 9281SOL    HW139302   0.886   1.927   6.224 -0.4311  0.6016 -0.8140
 9281SOL    HW239303   0.829   2.032   6.315  1.3112  0.2436  1.3981
 9282SOL     OW39304   3.115   3.648  10.753 -0.2301 -0.3679 -0.2205
 9282SOL    HW139305   3.038   3.615  10.800  0.6421 -0.7792  0.9206
 9282SOL    HW239306   3.088   3.630  10.663  2.5747  1.8261 -1.4916
 9283SOL     OW39307   2.777   4.713   2.420 -0.3756  0.1796  0.7127
 9283SOL    HW139308   2.869   0.023   2.422 -0.5293  0.8181 -0.9038
 9283SOL    HW239309   2.780   4.631   2.371  0.5277  0.9267 -0.4877
 9284SOL     OW39310   4.693   2.997  15.814 -0.3732 -0.3805  0.5394
 9284SOL    HW139311   4.636   3.039  15.879  1.0678 -1.9514  2.8162
 9284SOL    HW239312   0.044   2.973  15.876 -0.6399  2.3712  1.8920
 9285SOL     OW39313   0.384   1.103   4.900 -0.0252 -0.0310 -0.4202
 9285SOL    HW139314   0.291   1.115   4.921 -0.1988  0.1967 -1.2994
 9285SOL    HW239315   0.427   1.152   4.971 -0.3875  0.7247 -0.7215
 9286SOL     OW39316   4.240   3.651   2.263  0.2859 -0.2244  0.0917
 9286SOL    HW139317   4.178   3.605   2.320  0.6553  1.2432  1.6818
 9286SOL    HW239318   4.312   3.677   2.321 -1.8417  2.2571  1.6003
 9287SOL     OW39319   3.053   0.269   7.453 -0.0345  0.4070 -0.0688
 9287SOL    HW139320   3.007   0.201   7.405 -0.9973  0.3575  0.9244
 9287SOL    HW239321   2.999   0.260   7.531 -0.0334  0.4194 -0.0666
 9288SOL     OW39322   2.473   1.211   1.523  0.0559  0.2116 -0.1374
 9288SOL    HW139323   2.528   1.279   1.485 -0.8902  0.0845 -1.7449
 9288SOL    HW239324   2.455   1.255   1.605 -1.7400 -0.1806 -0.3222
 9289SOL     OW39325   2.400   3.127  16.440  0.6283  0.5501 -0.0409
 9289SOL    HW139326   2.363   3.183  16.371  1.0283  0.2684 -0.4860
 9289SOL    HW239327   2.326   3.073  16.467  0.8421 -0.5867 -1.7157
 9290SOL     OW39328   2.453   0.468   8.352 -0.5098  0.1457 -0.0895
 9290SOL    HW139329   2.431   0.445   8.442  0.1358 -1.2476 -0.2938
 9290SOL    HW239330   2.544   0.440   8.343 -0.9710 -0.9946 -1.2422
 9291SOL     OW39331   0.556   0.317   7.563  0.0933  0.2042 -0.8339
 9291SOL    HW139332   0.582   0.283   7.477 -1.6516 -0.4113 -1.1367
 9291SOL    HW239333   0.622   0.272   7.616 -3.0245 -0.9536  2.0849
 9292SOL     OW39334   1.216   0.444   2.046  0.7303  0.1975  0.4647
 9292SOL    HW139335   1.312   0.448   2.041  0.7116  1.5023  0.8617
 9292SOL    HW239336   1.208   0.442   2.142 -0.5980 -1.9672  0.2988
 9293SOL     OW39337   1.365   2.594   5.247 -0.2399 -0.1375  0.1257
 9293SOL    HW139338   1.305   2.543   5.193  0.9915 -1.1244 -0.2779
 9293SOL    HW239339   1.418   2.528   5.290 -0.8492 -1.1230 -0.6403
 9294SOL     OW39340   4.611   3.172  13.810  0.1454 -0.2978 -0.0635
 9294SOL    HW139341   4.624   3.255  13.856 -1.3090 -0.3501  0.4351
 9294SOL    HW239342   4.628   3.200  13.720  2.6715  0.6355  0.6845
 9295SOL     OW39343   1.905   0.812   9.484 -0.5887  0.1646 -0.6784
 9295SOL    HW139344   1.813   0.838   9.490 -0.0052  1.1492  3.5877
 9295SOL    HW239345   1.913   0.757   9.562 -0.1459  0.8885 -0.2092
 9296SOL     OW39346   2.603   2.639  11.529 -0.2966 -0.4215 -0.3006
 9296SOL    HW139347   2.660   2.563  11.530  0.0593 -0.1928 -1.8155
 9296SOL    HW239348   2.657   2.711  11.563 -2.2184 -0.0206  1.8633
 9297SOL     OW39349   4.012   0.416  17.409 -0.2114  0.2402  0.0039
 9297SOL    HW139350   3.917   0.414  17.424 -0.0650 -0.1013  0.8550
 9297SOL    HW239351   4.016   0.338  17.354  3.1433 -0.4305  1.2203
 9298SOL     OW39352   4.311   4.421   1.769 -0.0250 -0.3094  0.1084
 9298SOL    HW139353   4.376   4.367   1.724  1.1518  1.5405 -0.4306
 9298SOL    HW239354   4.359   4.461   1.842 -1.8781 -0.0323  1.1935
 9299SOL     OW39355   0.555   0.574   6.367  0.5841 -0.2622 -0.3024
 9299SOL    HW139356   0.501   0.498   6.346  0.8666 -0.5871  0.1684
 9299SOL    HW239357   0.533   0.592   6.459 -1.5505  0.7873 -1.0056
 9300SOL     OW39358   3.370   0.122  16.351 -0.4203 -0.0695 -0.1399
 9300SOL    HW139359   3.452   0.148  16.309  0.7248 -1.5171  1.1741
 9300SOL    HW239360   3.392   0.031  16.373 -0.0831 -0.0687 -0.4751
 9301SOL     OW39361   4.627   1.674   6.901 -0.9955 -0.1291 -0.1163
 9301SOL    HW139362   4.676   1.595   6.877 -1.2085 -0.5848  0.9414
 9301SOL    HW239363   4.543   1.629   6.907 -2.5191  2.5407 -1.6142
 9302SOL     OW39364   1.158   3.372  16.854  0.4893 -0.4062 -0.4814
 9302SOL    HW139365   1.109   3.417  16.786  0.5849 -0.8066 -0.8196
 9302SOL    HW239366   1.150   3.437  16.924  1.8421 -0.6551 -0.0944
 9303SOL     OW39367   3.325   1.463   8.186 -0.0393  0.0241 -0.2927
 9303SOL    HW139368   3.234   1.434   8.181  0.2063 -0.6936 -0.7735
 9303SOL    HW239369   3.334   1.521   8.110 -1.0783 -0.8792 -1.1107
 9304SOL     OW39370   3.653   3.578  10.283  0.2236  0.4105  0.3947
 9304SOL    HW139371   3.627   3.661  10.321 -1.3700 -0.6121  1.5027
 9304SOL    HW239372   3.677   3.525  10.359  1.0779  0.1692 -0.0461
 9305SOL     OW39373   1.933   4.428   6.359  0.3865  0.4864  0.3119
 9305SOL    HW139374   1.984   4.402   6.436 -0.0651 -1.0239  0.0952
 9305SOL    HW239375   1.990   4.500   6.333 -0.9923  1.1659 -0.7924
 9306SOL     OW39376   4.434   4.665   2.649  0.2597 -0.0927  0.1955
 9306SOL    HW139377   4.467   0.037   2.654 -0.6224  0.1358  1.7227
 9306SOL    HW239378   4.478   4.616   2.717 -1.8471  0.4767  1.9550
 9307SOL     OW39379   3.751   0.222   5.051  0.1122  0.3414  0.0098
 9307SOL    HW139380   3.837   0.263   5.063 -0.3217  0.4632  2.5508
 9307SOL    HW239381   3.712   0.254   4.969  0.7062  0.9132 -0.0545
 9308SOL     OW39382   3.923   1.799   6.502 -0.0106  0.0624  0.3218
 9308SOL    HW139383   3.964   1.883   6.523  1.4328 -0.7549  0.7970
 9308SOL    HW239384   3.844   1.819   6.551  1.0529  0.2063  1.9819
 9309SOL     OW39385   1.365   0.504   6.121  0.5464 -0.3601 -0.2282
 9309SOL    HW139386   1.395   0.439   6.184  0.1018  0.6799  1.0426
 9309SOL    HW239387   1.396   0.476   6.035 -0.1207 -2.4243  0.2089
 9310SOL     OW39388   2.208   0.505   7.439 -0.6860 -0.4602 -0.1358
 9310SOL    HW139389   2.269   0.575   7.460  1.6025 -2.0137 -1.6262
 9310SOL    HW239390   2.129   0.539   7.483 -0.8118  0.5297 -1.1177
 9311SOL     OW39391   1.364   0.815   7.808  0.2190 -0.0224  0.0237
 9311SOL    HW139392   1.313   0.775   7.738  0.8246 -0.1661 -0.3333
 9311SOL    HW239393   1.299   0.847   7.871  1.8840  1.3390  1.0806
 9312SOL     OW39394   1.214   1.286  10.790  0.1431  0.7383 -0.0948
 9312SOL    HW139395   1.237   1.240  10.709  0.7655 -0.5063  0.7861
 9312SOL    HW239396   1.188   1.370  10.751 -1.7991 -0.4107 -1.2565
 9313SOL     OW39397   1.284   2.912   8.391  0.5025 -0.7439  0.1936
 9313SOL    HW139398   1.270   2.892   8.483  3.0204 -2.1203  0.2853
 9313SOL    HW239399   1.368   2.865   8.386  1.7189  1.6294 -1.3607
 9314SOL     OW39400   3.710   4.691  17.148  0.1493  0.6966  0.0108
 9314SOL    HW139401   3.701   4.698  17.053 -0.0959  1.5390  0.0934
 9314SOL    HW239402   3.708   4.596  17.158  0.5271  0.8018  1.1212
 9315SOL     OW39403   3.653   0.574   4.709 -0.4344  0.3517  0.3954
 9315SOL    HW139404   3.671   0.537   4.622 -1.4571  1.4416 -0.2664
 9315SOL    HW239405   3.697   0.658   4.696  2.6444 -1.1161  1.1936
 9316SOL     OW39406   1.266   3.998   4.290 -0.0748 -0.4317 -0.3673
 9316SOL    HW139407   1.239   3.971   4.202 -1.2516 -2.9579  0.7639
 9316SOL    HW239408   1.330   4.068   4.278 -0.5604  0.3292  1.4578
 9317SOL     OW39409   2.767   0.880   6.534  0.0343  0.4859 -0.1150
 9317SOL    HW139410   2.844   0.870   6.590  1.4741 -1.9808 -2.5051
 9317SOL    HW239411   2.734   0.966   6.560 -1.5114  0.0743 -0.6806
 9318SOL     OW39412   2.492   3.800   5.190  0.3584 -0.0697 -0.2058
 9318SOL    HW139413   2.560   3.825   5.127  0.2289 -1.1921 -0.7827
 9318SOL    HW239414   2.414   3.848   5.161  0.0950 -0.3113  0.1074
 9319SOL     OW39415   0.916   3.993   7.966  0.1184 -0.1676 -0.6667
 9319SOL    HW139416   0.828   3.961   7.986  0.7343 -1.5139 -0.1211
 9319SOL    HW239417   0.959   3.908   7.953  0.7131 -0.2495  1.7461
 9320SOL     OW39418   2.977   1.802  12.684  0.0062 -0.6236  0.3761
 9320SOL    HW139419   3.026   1.876  12.718  0.6936 -0.5126 -0.8549
 9320SOL    HW239420   3.054   1.749  12.662  0.2835  0.2382 -0.7391
 9321SOL     OW39421   4.316   3.565   7.013 -0.0908 -0.6567  0.1405
 9321SOL    HW139422   4.305   3.525   6.927 -0.4341 -0.0892 -0.0818
 9321SOL    HW239423   4.225   3.586   7.033 -0.6438 -1.1400 -1.8524
 9322SOL     OW39424   3.658   1.822   8.691  0.3251 -0.4333  0.0015
 9322SOL    HW139425   3.597   1.895   8.697 -0.4572 -1.1918  1.2730
 9322SOL    HW239426   3.736   1.877   8.680 -0.0444  0.0639 -0.1261
 9323SOL     OW39427   0.192   1.480   8.353 -0.6282  0.1627 -0.4521
 9323SOL    HW139428   0.141   1.550   8.394 -0.5063 -0.4306  0.6916
 9323SOL    HW239429   0.115   1.440   8.313 -2.1186  2.0538  0.5169
 9324SOL     OW39430   1.794   2.709  11.039 -0.4044 -0.0731  0.1674
 9324SOL    HW139431   1.796   2.769  10.964  0.6649 -0.1149  0.1727
 9324SOL    HW239432   1.848   2.755  11.103 -0.2905 -0.8576  0.6363
 9325SOL     OW39433   3.937   1.893   2.592 -0.4092  1.0965  0.1093
 9325SOL    HW139434   3.931   1.977   2.637  1.1784  0.3661  1.6875
 9325SOL    HW239435   3.921   1.919   2.501  2.3358 -1.6412 -1.1654
 9326SOL     OW39436   3.650   2.917  11.213 -0.4267 -0.2066 -0.2967
 9326SOL    HW139437   3.618   2.845  11.268  1.4108 -1.9291 -1.4772
 9326SOL    HW239438   3.663   2.866  11.133  0.0299 -0.9013  0.2186
 9327SOL     OW39439   4.204   1.250  16.626  0.0793 -0.4067 -0.1207
 9327SOL    HW139440   4.244   1.303  16.556 -1.0827 -1.6264 -1.7004
 9327SOL    HW239441   4.258   1.171  16.622  0.0678 -0.4259  0.1142
 9328SOL     OW39442   4.671   1.022   7.092 -0.1288 -0.5480  0.3244
 9328SOL    HW139443   4.608   1.094   7.083  1.3621  0.4435 -2.2399
 9328SOL    HW239444   4.612   0.962   7.138 -1.4154 -1.1881 -2.1130
 9329SOL     OW39445   0.907   2.806  13.785 -0.0986 -0.0488 -0.1634
 9329SOL    HW139446   0.933   2.716  13.764 -0.0417 -0.1738  0.4561
 9329SOL    HW239447   0.992   2.849  13.792 -0.8268  1.5545 -1.2258
 9330SOL     OW39448   2.709   4.486   7.968 -0.8083  0.0879  0.2319
 9330SOL    HW139449   2.636   4.546   7.956  0.6005  1.9189  0.8562
 9330SOL    HW239450   2.780   4.550   7.958  2.0933 -3.0716  0.3320
 9331SOL     OW39451   1.593   2.959   4.534  0.7178  0.3143 -0.6214
 9331SOL    HW139452   1.648   2.897   4.582 -1.8305 -1.5011 -0.0956
 9331SOL    HW239453   1.562   3.018   4.603 -1.4083  1.1808 -2.3380
 9332SOL     OW39454   0.977   3.161  12.613  0.2611 -0.0935  0.7137
 9332SOL    HW139455   0.972   3.198  12.701 -2.2591 -1.6556  1.2335
 9332SOL    HW239456   1.058   3.111  12.609 -0.2664 -0.8207 -1.2408
 9333SOL     OW39457   3.000   1.217  14.714 -0.1474 -0.0454 -0.8292
 9333SOL    HW139458   2.923   1.212  14.770  0.2457  2.5076 -0.0889
 9333SOL    HW239459   3.069   1.249  14.771  1.0662 -2.0226 -1.1831
 9334SOL     OW39460   1.351   2.634   7.701 -0.3486 -0.3420  0.3965
 9334SOL    HW139461   1.385   2.546   7.709  0.1802 -0.1993 -0.3724
 9334SOL    HW239462   1.424   2.693   7.717 -1.1645  0.6694  0.4145
 9335SOL     OW39463   1.461   2.161   6.478 -0.3919  0.5270  0.5194
 9335SOL    HW139464   1.451   2.067   6.495  0.0382  0.3087 -0.4307
 9335SOL    HW239465   1.483   2.151   6.385 -1.1737  0.7099  0.3185
 9336SOL     OW39466   0.881   3.470  14.490  0.5935 -0.2383 -0.1843
 9336SOL    HW139467   0.889   3.471  14.395  1.0177 -0.4531 -0.1544
 9336SOL    HW239468   0.866   3.376  14.504  0.3061  0.0274  1.2900
 9337SOL     OW39469   1.149   1.051   9.486  0.0389  0.3951  0.1927
 9337SOL    HW139470   1.070   1.085   9.443 -0.2304  1.0513  1.2218
 9337SOL    HW239471   1.114   1.038   9.574 -1.6098 -0.8555 -0.6492
 9338SOL     OW39472   3.448   3.214   8.676  0.3203  0.5313  0.0539
 9338SOL    HW139473   3.534   3.239   8.644  0.4149  0.1583  0.0135
 9338SOL    HW239474   3.445   3.119   8.667  0.7727  0.5983 -0.7890
 9339SOL     OW39475   1.369   2.331   7.768  0.3649  0.0291  0.0995
 9339SOL    HW139476   1.311   2.268   7.726  2.0842 -1.4684 -0.0230
 9339SOL    HW239477   1.392   2.293   7.853  0.6350 -0.2817 -0.1164
 9340SOL     OW39478   3.495   2.392   7.578  0.1327 -0.2394  0.3623
 9340SOL    HW139479   3.528   2.340   7.652 -2.7974  0.6859  2.3296
 9340SOL    HW239480   3.547   2.362   7.503  0.1423 -0.1826  0.3466
 9341SOL     OW39481   0.072   4.455   0.997 -0.1350  0.4591  0.0222
 9341SOL    HW139482   0.162   4.487   0.986  0.4946 -1.3215 -0.1232
 9341SOL    HW239483   0.067   4.379   0.938  0.2183 -0.2486  0.9141
 9342SOL     OW39484   2.795   2.773   2.784  0.5117  0.0671  0.3896
 9342SOL    HW139485   2.714   2.722   2.786  1.1964 -1.0052  0.4272
 9342SOL    HW239486   2.846   2.715   2.728  1.2560 -0.6018  1.7805
 9343SOL     OW39487   0.575   3.558  11.092  0.0549 -0.5051 -0.1416
 9343SOL    HW139488   0.591   3.652  11.102 -0.7567 -0.5739  1.7129
 9343SOL    HW239489   0.567   3.531  11.184 -1.2406  3.3391  0.9050
 9344SOL     OW39490   0.190   0.676   2.673  0.3877 -0.9876  0.5210
 9344SOL    HW139491   0.269   0.726   2.649 -0.2195  0.5885  1.8264
 9344SOL    HW239492   0.199   0.692   2.767 -2.2190 -1.2241  0.8003
 9345SOL     OW39493   3.150   3.923   9.674  0.2927  0.1658  0.2612
 9345SOL    HW139494   3.154   3.872   9.755  2.8457  0.6285  0.4198
 9345SOL    HW239495   3.210   3.995   9.695  0.6616 -0.1416  0.2579
 9346SOL     OW39496   4.171   2.645  17.116 -0.1845  0.3480  0.1139
 9346SOL    HW139497   4.179   2.583  17.043  0.5309 -0.2877  0.7176
 9346SOL    HW239498   4.077   2.650  17.134 -0.1868  1.0357 -0.1004
 9347SOL     OW39499   1.212   2.781   9.013  0.4202  0.0383  0.2505
 9347SOL    HW139500   1.171   2.818   9.091  0.7734 -0.6650  0.7648
 9347SOL    HW239501   1.141   2.757   8.953  1.2460 -0.5429 -0.4863
 9348SOL     OW39502   4.541   2.114   6.998 -0.4962  0.4112  0.5129
 9348SOL    HW139503   4.595   2.112   6.919 -1.0924  0.1284  0.1070
 9348SOL    HW239504   4.562   2.196   7.043  0.0228  0.5321  0.0475
 9349SOL     OW39505   3.529   4.381   9.754 -0.2488 -0.2951  0.5570
 9349SOL    HW139506   3.613   4.422   9.774  0.1603 -0.6107 -0.4810
 9349SOL    HW239507   3.461   4.440   9.787 -1.7224 -3.1212  2.5922
 9350SOL     OW39508   0.013   1.681   4.158  0.8388 -0.3860  0.3413
 9350SOL    HW139509   4.682   1.687   4.240 -1.6402 -0.1999 -1.1367
 9350SOL    HW239510   4.704   1.761   4.114 -1.3358 -1.9890 -1.3002
 9351SOL     OW39511   2.287   4.010  10.369 -0.5936  0.1384 -0.1978
 9351SOL    HW139512   2.217   4.024  10.305  0.1047  1.3194 -0.6969
 9351SOL    HW239513   2.316   3.922  10.344  1.0053  0.1297  1.6616
 9352SOL     OW39514   3.217   4.453   7.127  0.0521 -0.2344  0.3363
 9352SOL    HW139515   3.234   4.367   7.166  1.2412  0.2571  0.9261
 9352SOL    HW239516   3.140   4.422   7.080 -1.2088  1.1906  1.4770
 9353SOL     OW39517   3.492   3.697   9.281 -0.2391 -0.1917 -0.3811
 9353SOL    HW139518   3.551   3.706   9.356 -0.1389  0.1093 -0.4959
 9353SOL    HW239519   3.432   3.767   9.308  0.8870  1.1250 -1.3204
 9354SOL     OW39520   2.764   0.741   7.658  0.5314 -0.4571 -0.3258
 9354SOL    HW139521   2.722   0.730   7.743 -0.3283 -0.5278 -0.7600
 9354SOL    HW239522   2.850   0.754   7.699 -0.4970  1.3019  1.2749
 9355SOL     OW39523   1.175   4.366  10.004  0.3265 -0.2881 -0.0810
 9355SOL    HW139524   1.204   4.278  10.028  1.6526 -0.1071 -1.0722
 9355SOL    HW239525   1.084   4.361  10.034  0.6475 -2.8312  0.5092
 9356SOL     OW39526   0.629   2.120   2.009 -0.6992  0.2175 -0.0229
 9356SOL    HW139527   0.721   2.128   1.982 -0.7758  2.4270  0.3585
 9356SOL    HW239528   0.587   2.186   1.953  1.2036  2.1603  0.8396
 9357SOL     OW39529   3.660   0.702   9.400 -0.0637  0.2071  0.1947
 9357SOL    HW139530   3.643   0.784   9.445  1.7956 -0.3573  1.9308
 9357SOL    HW239531   3.730   0.734   9.343 -0.1688  0.2715  0.1016
 9358SOL     OW39532   1.068   4.435  11.623  0.1511 -0.2002  0.1293
 9358SOL    HW139533   1.067   4.517  11.573 -0.5192  0.0559  0.5632
 9358SOL    HW239534   1.103   4.376  11.556 -0.7264  1.5481 -1.8911
 9359SOL     OW39535   4.234   3.648  10.971 -0.2679  0.7784  0.2889
 9359SOL    HW139536   4.245   3.642  11.066  0.7229 -0.6762  0.0838
 9359SOL    HW239537   4.177   3.725  10.965  0.0638  0.7401 -3.6380
 9360SOL     OW39538   2.142   3.064   6.646  0.0533 -0.1181  0.1831
 9360SOL    HW139539   2.207   3.002   6.611  1.4056  1.3040  0.1919
 9360SOL    HW239540   2.168   3.055   6.738  0.4757  2.7401  0.3388
 9361SOL     OW39541   2.111   1.840  12.115 -0.3332  0.0419  0.4675
 9361SOL    HW139542   2.021   1.870  12.119 -1.0889 -1.9651 -2.1646
 9361SOL    HW239543   2.132   1.860  12.207  1.7672  2.1489 -0.4571
 9362SOL     OW39544   1.979   2.674  11.322 -0.3989  0.6028 -0.0706
 9362SOL    HW139545   1.989   2.637  11.234  1.3230  0.5811  0.1286
 9362SOL    HW239546   2.033   2.609  11.366 -0.2070  0.5426 -0.3942
 9363SOL     OW39547   1.728   2.963  14.950  0.2461  0.6484  0.0796
 9363SOL    HW139548   1.681   2.889  14.911  0.7732  0.8526 -0.9474
 9363SOL    HW239549   1.651   3.015  14.972  1.2755  1.7142  1.1529
 9364SOL     OW39550   1.653   4.192   4.459  0.6684 -0.2396  0.0318
 9364SOL    HW139551   1.723   4.229   4.513  0.1290 -0.3769  0.8111
 9364SOL    HW239552   1.651   4.246   4.380 -2.7797 -1.3895 -0.6524
 9365SOL     OW39553   1.295   3.302   8.584  0.2661  0.2657  0.1946
 9365SOL    HW139554   1.262   3.374   8.638  0.1929 -0.4147  1.0532
 9365SOL    HW239555   1.232   3.237   8.616  0.7618  0.0883  0.8094
 9366SOL     OW39556   1.350   2.934  11.123 -0.2404  0.3502 -0.2337
 9366SOL    HW139557   1.352   2.930  11.028  0.5121  0.0644 -0.2057
 9366SOL    HW239558   1.262   2.907  11.147  0.3369 -1.0863  0.2954
 9367SOL     OW39559   3.246   3.266   5.733 -0.2890  0.1386  0.0053
 9367SOL    HW139560   3.219   3.223   5.651 -1.3890  2.9549 -1.0846
 9367SOL    HW239561   3.330   3.221   5.743  0.1510  1.0794  0.4790
 9368SOL     OW39562   3.561   1.417  11.694  0.1222 -0.1439  0.3461
 9368SOL    HW139563   3.590   1.399  11.604  0.9562 -0.2808  0.6380
 9368SOL    HW239564   3.580   1.510  11.710  0.1982 -0.4556  2.0677
 9369SOL     OW39565   0.211   0.917   0.453 -0.1776  0.0523 -0.1515
 9369SOL    HW139566   0.214   0.956   0.365  1.5156 -0.0591 -0.1454
 9369SOL    HW239567   0.127   0.955   0.479 -0.9154 -0.5879 -1.5398
 9370SOL     OW39568   0.808   4.434   8.042 -0.4181 -0.1342 -0.0466
 9370SOL    HW139569   0.838   4.368   7.981 -0.8770  1.4125 -1.9626
 9370SOL    HW239570   0.869   4.502   8.012 -1.1070 -0.5158 -2.3264
 9371SOL     OW39571   3.315   0.589  12.279 -0.1953 -0.3166  0.7753
 9371SOL    HW139572   3.283   0.574  12.368 -1.2885 -1.7893  0.1408
 9371SOL    HW239573   3.359   0.504  12.271  1.6973  0.7450  0.0678
 9372SOL     OW39574   3.764   1.589   0.988  0.1209 -0.2499 -0.2378
 9372SOL    HW139575   3.829   1.596   1.058  0.5848  0.8354 -0.7749
 9372SOL    HW239576   3.820   1.567   0.913  1.5003 -2.1490  1.3255
 9373SOL     OW39577   1.291   3.266   5.203 -0.7890 -0.1299  0.0410
 9373SOL    HW139578   1.244   3.349   5.197  1.3197  1.1612  1.3767
 9373SOL    HW239579   1.331   3.277   5.116  1.7922  0.4441  1.2983
 9374SOL     OW39580   0.315   0.263   7.433  0.3902  0.0664  0.0958
 9374SOL    HW139581   0.395   0.306   7.465 -0.5344  1.6312  0.2908
 9374SOL    HW239582   0.247   0.289   7.494  0.2886 -2.0909  0.8994
 9375SOL     OW39583   4.278   0.377   1.207  0.7125 -0.2591 -0.2513
 9375SOL    HW139584   4.244   0.303   1.157  1.4611 -1.5468  1.1354
 9375SOL    HW239585   4.225   0.357   1.284  1.6441 -0.2568  0.3956
 9376SOL     OW39586   1.284   4.169   2.930  0.0686 -0.1701  0.3041
 9376SOL    HW139587   1.277   4.151   3.023 -1.7448  0.8281  0.3457
 9376SOL    HW239588   1.231   4.107   2.880  0.4611  1.0524 -1.6309
 9377SOL     OW39589   1.272   4.121   7.193  0.4509  0.6774  0.0850
 9377SOL    HW139590   1.320   4.203   7.184  2.0066 -0.0513  1.8042
 9377SOL    HW239591   1.183   4.138   7.163  0.6046  0.4970 -0.4618
 9378SOL     OW39592   0.808   0.761   6.884 -0.5409  0.2725  0.3692
 9378SOL    HW139593   0.799   0.853   6.861  2.1951 -0.0367 -1.9606
 9378SOL    HW239594   0.859   0.724   6.812 -0.4808 -0.9548  1.0291
 9379SOL     OW39595   2.380   0.500   5.520  0.0522 -0.1829 -0.0676
 9379SOL    HW139596   2.385   0.588   5.556  1.9810  0.3136 -1.5233
 9379SOL    HW239597   2.404   0.510   5.428  2.4664 -0.6610  0.5032
 9380SOL     OW39598   0.257   1.097   5.470 -0.1381  0.1714  0.3278
 9380SOL    HW139599   0.292   1.045   5.398 -0.4349  0.2243  0.1482
 9380SOL    HW239600   0.226   1.024   5.522 -1.8128 -0.2930 -1.3110
 9381SOL     OW39601   2.819   4.360   7.673 -0.1737 -0.2308  0.2463
 9381SOL    HW139602   2.743   4.382   7.727  0.1393  0.6076  0.3422
 9381SOL    HW239603   2.769   4.321   7.601 -0.1920 -0.4695  0.3892
 9382SOL     OW39604   1.093   1.712  14.995  0.0686 -0.0019  0.2048
 9382SOL    HW139605   1.011   1.755  15.021  0.2260  1.5168 -1.8172
 9382SOL    HW239606   1.095   1.703  14.899  0.8994  2.4888 -0.0061
 9383SOL     OW39607   1.659   2.742  12.891 -0.1156  0.2047 -0.3978
 9383SOL    HW139608   1.716   2.818  12.904  1.4188 -0.8867 -0.6657
 9383SOL    HW239609   1.579   2.772  12.933 -0.8471 -1.1444 -0.8307
 9384SOL     OW39610   2.652   4.407   8.784  0.2422  0.0948  0.0314
 9384SOL    HW139611   2.681   4.498   8.790 -0.2637  0.1936  1.0195
 9384SOL    HW239612   2.666   4.376   8.694  4.1137 -0.5533  0.8742
 9385SOL     OW39613   0.358   1.834   7.382 -0.2721 -0.7086 -0.0299
 9385SOL    HW139614   0.376   1.844   7.289  0.2700  1.2190  0.2839
 9385SOL    HW239615   0.306   1.754   7.383 -5.1106  2.4736  0.4988
 9386SOL     OW39616   3.793   2.920  11.563  0.3849 -1.1593 -0.2339
 9386SOL    HW139617   3.842   3.001  11.553 -1.4608 -0.1022 -0.6283
 9386SOL    HW239618   3.852   2.877  11.625  2.9573 -0.4222 -2.1719
 9387SOL     OW39619   3.948   1.034   2.917  0.2554 -0.0450 -0.3817
 9387SOL    HW139620   4.014   1.084   2.868  1.6873 -1.4758  0.0833
 9387SOL    HW239621   3.880   1.093   2.886  0.0464 -0.5542 -0.8989
 9388SOL     OW39622   1.199   0.477   2.794  0.3210 -0.3482  0.2726
 9388SOL    HW139623   1.106   0.489   2.777  0.2770 -1.0229  0.0458
 9388SOL    HW239624   1.221   0.399   2.742  0.4030  0.0126 -0.2406
 9389SOL     OW39625   0.355   0.618   2.257  0.0421 -0.0970 -0.2034
 9389SOL    HW139626   0.378   0.564   2.182  0.2477 -0.7092  0.3016
 9389SOL    HW239627   0.436   0.643   2.300  1.1142  0.2278 -2.4299
 9390SOL     OW39628   3.002   1.186   7.036  0.2215  0.0173 -0.5050
 9390SOL    HW139629   3.080   1.208   6.984  0.2772 -1.0194 -0.8630
 9390SOL    HW239630   3.020   1.233   7.117 -0.5746 -1.2311  0.3970
 9391SOL     OW39631   2.120   1.044  14.162 -0.4625 -0.6592  0.0083
 9391SOL    HW139632   2.032   1.015  14.140 -0.5930  0.7396 -1.2901
 9391SOL    HW239633   2.164   1.049  14.077  1.8927  2.1521  1.3728
 9392SOL     OW39634   0.181   0.776   6.738 -0.3029  0.0068  0.7430
 9392SOL    HW139635   0.174   0.693   6.785 -0.8144 -0.8182 -0.7593
 9392SOL    HW239636   0.166   0.843   6.805 -2.1277 -1.4661  1.8054
 9393SOL     OW39637   3.657   2.868   5.339  0.1596 -0.5858 -0.1858
 9393SOL    HW139638   3.704   2.791   5.306 -0.3621 -0.9732 -0.0375
 9393SOL    HW239639   3.649   2.835   5.429  1.3597  2.0673  0.8891
 9394SOL     OW39640   2.762   3.999   1.779  0.4661 -0.0738 -0.0359
 9394SOL    HW139641   2.756   4.012   1.684 -4.1265  1.3980  0.4345
 9394SOL    HW239642   2.828   3.930   1.775  0.4729  0.0090 -1.2134
 9395SOL     OW39643   3.488   2.810   7.116  0.2535 -0.2792 -0.7661
 9395SOL    HW139644   3.413   2.870   7.119  2.6199  2.6030  1.8715
 9395SOL    HW239645   3.557   2.876   7.109 -0.4828  0.5407 -0.4485
 9396SOL     OW39646   0.749   3.081   4.413  0.1352 -0.8938 -0.1892
 9396SOL    HW139647   0.768   3.002   4.363  2.1530  1.2362 -2.7932
 9396SOL    HW239648   0.776   3.059   4.502 -0.2840  0.0781  0.1725
 9397SOL     OW39649   3.556   1.372   7.807 -0.2334 -0.4129  0.2342
 9397SOL    HW139650   3.591   1.392   7.894 -1.3752  1.8685  0.1736
 9397SOL    HW239651   3.493   1.303   7.824  1.0876 -1.2698  1.6615
 9398SOL     OW39652   3.675   3.693   5.849  0.0060 -0.5815  0.1264
 9398SOL    HW139653   3.626   3.742   5.914  0.3232 -0.0340 -0.0440
 9398SOL    HW239654   3.614   3.704   5.777 -0.3791  0.3975  0.6071
 9399SOL     OW39655   0.662   4.656   2.607  0.2345  0.2015  0.6585
 9399SOL    HW139656   0.692   0.025   2.635  0.8764  0.1553  0.1310
 9399SOL    HW239657   0.700   4.650   2.519  1.3417 -0.7965  1.2020
 9400SOL     OW39658   1.170   0.571  12.049  0.3118  0.5844 -0.4497
 9400SOL    HW139659   1.254   0.534  12.023 -0.2412 -0.4791 -0.7151
 9400SOL    HW239660   1.126   0.580  11.965  0.5318 -0.4035 -0.6738
 9401SOL     OW39661   0.130   1.645  10.923 -0.4517 -0.4392 -0.5839
 9401SOL    HW139662   0.040   1.677  10.916 -0.6115 -0.6297  0.5876
 9401SOL    HW239663   0.166   1.694  10.997  1.4170 -0.8182 -1.2494
 9402SOL     OW39664   2.155   4.406   0.500  0.4136 -0.4960 -0.5975
 9402SOL    HW139665   2.230   4.348   0.486  1.9056  1.2715  0.1045
 9402SOL    HW239666   2.080   4.348   0.516  0.6788 -1.5518 -3.1785
 9403SOL     OW39667   2.586   2.775   2.302  0.2370  0.2705 -0.3248
 9403SOL    HW139668   2.499   2.808   2.281 -0.2047 -0.1026  0.9005
 9403SOL    HW239669   2.550   2.741   2.384  0.4258  0.8452 -0.0015
 9404SOL     OW39670   2.925   2.129   8.183  0.1434 -0.2829  0.1434
 9404SOL    HW139671   2.982   2.052   8.180  1.0670  0.4488 -1.1058
 9404SOL    HW239672   2.880   2.118   8.267  1.6099 -1.5812  0.7608
 9405SOL     OW39673   0.211   1.790  13.228  0.1348  0.5988  0.1355
 9405SOL    HW139674   0.303   1.815  13.239  0.2923  1.0869 -2.3033
 9405SOL    HW239675   0.164   1.827  13.302  0.9880  2.3155 -0.1814
 9406SOL     OW39676   1.548   2.545   1.163 -0.4019  0.0953  0.1912
 9406SOL    HW139677   1.637   2.510   1.170  1.1208  3.1005 -3.5874
 9406SOL    HW239678   1.517   2.520   1.249 -1.8789  0.1284 -0.3232
 9407SOL     OW39679   1.759   2.563   6.956  0.3359  0.2830  0.4157
 9407SOL    HW139680   1.772   2.554   6.861 -0.0267 -0.5010  0.4381
 9407SOL    HW239681   1.678   2.512   6.957  0.6641 -0.2645 -0.4592
 9408SOL     OW39682   4.162   3.425  11.581  0.6559 -0.3084  0.2713
 9408SOL    HW139683   4.249   3.465  11.590  0.8569 -1.2022  2.3110
 9408SOL    HW239684   4.123   3.459  11.662 -1.1593 -0.7715 -0.4207
 9409SOL     OW39685   2.496   4.226  10.466  0.2512 -0.6836  0.0618
 9409SOL    HW139686   2.414   4.179  10.452 -0.1492  0.1377 -0.3666
 9409SOL    HW239687   2.550   4.198  10.392  2.5883 -1.0374  1.8862
 9410SOL     OW39688   4.455   3.164   3.383 -0.0985  0.2876 -0.4630
 9410SOL    HW139689   4.485   3.077   3.408  1.4524  1.3992  1.5116
 9410SOL    HW239690   4.538   3.202   3.352  0.5719  0.5553  1.6293
 9411SOL     OW39691   1.868   3.455   4.401 -0.0453 -0.4461 -0.3248
 9411SOL    HW139692   1.844   3.375   4.448  0.3056 -0.5642 -0.3486
 9411SOL    HW239693   1.801   3.516   4.434 -1.8401 -2.2447 -0.6599
 9412SOL     OW39694   2.311   1.849   0.377 -0.5598 -0.0893  0.2358
 9412SOL    HW139695   2.284   1.785   0.443 -2.9161  0.6987  0.0278
 9412SOL    HW239696   2.343   1.784   0.314  0.4007  0.1001  0.5256
 9413SOL     OW39697   3.297   2.168   7.337 -0.3141 -0.6844  0.0515
 9413SOL    HW139698   3.377   2.192   7.384 -1.0566  1.2518  0.3107
 9413SOL    HW239699   3.326   2.171   7.246 -1.4922 -0.9540 -0.3434
 9414SOL     OW39700   2.356   3.740   1.661 -0.0129 -0.4184 -0.1946
 9414SOL    HW139701   2.365   3.727   1.756 -0.0073  2.5024  0.1944
 9414SOL    HW239702   2.332   3.832   1.663 -0.7750 -0.6000 -0.9777
 9415SOL     OW39703   4.345   3.583  11.273  0.8811 -0.2297 -0.6154
 9415SOL    HW139704   4.311   3.654  11.327  1.0224  0.1969 -1.0910
 9415SOL    HW239705   4.264   3.537  11.250  1.1092 -0.6038 -0.6587
 9416SOL     OW39706   1.492   1.349   7.940 -0.1173 -0.8594  0.5308
 9416SOL    HW139707   1.465   1.306   7.860 -0.4304 -1.0265  0.7262
 9416SOL    HW239708   1.568   1.296   7.962 -0.4936 -2.2827 -1.6959
 9417SOL     OW39709   1.602   2.239   8.870  0.9002 -0.2554  0.6250
 9417SOL    HW139710   1.513   2.272   8.858  2.3661  3.3144 -0.6122
 9417SOL    HW239711   1.653   2.318   8.890  3.2801 -0.9742 -2.6303
 9418SOL     OW39712   3.524   3.026   3.694  0.0059  0.3345 -0.4385
 9418SOL    HW139713   3.461   2.967   3.655  1.8828 -0.4944 -2.2353
 9418SOL    HW239714   3.520   3.101   3.634  0.2797  0.2188 -0.5986
 9419SOL     OW39715   1.584   2.756   0.890  0.0993 -0.0100  0.1918
 9419SOL    HW139716   1.574   2.845   0.856  0.0774 -0.1626 -0.2018
 9419SOL    HW239717   1.648   2.741   0.821 -1.4715 -1.1563 -1.0362
 9420SOL     OW39718   4.182   3.503  10.354 -0.5480 -0.2828 -0.0807
 9420SOL    HW139719   4.122   3.440  10.393  0.8099 -1.6273 -0.1271
 9420SOL    HW239720   4.122   3.575  10.338 -0.0804 -0.2161 -1.5616
 9421SOL     OW39721   0.645   1.066   0.183 -0.1109 -0.6255 -0.2533
 9421SOL    HW139722   0.588   1.143   0.183  3.4144  2.0180 -1.0746
 9421SOL    HW239723   0.691   1.075   0.099 -0.3633 -1.7119 -0.5127
 9422SOL     OW39724   1.365   4.457   5.507 -0.1360 -0.6571 -0.1334
 9422SOL    HW139725   1.352   4.494   5.594 -2.5382 -2.4728  0.2772
 9422SOL    HW239726   1.291   4.496   5.460 -0.7498  0.2399  1.5929
 9423SOL     OW39727   2.570   3.721   4.486  0.1918 -0.3475 -0.2554
 9423SOL    HW139728   2.585   3.663   4.560  1.5683  2.2510  1.5015
 9423SOL    HW239729   2.508   3.787   4.519  2.4251  0.9117  1.4288
 9424SOL     OW39730   2.181   4.371   7.759 -0.0737 -0.7075  0.1610
 9424SOL    HW139731   2.261   4.367   7.812  0.0759 -0.4203 -0.0414
 9424SOL    HW239732   2.212   4.313   7.689  1.6920  0.2133  0.1738
 9425SOL     OW39733   1.947   1.556   2.720  0.0543  0.1463 -0.3585
 9425SOL    HW139734   2.024   1.610   2.737  2.3571 -3.2344 -0.2030
 9425SOL    HW239735   1.951   1.502   2.799 -2.4256  2.2789  1.2214
 9426SOL     OW39736   1.549   2.071   8.671 -0.5514 -0.3571  0.2167
 9426SOL    HW139737   1.603   2.107   8.742  0.2319 -0.9226 -0.0909
 9426SOL    HW239738   1.553   1.978   8.691 -1.0241 -0.7890 -1.7408
 9427SOL     OW39739   1.103   0.509  11.811  0.6443 -0.1267 -0.0736
 9427SOL    HW139740   1.103   0.541  11.720 -2.1520  1.8698  0.6376
 9427SOL    HW239741   1.069   0.421  11.797  0.5939 -0.3851  1.6739
 9428SOL     OW39742   3.822   1.792   9.736 -0.3369  0.1783  0.7419
 9428SOL    HW139743   3.908   1.769   9.772 -0.3459  1.7155  1.7225
 9428SOL    HW239744   3.840   1.792   9.642  0.9895 -0.9919  0.9864
 9429SOL     OW39745   2.263   0.592   2.709  0.0684 -0.2747  0.0206
 9429SOL    HW139746   2.342   0.576   2.759  0.3384  1.7652  0.2578
 9429SOL    HW239747   2.208   0.528   2.754 -1.0746 -0.0470 -1.0313
 9430SOL     OW39748   4.258   0.126  16.669  0.6282  0.0884 -0.0488
 9430SOL    HW139749   4.345   0.128  16.709 -0.2693 -1.1173  1.9736
 9430SOL    HW239750   4.215   0.064  16.728  0.7804  1.0520  1.0712
 9431SOL     OW39751   4.643   0.815   4.584 -0.4182 -0.0674  0.2655
 9431SOL    HW139752   4.591   0.735   4.579 -2.4609  1.2085  1.1334
 9431SOL    HW239753   4.658   0.836   4.492  0.2488 -1.4249  0.0574
 9432SOL     OW39754   1.943   3.619   9.806 -0.2879 -0.1537 -0.1263
 9432SOL    HW139755   2.032   3.588   9.791 -0.6527 -1.0101 -0.4836
 9432SOL    HW239756   1.933   3.696   9.750  1.1697 -0.2219 -0.4773
 9433SOL     OW39757   3.040   1.260   4.257  0.0654  0.0127 -0.3967
 9433SOL    HW139758   3.039   1.258   4.161 -3.3394  0.7691 -0.3757
 9433SOL    HW239759   2.948   1.276   4.281 -0.0669 -0.9756 -0.2642
 9434SOL     OW39760   3.165   3.683  13.107 -0.0337  0.2907  0.5756
 9434SOL    HW139761   3.130   3.766  13.075  2.2809  0.1342 -2.3521
 9434SOL    HW239762   3.090   3.641  13.150  0.5308 -0.2335  1.0513
 9435SOL     OW39763   1.067   3.108   9.153 -0.1137  0.0142 -0.2695
 9435SOL    HW139764   1.013   3.180   9.185 -1.5676 -0.6618 -1.2237
 9435SOL    HW239765   1.147   3.112   9.207 -0.7938  1.2240  0.6514
 9436SOL     OW39766   0.760   0.956  15.706 -0.0133  0.0450 -0.1243
 9436SOL    HW139767   0.827   0.910  15.655  1.4274 -0.9465  2.6838
 9436SOL    HW239768   0.687   0.921  15.655 -0.6150  1.1785 -0.0411
 9437SOL     OW39769   2.397   0.081   2.686 -0.0210 -0.0541 -0.2241
 9437SOL    HW139770   2.469   0.119   2.636  0.3603  1.0125  1.1518
 9437SOL    HW239771   2.345   0.055   2.610  0.5413 -1.6347 -0.0666
 9438SOL     OW39772   3.584   2.849   6.593  0.3714 -0.3188  0.1937
 9438SOL    HW139773   3.518   2.847   6.523 -0.7964 -1.1912  1.3084
 9438SOL    HW239774   3.601   2.755   6.605  0.6512 -0.3966 -0.7642
 9439SOL     OW39775   2.575   2.393   4.245 -0.1214 -0.2738 -0.1862
 9439SOL    HW139776   2.670   2.389   4.253  0.0807  0.6077 -2.0293
 9439SOL    HW239777   2.543   2.432   4.326 -2.4150  1.2410 -1.8209
 9440SOL     OW39778   0.350   3.018   7.240 -0.2942  0.1424  0.1407
 9440SOL    HW139779   0.331   3.100   7.193 -1.3214  0.2738  0.7820
 9440SOL    HW239780   0.337   2.955   7.170  0.3621  0.3270 -0.1412
 9441SOL     OW39781   0.457   1.094   8.276 -0.0912  0.2109  0.0164
 9441SOL    HW139782   0.387   1.151   8.308  1.1043  0.3639  2.3290
 9441SOL    HW239783   0.420   1.017   8.320  0.6870  0.1412  0.5488
 9442SOL     OW39784   2.078   2.041  16.334 -0.4637 -0.2388 -0.3749
 9442SOL    HW139785   2.121   1.961  16.303 -3.6718 -1.6478 -1.1625
 9442SOL    HW239786   2.147   2.107  16.341  0.6868 -1.6510  1.6405
 9443SOL     OW39787   3.960   2.238   8.380  0.2541  0.1824 -0.2509
 9443SOL    HW139788   3.915   2.154   8.378 -0.6058  0.6623 -0.7537
 9443SOL    HW239789   3.944   2.272   8.292 -0.5392 -1.8662 -0.8799
 9444SOL     OW39790   0.548   1.275  16.221  0.6134  0.1079 -0.1525
 9444SOL    HW139791   0.468   1.280  16.168  0.2733 -1.3512  0.2202
 9444SOL    HW239792   0.536   1.193  16.269  1.8339 -1.0302 -1.7947
 9445SOL     OW39793   3.273   0.780   5.276 -0.0298  0.1437 -0.0251
 9445SOL    HW139794   3.238   0.826   5.352  0.4402  1.2542 -0.4728
 9445SOL    HW239795   3.242   0.692   5.297  0.1515 -0.3915 -2.0306
 9446SOL     OW39796   4.113   4.423   5.787 -0.4650 -0.3531  0.2196
 9446SOL    HW139797   4.149   4.343   5.749  3.0669  0.3181  2.1856
 9446SOL    HW239798   4.019   4.403   5.789 -0.6678  0.7371  2.1416
 9447SOL     OW39799   4.054   4.168  17.517 -0.1753  0.3785 -0.6630
 9447SOL    HW139800   4.099   4.090  17.551  2.3236  1.7957 -0.6730
 9447SOL    HW239801   4.008   4.175  17.600  0.0156 -0.6381 -0.4656
 9448SOL     OW39802   1.777   2.649  17.104  0.0293 -0.7321 -0.1481
 9448SOL    HW139803   1.792   2.702  17.025  0.9024 -0.1878  0.3824
 9448SOL    HW239804   1.786   2.561  17.068  3.0135 -1.0032  1.2849
 9449SOL     OW39805   3.864   0.176   1.151 -0.2740 -0.2278 -1.0279
 9449SOL    HW139806   3.947   0.130   1.157  0.2623  0.8382 -0.3084
 9449SOL    HW239807   3.812   0.130   1.217  1.2241  0.4109  0.5874
 9450SOL     OW39808   1.944   2.556   1.921  0.3213 -0.0523  0.1535
 9450SOL    HW139809   1.901   2.481   1.882  2.1894  0.6502 -3.2532
 9450SOL    HW239810   2.035   2.526   1.924  0.3155  0.0230  1.0508
 9451SOL     OW39811   2.470   3.974   5.795 -0.6557 -0.7548 -0.0497
 9451SOL    HW139812   2.562   3.953   5.775 -0.4811  0.2329 -0.2816
 9451SOL    HW239813   2.481   4.064   5.764  0.1803 -0.1251  2.1255
 9452SOL     OW39814   1.860   2.086  11.409 -0.1201  0.4924 -0.3743
 9452SOL    HW139815   1.860   2.161  11.350 -1.2181  0.6554 -0.1594
 9452SOL    HW239816   1.787   2.035  11.374 -0.0442 -2.3605  3.6565
 9453SOL     OW39817   0.170   1.592   3.508  0.2987  0.1103 -0.2226
 9453SOL    HW139818   0.187   1.498   3.511  1.2862  0.4022  3.5555
 9453SOL    HW239819   0.167   1.614   3.415 -1.3301 -1.4710 -0.5427
 9454SOL     OW39820   0.752   0.990   2.543 -0.4177  0.0026 -0.1870
 9454SOL    HW139821   0.782   0.919   2.601  0.1016  1.0322  0.8112
 9454SOL    HW239822   0.726   1.062   2.600 -2.2870 -1.5466  0.9023
 9455SOL     OW39823   0.631   4.217   0.057  0.2497  0.3840  0.2360
 9455SOL    HW139824   0.577   4.296   0.054 -2.0256 -1.2548 -1.5727
 9455SOL    HW239825   0.626   4.196  17.637 -0.3012 -1.4537  0.6780
 9456SOL     OW39826   4.326   1.376   0.918  0.2166  0.1871 -0.1765
 9456SOL    HW139827   4.362   1.293   0.889  0.5348  0.2976 -0.1087
 9456SOL    HW239828   4.407   1.425   0.931  1.8102 -2.1710 -1.3262
 9457SOL     OW39829   3.145   1.965   6.378 -0.5765 -0.0670  0.1640
 9457SOL    HW139830   3.059   1.944   6.413 -0.2841 -0.7183  0.4744
 9457SOL    HW239831   3.123   1.991   6.289  2.9113  2.1392 -0.0712
 9458SOL     OW39832   3.245   1.252  15.028  0.1843 -0.6190 -0.5488
 9458SOL    HW139833   3.196   1.231  15.108  3.3453  1.5127  1.9315
 9458SOL    HW239834   3.290   1.168  15.014  0.7038 -0.4339  0.0319
 9459SOL     OW39835   0.407   3.835   3.168 -0.0231 -0.1813  0.3044
 9459SOL    HW139836   0.464   3.868   3.099 -0.4524  0.8021  0.4102
 9459SOL    HW239837   0.320   3.874   3.158 -0.6775 -1.5992  0.5493
 9460SOL     OW39838   2.854   2.396   2.929  0.1588  0.3491  0.3580
 9460SOL    HW139839   2.774   2.349   2.906  0.4142  0.1078 -0.0399
 9460SOL    HW239840   2.807   2.472   2.962  1.1400  0.6533  1.0413
 9461SOL     OW39841   2.165   0.077   3.025 -1.0263  0.4894 -0.3885
 9461SOL    HW139842   2.229   0.026   2.976  0.7447 -0.1878  2.6368
 9461SOL    HW239843   2.203   0.164   3.038 -1.0513  0.5252 -0.5513
 9462SOL     OW39844   0.900   0.343  16.897 -0.1925 -0.0275  0.0396
 9462SOL    HW139845   0.929   0.268  16.845  1.8737  2.0163 -1.7044
 9462SOL    HW239846   0.854   0.396  16.832 -1.3799  0.3985  1.2069
 9463SOL     OW39847   2.758   4.538   2.783  0.2365  0.0941 -0.7508
 9463SOL    HW139848   2.825   4.580   2.837  1.2905 -0.1168 -1.8877
 9463SOL    HW239849   2.733   4.614   2.730  2.7525  1.3455 -0.1583
 9464SOL     OW39850   1.087   0.234  11.646  0.0083  0.4234  0.4789
 9464SOL    HW139851   1.009   0.191  11.611  0.8585  0.5435 -1.5475
 9464SOL    HW239852   1.142   0.159  11.668  0.3965  0.1474 -1.4929
 9465SOL     OW39853   3.236   2.833   5.542 -0.4667  0.0792  0.0308
 9465SOL    HW139854   3.153   2.799   5.574 -0.1270  0.4196  1.3077
 9465SOL    HW239855   3.278   2.759   5.498 -0.7219 -0.5822  0.9002
 9466SOL     OW39856   1.322   2.730   6.973 -0.6435 -0.0764 -0.3385
 9466SOL    HW139857   1.407   2.741   6.930 -0.6550  1.8885  0.1143
 9466SOL    HW239858   1.314   2.636   6.961  1.4214 -0.5033  1.6105
 9467SOL     OW39859   4.272   2.567   0.960 -0.6564 -0.1899  0.3339
 9467SOL    HW139860   4.351   2.521   0.931  0.5240  0.3455  2.7283
 9467SOL    HW239861   4.263   2.531   1.048  1.4777 -0.5112  0.4051
 9468SOL     OW39862   1.434   0.918   0.842  0.1503 -0.1125  0.2540
 9468SOL    HW139863   1.441   1.010   0.869 -0.3666  0.5359 -1.8050
 9468SOL    HW239864   1.341   0.910   0.823  0.4093  2.6611 -2.1646
 9469SOL     OW39865   2.423   2.442   3.785  0.3893 -0.1256  0.0939
 9469SOL    HW139866   2.397   2.444   3.877  1.5523  3.9605  0.3239
 9469SOL    HW239867   2.437   2.536   3.775 -0.5343 -0.0881 -0.8445
 9470SOL     OW39868   2.464   2.401   2.380  0.1468  0.1149  0.3020
 9470SOL    HW139869   2.391   2.373   2.435  1.4391 -0.5500  1.6756
 9470SOL    HW239870   2.422   2.424   2.297  2.7845  0.4490 -0.9335
 9471SOL     OW39871   1.860   4.201  13.946  0.4861 -0.0798 -0.5990
 9471SOL    HW139872   1.886   4.187  14.038  1.2211 -2.5508 -1.1862
 9471SOL    HW239873   1.766   4.212  13.962  0.8596  0.5599  1.1906
 9472SOL     OW39874   0.771   1.127  15.984 -0.7780  0.2793 -0.1817
 9472SOL    HW139875   0.850   1.085  16.018  0.9833  2.2489 -1.8359
 9472SOL    HW239876   0.797   1.164  15.900 -1.2349 -5.6680 -2.9404
 9473SOL     OW39877   3.142   4.695   1.068  0.3543  0.0226 -0.1517
 9473SOL    HW139878   3.213   4.635   1.047  0.1273 -0.0004 -0.8530
 9473SOL    HW239879   3.147   0.041   0.996  1.2187 -1.6026 -1.5287
 9474SOL     OW39880   3.024   1.008   1.006 -0.0033 -0.3829 -0.4379
 9474SOL    HW139881   3.071   0.925   1.015  2.9082  1.7162  3.8135
 9474SOL    HW239882   3.082   1.057   0.948  2.1849 -2.6163 -0.1166
 9475SOL     OW39883   3.465   2.462   1.527 -0.2910  0.2115  0.3580
 9475SOL    HW139884   3.478   2.552   1.555  0.0093  0.8590 -1.8086
 9475SOL    HW239885   3.465   2.476   1.432  0.4524  2.5859  0.7128
 9476SOL     OW39886   4.686   2.796   6.036 -0.0748  0.4731  0.2260
 9476SOL    HW139887   4.596   2.807   6.005 -0.3814 -0.3432  0.8358
 9476SOL    HW239888   0.002   2.738   5.968 -1.0935  1.9588 -1.5715
 9477SOL     OW39889   3.524   2.771   8.888 -0.0366 -0.0955 -0.2523
 9477SOL    HW139890   3.611   2.747   8.921 -0.2669 -1.6627 -0.7811
 9477SOL    HW239891   3.472   2.827   8.946  1.2667  0.0663  0.7435
 9478SOL     OW39892   2.960   2.728   5.849  0.4687 -0.0386 -0.3538
 9478SOL    HW139893   2.955   2.725   5.754  0.3713 -0.3640 -0.3392
 9478SOL    HW239894   2.903   2.652   5.863  1.8218 -0.9565  0.2250
 9479SOL     OW39895   4.584   3.960   8.851 -0.2275  0.4131  0.4108
 9479SOL    HW139896   4.574   4.050   8.881 -1.4565  0.3440  0.1975
 9479SOL    HW239897   4.512   3.951   8.789  0.4790 -0.3053 -0.3216
 9480SOL     OW39898   0.574   1.396   3.105 -0.1118 -0.3999 -0.1632
 9480SOL    HW139899   0.515   1.354   3.167 -1.6829  1.2898 -0.4905
 9480SOL    HW239900   0.654   1.346   3.121  0.2643  0.8133  1.7508
 9481SOL     OW39901   2.806   1.558   4.359 -0.2600 -0.0074 -0.5298
 9481SOL    HW139902   2.726   1.540   4.408  0.0215  0.8982  0.2659
 9481SOL    HW239903   2.778   1.647   4.336  1.3091  0.1252 -1.9601
 9482SOL     OW39904   0.614   1.592   6.964  0.0094  0.8193 -0.1277
 9482SOL    HW139905   0.549   1.521   6.959 -0.5469  1.5189 -2.7536
 9482SOL    HW239906   0.679   1.545   7.015 -1.8055 -2.9666 -1.2799
 9483SOL     OW39907   0.365   0.271   4.759 -0.8051  0.6441  0.1448
 9483SOL    HW139908   0.371   0.330   4.684  0.7629  1.9277  1.2631
 9483SOL    HW239909   0.307   0.323   4.814 -0.7453 -0.0790  0.8886
 9484SOL     OW39910   2.619   1.305  12.216 -0.1643  0.3272  0.7907
 9484SOL    HW139911   2.533   1.297  12.175  0.2657 -1.7789  0.2844
 9484SOL    HW239912   2.595   1.305  12.308  2.3392  0.7755  1.4591
 9485SOL     OW39913   0.560   1.727   4.267  0.1929  0.5580 -0.1428
 9485SOL    HW139914   0.479   1.778   4.254 -1.1438 -0.8262  2.7495
 9485SOL    HW239915   0.620   1.791   4.229 -0.2401  0.9332 -0.1998
 9486SOL     OW39916   2.806   3.426   8.468 -0.0471 -0.2676  0.0413
 9486SOL    HW139917   2.900   3.439   8.468 -0.0781 -0.0143 -0.1897
 9486SOL    HW239918   2.808   3.333   8.488 -2.2493  0.3066  2.9867
 9487SOL     OW39919   2.914   1.895   6.104 -0.3160  0.5448  0.0093
 9487SOL    HW139920   3.000   1.860   6.079  0.0415  0.2838  1.5962
 9487SOL    HW239921   2.883   1.836   6.173 -0.1251 -0.1145 -0.4710
 9488SOL     OW39922   3.206   0.873  15.223  0.3621 -0.2017  0.0472
 9488SOL    HW139923   3.252   0.871  15.307  0.2448 -0.3180  0.1067
 9488SOL    HW239924   3.128   0.820  15.237  0.4630  0.7849  4.3822
 9489SOL     OW39925   3.649   2.356   6.501 -0.2435  0.2638  0.0175
 9489SOL    HW139926   3.650   2.292   6.572  0.9503 -0.8801 -1.0393
 9489SOL    HW239927   3.661   2.306   6.420  2.5025  0.4417  0.2956
 9490SOL     OW39928   3.031   4.588  16.863 -0.5006 -0.1739 -0.1078
 9490SOL    HW139929   3.093   4.588  16.790  1.8475  1.7829  1.8961
 9490SOL    HW239930   3.068   4.657  16.918 -1.8590 -0.7512  1.5347
 9491SOL     OW39931   4.453   2.720   4.443 -0.1066  0.1093 -0.1957
 9491SOL    HW139932   4.528   2.721   4.502  1.8344 -0.5500 -2.6592
 9491SOL    HW239933   4.475   2.779   4.372  1.8325  0.7445  0.9400
 9492SOL     OW39934   4.134   3.474  12.704  0.1630  0.5396  0.4244
 9492SOL    HW139935   4.214   3.510  12.664  0.6791 -1.0124  0.0328
 9492SOL    HW239936   4.156   3.496  12.794 -0.1463  0.0829  0.6092
 9493SOL     OW39937   0.794   1.921  10.204 -0.3421  0.4060  0.3924
 9493SOL    HW139938   0.724   1.863  10.235 -0.3988  0.8186  1.0301
 9493SOL    HW239939   0.828   1.966  10.281  1.2256  1.3370 -0.8448
 9494SOL     OW39940   0.726   1.266   8.706  0.5134 -0.2532 -0.4690
 9494SOL    HW139941   0.819   1.245   8.713  1.3153  2.7451 -2.2917
 9494SOL    HW239942   0.693   1.190   8.754 -0.3857  2.0047  2.4796
 9495SOL     OW39943   1.519   4.560  15.300  0.3441  0.3825  0.1841
 9495SOL    HW139944   1.454   4.629  15.308 -2.2773 -2.2799  2.0932
 9495SOL    HW239945   1.491   4.515  15.381 -1.7211  0.9704 -0.2090
 9496SOL     OW39946   1.034   1.494   4.930  0.0714  0.1285 -0.2612
 9496SOL    HW139947   1.125   1.522   4.931 -0.5727  2.2878 -2.2057
 9496SOL    HW239948   1.040   1.417   4.986  1.3311  0.5849  0.2155
 9497SOL     OW39949   4.650   0.798   5.314 -0.4880  0.3299  0.0250
 9497SOL    HW139950   0.017   0.780   5.355  0.3472 -2.3680 -2.8462
 9497SOL    HW239951   4.691   0.805   5.227  0.0446  1.1504  0.3426
 9498SOL     OW39952   0.271   1.293   5.751  0.0197  0.0070  0.4417
 9498SOL    HW139953   0.191   1.270   5.705 -0.8028  1.4823  1.1590
 9498SOL    HW239954   0.260   1.387   5.762  0.0573 -0.1012  1.4505
 9499SOL     OW39955   1.855   0.293  16.372  0.4255  0.0429  0.1521
 9499SOL    HW139956   1.931   0.309  16.315  0.8725 -1.1898  0.3907
 9499SOL    HW239957   1.866   0.199  16.385 -2.0497 -0.6174 -2.3489
 9500SOL     OW39958   3.932   3.538   2.225  0.5648  0.2932  0.2169
 9500SOL    HW139959   3.938   3.470   2.291  1.8639  1.1517  0.9730
 9500SOL    HW239960   3.942   3.612   2.284  3.8372 -0.9509  1.2006
 9501SOL     OW39961   2.542   3.728   6.785 -0.0407 -0.0756  0.1870
 9501SOL    HW139962   2.486   3.655   6.811  0.2916  0.1517  1.5151
 9501SOL    HW239963   2.586   3.752   6.866 -1.3193 -0.9823  1.1417
 9502SOL     OW39964   2.373   0.607  15.418  0.0237 -0.4620  0.8024
 9502SOL    HW139965   2.463   0.578  15.435 -0.0560 -0.8967  0.5088
 9502SOL    HW239966   2.341   0.534  15.364 -0.7751 -0.5270  1.3601
 9503SOL     OW39967   3.778   4.363   7.944 -0.2778 -0.4507  0.1902
 9503SOL    HW139968   3.791   4.278   7.987  1.2644  0.1715  0.9429
 9503SOL    HW239969   3.848   4.414   7.985 -1.2988  1.1974 -0.1121
 9504SOL     OW39970   3.373   0.690   5.932 -0.0984  0.1225  0.4863
 9504SOL    HW139971   3.375   0.600   5.964  1.4232  0.4642  1.3525
 9504SOL    HW239972   3.361   0.672   5.839  2.4669  0.1126  0.1486
 9505SOL     OW39973   2.465   4.136  17.067  0.1197 -0.0646 -0.3807
 9505SOL    HW139974   2.469   4.091  17.152 -0.6997 -0.0148 -0.3128
 9505SOL    HW239975   2.372   4.156  17.062 -0.2406 -1.5138  0.5676
 9506SOL     OW39976   2.796   1.975   2.836  0.2944 -0.1702 -0.2475
 9506SOL    HW139977   2.862   2.043   2.827 -1.2657  1.0968 -2.1968
 9506SOL    HW239978   2.798   1.946   2.928  1.7266 -0.1247 -0.2589
 9507SOL     OW39979   3.291   2.762   2.433 -0.1775  0.5793 -0.2265
 9507SOL    HW139980   3.271   2.700   2.362 -2.4570  0.6110  0.3855
 9507SOL    HW239981   3.281   2.698   2.504  3.1641  1.7293  1.2897
 9508SOL     OW39982   1.431   3.307   5.904 -0.5149  0.1443 -0.0800
 9508SOL    HW139983   1.353   3.254   5.888 -0.3948  0.2972 -1.1715
 9508SOL    HW239984   1.393   3.385   5.864 -1.7239 -2.0462 -3.1406
 9509SOL     OW39985   1.620   2.149   3.027 -0.3064 -0.2592 -0.1308
 9509SOL    HW139986   1.598   2.133   3.119  2.2685 -1.0325  0.3566
 9509SOL    HW239987   1.560   2.221   3.005 -0.4514 -0.1103  0.7474
 9510SOL     OW39988   4.129   1.527   4.789  0.0864 -0.2254  0.0287
 9510SOL    HW139989   4.140   1.622   4.800 -1.1428  0.0316 -0.9700
 9510SOL    HW239990   4.200   1.514   4.726  0.1682  0.7482 -0.0883
 9511SOL     OW39991   4.128   1.951   1.618  0.1081  0.0956 -0.1261
 9511SOL    HW139992   4.064   1.896   1.573  2.0433 -0.9695 -1.5524
 9511SOL    HW239993   4.131   1.922   1.709  2.3485 -0.0400 -0.2353
 9512SOL     OW39994   3.382   3.146   6.985  0.0826 -0.2844 -0.1061
 9512SOL    HW139995   3.426   3.071   6.944 -0.4145 -0.8416  0.3854
 9512SOL    HW239996   3.290   3.136   6.962  0.4758 -0.6070 -1.5941
 9513SOL     OW39997   3.018   3.584   6.613 -0.0280 -0.1476  0.1992
 9513SOL    HW139998   3.026   3.611   6.521 -3.7146  1.4488  0.3333
 9513SOL    HW239999   2.928   3.612   6.632  0.4218 -0.3212  2.5648
 9514SOL     OW40000   2.563   2.927  13.191  0.8186 -0.1014 -0.3666
 9514SOL    HW140001   2.567   2.984  13.114  0.5480 -1.4720 -1.3950
 9514SOL    HW240002   2.654   2.936  13.219  0.7745  2.3177 -1.0207
 9515SOL     OW40003   1.205   1.561   9.784 -0.3591  0.1474  0.2383
 9515SOL    HW140004   1.266   1.579   9.712 -1.5373  0.4049 -0.6868
 9515SOL    HW240005   1.186   1.643   9.831  1.2104  1.1592 -0.8698
 9516SOL     OW40006   1.585   2.082   3.282  0.7177  0.0789  0.2413
 9516SOL    HW140007   1.490   2.092   3.272  0.7524  1.1700  1.0745
 9516SOL    HW240008   1.588   2.001   3.333 -0.0259  0.5384  1.0062
 9517SOL     OW40009   1.161   1.166   5.436  0.3264 -0.7706 -0.3458
 9517SOL    HW140010   1.102   1.092   5.420  0.8859 -1.6075  1.4619
 9517SOL    HW240011   1.120   1.200   5.515 -2.9182 -0.3693 -2.2041
 9518SOL     OW40012   2.161   4.690   9.331  0.6917  0.1852 -0.8308
 9518SOL    HW140013   2.121   4.635   9.399 -1.3324  1.5264 -0.9423
 9518SOL    HW240014   2.141   0.062   9.356 -0.2402  0.1249 -1.3559
 9519SOL     OW40015   0.889   4.143  14.758  0.3993  0.6038 -0.2345
 9519SOL    HW140016   0.884   4.205  14.830 -1.6976 -2.2581  2.0736
 9519SOL    HW240017   0.974   4.152  14.714 -0.1244  1.0749 -1.1529
 9520SOL     OW40018   4.518   1.854   6.178  0.2204 -0.4037 -0.2460
 9520SOL    HW140019   4.516   1.949   6.170 -1.5809 -0.6184 -2.4695
 9520SOL    HW240020   4.510   1.841   6.272  0.5504  1.3781  0.0260
 9521SOL     OW40021   2.297   0.210   1.619  0.0499  0.5891  0.1155
 9521SOL    HW140022   2.220   0.176   1.664 -0.1294  1.4100  0.4326
 9521SOL    HW240023   2.329   0.273   1.684  2.1128  1.3851 -1.6630
 9522SOL     OW40024   0.917   2.370   5.714 -0.0756  0.5766 -0.8243
 9522SOL    HW140025   0.840   2.317   5.693 -1.0956  1.3413  0.9624
 9522SOL    HW240026   0.902   2.366   5.809  0.0812  0.4292 -0.8056
 9523SOL     OW40027   3.013   2.355   9.484 -0.2694 -0.5807 -0.1356
 9523SOL    HW140028   3.039   2.432   9.433  0.7597 -1.3147 -0.7332
 9523SOL    HW240029   2.918   2.353   9.473 -0.3068 -4.1300  0.8034
 9524SOL     OW40030   1.365   2.377  11.970  0.4154  0.8785 -0.1454
 9524SOL    HW140031   1.308   2.373  11.894 -0.4202  2.3420  0.3893
 9524SOL    HW240032   1.308   2.432  12.024  1.0818  0.1688  1.2794
 9525SOL     OW40033   2.732   4.436  13.687 -0.4592 -0.0844 -0.0131
 9525SOL    HW140034   2.788   4.500  13.730 -0.4010 -0.4690  0.4737
 9525SOL    HW240035   2.707   4.367  13.748  0.2983  0.0716  0.4668
 9526SOL     OW40036   2.628   4.661   4.894  1.2419 -0.6400 -0.3869
 9526SOL    HW140037   2.655   4.634   4.806  1.3086 -0.6606 -0.3596
 9526SOL    HW240038   2.638   4.579   4.943 -0.8094 -0.5544  0.2004
 9527SOL     OW40039   4.557   2.653   7.046 -0.0403  0.0887 -0.1769
 9527SOL    HW140040   4.536   2.701   7.126 -0.6700 -1.9874  0.9043
 9527SOL    HW240041   4.488   2.677   6.984  0.4265 -0.8497 -1.0631
 9528SOL     OW40042   1.703   1.704   8.967 -0.2320 -0.2852 -0.0983
 9528SOL    HW140043   1.790   1.730   8.936  0.0713  0.5260  1.4272
 9528SOL    HW240044   1.719   1.613   8.992 -0.4791  0.1640  1.6354
 9529SOL     OW40045   3.639   0.737   1.169  0.0181  0.0760  0.0642
 9529SOL    HW140046   3.723   0.727   1.212  0.7353  1.2425 -1.0681
 9529SOL    HW240047   3.593   0.794   1.230  0.4509  0.7389 -0.2253
 9530SOL     OW40048   1.450   0.654   3.411 -0.7328  0.4238 -0.3404
 9530SOL    HW140049   1.383   0.587   3.403  1.8782 -2.7226  3.7653
 9530SOL    HW240050   1.479   0.664   3.320 -0.4089 -0.8004 -0.3841
 9531SOL     OW40051   4.441   3.585   7.568 -0.2165 -0.0906 -0.0909
 9531SOL    HW140052   4.486   3.670   7.572  0.1040 -0.4288  3.2658
 9531SOL    HW240053   4.479   3.531   7.638 -1.4979 -2.1484 -1.0021
 9532SOL     OW40054   0.219   1.896   5.075 -0.1820  0.3828  0.3368
 9532SOL    HW140055   0.294   1.915   5.018 -0.8458 -2.5203 -1.4991
 9532SOL    HW240056   0.162   1.967   5.048 -1.4899 -1.1606 -0.9905
 9533SOL     OW40057   3.212   2.813   0.998  0.2600  0.2699  0.5706
 9533SOL    HW140058   3.268   2.823   1.075 -1.5514  1.0684  1.7771
 9533SOL    HW240059   3.130   2.810   1.047 -0.4613 -0.1016 -0.6791
 9534SOL     OW40060   0.879   1.726  12.794  0.0009 -0.0485 -0.7289
 9534SOL    HW140061   0.837   1.808  12.821 -1.4640 -0.4169 -1.8973
 9534SOL    HW240062   0.964   1.760  12.768  1.1232 -2.2267  0.0662
 9535SOL     OW40063   1.638   3.827   7.737  0.0853 -0.3115 -0.2671
 9535SOL    HW140064   1.575   3.772   7.690 -0.5812 -0.0099  0.2653
 9535SOL    HW240065   1.711   3.818   7.675  0.6440 -2.4521  0.7110
 9536SOL     OW40066   0.431   2.558   1.567 -0.5856 -0.0373  0.2706
 9536SOL    HW140067   0.413   2.503   1.490  1.5786 -0.1227 -0.1816
 9536SOL    HW240068   0.403   2.641   1.529  1.1213  0.1878 -0.4775
 9537SOL     OW40069   2.121   1.838   6.944 -0.1996 -0.2494 -0.3978
 9537SOL    HW140070   2.160   1.877   7.022  1.2940  0.5773 -1.5545
 9537SOL    HW240071   2.198   1.806   6.896  0.8008  2.3294 -0.5238
 9538SOL     OW40072   4.205   0.982   3.238  0.2457  1.2703  0.2919
 9538SOL    HW140073   4.192   1.073   3.265 -1.4449  1.3638 -0.8553
 9538SOL    HW240074   4.270   1.001   3.170 -0.2322  1.2689 -0.1603
 9539SOL     OW40075   3.545   2.937   4.645  0.4910 -0.2342  0.8218
 9539SOL    HW140076   3.601   2.860   4.639  2.3817  1.1918 -0.1487
 9539SOL    HW240077   3.505   2.956   4.560  0.4624  0.3329  0.9590
 9540SOL     OW40078   2.582   1.718   5.089  0.6288 -0.0637 -0.1962
 9540SOL    HW140079   2.665   1.724   5.137  0.1907  0.6317  0.4778
 9540SOL    HW240080   2.555   1.631   5.119 -1.2239  0.1530 -1.2315
 9541SOL     OW40081   2.943   2.555   6.719  0.3417  0.2157 -0.2342
 9541SOL    HW140082   2.908   2.467   6.735  1.9579 -0.6273 -1.3054
 9541SOL    HW240083   2.992   2.564   6.801  0.5251  0.0561 -0.3244
 9542SOL     OW40084   4.536   3.335   8.035 -0.2694  0.1544  0.0023
 9542SOL    HW140085   4.536   3.372   8.123 -2.0763  0.9207 -0.3048
 9542SOL    HW240086   4.487   3.256   8.057  3.0512 -1.4763  1.5517
 9543SOL     OW40087   0.350   3.005   2.770 -0.2846  0.1329 -0.1060
 9543SOL    HW140088   0.413   2.980   2.703 -0.6560  1.0711 -0.8089
 9543SOL    HW240089   0.263   2.982   2.736 -0.2938 -0.5690  0.3849
 9544SOL     OW40090   1.564   0.731   5.100 -0.0903  0.1277 -0.0041
 9544SOL    HW140091   1.623   0.673   5.052 -1.9705  0.2299 -2.4510
 9544SOL    HW240092   1.497   0.673   5.135 -2.7729  2.6444 -1.0146
 9545SOL     OW40093   1.443   4.498  15.543  0.4768  0.5194  0.0187
 9545SOL    HW140094   1.470   4.546  15.621  1.8861 -1.7591  0.9488
 9545SOL    HW240095   1.401   4.432  15.599 -1.3077  0.1539 -1.7662
 9546SOL     OW40096   1.400   1.484   6.258  0.2812  0.5657  0.8599
 9546SOL    HW140097   1.412   1.557   6.196  0.6799 -1.3066 -1.2619
 9546SOL    HW240098   1.454   1.509   6.333 -0.4817 -0.4760  1.7510
 9547SOL     OW40099   0.144   0.020   6.437  0.5133 -0.2384  0.0234
 9547SOL    HW140100   0.055   4.702   6.428  1.0288 -1.3918 -0.4585
 9547SOL    HW240101   0.114   0.105   6.469 -2.8987 -0.0727 -3.5907
 9548SOL     OW40102   2.541   2.618   6.285 -0.2076 -0.2271  0.3849
 9548SOL    HW140103   2.480   2.666   6.341  0.1333  1.0816 -0.3527
 9548SOL    HW240104   2.550   2.540   6.340 -0.5696  0.4662  1.4109
 9549SOL     OW40105   2.012   3.672   8.681 -0.0912  0.0979  0.1722
 9549SOL    HW140106   1.980   3.703   8.596 -1.5107  0.7691  0.9605
 9549SOL    HW240107   2.049   3.751   8.722 -0.3475  0.3699 -0.1192
 9550SOL     OW40108   0.772   3.150  15.305  0.4858 -0.5868 -0.6611
 9550SOL    HW140109   0.853   3.173  15.259  0.0011  2.7100  0.1454
 9550SOL    HW240110   0.732   3.237  15.312  0.2129 -0.6256 -1.8597
 9551SOL     OW40111   3.905   3.258   6.653 -0.3329 -0.1371  0.3235
 9551SOL    HW140112   3.837   3.210   6.605  0.8003 -0.8545 -0.5538
 9551SOL    HW240113   3.918   3.336   6.599  0.6716 -0.1660  0.5255
 9552SOL     OW40114   2.029   3.525   1.593  0.3221  0.1293 -0.1599
 9552SOL    HW140115   1.988   3.465   1.530 -0.6348  1.4438 -0.7967
 9552SOL    HW240116   2.053   3.462   1.662 -0.1917 -0.5838 -0.6209
 9553SOL     OW40117   2.181   2.200   6.368  0.6418 -0.4136  0.1548
 9553SOL    HW140118   2.162   2.200   6.462  0.1223 -3.2236  0.0335
 9553SOL    HW240119   2.259   2.144   6.371  1.0797  0.1353 -1.1213
 9554SOL     OW40120   3.989   1.009   0.717 -0.3038 -0.1857 -0.2835
 9554SOL    HW140121   4.000   1.025   0.811 -4.1686  1.5832 -0.1295
 9554SOL    HW240122   3.956   1.097   0.697 -1.0188 -0.9949 -2.6527
 9555SOL     OW40123   1.526   3.314   4.455 -0.5560 -0.8509 -0.3452
 9555SOL    HW140124   1.571   3.318   4.539  1.3393  2.3073 -1.5254
 9555SOL    HW240125   1.588   3.265   4.400  0.1355  2.1398 -2.2160
 9556SOL     OW40126   1.782   0.380   6.871  0.4492 -0.7392 -0.4655
 9556SOL    HW140127   1.857   0.329   6.842 -1.6470 -2.1582 -3.3929
 9556SOL    HW240128   1.827   0.463   6.884 -0.1807 -0.1917 -1.8410
 9557SOL     OW40129   0.638   1.048   8.879 -0.0332  0.5680 -0.1757
 9557SOL    HW140130   0.663   0.977   8.821 -0.3229 -0.0349  0.4281
 9557SOL    HW240131   0.544   1.030   8.874 -0.1570  0.7116  1.5288
 9558SOL     OW40132   0.011   1.032   1.683  0.0149  0.3317 -0.0305
 9558SOL    HW140133   0.095   1.018   1.727  0.8687  1.5176 -1.2942
 9558SOL    HW240134   4.666   0.995   1.746  0.5167 -0.9981 -0.3117
 9559SOL     OW40135   4.253   1.380   6.020  0.9328  0.3768  0.3223
 9559SOL    HW140136   4.185   1.432   5.978  0.8042 -0.6649 -0.7317
 9559SOL    HW240137   4.207   1.338   6.093 -1.5802  2.7259  0.0953
 9560SOL     OW40138   3.533   3.590   8.547  0.0385  0.1411  0.0834
 9560SOL    HW140139   3.503   3.594   8.637  1.3276  0.9363  0.4807
 9560SOL    HW240140   3.618   3.634   8.548  0.0650  0.1751 -2.0159
 9561SOL     OW40141   2.411   2.087   0.928  0.1131  0.3487  0.3734
 9561SOL    HW140142   2.486   2.036   0.897  0.5059 -0.3524  2.5001
 9561SOL    HW240143   2.441   2.172   0.896  1.9858  0.0972  1.4880
 9562SOL     OW40144   4.099   3.015   2.526 -0.6361 -0.1817 -0.2063
 9562SOL    HW140145   4.016   3.008   2.478 -0.3996  1.2699 -0.8166
 9562SOL    HW240146   4.134   3.096   2.490 -2.6572  0.3439 -1.0152
 9563SOL     OW40147   1.890   2.182   5.968  0.2241 -0.0287 -0.6878
 9563SOL    HW140148   1.898   2.178   6.063  0.8057 -0.7583 -0.7737
 9563SOL    HW240149   1.809   2.131   5.962  0.0529  0.1493  0.0882
 9564SOL     OW40150   1.168   1.142   0.958  0.3709 -0.1670 -0.2852
 9564SOL    HW140151   1.221   1.204   0.907  3.0962 -1.4882  0.9297
 9564SOL    HW240152   1.136   1.083   0.891  1.1619 -1.1612  0.2113
 9565SOL     OW40153   4.100   0.005   4.688  0.1329  0.0646  0.3458
 9565SOL    HW140154   4.064   0.025   4.601 -0.4549 -1.3735  0.2452
 9565SOL    HW240155   4.103   4.627   4.688 -2.1913 -0.0252  0.9731
   4.71748   4.71748  17.67323
