Membrane in water
40155
    1TCq1    O1    1   3.709   2.764  10.984  0.1368 -0.0005  0.2127
    1TCq1    C1    2   3.767   2.699  11.089 -0.7119 -0.5615 -0.0648
    1TCq1    O2    3   3.757   2.583  11.122  0.4461  0.5838  1.1837
    1TCq1    C2    4   3.844   2.803  11.158  0.4025  0.3137 -0.3120
    1TCq1    C3    5   3.812   2.938  11.141 -0.0717 -0.0880 -0.2652
    1TCq1    C4    6   3.867   3.019  11.237 -0.6409  0.4506 -0.9329
    1TCq1    C5    7   3.934   2.967  11.340 -0.3372 -0.2240 -0.3359
    1TCq1    C6    8   3.978   2.838  11.342  0.3470 -0.5234  0.0699
    1TCq1    C7    9   3.921   2.753  11.254 -0.2997  0.1380 -0.2719
    1TCq1    C8   10   3.995   2.778  11.472  0.1265 -0.0640  0.5466
    1TCq1    O4   11   3.968   2.659  11.490  0.1732  0.0861 -0.5423
    1TCq1    C9   12   3.829   3.150  11.226  0.0043 -0.2388 -1.0407
    1TCq1    O5   13   3.873   3.235  11.308 -0.1181  0.4422  0.5415
    1TCq1    O6   14   3.764   3.189  11.127  1.0067  0.2046  0.2611
    1TCq1    H1   15   3.756   2.846  10.958 -1.3072  1.2990  1.7319
    1TCq1    H2   16   3.736   2.976  11.074  0.1521  1.1393  0.1793
    1TCq1    H3   17   3.954   3.033  11.424 -0.4487  0.3463 -0.7555
    1TCq1    H4   18   3.933   2.646  11.267 -1.3416 -0.2356 -2.4390
    2MPD2     C   19   4.217   2.801  11.928 -0.3998 -0.2675 -0.2573
    2MPD2    C1   20   4.279   2.894  11.853 -0.0819  0.6677  0.2796
    2MPD2    C2   21   4.231   2.915  11.722 -0.9638 -0.0507 -0.7516
    2MPD2    C3   22   4.129   2.838  11.672 -0.7366  0.3173  0.2667
    2MPD2    C4   23   4.070   2.742  11.755  0.1051 -0.1480  0.1066
    2MPD2    C5   24   4.115   2.727  11.880  0.1472 -0.2017 -0.7721
    2MPD2     H   25   4.287   2.982  11.658  0.4844 -1.3956 -0.9078
    2MPD2    H1   26   3.997   2.669  11.720 -1.1236  0.1497  2.0227
    2MPD2    H2   27   4.249   2.773  12.028  0.7872  2.8275  0.2505
    2MPD2    H3   28   4.076   2.649  11.944  1.4642 -0.6783 -0.5510
    2MPD2     N   29   4.081   2.861  11.545  0.2145 -0.3028  0.6824
    2MPD2    H5   30   4.121   2.939  11.494  0.1964  0.5732  2.0144
    2MPD2    N1   31   4.395   2.962  11.896  0.4302 -0.4851  0.2397
    2MPD2    H7   32   4.436   3.031  11.835 -2.1742 -2.1248 -3.4020
    3TCq1    O1   33   4.495   3.787  10.202 -0.2360 -0.8222  0.5185
    3TCq1    C1   34   4.564   3.770  10.315  0.3390  0.2207  0.4126
    3TCq1    O2   35   4.593   3.665  10.364 -0.0187 -0.6234  0.2006
    3TCq1    C2   36   4.565   3.902  10.377  0.6710 -0.0867 -0.2506
    3TCq1    C3   37   4.568   4.019  10.300 -0.3247 -0.1872  0.5188
    3TCq1    C4   38   4.515   4.130  10.360 -0.7459  0.0290 -0.3811
    3TCq1    C5   39   4.472   4.130  10.488 -0.4409 -0.2321 -0.0005
    3TCq1    C6   40   4.479   4.015  10.559  0.4052  0.0328 -0.1136
    3TCq1    C7   41   4.527   3.898  10.507 -0.1000 -0.7678  0.1546
    3TCq1    C8   42   4.400   4.007  10.683 -0.2053  0.1880  0.0260
    3TCq1    O4   43   4.374   3.892  10.723 -0.2021  0.3352  0.3408
    3TCq1    C9   44   4.506   4.248  10.277  0.1945 -0.6322  0.4172
    3TCq1    O5   45   4.462   4.355  10.326 -0.7901  0.1496 -0.2353
    3TCq1    O6   46   4.540   4.234  10.159  0.7026  0.0025 -0.0028
    3TCq1    H1   47   4.475   3.883  10.196 -0.1230 -0.8917 -1.0318
    3TCq1    H2   48   4.596   4.022  10.195 -1.9096  1.7345  0.1739
    3TCq1    H3   49   4.434   4.225  10.525 -2.3473 -1.5914  1.5012
    3TCq1    H4   50   4.501   3.801  10.549 -1.4851 -0.4025  0.1239
    4MPD2     C   51   4.072   4.253  11.015 -0.2827  0.6404  0.0191
    4MPD2    C1   52   4.149   4.342  10.949 -0.2420 -0.2358  0.0445
    4MPD2    C2   53   4.247   4.299  10.849  0.0252 -0.0388 -0.5299
    4MPD2    C3   54   4.269   4.166  10.823 -0.2216 -0.1174 -0.1131
    4MPD2    C4   55   4.195   4.074  10.901  0.1432  0.2935 -0.2779
    4MPD2    C5   56   4.102   4.117  10.991  0.3163  0.0537 -0.1083
    4MPD2     H   57   4.300   4.370  10.787 -0.1243 -0.5374 -1.2276
    4MPD2    H1   58   4.215   3.968  10.893 -3.6354 -0.4581  0.3814
    4MPD2    H2   59   4.008   4.270  11.100  2.4372  0.1295  2.1738
    4MPD2    H3   60   4.038   4.046  11.044  0.7062 -0.1859  0.0424
    4MPD2     N   61   4.365   4.135  10.729 -0.0299  0.6982  0.2717
    4MPD2    H5   62   4.411   4.210  10.678 -1.4681  0.0963 -1.9076
    4MPD2    N1   63   4.141   4.479  10.962  0.2570 -0.5732  0.3670
    4MPD2    H7   64   4.194   4.536  10.896  0.4513  0.0046  1.0170
    5TCq1    O1   65   3.956   1.476  10.130 -0.2996  0.2428 -0.4506
    5TCq1    C1   66   3.934   1.589  10.200 -0.4988 -0.7594 -0.8028
    5TCq1    O2   67   3.825   1.643  10.195 -0.2704 -0.0383 -0.3452
    5TCq1    C2   68   4.015   1.572  10.325  0.2696 -0.1634 -0.5094
    5TCq1    C3   69   3.941   1.547  10.437  0.6599 -0.5572  0.5666
    5TCq1    C4   70   4.011   1.501  10.546 -0.5115 -0.2849 -0.2029
    5TCq1    C5   71   4.149   1.497  10.547  0.6608  0.8409  0.0819
    5TCq1    C6   72   4.216   1.534  10.429  0.5903 -0.1597 -0.0163
    5TCq1    C7   73   4.150   1.577  10.315  0.2110 -0.2830 -0.6443
    5TCq1    C8   74   4.347   1.474  10.410 -0.4172  0.6786 -0.0356
    5TCq1    O4   75   4.371   1.381  10.483 -0.1542  0.3596  0.0034
    5TCq1    C9   76   3.939   1.465  10.664 -0.5375  0.5722  0.0820
    5TCq1    O5   77   4.015   1.429  10.754  0.1055  0.1383  0.6294
    5TCq1    O6   78   3.815   1.489  10.662  0.1916  0.7397  0.1963
    5TCq1    H1   79   4.033   1.423  10.160 -0.6995  0.9628  1.9228
    5TCq1    H2   80   3.833   1.553  10.428  0.5733 -0.3500  1.7198
    5TCq1    H3   81   4.202   1.461  10.634 -2.2482 -2.7763  0.3525
    5TCq1    H4   82   4.209   1.604  10.228  2.2445 -1.3655  0.3785
    6MPD2     C   83   4.615   1.590  10.191  0.3024  0.1051 -0.6781
    6MPD2    C1   84   4.547   1.505  10.273  1.3322  0.0588  0.1444
    6MPD2    C2   85   4.603   1.381  10.310 -0.0197 -0.1733  0.3568
    6MPD2    C3   86   0.008   1.343  10.264 -0.2342 -0.4783 -0.0587
    6MPD2    C4   87   0.074   1.439  10.184 -0.1300  0.6018 -0.1409
    6MPD2    C5   88   0.017   1.560  10.152 -0.2905 -0.0464  0.2762
    6MPD2     H   89   4.555   1.302  10.367  0.4290 -1.0258 -0.4293
    6MPD2    H1   90   0.178   1.430  10.154 -0.0595 -0.7656  0.4883
    6MPD2    H2   91   4.577   1.687  10.163 -0.3210  0.9638  3.2230
    6MPD2    H3   92   0.075   1.640  10.107  0.0241 -1.0104 -1.0334
    6MPD2     N   93   0.070   1.224  10.306  0.1871  0.5754 -0.2233
    6MPD2    H5   94   0.009   1.153  10.346 -0.4816 -0.4149 -3.0439
    6MPD2    N1   95   4.419   1.546  10.320  0.1258  0.1899 -0.0599
    6MPD2    H7   96   4.383   1.630  10.276  1.1478 -1.4798 -4.0977
    7TCq1    O1   97   2.114   1.126  13.249  0.4630 -0.0272 -0.5647
    7TCq1    C1   98   1.982   1.133  13.208 -0.7374  0.1788 -0.1807
    7TCq1    O2   99   1.937   1.202  13.115  0.6948 -0.6288 -0.0110
    7TCq1    C2  100   1.902   1.032  13.268  1.2336 -1.2258  1.4827
    7TCq1    C3  101   1.766   1.041  13.239 -0.1650  0.3283  0.2589
    7TCq1    C4  102   1.684   0.936  13.257 -0.2905  0.2113 -0.1173
    7TCq1    C5  103   1.727   0.818  13.303 -0.4659  0.4079 -0.3262
    7TCq1    C6  104   1.865   0.808  13.324 -0.1825  0.1439 -0.2873
    7TCq1    C7  105   1.954   0.908  13.309  0.3473  0.5904  0.5391
    7TCq1    C8  106   1.909   0.680  13.374  0.0533 -0.4151  0.0912
    7TCq1    O4  107   1.815   0.607  13.401  0.3967  0.3200 -0.1820
    7TCq1    C9  108   1.537   0.947  13.228  1.1181 -0.9802 -0.0326
    7TCq1    O5  109   1.465   0.846  13.249  0.2977  0.1160 -0.0235
    7TCq1    O6  110   1.495   1.064  13.194  0.8588 -0.1678 -0.0445
    7TCq1    H1  111   2.123   1.082  13.336 -2.6559  1.9776  0.7740
    7TCq1    H2  112   1.729   1.132  13.194  1.3072  0.7822 -0.0524
    7TCq1    H3  113   1.652   0.740  13.311  0.0376 -0.1199 -0.7862
    7TCq1    H4  114   2.061   0.890  13.300 -0.8792 -5.4392 -1.9758
    8MPD2     C  115   2.256   0.336  13.523  0.6000  0.9659  0.0298
    8MPD2    C1  116   2.122   0.325  13.503 -0.0850  0.2486 -1.0031
    8MPD2    C2  117   2.052   0.432  13.484 -0.2146  0.3099 -0.0802
    8MPD2    C3  118   2.109   0.558  13.468  0.2587  0.6984 -0.0644
    8MPD2    C4  119   2.244   0.570  13.504 -0.6231 -0.6149 -0.0655
    8MPD2    C5  120   2.318   0.456  13.531 -0.7861 -0.1120  0.5448
    8MPD2     H  121   1.947   0.425  13.458 -0.3006 -0.3621  0.4391
    8MPD2    H1  122   2.288   0.669  13.503 -1.6398 -0.1652 -1.8824
    8MPD2    H2  123   2.330   0.258  13.542  0.2484  1.0061  1.5812
    8MPD2    H3  124   2.425   0.470  13.547  0.1105  0.0219 -5.4730
    8MPD2     N  125   2.044   0.674  13.411 -0.1592 -0.6053 -0.3095
    8MPD2    H5  126   2.095   0.761  13.411  2.3928 -2.1136  2.1696
    8MPD2    N1  127   2.063   0.198  13.517  0.3913 -0.2707 -0.4736
    8MPD2    H7  128   2.120   0.121  13.551  1.0980  0.3667 -0.2180
    9TCq1    O1  129   4.387   4.483  10.529  0.2905  0.1494  0.0071
    9TCq1    C1  130   4.457   4.545  10.621 -1.1587  0.0969 -0.4152
    9TCq1    O2  131   4.430   4.562  10.739 -0.1357  0.4131 -0.1878
    9TCq1    C2  132   4.590   4.569  10.556  0.3985 -0.0732 -0.4463
    9TCq1    C3  133   4.585   4.616  10.427  0.0501 -0.1469 -0.1246
    9TCq1    C4  134   4.712   4.646  10.378  0.0030 -0.7364 -0.0348
    9TCq1    C5  135   0.093   4.655  10.455 -0.1885  0.4089 -0.7792
    9TCq1    C6  136   0.089   4.611  10.587 -0.1831 -0.1586 -0.6582
    9TCq1    C7  137   4.692   4.576  10.637  0.9900 -0.8827 -0.0017
    9TCq1    C8  138   0.203   4.546  10.637  0.0735  0.0508  0.0706
    9TCq1    O4  139   0.311   4.570  10.583  0.1979 -0.0918  0.4719
    9TCq1    C9  140   0.007   4.668  10.238 -0.8751  0.6439  0.1938
    9TCq1    O5  141   0.107   0.011  10.197  0.4661 -0.3184  0.0560
    9TCq1    O6  142   4.643   4.629  10.163  0.0939 -0.3415  0.3247
    9TCq1    H1  143   4.430   4.427  10.460 -2.1812 -0.5459 -0.9782
    9TCq1    H2  144   4.500   4.620  10.361  0.3982 -0.0718 -0.5704
    9TCq1    H3  145   0.184   4.696  10.412 -0.6838  2.2101 -0.1328
    9TCq1    H4  146   4.680   4.537  10.738  2.5691 -1.1429  0.0914
   10MPD2     C  147   0.399   4.381  10.791  0.6519 -0.2146  0.8400
   10MPD2    C1  148   0.262   4.385  10.824  0.9584 -0.7826  0.3697
   10MPD2    C2  149   0.215   4.335  10.942 -0.0513  0.1479  0.5954
   10MPD2    C3  150   0.301   4.268  11.025  0.4511 -0.7466  0.1883
   10MPD2    C4  151   0.434   4.260  10.983  0.0506  0.3261  0.1316
   10MPD2    C5  152   0.486   4.312  10.869  0.2977 -0.2314 -0.7771
   10MPD2     H  153   0.113   4.345  10.978  0.0402  1.9465  0.3243
   10MPD2    H1  154   0.499   4.192  11.037 -0.4624 -1.8768 -2.0269
   10MPD2    H2  155   0.439   4.432  10.704 -1.8301  0.2339 -0.0263
   10MPD2    H3  156   0.592   4.296  10.849  0.7176 -1.3151  2.2614
   10MPD2     N  157   0.264   4.198  11.141 -0.4713 -0.1614  0.3597
   10MPD2    H5  158   0.337   4.142  11.184  0.6850 -1.2445 -2.9916
   10MPD2    N1  159   0.177   4.460  10.743 -0.4242 -0.6034 -0.0730
   10MPD2    H7  160   0.076   4.455  10.759 -0.3530 -2.3259 -0.1343
   11TCq1    O1  161   1.273   3.568  14.586  0.6593 -0.0578  0.1893
   11TCq1    C1  162   1.227   3.519  14.475  0.0581  0.1714  0.5267
   11TCq1    O2  163   1.213   3.398  14.450  0.1851 -0.2614 -0.3049
   11TCq1    C2  164   1.174   3.640  14.411 -0.5056  0.4949  0.7912
   11TCq1    C3  165   1.227   3.765  14.440 -0.6129  0.4044  0.2849
   11TCq1    C4  166   1.170   3.867  14.377 -0.9233  0.0467 -0.3153
   11TCq1    C5  167   1.064   3.853  14.292  0.0476 -0.4167 -0.4726
   11TCq1    C6  168   1.031   3.724  14.256 -0.0143 -0.6512  0.9439
   11TCq1    C7  169   1.083   3.612  14.321 -0.0002  0.3806 -0.2198
   11TCq1    C8  170   0.928   3.714  14.154  0.3658 -0.1661  0.0067
   11TCq1    O4  171   0.892   3.818  14.094  0.0542  0.0714  0.2577
   11TCq1    C9  172   1.223   4.000  14.406  0.3889 -0.3101 -0.4779
   11TCq1    O5  173   1.343   4.002  14.442  0.3406  0.1867  0.2853
   11TCq1    O6  174   1.157   4.095  14.358  0.1033 -0.2618 -0.0059
   11TCq1    H1  175   1.241   3.660  14.600 -0.6758 -0.4005 -0.6263
   11TCq1    H2  176   1.307   3.782  14.512  0.0914 -1.6766 -0.0008
   11TCq1    H3  177   1.020   3.945  14.256  0.1400 -0.4188 -0.5928
   11TCq1    H4  178   1.061   3.507  14.303 -2.3418  1.1329 -1.8170
   12MPD2     C  179   0.682   3.621  14.020  0.0410  0.1514 -0.0011
   12MPD2    C1  180   0.785   3.535  14.055  0.3292 -0.2907  0.0161
   12MPD2    C2  181   0.786   3.404  14.016 -0.2889 -0.5953  0.0096
   12MPD2    C3  182   0.680   3.367  13.936  0.5208 -0.0041  0.5391
   12MPD2    C4  183   0.586   3.456  13.882 -0.5478  0.0966 -0.5945
   12MPD2    C5  184   0.592   3.587  13.926 -0.1991  0.0928 -0.0843
   12MPD2     H  185   0.854   3.329  14.055  0.9004 -0.8104 -2.4841
   12MPD2    H1  186   0.505   3.418  13.820 -1.6427  0.1509  0.8280
   12MPD2    H2  187   0.674   3.721  14.062 -0.0655  0.6103 -1.1276
   12MPD2    H3  188   0.517   3.657  13.891  0.6122 -0.1033 -2.1990
   12MPD2     N  189   0.647   3.231  13.905  0.2519  0.2023  0.2052
   12MPD2    H5  190   0.570   3.213  13.841 -2.7247  2.5075  3.1887
   12MPD2    N1  191   0.888   3.585  14.137  0.5225  0.1275 -0.4643
   12MPD2    H7  192   0.952   3.510  14.162 -0.2388  0.5474  2.7256
   13TCq1    O1  193   0.252   3.549  12.004 -0.5331  0.4643 -0.0993
   13TCq1    C1  194   0.385   3.531  12.001 -0.1031  0.1387 -0.0673
   13TCq1    O2  195   0.467   3.562  12.087  0.2042 -0.3323  0.3942
   13TCq1    C2  196   0.425   3.525  11.861 -0.0117  0.0648 -0.3512
   13TCq1    C3  197   0.561   3.526  11.829 -0.1312  0.2348 -0.5230
   13TCq1    C4  198   0.595   3.541  11.694 -0.3498 -0.9308  0.4809
   13TCq1    C5  199   0.503   3.550  11.587 -0.3435 -0.4881  0.5104
   13TCq1    C6  200   0.371   3.544  11.624 -0.3873  0.9773 -0.2436
   13TCq1    C7  201   0.334   3.526  11.756  0.9452  0.2540 -0.6599
   13TCq1    C8  202   0.265   3.588  11.534  0.6725  0.5206  0.0173
   13TCq1    O4  203   0.152   3.618  11.576  0.1189  0.4276  0.5259
   13TCq1    C9  204   0.740   3.545  11.671  0.2217 -0.2934  0.2833
   13TCq1    O5  205   0.772   3.589  11.557  0.3611 -0.8017  0.0452
   13TCq1    O6  206   0.816   3.540  11.770  0.2534 -0.0330 -0.2813
   13TCq1    H1  207   0.210   3.495  11.934 -0.1566 -0.9378  0.7650
   13TCq1    H2  208   0.637   3.513  11.905  1.9499  5.0451 -1.7747
   13TCq1    H3  209   0.541   3.568  11.487 -0.9396  0.4299  0.4545
   13TCq1    H4  210   0.228   3.502  11.768  1.1748 -0.4826 -0.0630
   14MPD2     C  211   0.319   3.705  11.191  0.2339 -0.3499 -0.5219
   14MPD2    C1  212   0.244   3.670  11.306 -0.7148  0.7568 -0.0373
   14MPD2    C2  213   0.108   3.695  11.303  0.0333 -0.5138  0.5541
   14MPD2    C3  214   0.055   3.773  11.204  0.3725  0.1205  0.0526
   14MPD2    C4  215   0.135   3.814  11.096  0.4677 -0.4419 -0.1487
   14MPD2    C5  216   0.263   3.774  11.086  0.3717  0.0389  0.0344
   14MPD2     H  217   0.043   3.652  11.379  0.3334  0.4158  1.3312
   14MPD2    H1  218   0.100   3.878  11.016  1.2490 -2.1544 -1.8873
   14MPD2    H2  219   0.425   3.686  11.179 -0.3172 -3.0601 -1.1663
   14MPD2    H3  220   0.319   3.799  10.997  1.6547  0.5558  0.9985
   14MPD2     N  221   4.641   3.795  11.206  0.0562 -0.5183  0.2198
   14MPD2    H5  222   4.595   3.766  11.292 -2.5780  0.3601 -0.8729
   14MPD2    N1  223   0.316   3.608  11.410  0.5300 -0.3924  0.4995
   14MPD2    H7  224   0.414   3.589  11.390  0.1635 -0.8862 -0.8441
   15TCq1    O1  225   1.134   3.298   1.972 -0.0000  0.4387  0.0711
   15TCq1    C1  226   1.204   3.207   1.905  0.7426  0.0278 -0.1811
   15TCq1    O2  227   1.329   3.202   1.903  0.0523  0.1068 -0.4729
   15TCq1    C2  228   1.137   3.153   1.788 -0.0664 -0.3907  0.8635
   15TCq1    C3  229   0.998   3.124   1.802 -0.5492 -0.3152  0.2541
   15TCq1    C4  230   0.932   3.084   1.694 -0.4206  0.1419  0.3095
   15TCq1    C5  231   1.000   3.069   1.574 -0.2663  0.1714  0.7636
   15TCq1    C6  232   1.131   3.093   1.564 -0.4137  0.7561 -0.0955
   15TCq1    C7  233   1.204   3.140   1.673  0.1746 -0.4383  0.5039
   15TCq1    C8  234   1.219   3.040   1.463 -0.6733 -0.1752  0.1061
   15TCq1    O4  235   1.337   3.046   1.483  0.2792 -0.1477  0.3311
   15TCq1    C9  236   0.789   3.049   1.696 -0.6192  0.9402 -0.0031
   15TCq1    O5  237   0.743   3.008   1.590 -0.0015  0.8660  0.1332
   15TCq1    O6  238   0.734   3.022   1.808  0.2981 -0.0866 -0.1651
   15TCq1    H1  239   1.048   3.318   1.929  0.1356 -0.1095 -0.4479
   15TCq1    H2  240   0.944   3.142   1.894  0.6727 -1.3557  1.1833
   15TCq1    H3  241   0.947   3.023   1.491  1.9450  0.1752 -0.6627
   15TCq1    H4  242   1.307   3.168   1.657 -1.0843  3.0672 -1.5780
   16MPD2     C  243   1.142   2.916   1.129 -0.4613 -0.6323  0.7796
   16MPD2    C1  244   1.212   2.937   1.240 -0.3349 -0.1154 -0.2411
   16MPD2    C2  245   1.328   2.866   1.253  0.6714  0.1824  0.5704
   16MPD2    C3  246   1.370   2.782   1.153  0.1324 -0.9768 -0.0876
   16MPD2    C4  247   1.293   2.757   1.041 -0.3822  0.2570 -0.1322
   16MPD2    C5  248   1.175   2.825   1.034 -0.0344  0.3260  0.1621
   16MPD2     H  249   1.390   2.877   1.340  2.4709 -0.0086 -0.7002
   16MPD2    H1  250   1.319   2.686   0.963  0.3108  0.0451  0.2917
   16MPD2    H2  251   1.041   2.954   1.117 -0.3540 -0.8165 -0.7588
   16MPD2    H3  252   1.107   2.805   0.951 -0.6722  1.6428  0.3680
   16MPD2     N  253   1.500   2.721   1.175  0.5277 -0.1867 -0.3174
   16MPD2    H5  254   1.557   2.746   1.255 -1.7754 -0.9350  1.5297
   16MPD2    N1  255   1.154   3.011   1.349 -0.4482 -0.2416 -0.0246
   16MPD2    H7  256   1.066   3.058   1.337 -0.9513 -1.2326 -0.2523
   17TCq1    O1  257   3.497   3.446  11.842 -0.1655 -0.4839 -0.2658
   17TCq1    C1  258   3.631   3.470  11.860 -0.0396  0.0293 -0.2369
   17TCq1    O2  259   3.682   3.515  11.960  0.3825 -0.7668  0.3144
   17TCq1    C2  260   3.698   3.459  11.732 -0.1361  0.4934  0.0213
   17TCq1    C3  261   3.633   3.488  11.616 -0.2349 -0.1908 -0.1558
   17TCq1    C4  262   3.702   3.476  11.502  1.1132 -0.9375  0.0390
   17TCq1    C5  263   3.830   3.433  11.504  0.2637 -0.2492  0.1059
   17TCq1    C6  264   3.891   3.397  11.621 -0.2525 -0.9481 -0.7070
   17TCq1    C7  265   3.825   3.421  11.738  1.0392 -0.0658  0.4640
   17TCq1    C8  266   4.027   3.336  11.619 -0.4458  0.0485  0.1701
   17TCq1    O4  267   4.080   3.342  11.727  0.0404 -0.8948  0.1499
   17TCq1    C9  268   3.645   3.510  11.370 -0.2185 -0.1347 -0.3641
   17TCq1    O5  269   3.701   3.502  11.258  0.0551 -0.1565 -0.2646
   17TCq1    O6  270   3.521   3.536  11.374 -0.2767  0.4162  0.2414
   17TCq1    H1  271   3.479   3.397  11.759  0.2978 -0.6667 -0.2574
   17TCq1    H2  272   3.534   3.530  11.621 -0.4099 -0.4801 -1.1511
   17TCq1    H3  273   3.894   3.443  11.418 -3.1977 -1.5464 -2.5862
   17TCq1    H4  274   3.862   3.388  11.834  2.1971  0.4863  0.2080
   18MPD2     C  275   4.305   3.265  11.550 -0.1734 -0.4887 -0.3726
   18MPD2    C1  276   4.201   3.249  11.464 -0.3430 -0.7598  0.4024
   18MPD2    C2  277   4.226   3.207  11.337 -1.0814 -0.7798  0.0774
   18MPD2    C3  278   4.356   3.167  11.297  0.4012  0.0443  0.0388
   18MPD2    C4  279   4.460   3.183  11.385  0.5127 -0.1021  0.1221
   18MPD2    C5  280   4.434   3.231  11.513  0.1657 -0.2180  0.0453
   18MPD2     H  281   4.139   3.202  11.272 -2.2843 -1.2660  1.7139
   18MPD2    H1  282   4.563   3.160  11.360  0.1511 -3.0406  1.3860
   18MPD2    H2  283   4.287   3.288  11.654  0.3619 -1.2953 -0.1038
   18MPD2    H3  284   4.520   3.251  11.575  0.9354  1.1581 -1.4607
   18MPD2     N  285   4.396   3.116  11.168 -0.6199 -0.1597 -0.0774
   18MPD2    H5  286   4.497   3.109  11.162 -0.7551 -0.7930 -1.7497
   18MPD2    N1  287   4.070   3.278  11.500 -0.2319 -0.7373  0.1730
   18MPD2    H7  288   3.996   3.273  11.430 -1.3369  2.4823  1.0980
   19TMC2    C1  289   1.588   3.463  14.529 -0.0367  0.3446  0.3564
   19TMC2    C2  290   1.556   3.356  14.604 -0.1146 -0.5268  0.1846
   19TMC2    C3  291   1.527   3.235  14.543  0.0962 -0.0533  0.6725
   19TMC2    C4  292   1.576   3.461  14.392 -0.1934  0.1181 -0.1175
   19TMC2    C5  293   1.547   3.335  14.337  0.6738  0.1432 -0.2132
   19TMC2    C6  294   1.514   3.226  14.409  0.1091 -0.4069 -0.5422
   19TMC2     C  295   1.607   3.599  14.588  0.6616  0.0286 -0.9935
   19TMC2     O  296   1.565   3.698  14.522 -0.2122 -0.3464 -0.0488
   19TMC2     H  297   1.553   3.364  14.712  1.0681 -0.5955  0.2272
   19TMC2    H1  298   1.575   3.549  14.328 -2.6229  0.0008 -0.2298
   19TMC2    H2  299   1.498   3.131  14.358 -2.2282  0.2873 -1.1128
   19TMC2    C7  300   1.565   3.304  14.194  0.5706 -0.0438  0.4766
   19TMC2    C8  301   1.549   3.124  14.633  0.0573 -0.1637 -0.1035
   19TMC2    O1  302   1.506   3.205  14.145 -0.0961  0.5367  0.6797
   19TMC2    O2  303   1.609   3.129  14.735  0.0314 -0.1977 -0.6847
   19TMC2    O5  304   1.460   3.025  14.613 -0.1079 -0.0104  0.4687
   19TMC2    H5  305   1.397   3.052  14.543  0.2185  1.1027  0.6121
   20MPD2     C  306   1.728   3.823  14.746  0.2266 -0.2978  0.2838
   20MPD2    C1  307   1.712   3.697  14.794 -0.0226  0.3200 -0.1083
   20MPD2    C2  308   1.760   3.673  14.922 -0.1803 -0.7813 -0.2146
   20MPD2    C3  309   1.803   3.771  15.007 -0.3899  0.4134  0.4287
   20MPD2    C4  310   1.819   3.899  14.957 -0.1439  0.3249  0.3001
   20MPD2    C5  311   1.784   3.919  14.830  0.0852  0.3164  0.8388
   20MPD2     H  312   1.744   3.573  14.961  1.1655 -0.4166  1.2846
   20MPD2    H1  313   1.836   3.985  15.020 -2.6708  1.3789 -0.4804
   20MPD2    H2  314   1.701   3.846  14.644  0.1269 -0.0777  0.3585
   20MPD2    H3  315   1.804   4.018  14.791 -1.3623  0.6586  0.9778
   20MPD2     N  316   1.843   3.744  15.136  0.0378 -0.1768  0.2509
   20MPD2    H5  317   1.894   3.807  15.197 -1.0868 -0.8446  1.8915
   20MPD2    N1  318   1.661   3.590  14.714  0.0148  0.7638  0.2720
   20MPD2    H7  319   1.663   3.497  14.756  0.2052  1.3024  1.4608
   21MPD2     C  320   3.654   4.106  14.227  0.2003  0.0455 -0.5909
   21MPD2    C1  321   3.740   4.009  14.274 -0.2917  0.0790 -0.3051
   21MPD2    C2  322   3.698   3.932  14.375  0.2976 -0.6529  0.2758
   21MPD2    C3  323   3.572   3.934  14.420  0.0905  0.0138  0.8199
   21MPD2    C4  324   3.481   4.020  14.360  0.9105 -0.1945  0.5422
   21MPD2    C5  325   3.527   4.108  14.269  0.0514  0.1886  0.0452
   21MPD2     H  326   3.766   3.857  14.414  1.2841 -0.5480 -1.2100
   21MPD2    H1  327   3.378   4.018  14.394  0.6089 -0.5730 -0.3973
   21MPD2    H2  328   3.690   4.180  14.156  0.3001 -0.5206 -1.1293
   21MPD2    H3  329   3.466   4.184  14.222 -1.1118 -1.6894 -1.4749
   21MPD2     N  330   3.527   3.856  14.527  0.6604 -0.1954 -0.4613
   21MPD2    H5  331   3.433   3.875  14.560  1.4762  0.3483  1.5511
   21MPD2    N1  332   3.865   3.974  14.211  0.1208 -0.4171 -0.7406
   21MPD2    H7  333   3.911   3.893  14.251  1.2885  0.3606 -0.4972
   22TCq2    C1  334   3.592   3.755  14.595  1.1107  0.6486  1.1013
   22TCq2    O2  335   3.694   3.690  14.566 -0.6115 -0.4021 -0.2662
   22TCq2    C2  336   3.505   3.694  14.700  0.1430 -0.1366 -0.6282
   22TCq2    C3  337   3.550   3.576  14.754  0.6388 -0.5552  1.0085
   22TCq2    C4  338   3.502   3.532  14.876  0.1012 -0.8253  0.1617
   22TCq2    C5  339   3.410   3.608  14.943 -0.1038 -0.0627 -0.5299
   22TCq2    C6  340   3.357   3.719  14.881 -0.1091  0.2397  0.2416
   22TCq2    C7  341   3.406   3.765  14.763 -0.4786  0.2861 -0.4327
   22TCq2    C8  342   3.264   3.807  14.958  0.0587  0.6313  0.3492
   22TCq2    O4  343   3.261   3.779  15.078 -0.0354  0.3190 -0.4027
   22TCq2    C9  344   3.562   3.427  14.956  0.1659 -0.2606  0.3809
   22TCq2    O5  345   3.668   3.371  14.908 -0.3953 -0.3825 -1.1173
   22TCq2    O6  346   3.499   3.385  15.056  0.2287  0.3637 -0.2062
   22TCq2    H2  347   3.636   3.530  14.707 -0.2875  0.4174 -1.6078
   22TCq2    H3  348   3.368   3.573  15.036 -0.3052  1.3748 -0.0768
   22TCq2    H4  349   3.367   3.850  14.710 -2.6173  0.9057  2.1423
   23MPD2     C  350   0.873   0.479  14.755  0.0928  0.0248  0.3489
   23MPD2    C1  351   0.795   0.404  14.840  0.7042  0.3698 -0.4655
   23MPD2    C2  352   0.661   0.398  14.816 -0.2429  0.2298 -0.2194
   23MPD2    C3  353   0.610   0.439  14.689  0.5147  0.1157 -0.0862
   23MPD2    C4  354   0.690   0.515  14.610  0.7227  0.0088 -0.2901
   23MPD2    C5  355   0.821   0.542  14.645  0.1748 -0.0329 -0.0564
   23MPD2     H  356   0.591   0.356  14.888  0.0247  0.6161  0.2715
   23MPD2    H1  357   0.649   0.554  14.517  0.6872 -0.0551 -0.3010
   23MPD2    H2  358   0.977   0.501  14.774  0.8821 -2.0898 -1.5246
   23MPD2    H3  359   0.886   0.602  14.582 -0.6303  0.0991 -0.7654
   23MPD2     N  360   0.482   0.413  14.645 -0.0299  0.0950 -0.9972
   23MPD2    H5  361   0.454   0.463  14.561 -0.0504  0.9534 -0.4852
   23MPD2    N1  362   0.839   0.334  14.954 -0.1802 -0.0504  0.0957
   23MPD2    H7  363   0.763   0.280  14.995 -0.7770  1.7787  1.3802
   24TCq2    C1  364   0.394   0.326  14.696  0.6758 -0.0113 -0.2132
   24TCq2    O2  365   0.417   0.237  14.777 -0.2438  0.7603 -0.0426
   24TCq2    C2  366   0.249   0.341  14.652  0.4100 -0.4709  0.4034
   24TCq2    C3  367   0.208   0.442  14.574  0.4357 -0.0178  0.4460
   24TCq2    C4  368   0.073   0.449  14.540 -0.2038  0.4503 -0.4446
   24TCq2    C5  369   4.713   0.358  14.588 -0.9138 -0.5321  0.1227
   24TCq2    C6  370   0.035   0.245  14.650 -0.7332  0.1124 -0.2785
   24TCq2    C7  371   0.165   0.237  14.678  0.2996 -0.0880  0.4555
   24TCq2    C8  372   4.683   0.122  14.642  0.4719 -0.4713  0.0420
   24TCq2    O4  373   0.024   0.017  14.655 -0.0041 -0.0943 -0.2609
   24TCq2    C9  374   0.011   0.560  14.469  0.2555  0.0965 -0.2288
   24TCq2    O5  375   4.614   0.537  14.428  0.1050 -0.2642  0.4486
   24TCq2    O6  376   0.078   0.664  14.470  0.6089  0.2878  0.0732
   24TCq2    H2  377   0.266   0.528  14.542  0.0892  0.0175 -0.0863
   24TCq2    H3  378   4.607   0.375  14.574 -0.8118  0.5245  0.5785
   24TCq2    H4  379   0.207   0.149  14.726  0.2280 -0.5060 -0.2538
   25TMC2    C1  380   4.410   2.721  11.370 -0.3482  0.1211  0.4350
   25TMC2    C2  381   4.508   2.815  11.422  0.1246 -0.0989 -0.7491
   25TMC2    C3  382   4.555   2.796  11.551  0.1638 -0.0604 -0.1679
   25TMC2    C4  383   4.349   2.624  11.452 -0.3220 -0.0048 -0.2711
   25TMC2    C5  384   4.393   2.632  11.583  0.3669  0.5722 -0.2295
   25TMC2    C6  385   4.486   2.718  11.634 -0.2002 -0.2651  0.4911
   25TMC2     C  386   4.365   2.730  11.234  0.3859 -0.0840 -0.0368
   25TMC2     O  387   4.412   2.818  11.163  0.0827 -0.8310  0.1418
   25TMC2     H  388   4.545   2.896  11.360  2.3305 -1.4192 -1.1232
   25TMC2    H1  389   4.280   2.543  11.432 -0.1589 -0.4019  0.7838
   25TMC2    H2  390   4.516   2.723  11.738 -0.1663 -0.5696  0.4949
   25TMC2    C7  391   4.346   2.537  11.684  0.5854 -0.0056  0.6197
   25TMC2    C8  392   4.632   2.909  11.602  0.1297 -0.2653  0.2291
   25TMC2    O1  393   4.374   2.547  11.801  0.4957 -0.0572  0.1157
   25TMC2    O2  394   4.596   2.982  11.690 -0.5944 -0.1939 -0.1920
   25TMC2    O5  395   0.001   2.944  11.514  0.3517 -0.4550 -0.1312
   25TMC2    H5  396   0.033   2.869  11.459  1.6803  0.2810 -0.3749
   26MPD2     C  397   4.041   2.632  10.857 -0.2616  0.4164 -0.4718
   26MPD2    C1  398   4.071   2.511  10.908  0.3217  0.1045  0.2483
   26MPD2    C2  399   4.138   2.512  11.033 -0.9503  0.1504  0.4484
   26MPD2    C3  400   4.191   2.631  11.084 -0.0481 -0.1118 -0.4819
   26MPD2    C4  401   4.174   2.753  11.021 -0.3504  0.6902  0.4398
   26MPD2    C5  402   4.082   2.753  10.913 -0.2445 -0.2832  0.7594
   26MPD2     H  403   4.147   2.420  11.090  0.4701  0.2913  0.4415
   26MPD2    H1  404   4.190   2.845  11.076 -1.3694 -0.3609  2.5041
   26MPD2    H2  405   3.967   2.640  10.778 -1.6776 -2.2917  0.5980
   26MPD2    H3  406   4.045   2.846  10.872  0.6660 -1.3644 -2.5652
   26MPD2     N  407   4.273   2.631  11.202  0.4055 -0.5123 -0.2876
   26MPD2    H5  408   4.263   2.548  11.259  0.3831  0.8271  1.6615
   26MPD2    N1  409   4.019   2.388  10.862  0.0831 -0.9183  0.1047
   26MPD2    H7  410   3.958   2.393  10.781  0.1006  0.4274  0.1722
   27TMC2    C1  411   2.958   4.102  11.846 -0.3664 -0.5410  0.1561
   27TMC2    C2  412   3.061   4.153  11.770 -0.5737 -0.3576  0.4766
   27TMC2    C3  413   3.028   4.254  11.688  0.0952 -0.3220 -0.7314
   27TMC2    C4  414   2.824   4.143  11.829 -0.2527 -0.9693 -0.4810
   27TMC2    C5  415   2.794   4.254  11.755 -0.3688 -0.1366 -0.2952
   27TMC2    C6  416   2.898   4.304  11.676 -0.6275  0.0461  0.0055
   27TMC2     C  417   3.000   4.096  11.979  0.1768 -0.1742 -0.1434
   27TMC2     O  418   3.102   4.043  12.013  0.5764 -0.0004  0.6499
   27TMC2     H  419   3.162   4.118  11.787 -0.9459 -0.8984  1.5980
   27TMC2    H1  420   2.752   4.084  11.885 -0.6272 -0.4871 -0.4530
   27TMC2    H2  421   2.893   4.392  11.613  0.0145 -1.1802 -1.7799
   27TMC2    C7  422   2.708   4.348  11.812  0.4616  0.2587  0.0699
   27TMC2    C8  423   3.121   4.313  11.597  0.0417  0.3250 -0.0667
   27TMC2    O1  424   2.687   4.322  11.929  0.5311 -0.0704 -0.2167
   27TMC2    O2  425   3.102   4.416  11.534  0.0259  0.2225 -0.7730
   27TMC2    O5  426   3.230   4.235  11.583 -0.7332  0.2531  0.3407
   27TMC2    H5  427   3.222   4.140  11.604 -0.6277 -0.0819 -1.1444
   28MPD2     C  428   2.923   4.273  12.462  0.3554 -0.3891 -0.2789
   28MPD2    C1  429   2.837   4.333  12.377 -0.3498 -0.2494  0.0587
   28MPD2    C2  430   2.851   4.317  12.242  0.2726  0.1687  0.3741
   28MPD2    C3  431   2.930   4.218  12.189  0.3479  0.0707  0.9795
   28MPD2    C4  432   3.016   4.151  12.284 -0.2432  0.0722  0.3268
   28MPD2    C5  433   3.017   4.176  12.422 -0.0650  0.5315  0.7987
   28MPD2     H  434   2.794   4.368  12.165  0.9400 -0.3666 -0.4659
   28MPD2    H1  435   3.078   4.071  12.245  1.9415  2.0975 -0.3496
   28MPD2    H2  436   2.917   4.297  12.568  0.2095  1.7440 -0.7819
   28MPD2    H3  437   3.075   4.115  12.490 -0.2079  0.4429  0.8401
   28MPD2     N  438   2.926   4.193  12.050 -0.2139  0.3139 -0.3673
   28MPD2    H5  439   2.867   4.254  11.995 -1.0777 -0.8914 -0.7848
   28MPD2    N1  440   2.746   4.415  12.435  0.5187 -0.1008 -0.4117
   28MPD2    H7  441   2.741   4.413  12.536  0.7787  1.5680 -0.3580
   29MPD2     C  442   2.249   1.986  13.685 -0.5156 -0.6657 -0.5002
   29MPD2    C1  443   2.357   1.969  13.767  0.0739  0.4030 -0.2953
   29MPD2    C2  444   2.424   2.083  13.822  0.8895 -0.4808 -0.3814
   29MPD2    C3  445   2.357   2.211  13.793 -1.2201  0.1231  0.0875
   29MPD2    C4  446   2.254   2.220  13.701  0.0045  0.2826 -0.3893
   29MPD2    C5  447   2.197   2.102  13.655 -0.1929  0.1252 -0.5462
   29MPD2     H  448   2.497   2.076  13.902  0.5381  1.3099  0.1033
   29MPD2    H1  449   2.199   2.308  13.669 -1.9494 -0.1918  1.7020
   29MPD2    H2  450   2.180   1.906  13.659 -0.5746 -0.2640 -1.5665
   29MPD2    H3  451   2.107   2.105  13.595 -1.3473 -0.8313  1.1292
   29MPD2     N  452   2.385   2.331  13.863  0.1533 -0.3787  0.1979
   29MPD2    H5  453   2.344   2.418  13.829 -1.1168 -0.7805  0.7374
   29MPD2    N1  454   2.411   1.845  13.800 -0.3926 -0.1534 -0.5555
   29MPD2    H7  455   2.473   1.838  13.880 -1.0957 -1.0214 -0.0895
   30TCq2    C1  456   2.486   2.348  13.954  0.2085 -0.1633  0.3408
   30TCq2    O2  457   2.570   2.273  13.998  0.3604 -0.3591 -0.1450
   30TCq2    C2  458   2.517   2.487  13.981 -0.6777  0.2610 -0.0685
   30TCq2    C3  459   2.409   2.567  14.003  0.3974  0.2075 -0.3666
   30TCq2    C4  460   2.439   2.698  14.040 -0.7661  1.0685 -0.0422
   30TCq2    C5  461   2.566   2.751  14.054  0.2716 -0.4094  0.2937
   30TCq2    C6  462   2.664   2.657  14.025  1.1048 -0.8954 -0.7973
   30TCq2    C7  463   2.643   2.522  14.005  0.2695 -0.0486  0.2507
   30TCq2    C8  464   2.790   2.710  13.979  0.0285  0.0696  0.1187
   30TCq2    O4  465   2.848   2.627  13.916 -0.1437  0.0890  0.0934
   30TCq2    C9  466   2.329   2.790  14.049  0.1274  0.0005 -0.2683
   30TCq2    O5  467   2.219   2.736  14.070  0.1706 -0.2517 -0.0099
   30TCq2    O6  468   2.358   2.908  14.080 -0.0915  0.6018 -0.5889
   30TCq2    H2  469   2.305   2.541  13.983  0.4491 -0.5646  0.3700
   30TCq2    H3  470   2.586   2.856  14.074 -2.2198  0.1003  0.0631
   30TCq2    H4  471   2.719   2.446  13.990  2.0375  1.4574  1.7213
   31MPD2     C  472   0.772   1.026  14.287 -0.3284  0.4658 -0.1501
   31MPD2    C1  473   0.657   1.083  14.324  0.8939  0.3948  0.4814
   31MPD2    C2  474   0.593   1.038  14.442 -0.1789 -0.4175  0.4262
   31MPD2    C3  475   0.658   0.939  14.513  0.2519  0.7671  0.1406
   31MPD2    C4  476   0.782   0.895  14.476 -0.2650  0.3096  0.7266
   31MPD2    C5  477   0.840   0.938  14.362  0.0722 -0.4650 -0.1176
   31MPD2     H  478   0.499   1.082  14.473 -0.6385 -1.0725 -0.0455
   31MPD2    H1  479   0.826   0.807  14.523 -2.2806  0.3115  2.5849
   31MPD2    H2  480   0.823   1.061  14.198  2.1633 -1.1979  0.6298
   31MPD2    H3  481   0.927   0.897  14.312  0.8857  0.7978  0.2867
   31MPD2     N  482   0.598   0.872  14.622  0.1965 -0.2243  0.3326
   31MPD2    H5  483   0.663   0.833  14.690  0.6321 -0.0288  0.0246
   31MPD2    N1  484   0.608   1.195  14.247 -0.2444  0.7588  0.7367
   31MPD2    H7  485   0.673   1.240  14.184  1.3837  0.6799  2.3527
   32TCq2    C1  486   0.466   0.854  14.641  0.0731  0.5369 -1.1922
   32TCq2    O2  487   0.378   0.887  14.563  0.0423 -0.6624 -0.1123
   32TCq2    C2  488   0.425   0.795  14.768 -0.7836 -0.6154 -0.2523
   32TCq2    C3  489   0.295   0.756  14.776 -0.1553  0.1649 -0.3583
   32TCq2    C4  490   0.256   0.675  14.881 -0.1454  0.4765  0.4570
   32TCq2    C5  491   0.351   0.640  14.980  0.1499  0.0240 -0.3311
   32TCq2    C6  492   0.485   0.666  14.966 -0.0343  0.0143 -0.1403
   32TCq2    C7  493   0.517   0.758  14.863 -0.4105 -0.5847 -1.3193
   32TCq2    C8  494   0.575   0.646  15.081 -0.2239  0.7351  0.2443
   32TCq2    O4  495   0.560   0.554  15.160 -0.1996 -0.1487 -0.3550
   32TCq2    C9  496   0.116   0.634  14.892 -1.0119  0.0688  0.1182
   32TCq2    O5  497   0.037   0.692  14.813 -0.0405  0.7064  0.3546
   32TCq2    O6  498   0.087   0.581  14.999  0.0253  0.3884  0.3562
   32TCq2    H2  499   0.232   0.786  14.694 -1.2408  1.8284  1.0931
   32TCq2    H3  500   0.315   0.586  15.066 -0.4903 -0.7841 -1.1023
   32TCq2    H4  501   0.620   0.786  14.849 -1.5244  3.5594 -1.0600
   33MPD2     C  502   4.256   3.569  10.599  0.4985 -0.4502  0.8516
   33MPD2    C1  503   4.285   3.440  10.547 -0.2079 -0.4003 -0.2448
   33MPD2    C2  504   4.287   3.426  10.410  0.2243 -0.2385 -0.4171
   33MPD2    C3  505   4.272   3.534  10.327 -0.0066 -0.0154  0.1685
   33MPD2    C4  506   4.248   3.656  10.379 -0.2581 -0.0941 -0.4531
   33MPD2    C5  507   4.245   3.677  10.512  0.0973  0.1623  0.3553
   33MPD2     H  508   4.284   3.328  10.364  0.6171 -0.1924 -0.5351
   33MPD2    H1  509   4.244   3.750  10.325 -0.2372  0.7577  1.0354
   33MPD2    H2  510   4.248   3.592  10.705  0.2668  1.0499  0.5060
   33MPD2    H3  511   4.237   3.779  10.548  0.1671  0.2885  0.0091
   33MPD2     N  512   4.294   3.536  10.187  0.3182  0.4201  0.3111
   33MPD2    H5  513   4.284   3.624  10.136 -0.4420  0.5492  0.6917
   33MPD2    N1  514   4.306   3.327  10.636 -0.4213 -0.3762 -0.1277
   33MPD2    H7  515   4.294   3.336  10.736 -0.2696  0.2833 -0.1720
   34TCq2    C1  516   4.359   3.432  10.119 -0.6847  0.4141 -0.6408
   34TCq2    O2  517   4.390   3.322  10.162 -0.8743 -0.1607  0.2453
   34TCq2    C2  518   4.384   3.456   9.975  0.1012 -0.1352 -0.1903
   34TCq2    C3  519   4.339   3.360   9.893 -0.1994  0.2079  0.0416
   34TCq2    C4  520   4.335   3.391   9.761 -0.5151  0.2349  0.0324
   34TCq2    C5  521   4.394   3.511   9.716 -0.3657 -0.9963 -0.1511
   34TCq2    C6  522   4.430   3.606   9.802  0.6115 -0.6717  0.3472
   34TCq2    C7  523   4.419   3.582   9.939 -0.2513 -0.4057 -0.5456
   34TCq2    C8  524   4.531   3.707   9.771 -0.1498  0.1815  0.0151
   34TCq2    O4  525   4.500   3.820   9.808  0.2363 -0.0980 -0.3910
   34TCq2    C9  526   4.291   3.288   9.670  0.3640  0.3252 -0.2949
   34TCq2    O5  527   4.267   3.173   9.713  0.2126  0.5674 -0.0237
   34TCq2    O6  528   4.316   3.309   9.549  0.1710 -0.1299 -0.1531
   34TCq2    H2  529   4.292   3.270   9.931 -0.8133  0.3228 -0.4447
   34TCq2    H3  530   4.397   3.527   9.609 -3.9282  2.9339  0.3431
   34TCq2    H4  531   4.461   3.655  10.007 -1.9202  0.2320 -0.1983
   35MPD2     C  532   1.958   4.527  11.504  0.0896 -0.7844 -0.2211
   35MPD2    C1  533   1.990   4.430  11.598  0.1877  0.2552 -0.2980
   35MPD2    C2  534   1.921   4.311  11.599 -0.4515 -1.1236  0.2138
   35MPD2    C3  535   1.805   4.294  11.518 -0.0926  1.2394  0.4808
   35MPD2    C4  536   1.774   4.394  11.426  0.5384  0.2911  0.0549
   35MPD2    C5  537   1.850   4.509  11.428  0.5162  0.0300 -0.6372
   35MPD2     H  538   1.942   4.235  11.672 -2.1506 -0.6635  1.1924
   35MPD2    H1  539   1.687   4.385  11.363  0.2077  0.3822  0.5016
   35MPD2    H2  540   1.999   4.628  11.505  1.7894 -1.5032  2.2041
   35MPD2    H3  541   1.826   4.580  11.350  2.8579  1.5624  0.0671
   35MPD2     N  542   1.718   4.185  11.537 -0.5200 -0.6196  0.4036
   35MPD2    H5  543   1.750   4.112  11.601  0.0738 -1.1101 -0.4431
   35MPD2    N1  544   2.094   4.464  11.687 -0.0354  0.0765 -0.2702
   35MPD2    H7  545   2.130   4.556  11.667  0.4238 -0.7309 -3.1686
   36TCq2    C1  546   1.586   4.174  11.496 -0.6000  1.1966 -0.0387
   36TCq2    O2  547   1.517   4.255  11.434 -0.2654 -0.1867 -0.0240
   36TCq2    C2  548   1.523   4.047  11.522  0.1460 -0.1358  0.0204
   36TCq2    C3  549   1.393   4.037  11.487 -0.3606 -0.1215  0.2737
   36TCq2    C4  550   1.323   3.931  11.538 -0.3482  0.3770 -0.4819
   36TCq2    C5  551   1.388   3.833  11.608 -0.2652  0.3556 -0.4495
   36TCq2    C6  552   1.518   3.850  11.639  0.1195  0.1000  0.0103
   36TCq2    C7  553   1.595   3.957  11.598  0.5488 -0.6012  0.0244
   36TCq2    C8  554   1.574   3.745  11.731  0.1262 -0.5095  0.6037
   36TCq2    O4  555   1.515   3.636  11.735  0.2341  0.1733  0.0980
   36TCq2    C9  556   1.186   3.905  11.503  0.1243 -0.3668 -0.0012
   36TCq2    O5  557   1.137   3.971  11.407 -0.0682  0.5180  0.4607
   36TCq2    O6  558   1.122   3.825  11.576 -0.1805  0.3342  0.2278
   36TCq2    H2  559   1.343   4.105  11.420  0.9905  1.4027  0.8022
   36TCq2    H3  560   1.336   3.742  11.637 -2.1945  1.0114 -1.7914
   36TCq2    H4  561   1.703   3.967  11.605  0.1649  2.6224  1.2170
   37TMC2    C1  562   4.369   0.319  11.358  0.0145 -0.0436 -0.4162
   37TMC2    C2  563   4.369   0.408  11.253  0.6055 -0.2527  0.2818
   37TMC2    C3  564   4.495   0.448  11.206 -0.2323  0.0440  0.2344
   37TMC2    C4  565   4.485   0.277  11.413  0.2772 -0.6225 -0.1212
   37TMC2    C5  566   4.606   0.310  11.360  0.3865  0.2137  0.3212
   37TMC2    C6  567   4.616   0.401  11.257 -0.4403  0.5108  0.2271
   37TMC2     C  568   4.237   0.292  11.418  0.6422 -0.3985 -1.1171
   37TMC2     O  569   4.138   0.342  11.366  0.2055 -0.1756 -0.9373
   37TMC2     H  570   4.280   0.467  11.234  1.7026  0.3244 -3.1915
   37TMC2    H1  571   4.479   0.196  11.484 -0.2438  0.0696  0.6183
   37TMC2    H2  572   4.711   0.443  11.228 -0.4452  0.1407 -0.3321
   37TMC2    C7  573   0.001   0.260  11.415 -0.7727  0.4220  0.3373
   37TMC2    C8  574   4.501   0.574  11.139 -0.2598 -0.5349  0.8428
   37TMC2    O1  575   4.717   0.205  11.524  0.0220 -0.2499  0.6778
   37TMC2    O2  576   4.566   0.669  11.187  0.2428  0.2532  0.7208
   37TMC2    O5  577   4.401   0.575  11.047  0.2339  0.4021 -0.2000
   37TMC2    H5  578   4.363   0.487  11.029 -2.1277  1.4212 -0.1679
   38MPD2     C  579   3.981   0.162  11.837  0.3392 -0.2204  0.3263
   38MPD2    C1  580   4.105   0.110  11.854 -0.8037  0.8702  0.3674
   38MPD2    C2  581   4.195   0.140  11.754  0.0759  0.6319  0.4937
   38MPD2    C3  582   4.159   0.205  11.638 -0.2923  0.0016  0.2622
   38MPD2    C4  583   4.034   0.241  11.619  0.6458 -0.1409  0.5021
   38MPD2    C5  584   3.946   0.231  11.724 -0.7715  0.1425 -0.1917
   38MPD2     H  585   4.300   0.110  11.758 -0.5014 -1.9881 -3.4120
   38MPD2    H1  586   3.993   0.301  11.538  0.2598  2.0231  2.2874
   38MPD2    H2  587   3.903   0.155  11.911 -0.1993 -0.9037 -0.3032
   38MPD2    H3  588   3.846   0.269  11.711 -1.1495 -0.4193  1.0979
   38MPD2     N  589   4.259   0.227  11.538  0.0450  0.9105 -0.1474
   38MPD2    H5  590   4.357   0.203  11.553 -0.1534  0.3582  0.2716
   38MPD2    N1  591   4.140   0.041  11.967  0.1428  0.4489  0.1219
   38MPD2    H7  592   4.235   0.007  11.959 -0.6541 -1.3548 -1.8103
   39MPD2     C  593   2.234   2.224   1.426 -0.1535 -0.2867  0.4963
   39MPD2    C1  594   2.154   2.335   1.452  0.1872 -0.4308 -0.2662
   39MPD2    C2  595   2.019   2.329   1.448  0.2523 -0.0687  0.2409
   39MPD2    C3  596   1.957   2.210   1.419  0.4565 -0.5771  0.9198
   39MPD2    C4  597   2.034   2.097   1.406 -0.7376 -0.1537 -0.4177
   39MPD2    C5  598   2.170   2.106   1.409 -0.5490  0.5283 -0.6988
   39MPD2     H  599   1.966   2.423   1.450  1.6011  0.6693  2.4833
   39MPD2    H1  600   1.987   2.000   1.390 -2.3008  0.3682  0.9378
   39MPD2    H2  601   2.342   2.225   1.424 -0.1534  0.3156  1.0687
   39MPD2    H3  602   2.224   2.020   1.372 -1.0125 -0.0479 -0.0492
   39MPD2     N  603   1.817   2.193   1.389 -0.0837  0.0109  0.3970
   39MPD2    H5  604   1.808   2.107   1.336  2.7817 -0.6018  0.9320
   39MPD2    N1  605   2.220   2.454   1.476  0.5998  0.5804  0.2936
   39MPD2    H7  606   2.320   2.457   1.461  0.2122 -1.7219 -2.6941
   40TCq2    C1  607   2.163   2.564   1.538  0.2194 -0.3088  0.0731
   40TCq2    O2  608   2.047   2.590   1.573 -0.3332 -0.0733 -0.0286
   40TCq2    C2  609   2.265   2.656   1.593 -0.5783  0.1717 -0.7613
   40TCq2    C3  610   2.228   2.745   1.691  0.1881  0.5109  0.3179
   40TCq2    C4  611   2.324   2.808   1.758 -0.6084 -0.0690  0.1968
   40TCq2    C5  612   2.457   2.782   1.739 -0.5980 -0.0948 -0.4029
   40TCq2    C6  613   2.493   2.699   1.637 -0.4314  0.6583 -0.0505
   40TCq2    C7  614   2.400   2.632   1.566  0.0030  0.2394  0.6941
   40TCq2    C8  615   2.630   2.702   1.593  0.4496 -0.3751  0.2507
   40TCq2    O4  616   2.649   2.634   1.494 -0.6052 -0.4749  0.0925
   40TCq2    C9  617   2.273   2.902   1.860  0.8668  0.2802 -0.5968
   40TCq2    O5  618   2.150   2.922   1.866  0.0161 -0.8756  0.3415
   40TCq2    O6  619   2.348   2.944   1.950 -0.7609 -0.4159  0.1574
   40TCq2    H2  620   2.130   2.790   1.687  0.1918  0.5146  0.2681
   40TCq2    H3  621   2.531   2.823   1.807 -1.5223  0.1519  0.4528
   40TCq2    H4  622   2.436   2.553   1.500 -0.1615 -0.6213  1.6324
   41TMC2    C1  623   1.043   0.026  13.188 -0.1258  0.7847 -0.8479
   41TMC2    C2  624   0.991   4.651  13.101 -0.0684 -0.4089  0.0017
   41TMC2    C3  625   1.029   4.657  12.961  0.6441 -0.0758 -0.4985
   41TMC2    C4  626   1.135   0.118  13.146 -0.2308  0.2449 -0.6668
   41TMC2    C5  627   1.171   0.112  13.013 -0.1856  0.4776 -0.1557
   41TMC2    C6  628   1.126   0.022  12.923 -0.3748  0.3138  0.6834
   41TMC2     C  629   1.008   4.722  13.330  0.0111  0.0377 -0.1820
   41TMC2     O  630   0.911   4.649  13.351 -0.0818  0.5271 -0.3357
   41TMC2     H  631   0.918   4.579  13.136 -1.0880  0.7273  0.2311
   41TMC2    H1  632   1.176   0.197  13.207 -0.2098 -0.1981 -0.1048
   41TMC2    H2  633   1.145   0.025  12.816 -1.5107 -0.3806  0.4635
   41TMC2    C7  634   1.226   0.236  12.960  0.1551  0.2121 -0.8074
   41TMC2    C8  635   0.939   4.584  12.868  0.2940 -0.2515 -0.2974
   41TMC2    O1  636   1.324   0.288  13.010 -0.1914  0.0497 -0.3150
   41TMC2    O2  637   0.819   4.561  12.883  0.8275 -0.0776 -0.5435
   41TMC2    O5  638   1.025   4.530  12.774 -0.5753  0.0716  0.0190
   41TMC2    H5  639   0.977   4.469  12.714  1.0108 -1.9340  0.8042
   42MPD2     C  640   1.019   4.677  13.622 -0.6613  0.3038  0.0930
   42MPD2    C1  641   1.100   0.047  13.557 -0.5426  0.6019  1.0088
   42MPD2    C2  642   1.189   0.118  13.632 -0.0841 -0.2913 -0.2589
   42MPD2    C3  643   1.186   0.103  13.768  0.0015  0.5109  0.3017
   42MPD2    C4  644   1.119   0.003  13.833 -0.0727  0.2808 -0.4691
   42MPD2    C5  645   1.029   4.660  13.760  0.0234  0.1153  0.2735
   42MPD2     H  646   1.259   0.182  13.579  0.0414  0.3988  0.7422
   42MPD2    H1  647   1.127   0.006  13.941  0.4003 -1.1702 -0.4693
   42MPD2    H2  648   0.946   4.611  13.578  0.0587  0.5869 -1.5595
   42MPD2    H3  649   0.961   4.587  13.803  0.6105 -2.2136 -2.7667
   42MPD2     N  650   1.266   0.176  13.851  0.2678  0.4448 -0.0647
   42MPD2    H5  651   1.260   0.165  13.952  2.4456  2.1190  0.2472
   42MPD2    N1  652   1.098   0.063  13.416 -0.0959 -0.2544 -0.0890
   42MPD2    H7  653   1.166   0.121  13.366 -2.3685 -0.5531 -3.5293
   43MPD2     C  654   2.013   3.397   0.851  0.0349  0.4600 -0.1635
   43MPD2    C1  655   2.129   3.461   0.903 -0.7303 -0.2964 -0.4575
   43MPD2    C2  656   2.106   3.530   1.020  0.7098  0.2856  0.3233
   43MPD2    C3  657   1.983   3.571   1.063 -0.5668 -0.5153  0.1564
   43MPD2    C4  658   1.866   3.517   0.999  0.1214  0.4807 -0.4146
   43MPD2    C5  659   1.887   3.445   0.890 -0.2123 -0.3057 -0.3917
   43MPD2     H  660   2.198   3.571   1.062  0.2521  1.5661  0.0932
   43MPD2    H1  661   1.766   3.541   1.032  0.4265 -2.3762  2.5900
   43MPD2    H2  662   2.023   3.330   0.766 -0.2356 -0.1035  0.2500
   43MPD2    H3  663   1.795   3.407   0.850 -0.3479 -1.6141  1.1733
   43MPD2     N  664   1.967   3.647   1.179  0.2983  0.1258 -0.2243
   43MPD2    H5  665   1.872   3.657   1.212  0.5151  0.5434  0.2710
   43MPD2    N1  666   2.259   3.446   0.844  0.1034  0.3954  0.1339
   43MPD2    H7  667   2.336   3.487   0.895 -1.5834  3.1100  0.5160
   44TCq2    C1  668   2.164   3.902   1.682 -0.0458  0.5284 -0.2240
   44TCq2    O2  669   2.283   3.906   1.651 -0.2519  0.3427 -0.1209
   44TCq2    C2  670   2.072   3.863   1.579  0.3259 -0.0548  0.5275
   44TCq2    C3  671   1.938   3.893   1.592 -0.1213  0.1135 -0.6055
   44TCq2    C4  672   1.848   3.859   1.494  0.7186  0.7673  0.3940
   44TCq2    C5  673   1.890   3.790   1.387 -0.9606  0.0740  0.5019
   44TCq2    C6  674   2.027   3.754   1.382 -0.4320 -0.3200 -0.3827
   44TCq2    C7  675   2.120   3.796   1.475 -0.4508 -0.6543 -0.0893
   44TCq2    C8  676   2.069   3.701   1.257  0.2838 -0.1635  0.0483
   44TCq2    O4  677   2.184   3.714   1.226  0.4756 -0.2092  0.5465
   44TCq2    C9  678   1.710   3.896   1.509  0.4334  0.5977  0.0296
   44TCq2    O5  679   1.662   3.952   1.605 -0.0768 -0.1787 -0.6163
   44TCq2    O6  680   1.652   3.870   1.406  0.0860  0.3464  0.1123
   44TCq2    H2  681   1.894   3.955   1.669 -1.0994  0.5560 -1.5100
   44TCq2    H3  682   1.818   3.768   1.309 -0.2343 -1.0501  0.1472
   44TCq2    H4  683   2.227   3.781   1.468 -0.3176  0.9552 -1.3507
   45TMC2    C1  684   2.856   1.039   9.114  0.5197  0.2225 -0.5499
   45TMC2    C2  685   2.769   1.058   9.013  0.2058  0.0272 -1.1302
   45TMC2    C3  686   2.794   1.153   8.918  0.4359  0.2771  0.1830
   45TMC2    C4  687   2.967   1.113   9.121  0.2501 -0.3728 -0.2979
   45TMC2    C5  688   3.003   1.194   9.022  0.0063 -0.0157 -0.4069
   45TMC2    C6  689   2.914   1.219   8.920  1.0881 -0.1026 -0.2397
   45TMC2     C  690   2.856   0.908   9.182  0.0394  0.2540 -0.7464
   45TMC2     O  691   2.940   0.878   9.262  0.2280  0.3534  0.0467
   45TMC2     H  692   2.674   1.009   9.001  0.2822 -0.0462 -1.4377
   45TMC2    H1  693   3.037   1.078   9.197  0.0279  2.2571  1.1183
   45TMC2    H2  694   2.926   1.308   8.859  0.7109  0.3023  0.2784
   45TMC2    C7  695   3.108   1.293   9.036 -0.2190 -0.4833 -0.5185
   45TMC2    C8  696   2.675   1.221   8.862  0.3655  0.7363  0.6252
   45TMC2    O1  697   3.145   1.342   8.929  0.4519  0.0334  0.5766
   45TMC2    O2  698   2.558   1.204   8.897 -0.3226 -0.4769 -0.0278
   45TMC2    O5  699   2.712   1.303   8.762  0.2293  0.1551  0.0405
   45TMC2    H5  700   2.809   1.296   8.747 -0.1218 -1.5457 -1.4928
   46MPD2     C  701   2.818   0.615   9.203 -0.0349  0.3308  0.2211
   46MPD2    C1  702   2.718   0.707   9.186  0.1653 -0.2535 -0.2338
   46MPD2    C2  703   2.590   0.653   9.182  0.4161  0.6955 -0.1465
   46MPD2    C3  704   2.564   0.526   9.214  0.3175 -0.1296  0.2764
   46MPD2    C4  705   2.664   0.441   9.243 -0.4190  1.0505  0.0351
   46MPD2    C5  706   2.790   0.488   9.234 -0.3252 -0.2643 -0.6224
   46MPD2     H  707   2.504   0.716   9.164  0.5122  0.9231  0.1991
   46MPD2    H1  708   2.652   0.333   9.254  1.0326  1.0142  1.1896
   46MPD2    H2  709   2.922   0.645   9.212  0.2851 -1.0783  1.1592
   46MPD2    H3  710   2.868   0.413   9.230  1.8145  1.8813  1.0375
   46MPD2     N  711   2.434   0.484   9.193 -0.4890 -0.6087  0.3776
   46MPD2    H5  712   2.378   0.546   9.135 -0.2978  0.3262  1.1961
   46MPD2    N1  713   2.736   0.842   9.164  0.5314  0.6609  0.0275
   46MPD2    H7  714   2.653   0.890   9.132  2.4135  3.7939 -0.2133
   47TMC2    C1  715   0.643   1.569   9.677  0.1119 -0.1720 -0.3954
   47TMC2    C2  716   0.546   1.508   9.745 -0.3807  0.2574  0.3180
   47TMC2    C3  717   0.443   1.586   9.785 -0.3395  0.0107 -0.3402
   47TMC2    C4  718   0.641   1.704   9.651 -0.4773 -0.2480  0.2957
   47TMC2    C5  719   0.531   1.779   9.675  0.1648 -0.3887  0.4679
   47TMC2    C6  720   0.429   1.719   9.748  0.1670 -0.7011  0.1534
   47TMC2     C  721   0.758   1.497   9.632 -0.4673 -0.3203 -0.6789
   47TMC2     O  722   0.851   1.573   9.606  0.4795 -0.3202 -0.0692
   47TMC2     H  723   0.545   1.402   9.767 -0.6099 -0.2665 -2.2360
   47TMC2    H1  724   0.726   1.758   9.611 -0.7146 -1.9619 -2.4926
   47TMC2    H2  725   0.347   1.778   9.787  0.6303  0.8402 -1.2370
   47TMC2    C7  726   0.516   1.922   9.648  0.9979 -0.3491  0.0089
   47TMC2    C8  727   0.356   1.523   9.870 -0.2434 -0.3362  0.8524
   47TMC2    O1  728   0.618   1.984   9.624 -0.2617  0.2210  0.3461
   47TMC2    O2  729   0.386   1.412   9.918  0.0442 -0.5766 -0.3453
   47TMC2    O5  730   0.237   1.545   9.808  0.3961 -0.3257 -0.2763
   47TMC2    H5  731   0.236   1.634   9.765 -1.1285 -1.0543 -1.7593
   48MPD2     C  732   0.986   1.303   9.606 -1.2526 -0.4971  0.4380
   48MPD2    C1  733   0.849   1.274   9.631  0.6272  0.7722 -0.0287
   48MPD2    C2  734   0.823   1.137   9.642 -0.3174 -0.4049  0.4862
   48MPD2    C3  735   0.917   1.037   9.608  0.7045  0.3900 -1.0955
   48MPD2    C4  736   1.051   1.071   9.587  0.4597 -0.1760  0.1097
   48MPD2    C5  737   1.081   1.205   9.599 -0.2039 -0.3681  0.0256
   48MPD2     H  738   0.723   1.106   9.669  0.6341 -1.6044  2.5723
   48MPD2    H1  739   1.130   1.000   9.566  1.1045  0.2127  1.2543
   48MPD2    H2  740   1.017   1.406   9.593  2.4505 -1.8936 -1.8914
   48MPD2    H3  741   1.185   1.233   9.590 -0.3781  0.3063  0.0741
   48MPD2     N  742   0.869   0.902   9.614 -0.0291 -0.0851 -0.5981
   48MPD2    H5  743   0.771   0.874   9.624 -0.4422  2.1992  1.4774
   48MPD2    N1  744   0.739   1.365   9.629  0.2037 -0.6797 -0.2233
   48MPD2    H7  745   0.642   1.335   9.623 -0.8506  2.8716 -0.5183
   49MPD2     C  746   3.845   3.274   9.399  0.3487  0.1335  0.4121
   49MPD2    C1  747   3.816   3.205   9.516  0.3357 -0.7381 -0.2706
   49MPD2    C2  748   3.854   3.265   9.637 -0.4965  1.5228 -0.2800
   49MPD2    C3  749   3.929   3.385   9.645 -0.0608  0.0610  0.0492
   49MPD2    C4  750   3.963   3.443   9.528  0.1657 -0.0877 -0.2323
   49MPD2    C5  751   3.918   3.394   9.409 -0.3182  0.0407 -0.3612
   49MPD2     H  752   3.821   3.221   9.730  1.4032  0.8503  0.0789
   49MPD2    H1  753   4.044   3.515   9.520  1.4978 -1.5205  0.3442
   49MPD2    H2  754   3.837   3.241   9.296 -0.9855 -0.3621  0.6771
   49MPD2    H3  755   3.946   3.440   9.314  0.8345 -1.0366 -0.5425
   49MPD2     N  756   3.980   3.449   9.761  0.5467  0.0657  0.2135
   49MPD2    H5  757   4.042   3.527   9.743  0.1136  0.3154 -0.2018
   49MPD2    N1  758   3.741   3.087   9.519 -0.3130 -0.0956 -0.1237
   49MPD2    H7  759   3.736   3.043   9.610  3.6396 -0.5888 -0.1335
   50TCq2    C1  760   3.709   3.010   9.409 -0.1912 -0.1773 -0.6716
   50TCq2    O2  761   3.718   3.042   9.292  0.4992 -0.0240 -0.2816
   50TCq2    C2  762   3.666   2.872   9.442 -0.2867 -0.1377 -0.1727
   50TCq2    C3  763   3.632   2.798   9.335  0.4874  0.0795 -0.0013
   50TCq2    C4  764   3.552   2.690   9.362 -0.1818 -0.2686  0.0403
   50TCq2    C5  765   3.519   2.662   9.492  0.8160 -0.0847 -0.2319
   50TCq2    C6  766   3.570   2.735   9.597  0.0615 -0.1168 -0.7284
   50TCq2    C7  767   3.647   2.843   9.574 -0.5908 -0.0164 -0.2824
   50TCq2    C8  768   3.533   2.703   9.731 -0.3583 -0.2680  0.7764
   50TCq2    O4  769   3.562   2.776   9.825 -0.0678  0.6120  0.1386
   50TCq2    C9  770   3.504   2.609   9.253  0.3267  0.6374 -0.0054
   50TCq2    O5  771   3.437   2.503   9.287 -0.2232 -0.3615 -0.1392
   50TCq2    O6  772   3.522   2.643   9.134 -0.0293  0.4193 -0.1948
   50TCq2    H2  773   3.650   2.822   9.231 -1.4542 -0.7496 -0.5201
   50TCq2    H3  774   3.456   2.576   9.510  0.0731  0.4358 -0.3592
   50TCq2    H4  775   3.678   2.907   9.656 -0.6107  1.0295 -1.0986
   51MPD2     C  776   3.958   1.788   0.769 -0.0295  0.3656  0.3246
   51MPD2    C1  777   3.957   1.646   0.762 -0.3356 -0.4602  0.5864
   51MPD2    C2  778   4.068   1.579   0.815  0.2087 -0.0608 -0.3544
   51MPD2    C3  779   4.170   1.654   0.873 -0.5388  0.3822  0.0343
   51MPD2    C4  780   4.175   1.791   0.860 -0.0431 -0.7082  0.6856
   51MPD2    C5  781   4.066   1.855   0.812 -0.3211  0.0795 -0.0567
   51MPD2     H  782   4.060   1.470   0.817 -2.6456  0.1248 -0.8073
   51MPD2    H1  783   4.253   1.849   0.907 -0.3495  0.5896 -0.4054
   51MPD2    H2  784   3.874   1.843   0.730  0.7419  1.6225  0.4573
   51MPD2    H3  785   4.053   1.963   0.813 -0.6460  0.0350  0.5762
   51MPD2     N  786   4.280   1.607   0.939  0.3692 -0.1392 -0.0716
   51MPD2    H5  787   4.353   1.672   0.966 -2.4771  3.6571 -1.5215
   51MPD2    N1  788   3.868   1.576   0.679  0.1778 -0.0325 -0.7911
   51MPD2    H7  789   3.901   1.489   0.638  1.4066 -0.3404  0.8751
   52TCq2    C1  790   4.282   1.492   1.004 -0.2745  1.1245  0.1333
   52TCq2    O2  791   4.210   1.394   0.982 -0.0714  0.1254 -0.6899
   52TCq2    C2  792   4.390   1.478   1.105 -0.0549 -0.7498  0.3129
   52TCq2    C3  793   4.466   1.365   1.107 -0.2751  0.2621  0.2404
   52TCq2    C4  794   4.555   1.351   1.210  0.1732 -0.3972  1.0443
   52TCq2    C5  795   4.561   1.445   1.302  0.2748 -0.0203 -0.8122
   52TCq2    C6  796   4.482   1.558   1.295 -0.2580 -0.2899  0.1260
   52TCq2    C7  797   4.399   1.579   1.195 -0.0028  0.3039 -0.4357
   52TCq2    C8  798   4.504   1.665   1.396 -0.4232 -0.7489  0.9578
   52TCq2    O4  799   4.407   1.732   1.430  0.1403  0.4487  0.4368
   52TCq2    C9  800   4.640   1.238   1.215 -0.1131  0.1074 -0.2207
   52TCq2    O5  801   0.008   1.245   1.295  0.2064  0.1295 -0.1243
   52TCq2    O6  802   4.630   1.148   1.121 -0.3453  0.1876  0.0226
   52TCq2    H2  803   4.447   1.281   1.041 -0.5324 -1.0177  1.9443
   52TCq2    H3  804   4.617   1.430   1.395  0.6404  0.2139 -0.9932
   52TCq2    H4  805   4.328   1.661   1.199  0.5349  0.7153  0.5128
   53TMC2    C1  806   0.535   0.065  11.850  0.3452 -0.4656 -0.3249
   53TMC2    C2  807   0.647   0.094  11.917  0.2115 -0.4503 -0.2023
   53TMC2    C3  808   0.635   0.081  12.054  0.1066 -0.8312  0.8720
   53TMC2    C4  809   0.415   0.030  11.910  0.1418 -0.3891 -0.3449
   53TMC2    C5  810   0.412   0.037  12.048  0.1535  0.0467 -0.1235
   53TMC2    C6  811   0.522   0.062  12.122  0.2989  0.1144  0.2610
   53TMC2     C  812   0.540   0.081  11.710 -0.1220  0.4465  0.2099
   53TMC2     O  813   0.645   0.059  11.650 -0.3479  0.5419  0.1261
   53TMC2     H  814   0.743   0.105  11.868  0.3248 -0.2632  0.0580
   53TMC2    H1  815   0.325   4.718  11.860  0.2380  0.0927 -0.8497
   53TMC2    H2  816   0.530   0.047  12.229 -1.3512 -1.6706  0.1506
   53TMC2    C7  817   0.276   0.061  12.108  0.7375 -0.4199  0.4699
   53TMC2    C8  818   0.753   0.072  12.136  0.0120 -0.5822 -0.7031
   53TMC2    O1  819   0.178   0.022  12.041 -0.3835  0.1615  0.2150
   53TMC2    O2  820   0.743   0.089  12.259 -1.2613 -0.2189 -0.3349
   53TMC2    O5  821   0.813   4.691  12.088 -0.6365  0.0881  0.3499
   53TMC2    H5  822   0.786   4.663  11.998  1.3282 -2.4571  0.5724
   54MPD2     C  823   0.482   0.084  11.422  0.0501  0.0761 -0.3757
   54MPD2    C1  824   0.385   0.120  11.522  0.1312 -0.6625 -0.0731
   54MPD2    C2  825   0.262   0.163  11.484  0.1113  0.6828 -0.3533
   54MPD2    C3  826   0.234   0.203  11.358  0.8150 -0.2415 -0.5081
   54MPD2    C4  827   0.328   0.174  11.256  0.2253 -0.7053  0.2617
   54MPD2    C5  828   0.443   0.105  11.293  0.6711  0.5242 -0.2304
   54MPD2     H  829   0.198   0.181  11.570  0.3309 -0.7337  0.1060
   54MPD2    H1  830   0.319   0.200  11.151  1.7885 -1.2963 -0.0129
   54MPD2    H2  831   0.573   0.029  11.440  0.7795  1.8105  1.1885
   54MPD2    H3  832   0.515   0.064  11.223  0.3457  0.2110 -0.3830
   54MPD2     N  833   0.103   0.259  11.327 -0.0102  0.5678  0.0847
   54MPD2    H5  834   0.082   0.285  11.231  0.7775  0.5896 -0.0875
   54MPD2    N1  835   0.414   0.115  11.667  0.2361 -0.5463 -0.0329
   54MPD2    H7  836   0.344   0.141  11.735  0.4462  0.6723 -0.2969
   55MPD2     C  837   0.897   2.661  17.632 -0.7813 -0.0842 -0.0965
   55MPD2    C1  838   0.868   2.580   0.046 -0.5405 -0.1671  0.7963
   55MPD2    C2  839   0.779   2.619   0.148  0.4382  0.4120 -0.0976
   55MPD2    C3  840   0.717   2.739   0.140  0.5713  0.6599 -0.3258
   55MPD2    C4  841   0.738   2.816   0.027 -0.7830 -0.0396  0.4063
   55MPD2    C5  842   0.833   2.781  17.628 -0.1972  0.3485  0.2637
   55MPD2     H  843   0.761   2.560   0.237  1.7442 -0.9702 -0.7555
   55MPD2    H1  844   0.682   2.905   0.002  0.0928  0.4645  0.2321
   55MPD2    H2  845   0.970   2.634  17.557  0.8353  3.0265  0.3416
   55MPD2    H3  846   0.836   2.840  17.536 -0.8897  0.8100  0.5393
   55MPD2     N  847   0.621   2.763   0.238  1.1790 -0.4143 -0.1516
   55MPD2    H5  848   0.607   2.685   0.302 -1.0322 -0.9542 -1.2988
   55MPD2    N1  849   0.921   2.447   0.050 -0.6259 -0.1301 -0.3044
   55MPD2    H7  850   1.004   2.424  17.688 -0.6764  0.5566 -0.6609
   56TCq2    C1  851   0.878   2.334   0.128  0.2647  0.2124  0.7218
   56TCq2    O2  852   0.799   2.335   0.223  0.3416  0.4260 -0.6286
   56TCq2    C2  853   0.938   2.202   0.103 -0.1658  0.5510  0.0920
   56TCq2    C3  854   1.036   2.192   0.014  0.3417  0.2100  0.3521
   56TCq2    C4  855   1.086   2.063   0.001 -0.2285 -0.2026 -0.2498
   56TCq2    C5  856   1.054   1.952   0.073 -0.0140  0.0755 -0.2688
   56TCq2    C6  857   0.956   1.964   0.162  0.4506 -0.6676  0.0761
   56TCq2    C7  858   0.901   2.093   0.182  0.3779 -0.0141  0.1953
   56TCq2    C8  859   0.881   1.841   0.198  0.1235 -0.8286  0.1011
   56TCq2    O4  860   0.899   1.745   0.124  0.1836 -0.3291 -0.4319
   56TCq2    C9  861   1.165   2.034  17.577 -0.2932 -0.0519  0.4286
   56TCq2    O5  862   1.157   2.119  17.481 -0.0679 -0.2987  0.3719
   56TCq2    O6  863   1.249   1.936  17.590  0.9687  0.1136  0.1452
   56TCq2    H2  864   1.062   2.268  17.634 -0.5654 -1.2870 -1.5353
   56TCq2    H3  865   1.096   1.858   0.039  0.4766  0.2711 -0.2043
   56TCq2    H4  866   0.813   2.102   0.244  1.6154 -1.1920  2.1177
   57TMC2    C1  867   4.674   3.886  13.841  1.0214 -0.0189 -0.2585
   57TMC2    C2  868   4.712   3.776  13.915 -0.6883  0.1657 -0.1511
   57TMC2    C3  869   0.095   3.701  13.871 -0.2441  0.2645 -0.0618
   57TMC2    C4  870   0.002   3.889  13.711 -0.4804 -0.3517 -0.0455
   57TMC2    C5  871   0.099   3.804  13.667  0.9974 -0.0014 -0.0953
   57TMC2    C6  872   0.154   3.708  13.750  0.4776  0.0628 -0.7087
   57TMC2     C  873   4.562   3.965  13.872  0.8485 -0.3341  0.4952
   57TMC2     O  874   4.507   4.001  13.770  0.6552  0.1804 -0.1840
   57TMC2     H  875   4.653   3.752  14.002 -1.0350 -0.0306 -0.4416
   57TMC2    H1  876   4.689   3.976  13.657  1.2927  1.2864  1.4691
   57TMC2    H2  877   0.237   3.641  13.732  0.0212 -1.7433  3.8821
   57TMC2    C7  878   0.149   3.827  13.535  0.1565  0.0003  0.3487
   57TMC2    C8  879   0.172   3.625  13.968  0.6303  0.0660 -0.2814
   57TMC2    O1  880   0.092   3.925  13.481  0.0899 -0.1694 -0.4967
   57TMC2    O2  881   0.248   3.532  13.938  0.0288  0.0888 -0.0993
   57TMC2    O5  882   0.179   3.693  14.080 -0.0996 -0.5119 -0.0054
   57TMC2    H5  883   0.131   3.779  14.083 -0.3003 -0.6555  0.9966
   58MPD2     C  884   4.287   4.282  14.168 -0.3026  0.2633  0.4360
   58MPD2    C1  885   4.259   4.232  14.043  0.6108 -0.1758 -0.8884
   58MPD2    C2  886   4.348   4.137  13.987  0.7315  0.0495 -0.1030
   58MPD2    C3  887   4.460   4.093  14.058 -0.0113  0.4524 -0.4849
   58MPD2    C4  888   4.486   4.148  14.184  0.2314  0.0282 -0.0306
   58MPD2    C5  889   4.397   4.240  14.233  0.1251 -0.8066 -0.0016
   58MPD2     H  890   4.335   4.085  13.892 -1.1611  1.5729 -0.6778
   58MPD2    H1  891   4.578   4.126  14.238  0.0575  0.4784  0.4523
   58MPD2    H2  892   4.226   4.357  14.217 -1.7375 -0.7645  0.2146
   58MPD2    H3  893   4.420   4.286  14.328 -0.4878 -0.7604  0.1222
   58MPD2     N  894   4.548   3.995  14.002  0.6967 -0.3068  0.5118
   58MPD2    H5  895   4.625   3.976  14.066  1.1296 -1.7121 -0.4224
   58MPD2    N1  896   4.142   4.262  13.975 -0.1552  0.6934  0.0715
   58MPD2    H7  897   4.133   4.229  13.879 -1.0407  0.6538  0.1689
   59MPD2     C  898   2.174   4.149  13.369 -0.3511 -0.1623 -0.9676
   59MPD2    C1  899   2.263   4.163  13.270  0.2692 -0.4126 -0.0753
   59MPD2    C2  900   2.361   4.257  13.291  0.0633  0.0600  0.1870
   59MPD2    C3  901   2.384   4.315  13.409 -0.0658 -0.5331  0.0992
   59MPD2    C4  902   2.289   4.307  13.513 -0.8436  0.5769 -0.2611
   59MPD2    C5  903   2.177   4.232  13.480 -0.1016  0.0548 -0.3009
   59MPD2     H  904   2.440   4.260  13.216  0.7395 -1.2602  0.8475
   59MPD2    H1  905   2.297   4.374  13.597 -2.1581 -0.7426  0.9118
   59MPD2    H2  906   2.085   4.088  13.361 -0.7555  0.0300  2.2145
   59MPD2    H3  907   2.107   4.223  13.562 -0.2438  0.0650 -0.4219
   59MPD2     N  908   2.490   4.402  13.435  0.2393  0.1940 -0.0274
   59MPD2    H5  909   2.491   4.446  13.527  0.8208 -0.7423  0.4161
   59MPD2    N1  910   2.246   4.098  13.146  0.3109 -0.1085 -0.0400
   59MPD2    H7  911   2.181   4.020  13.149  0.9698 -0.5512  2.5266
   60TCq2    C1  912   2.319   4.123  13.030  0.0467  0.3167 -0.5151
   60TCq2    O2  913   2.396   4.214  12.999 -0.4473 -0.2968 -0.1797
   60TCq2    C2  914   2.271   4.039  12.920 -0.0165  0.1318  0.6348
   60TCq2    C3  915   2.182   3.933  12.943  0.0794 -0.1297  0.1135
   60TCq2    C4  916   2.199   3.820  12.875  0.0969 -0.2327  0.2272
   60TCq2    C5  917   2.293   3.802  12.778  0.1021  0.0161 -0.3009
   60TCq2    C6  918   2.378   3.908  12.762  0.1189 -0.1072 -0.4542
   60TCq2    C7  919   2.357   4.032  12.813 -0.8035  0.2875  0.2780
   60TCq2    C8  920   2.466   3.890  12.645  0.4999 -0.0005 -0.8470
   60TCq2    O4  921   2.508   3.773  12.636 -0.3078  0.9244  0.1116
   60TCq2    C9  922   2.113   3.710  12.909 -0.0992 -0.2224 -0.2345
   60TCq2    O5  923   2.085   3.626  12.813 -0.0451 -0.2375  0.2140
   60TCq2    O6  924   2.057   3.705  13.020 -0.3258  0.3115  0.0431
   60TCq2    H2  925   2.121   3.927  13.032  0.2173 -2.5357  0.0454
   60TCq2    H3  926   2.303   3.714  12.716  1.9177  0.4018 -0.5581
   60TCq2    H4  927   2.431   4.111  12.802 -0.4915 -0.0845 -0.3099
   61MPD2     C  928   1.436   0.919  15.115  0.1774  0.4385  0.4146
   61MPD2    C1  929   1.506   1.033  15.140  0.8810 -0.6736 -0.2939
   61MPD2    C2  930   1.623   1.058  15.061 -0.2591  0.2492  0.4794
   61MPD2    C3  931   1.664   0.970  14.961  0.1149 -0.2161 -0.2260
   61MPD2    C4  932   1.599   0.856  14.950 -0.6884  0.2274 -0.4031
   61MPD2    C5  933   1.490   0.828  15.025  0.0260 -0.2385 -0.2952
   61MPD2     H  934   1.678   1.151  15.078  1.7749 -0.7444 -0.7579
   61MPD2    H1  935   1.639   0.780  14.884  1.8633 -0.1582  1.5790
   61MPD2    H2  936   1.347   0.895  15.172  1.0794 -3.0799  0.3367
   61MPD2    H3  937   1.452   0.727  15.018 -1.5556  0.3868 -0.8890
   61MPD2     N  938   1.771   0.997  14.870  0.2514 -0.5313 -0.2325
   61MPD2    H5  939   1.786   0.926  14.799  1.6714 -0.2950 -0.1731
   61MPD2    N1  940   1.472   1.127  15.241  0.1639  0.5884 -0.0929
   61MPD2    H7  941   1.530   1.210  15.253  0.4181  0.6646 -1.9198
   62TCq2    C1  942   1.366   1.114  15.333 -0.3574  0.2829 -0.1048
   62TCq2    O2  943   1.274   1.032  15.341 -0.5023 -0.0425 -0.0051
   62TCq2    C2  944   1.369   1.210  15.441  0.6941 -0.2166  0.5028
   62TCq2    C3  945   1.295   1.177  15.543  0.5264 -0.1274 -0.3066
   62TCq2    C4  946   1.265   1.278  15.634 -0.5395  0.5801 -0.5659
   62TCq2    C5  947   1.306   1.409  15.625  0.0937 -0.0625 -0.3657
   62TCq2    C6  948   1.391   1.437  15.519  0.8033  0.0555  0.0317
   62TCq2    C7  949   1.430   1.338  15.428  0.2718  0.9468  0.5242
   62TCq2    C8  950   1.443   1.569  15.496  0.1314  0.1482  0.8419
   62TCq2    O4  951   1.509   1.582  15.395  0.3955 -0.4378  0.1835
   62TCq2    C9  952   1.186   1.243  15.748 -1.0733 -0.8090 -0.6113
   62TCq2    O5  953   1.173   1.332  15.833 -0.1718 -0.4466 -0.2845
   62TCq2    O6  954   1.171   1.120  15.768  0.4274 -0.2995  0.3523
   62TCq2    H2  955   1.257   1.077  15.559  1.8609 -0.4879  0.6342
   62TCq2    H3  956   1.257   1.488  15.681 -0.3994 -0.7132  0.1077
   62TCq2    H4  957   1.478   1.375  15.338 -2.6634 -2.6133 -2.5448
   63TMC2    C1  958   1.376   0.553  11.085 -0.8459  0.2316  0.5740
   63TMC2    C2  959   1.446   0.469  11.170  0.6838  0.5109  0.3675
   63TMC2    C3  960   1.582   0.495  11.183 -0.7454 -0.2733 -0.2099
   63TMC2    C4  961   1.452   0.643  11.018 -0.2010  0.0042 -0.5630
   63TMC2    C5  962   1.590   0.655  11.020  0.0876 -0.2628 -0.0531
   63TMC2    C6  963   1.655   0.581  11.107  0.1693 -0.3217  0.0939
   63TMC2     C  964   1.281   0.482  11.005 -0.8453 -0.2096  0.6557
   63TMC2     O  965   1.255   0.369  11.035 -0.3751  0.7321 -0.0638
   63TMC2     H  966   1.393   0.402  11.236 -0.5038 -0.3702 -1.4540
   63TMC2    H1  967   1.392   0.721  10.973  0.8896  1.3993  0.3962
   63TMC2    H2  968   1.761   0.601  11.115  0.1371 -1.4796  3.5389
   63TMC2    C7  969   1.654   0.755  10.937  0.2003  0.3217  0.1158
   63TMC2    C8  970   1.659   0.429  11.294 -0.5519  0.3411 -0.7823
   63TMC2    O1  971   1.769   0.797  10.963  0.4181 -0.5868  0.4915
   63TMC2    O2  972   1.756   0.480  11.345 -0.0435  0.0230 -0.0286
   63TMC2    O5  973   1.638   0.297  11.266  0.1412  0.0609  0.3002
   63TMC2    H5  974   1.555   0.275  11.219 -0.3598 -0.1342  1.2657
   64MPD2     C  975   1.077   0.437  10.539 -0.3625  0.4529  0.0775
   64MPD2    C1  976   1.174   0.362  10.606 -0.1840  0.2069  0.1983
   64MPD2    C2  977   1.223   0.400  10.733 -0.3067  0.3843  0.3999
   64MPD2    C3  978   1.176   0.514  10.789  0.1027 -0.5199  0.4726
   64MPD2    C4  979   1.081   0.589  10.728  0.0015  0.2009 -0.2405
   64MPD2    C5  980   1.032   0.552  10.605  0.6191 -0.5934 -0.2170
   64MPD2     H  981   1.300   0.340  10.780 -0.1615  0.4124  0.2011
   64MPD2    H1  982   1.042   0.678  10.777 -0.9815 -0.7081  0.6261
   64MPD2    H2  983   1.043   0.407  10.441 -1.1850  2.1560 -0.1599
   64MPD2    H3  984   0.952   0.609  10.559 -0.7344 -0.1095  2.7015
   64MPD2     N  985   1.226   0.567  10.908  0.3109 -0.4349  0.2993
   64MPD2    H5  986   1.223   0.667  10.926 -2.7720 -0.8309  2.0435
   64MPD2    N1  987   1.240   0.244  10.547  0.2312 -0.2713  0.0027
   64MPD2    H7  988   1.306   0.197  10.608  1.5839  0.9498 -0.5240
   65MPD2     C  989   1.747   0.494  15.851  0.1788  0.2413 -0.2580
   65MPD2    C1  990   1.817   0.454  15.744 -0.6222  0.1206 -0.1687
   65MPD2    C2  991   1.844   0.317  15.717 -0.1185  0.6175 -0.5041
   65MPD2    C3  992   1.798   0.220  15.808  0.0823 -0.2742 -0.0699
   65MPD2    C4  993   1.729   0.264  15.923  0.0557  0.5585 -0.0746
   65MPD2    C5  994   1.707   0.397  15.943  0.4439 -0.0940  0.6545
   65MPD2     H  995   1.909   0.281  15.638 -0.1362 -0.7959  0.1177
   65MPD2    H1  996   1.690   0.186  15.987 -1.8531  2.8367  1.5337
   65MPD2    H2  997   1.719   0.598  15.865 -0.8766  0.1641 -1.7717
   65MPD2    H3  998   1.657   0.421  16.036 -0.2179 -1.6837  0.7119
   65MPD2     N  999   1.780   0.083  15.778 -0.2001 -0.3641  0.1861
   65MPD2    H5 1000   1.730   0.027  15.846 -2.5262  0.0340 -1.1924
   65MPD2    N1 1001   1.860   0.537  15.640  0.3785 -0.3989 -0.9613
   65MPD2    H7 1002   1.925   0.486  15.580  0.3955 -0.9581 -0.4762
   66TCq2    C1 1003   1.837   0.675  15.623 -0.0307 -0.2671  0.6153
   66TCq2    O2 1004   1.756   0.747  15.682  0.2150 -0.2774  0.0349
   66TCq2    C2 1005   1.919   0.729  15.510 -0.2359  0.2992  0.1837
   66TCq2    C3 1006   2.027   0.665  15.471  0.0132  0.4799  0.4988
   66TCq2    C4 1007   2.098   0.720  15.369 -0.7085  0.2327  0.0919
   66TCq2    C5 1008   2.053   0.829  15.303  0.4089 -0.2725  0.1379
   66TCq2    C6 1009   1.943   0.895  15.352  0.6241 -0.5120  0.1697
   66TCq2    C7 1010   1.875   0.845  15.454 -0.3312 -0.5563  0.5012
   66TCq2    C8 1011   1.917   1.036  15.302  0.4060  0.5380 -0.0837
   66TCq2    O4 1012   1.977   1.075  15.204 -0.1820 -0.2012  0.5258
   66TCq2    C9 1013   2.213   0.656  15.324 -0.0828 -0.3036  0.2610
   66TCq2    O5 1014   2.297   0.720  15.257 -0.2045  0.1270 -0.4517
   66TCq2    O6 1015   2.237   0.544  15.373 -0.2724  0.0280 -0.1636
   66TCq2    H2 1016   2.073   0.578  15.519 -1.7520  0.1426  1.5914
   66TCq2    H3 1017   2.110   0.876  15.224  2.6583 -1.5493  1.0005
   66TCq2    H4 1018   1.782   0.882  15.495  0.4122  1.1534  0.6788
   67MPD2     C 1019   2.424   4.225  14.390  0.1598  0.2755  0.6123
   67MPD2    C1 1020   2.340   4.333  14.429 -0.0113 -0.3620  0.8111
   67MPD2    C2 1021   2.212   4.346  14.380  0.0965  0.1947 -0.5317
   67MPD2    C3 1022   2.167   4.251  14.280  0.6576  0.0214  0.0304
   67MPD2    C4 1023   2.251   4.147  14.243 -0.1973  0.2867  0.6921
   67MPD2    C5 1024   2.371   4.131  14.300 -0.1272  0.3865  0.2849
   67MPD2     H 1025   2.147   4.428  14.408 -0.7389  0.1181 -2.2535
   67MPD2    H1 1026   2.221   4.070  14.173  1.4885  0.1378  0.1330
   67MPD2    H2 1027   2.525   4.208  14.427  0.2794  0.3626  0.3256
   67MPD2    H3 1028   2.439   4.052  14.273 -0.7326  0.3476 -1.1314
   67MPD2     N 1029   2.037   4.265  14.219  0.6574 -0.2743  0.1012
   67MPD2    H5 1030   1.984   4.341  14.259 -1.9933 -3.8644  3.3536
   67MPD2    N1 1031   2.366   4.422  14.535 -0.2702 -0.1706 -0.3909
   67MPD2    H7 1032   2.298   4.492  14.559 -1.2048 -1.0933 -0.3625
   68TCq2    C1 1033   2.476   4.415  14.614 -0.3187  0.4439  0.9453
   68TCq2    O2 1034   2.568   4.339  14.617 -0.3802 -0.2650 -0.0516
   68TCq2    C2 1035   2.463   4.510  14.722  0.1037 -0.3159  0.9697
   68TCq2    C3 1036   2.359   4.598  14.716 -0.2009  0.5966 -0.1475
   68TCq2    C4 1037   2.337   4.676  14.824 -0.3740 -0.2766  0.0673
   68TCq2    C5 1038   2.416   4.669  14.933 -0.4158  0.8161  0.3709
   68TCq2    C6 1039   2.518   4.578  14.939 -0.2760 -0.3385  0.0951
   68TCq2    C7 1040   2.542   4.494  14.833  0.1185 -0.1957 -0.5994
   68TCq2    C8 1041   2.623   4.583  15.039  0.5019 -0.2638 -0.0647
   68TCq2    O4 1042   2.723   4.530  15.000 -0.2598 -0.0396  0.1228
   68TCq2    C9 1043   2.243   0.067  14.815 -0.3395 -0.4582 -0.1202
   68TCq2    O5 1044   2.198   0.090  14.702  0.4222 -0.0249  0.3361
   68TCq2    O6 1045   2.208   0.121  14.923  0.1674  0.0060 -0.6086
   68TCq2    H2 1046   2.297   4.622  14.630 -0.8115  1.0922  0.4316
   68TCq2    H3 1047   2.388   0.012  15.014  0.7539  4.6508 -2.3248
   68TCq2    H4 1048   2.626   4.425  14.838  1.0327  0.8839 -1.1564
   69TMC2    C1 1049   4.422   0.834  11.851 -0.3144  0.8678 -0.0286
   69TMC2    C2 1050   4.304   0.879  11.801 -0.4865  0.6019  1.1801
   69TMC2    C3 1051   4.312   0.960  11.695  0.9924 -0.1485  0.6144
   69TMC2    C4 1052   4.542   0.850  11.795 -0.0019 -1.0693  0.0136
   69TMC2    C5 1053   4.546   0.949  11.702 -0.3272 -0.6999  0.0047
   69TMC2    C6 1054   4.430   0.999  11.641  0.6495  0.2069  0.2450
   69TMC2     C 1055   4.414   0.774  11.988 -0.0613 -0.1849 -0.7697
   69TMC2     O 1056   4.307   0.734  12.025  0.0380  0.2476 -0.0651
   69TMC2     H 1057   4.207   0.849  11.838 -0.8203  2.2685  1.6338
   69TMC2    H1 1058   4.636   0.812  11.834 -0.7625 -1.7858  1.1612
   69TMC2    H2 1059   4.434   1.064  11.555 -0.3919  1.3627  1.0724
   69TMC2    C7 1060   4.676   0.964  11.639 -0.9192  0.2363 -0.1002
   69TMC2    C8 1061   4.201   0.990  11.618 -0.7465  0.1155  0.0803
   69TMC2    O1 1062   0.032   0.871  11.653  0.4682 -0.6919 -0.4644
   69TMC2    O2 1063   4.210   1.040  11.507  0.1327  0.0241  0.1466
   69TMC2    O5 1064   4.087   0.995  11.698 -0.1503  0.1922 -0.4410
   69TMC2    H5 1065   4.099   0.969  11.792  0.5671  1.3259 -0.2234
   70MPD2     C 1066   4.691   0.776  12.239 -0.8191  0.7412  0.2231
   70MPD2    C1 1067   4.566   0.753  12.191  0.0942 -0.5556 -0.5345
   70MPD2    C2 1068   4.481   0.688  12.279 -0.1620 -0.3213  0.3717
   70MPD2    C3 1069   4.515   0.674  12.415  0.5978  0.1451  0.3220
   70MPD2    C4 1070   4.642   0.715  12.458  0.2329 -0.0745 -0.2007
   70MPD2    C5 1071   0.012   0.746  12.372 -0.3461  0.5750 -0.4177
   70MPD2     H 1072   4.388   0.649  12.239  1.0503 -0.4957 -2.2398
   70MPD2    H1 1073   4.666   0.721  12.564  2.0972 -0.0437 -0.6305
   70MPD2    H2 1074   0.044   0.817  12.173 -3.0188  1.8542 -1.5791
   70MPD2    H3 1075   0.109   0.790  12.394 -0.8904  1.4210  0.2875
   70MPD2     N 1076   4.438   0.621  12.521  0.8264  0.3110 -0.3309
   70MPD2    H5 1077   4.480   0.607  12.613 -0.4433  1.1031  0.3625
   70MPD2    N1 1078   4.530   0.789  12.052 -0.1852  0.2337 -0.1376
   70MPD2    H7 1079   4.605   0.840  12.007  0.9786  0.2626  1.8240
   71TMC2    C1 1080   1.370   1.785   1.795  0.2076  0.2732  0.3977
   71TMC2    C2 1081   1.408   1.774   1.924 -0.2334 -0.5315 -0.7442
   71TMC2    C3 1082   1.337   1.849   2.011  0.0517 -0.9271 -0.3513
   71TMC2    C4 1083   1.288   1.886   1.753  0.0945  0.4808 -0.1136
   71TMC2    C5 1084   1.219   1.953   1.847 -0.0199  0.6696 -0.1288
   71TMC2    C6 1085   1.233   1.919   1.980  0.2669 -0.5348  0.3225
   71TMC2     C 1086   1.445   1.698   1.699 -0.6927  0.0139  0.1117
   71TMC2     O 1087   1.424   1.735   1.585  0.1852  0.4550  0.6468
   71TMC2     H 1088   1.476   1.700   1.965  0.9912 -0.0769 -1.9605
   71TMC2    H1 1089   1.285   1.906   1.646 -0.2666 -1.6372 -0.5097
   71TMC2    H2 1090   1.171   1.964   2.057  2.5653  2.6639  0.3161
   71TMC2    C7 1091   1.076   1.989   1.819 -0.2453  0.0419 -0.6729
   71TMC2    C8 1092   1.356   1.823   2.155  0.2763  0.3527  0.3121
   71TMC2    O1 1093   1.006   2.028   1.911  0.2149 -0.2160  0.0838
   71TMC2    O2 1094   1.264   1.809   2.237  0.1324  0.1422  0.2703
   71TMC2    O5 1095   1.485   1.788   2.180 -0.0802 -0.0870 -0.5281
   71TMC2    H5 1096   1.550   1.824   2.117  1.3324 -2.0379 -0.1820
   72MPD2     C 1097   1.722   1.312   1.511  0.0571  0.8930 -0.4768
   72MPD2    C1 1098   1.694   1.436   1.456  0.4306  1.1706 -0.7678
   72MPD2    C2 1099   1.606   1.518   1.532 -0.0980 -0.2278  0.1674
   72MPD2    C3 1100   1.571   1.492   1.664 -0.2652 -0.0690 -0.2684
   72MPD2    C4 1101   1.611   1.367   1.716  0.6636  0.1460  0.0359
   72MPD2    C5 1102   1.685   1.283   1.642 -0.0261  0.4865 -0.6007
   72MPD2     H 1103   1.588   1.614   1.485 -3.2850 -0.5751  0.6886
   72MPD2    H1 1104   1.601   1.347   1.822  0.9658  1.6261  0.3411
   72MPD2    H2 1105   1.789   1.245   1.459  1.9587 -0.6751  4.0075
   72MPD2    H3 1106   1.723   1.195   1.693 -0.9871 -0.5551 -1.6782
   72MPD2     N 1107   1.505   1.583   1.745 -0.5342  0.1898  0.2008
   72MPD2    H5 1108   1.502   1.554   1.842  1.4248  0.8214  0.4560
   72MPD2    N1 1109   1.739   1.474   1.325  0.0940  0.1534  0.1563
   72MPD2    H7 1110   1.717   1.568   1.293  0.9202 -0.7406 -2.9830
   73TMC2    C1 1111   1.549   3.637  13.643  0.0181 -0.2433  0.5495
   73TMC2    C2 1112   1.481   3.718  13.554  0.1681 -0.5998  0.4187
   73TMC2    C3 1113   1.379   3.660  13.474 -0.5129 -0.0179  0.1138
   73TMC2    C4 1114   1.514   3.506  13.657 -0.1082  0.0010  0.1592
   73TMC2    C5 1115   1.413   3.448  13.571  0.3282 -0.1213  0.5718
   73TMC2    C6 1116   1.346   3.525  13.481  0.3924 -0.1096 -0.3095
   73TMC2     C 1117   1.690   3.650  13.616 -0.5918  1.1977  0.1493
   73TMC2     O 1118   1.741   3.551  13.566  1.0740 -0.1595  0.0633
   73TMC2     H 1119   1.522   3.816  13.530  1.6140 -0.8660  1.7775
   73TMC2    H1 1120   1.560   3.447  13.736  2.5215 -1.1467 -2.2288
   73TMC2    H2 1121   1.278   3.472  13.415  1.7405 -1.8943 -0.2749
   73TMC2    C7 1122   1.462   3.319  13.517  0.1312 -0.2409  0.2427
   73TMC2    C8 1123   1.287   3.747  13.403 -0.4780  0.0704  0.1179
   73TMC2    O1 1124   1.381   3.245  13.459 -0.0742 -0.5069  0.1210
   73TMC2    O2 1125   1.310   3.815  13.303 -0.5643 -0.2987 -0.7236
   73TMC2    O5 1126   1.197   3.775  13.492 -0.2800 -0.1534  0.4449
   73TMC2    H5 1127   1.209   3.725  13.576  0.9308 -1.7729 -0.6906
   74MPD2     C 1128   2.155   3.864  13.629 -0.2421 -0.4057 -0.1197
   74MPD2    C1 1129   2.110   3.740  13.593 -0.0473 -0.0265  0.7824
   74MPD2    C2 1130   1.973   3.722  13.586 -0.6966 -0.7135  0.3202
   74MPD2    C3 1131   1.880   3.811  13.636 -0.1590  0.4550  0.5031
   74MPD2    C4 1132   1.929   3.935  13.683 -0.1797 -0.5039  0.1339
   74MPD2    C5 1133   2.066   3.951  13.685 -0.6308 -0.4799 -0.0470
   74MPD2     H 1134   1.940   3.628  13.544 -0.4075 -0.2148 -1.0382
   74MPD2    H1 1135   1.870   4.013  13.730 -0.0936 -1.0912  1.2098
   74MPD2    H2 1136   2.260   3.884  13.612 -0.6035  1.6827  0.0927
   74MPD2    H3 1137   2.103   4.046  13.720 -3.0918  1.0605 -1.6205
   74MPD2     N 1138   1.743   3.774  13.647  0.4074  0.0807  0.1117
   74MPD2    H5 1139   1.677   3.833  13.698  0.2239  0.2766 -0.3499
   74MPD2    N1 1140   2.206   3.643  13.542  0.1573  0.1043  0.0541
   74MPD2    H7 1141   2.302   3.671  13.521  0.4669 -0.7493  0.3202
   75TCq2    C1 1142   1.984   4.196  14.114  0.7122 -0.3686 -0.0926
   75TCq2    O2 1143   2.041   4.129  14.026  0.3262  0.2143  0.4039
   75TCq2    C2 1144   1.853   4.240  14.070 -0.6155  0.2341 -0.5490
   75TCq2    C3 1145   1.770   4.277  14.171 -0.4566  0.4295 -0.3338
   75TCq2    C4 1146   1.641   4.300  14.133  0.1340 -0.6013 -0.1022
   75TCq2    C5 1147   1.601   4.302  14.001 -0.1121  0.2638  0.8359
   75TCq2    C6 1148   1.692   4.273  13.908 -0.1857  0.3420 -0.2802
   75TCq2    C7 1149   1.819   4.238  13.936 -0.8210  0.3208  0.0877
   75TCq2    C8 1150   1.667   4.311  13.773 -0.3332  0.4567 -0.1605
   75TCq2    O4 1151   1.730   4.269  13.678  0.5893  0.5025  0.1748
   75TCq2    C9 1152   1.542   4.316  14.238  1.0151 -0.0416  0.2561
   75TCq2    O5 1153   1.571   4.290  14.353  0.2093  0.3645  0.3939
   75TCq2    O6 1154   1.424   4.301  14.200 -0.0144 -0.1033  0.0827
   75TCq2    H2 1155   1.793   4.269  14.276 -3.0849 -2.4362  0.0213
   75TCq2    H3 1156   1.500   4.334  13.976 -0.4859 -1.4748  0.0947
   75TCq2    H4 1157   1.892   4.239  13.856 -1.3986 -0.2939 -0.4382
   76MPD2     C 1158   1.136   0.762  11.852 -0.8548  0.4124  0.0759
   76MPD2    C1 1159   1.118   0.701  11.730  0.3539 -0.3132  0.2917
   76MPD2    C2 1160   1.205   0.607  11.688 -0.1523 -1.0075  0.0218
   76MPD2    C3 1161   1.322   0.587  11.763 -0.4416 -0.2351 -0.1294
   76MPD2    C4 1162   1.344   0.653  11.884 -0.9550 -0.3645  0.0217
   76MPD2    C5 1163   1.250   0.736  11.928 -0.2648  0.2013  0.7899
   76MPD2     H 1164   1.172   0.539  11.610 -1.4514 -0.2030 -0.1183
   76MPD2    H1 1165   1.433   0.637  11.943 -0.6939 -0.1191 -0.3107
   76MPD2    H2 1166   1.067   0.841  11.879 -3.0517 -1.1957 -0.8597
   76MPD2    H3 1167   1.264   0.781  12.025 -0.7964 -0.2615  1.0873
   76MPD2     N 1168   1.417   0.495  11.722  0.1065 -0.8202 -0.8679
   76MPD2    H5 1169   1.489   0.468  11.789 -0.0862  0.0980 -0.2942
   76MPD2    N1 1170   1.003   0.723  11.646  0.0245 -0.2530  0.1021
   76MPD2    H7 1171   0.990   0.673  11.559 -1.6767  0.3374  0.0178
   77TCq2    C1 1172   1.427   0.434  11.601 -0.0187 -0.5509  0.4911
   77TCq2    O2 1173   1.375   0.462  11.493  0.0150  0.2458  0.1881
   77TCq2    C2 1174   1.512   0.323  11.591 -0.3005 -0.2573 -0.8107
   77TCq2    C3 1175   1.455   0.208  11.534 -0.5295  0.7945 -0.0695
   77TCq2    C4 1176   1.514   0.086  11.539  0.0090  0.4792 -0.5913
   77TCq2    C5 1177   1.635   0.079  11.603 -0.3670 -0.7140 -0.2448
   77TCq2    C6 1178   1.682   0.189  11.676 -0.4612  0.1999 -0.1604
   77TCq2    C7 1179   1.629   0.318  11.661 -0.5087  0.0460  0.3798
   77TCq2    C8 1180   1.792   0.166  11.770  0.1681  0.0913 -0.0261
   77TCq2    O4 1181   1.860   0.068  11.741  0.1227  0.2535  0.1233
   77TCq2    C9 1182   1.472   4.693  11.460  0.2613 -0.1079  0.2911
   77TCq2    O5 1183   1.509   4.580  11.497 -0.1097  0.6299 -0.0648
   77TCq2    O6 1184   1.375   4.710  11.382  0.2990 -0.4056 -0.5282
   77TCq2    H2 1185   1.360   0.214  11.481 -0.5115 -0.4470 -0.2604
   77TCq2    H3 1186   1.697   4.715  11.582  0.4305  0.0906 -1.1875
   77TCq2    H4 1187   1.674   0.409  11.696 -1.1258  0.3278  0.4307
   78MPD1     C 1188   2.414   0.108   0.111 -0.1837  0.1581  0.4003
   78MPD1    C1 1189   2.289   0.070   0.067  0.9563  0.9030 -0.3063
   78MPD1    C2 1190   2.172   0.131   0.114 -0.8542  0.4813  0.4534
   78MPD1    C3 1191   2.188   0.242   0.195 -0.4193 -0.8641  0.4627
   78MPD1    C4 1192   2.311   0.279   0.242 -0.8039  0.4584 -0.6581
   78MPD1    C5 1193   2.427   0.212   0.205  0.3686  0.0342 -0.3738
   78MPD1     H 1194   2.080   0.094   0.071 -0.1735 -0.0484 -0.5528
   78MPD1    H1 1195   2.326   0.355   0.317 -0.1512 -1.4779  1.1737
   78MPD1    H2 1196   2.502   0.062   0.068 -2.2364 -4.3314  0.9465
   78MPD1    H3 1197   2.522   0.248   0.241  1.3559 -0.4851 -2.4303
   78MPD1     N 1198   2.071   0.310   0.243 -0.4741 -0.1000  0.9386
   78MPD1    H5 1199   2.086   0.385   0.309  0.3575 -1.4178  2.2709
   78MPD1    N1 1200   2.279   4.668   0.007  0.6860  0.3066 -0.4606
   78MPD1    H6 1201   2.194   4.646  17.648 -0.4819  0.4406  1.4077
   78MPD1    H7 1202   2.359   4.657  17.638  0.4013  0.2816 -0.8240
   79TCq2    C1 1203   1.941   0.284   0.208  0.7087  0.1140  0.6877
   79TCq2    O2 1204   1.893   0.212   0.120 -0.6052 -0.0359  0.5129
   79TCq2    C2 1205   1.828   0.350   0.287  0.4343  0.1544 -0.3374
   79TCq2    C3 1206   1.703   0.343   0.233  0.5124  0.2002  1.0224
   79TCq2    C4 1207   1.596   0.397   0.300  0.6247 -0.6125  0.2676
   79TCq2    C5 1208   1.609   0.460   0.424  0.0872 -1.0685 -0.1865
   79TCq2    C6 1209   1.737   0.445   0.481  0.3411  0.3962  0.4952
   79TCq2    C7 1210   1.851   0.393   0.413 -0.2378 -0.8083  0.0202
   79TCq2    C8 1211   1.770   0.522   0.603  0.3505 -0.5864 -0.5738
   79TCq2    O4 1212   1.891   0.549   0.622 -0.2833  0.9018 -0.3072
   79TCq2    C9 1213   1.467   0.396   0.239 -0.9400 -0.7552 -0.4122
   79TCq2    O5 1214   1.452   0.351   0.120  0.5848  0.1059  0.3373
   79TCq2    O6 1215   1.367   0.442   0.301 -0.3858  0.0244  0.7746
   79TCq2    H2 1216   1.685   0.297   0.136  2.1693 -1.0927  1.3248
   79TCq2    H3 1217   1.522   0.483   0.484  0.0937  1.5995 -1.1771
   79TCq2    H4 1218   1.946   0.374   0.462  0.2382  5.3452  1.4353
   80MPD2     C 1219   0.215   4.495  12.429 -0.1522  0.5456 -0.4362
   80MPD2    C1 1220   0.159   4.483  12.308  0.3900  0.2940  0.1884
   80MPD2    C2 1221   0.025   4.513  12.298  0.3151 -0.2829  0.0205
   80MPD2    C3 1222   4.673   4.551  12.408 -0.4899  0.6217 -0.2317
   80MPD2    C4 1223   0.019   4.562  12.528 -0.4060  0.3659 -0.0010
   80MPD2    C5 1224   0.151   4.536  12.541  0.0072  0.7023  0.2054
   80MPD2     H 1225   4.698   4.516  12.202  0.9533  1.2325 -0.2600
   80MPD2    H1 1226   4.687   4.595  12.616  3.5991  2.2022  1.7969
   80MPD2    H2 1227   0.320   4.471  12.446 -0.6115 -1.2123 -0.1148
   80MPD2    H3 1228   0.202   4.566  12.632  2.7176 -0.3812 -0.9912
   80MPD2     N 1229   4.535   4.592  12.413  0.0920 -0.1977  0.4679
   80MPD2    H5 1230   4.483   4.617  12.496  0.0939  2.2105 -0.2510
   80MPD2    N1 1231   0.228   4.439  12.197  0.1949  0.1758  0.5727
   80MPD2    H7 1232   0.162   4.431  12.121  0.5758  1.4411  0.1052
   81TCq2    C1 1233   0.368   4.444  12.181 -0.3561 -0.2053 -0.5921
   81TCq2    O2 1234   0.457   4.478  12.260 -0.4034 -0.0449  0.6990
   81TCq2    C2 1235   0.408   4.416  12.043  0.1833  0.1320 -0.0773
   81TCq2    C3 1236   0.532   4.448  12.006 -0.2573  0.4700  0.0290
   81TCq2    C4 1237   0.571   4.424  11.873  0.4008  1.1622  0.2816
   81TCq2    C5 1238   0.478   4.381  11.778  0.0413 -0.1451 -0.2620
   81TCq2    C6 1239   0.356   4.345  11.827  0.7741  0.1917 -0.4308
   81TCq2    C7 1240   0.317   4.360  11.957 -0.1411  0.4098 -0.0691
   81TCq2    C8 1241   0.257   4.312  11.722 -0.8659  0.9932 -0.4262
   81TCq2    O4 1242   0.251   4.384  11.619  0.1415  0.7747  0.5089
   81TCq2    C9 1243   0.706   4.446  11.828  0.3974 -0.0293  0.6847
   81TCq2    O5 1244   0.738   4.402  11.711  0.1149 -0.3495 -0.2369
   81TCq2    O6 1245   0.769   4.540  11.883  0.2307  0.1079 -0.1085
   81TCq2    H2 1246   0.606   4.490  12.072 -0.5857  0.4579  0.4044
   81TCq2    H3 1247   0.499   4.379  11.672 -1.1789 -2.6878 -0.4543
   81TCq2    H4 1248   0.223   4.315  11.989  0.6480 -2.3599 -1.6343
   82MPD2     C 1249   3.016   4.472  10.622 -0.3718 -0.0165 -0.6223
   82MPD2    C1 1250   2.949   4.360  10.582  0.3445 -1.0064  0.1550
   82MPD2    C2 1251   2.990   4.231  10.614 -0.5781  0.1794  0.1326
   82MPD2    C3 1252   3.100   4.216  10.702  0.1499  0.4578  0.4085
   82MPD2    C4 1253   3.162   4.335  10.738  0.2576 -0.3951  0.1185
   82MPD2    C5 1254   3.126   4.458  10.696  0.5562  0.0953 -0.5993
   82MPD2     H 1255   2.929   4.149  10.578  0.5318 -1.0677  1.0649
   82MPD2    H1 1256   3.251   4.332  10.801  0.2096 -0.7472  0.1711
   82MPD2    H2 1257   2.999   4.574  10.589  1.9331  1.2784  2.1358
   82MPD2    H3 1258   3.188   4.543  10.723  0.4246  0.0832 -0.2542
   82MPD2     N 1259   3.158   4.098  10.754 -0.0061  0.1487  0.8590
   82MPD2    H5 1260   3.234   4.099  10.821  1.3464  0.8800 -0.6949
   82MPD2    N1 1261   2.832   4.389  10.505 -0.9700  0.3277  1.3374
   82MPD2    H7 1262   2.803   4.485  10.491 -2.0636 -0.1724  0.2073
   83TCq2    C1 1263   3.129   3.976  10.693 -0.1109 -0.0185  0.1092
   83TCq2    O2 1264   3.076   3.956  10.584 -0.3925 -0.0647  0.2772
   83TCq2    C2 1265   3.197   3.872  10.756  0.0903  0.5593  0.6687
   83TCq2    C3 1266   3.301   3.891  10.852  0.1598  0.2564 -0.4057
   83TCq2    C4 1267   3.328   3.794  10.944 -0.2977  0.2473 -0.5042
   83TCq2    C5 1268   3.261   3.673  10.937 -0.3456 -0.4241  0.0267
   83TCq2    C6 1269   3.174   3.654  10.837 -0.4882  0.3635  0.1414
   83TCq2    C7 1270   3.135   3.756  10.739 -0.6312 -0.3860  0.3971
   83TCq2    C8 1271   3.063   3.572  10.878 -0.1347 -0.2702 -0.3050
   83TCq2    O4 1272   3.060   3.533  10.996  0.4876  0.3604  0.0143
   83TCq2    C9 1273   3.438   3.813  11.029 -0.6252  0.7962  0.1025
   83TCq2    O5 1274   3.481   3.934  11.045  0.6557 -0.6759 -0.2121
   83TCq2    O6 1275   3.466   3.719  11.111  0.2266  0.4601 -0.0596
   83TCq2    H2 1276   3.366   3.977  10.841 -0.7936  1.1777  1.1429
   83TCq2    H3 1277   3.276   3.597  11.013 -0.4906  2.3543  2.8140
   83TCq2    H4 1278   3.056   3.741  10.667  1.5220  0.2098 -2.1228
   84TCq2    C1 1279   3.949   3.424   9.887 -0.1717  0.0306 -0.7976
   84TCq2    O2 1280   3.887   3.332   9.942  0.1737  0.3798 -0.1132
   84TCq2    C2 1281   3.986   3.533   9.970  0.0449 -0.0916  0.3810
   84TCq2    C3 1282   4.059   3.636   9.920 -0.4854 -0.1042 -0.4401
   84TCq2    C4 1283   4.088   3.741  10.003  0.2331 -0.1077  0.3340
   84TCq2    C5 1284   4.040   3.746  10.133  0.1141 -0.0744  0.5714
   84TCq2    C6 1285   3.954   3.646  10.176 -0.0856 -0.0455 -0.4047
   84TCq2    C7 1286   3.927   3.537  10.095 -0.0193 -0.6126 -0.3060
   84TCq2    C8 1287   3.875   3.683  10.295  0.4110  0.0909  0.0058
   84TCq2    O4 1288   3.909   3.784  10.337  0.4720 -0.4937 -0.0105
   84TCq2    C9 1289   4.144   3.863   9.943 -0.8504  0.1095  0.1252
   84TCq2    O5 1290   4.170   3.951  10.024 -0.3850 -0.8407  0.4554
   84TCq2    O6 1291   4.174   3.862   9.824 -0.1224  0.0834  1.2545
   84TCq2    H2 1292   4.097   3.646   9.819  2.3873  1.3492  0.7674
   84TCq2    H3 1293   4.063   3.831  10.197  1.6784 -0.0920  0.0218
   84TCq2    H4 1294   3.875   3.449  10.132  1.9563 -2.0633 -0.9795
   85MPD2     C 1295   4.079   1.471  16.238  0.0365  0.0700 -0.4047
   85MPD2    C1 1296   4.106   1.401  16.116  0.8771  0.6832  0.1940
   85MPD2    C2 1297   4.145   1.466  15.999 -0.0762  0.1832 -0.5574
   85MPD2    C3 1298   4.183   1.600  16.009 -0.3244  0.0300  1.0587
   85MPD2    C4 1299   4.156   1.669  16.117 -0.1392  0.0063 -0.3770
   85MPD2    C5 1300   4.102   1.609  16.231  0.0946  0.2537 -0.6625
   85MPD2     H 1301   4.140   1.412  15.906  3.5768 -1.8266  0.4142
   85MPD2    H1 1302   4.169   1.777  16.126  0.1975  0.1235 -2.2873
   85MPD2    H2 1303   4.033   1.428  16.326 -0.0873  2.0883  0.5056
   85MPD2    H3 1304   4.082   1.663  16.323 -1.8862 -0.6752 -0.5432
   85MPD2     N 1305   4.229   1.678  15.902  0.3290 -0.1667  0.0529
   85MPD2    H5 1306   4.247   1.777  15.917  2.9837 -0.4315 -1.2752
   85MPD2    N1 1307   4.072   1.262  16.104  0.4309  0.6697  0.6495
   85MPD2    H7 1308   4.079   1.218  16.013 -1.2438 -1.0151  1.3296
   86TCq2    C1 1309   4.263   1.623  15.779  0.2878  0.0358  0.3402
   86TCq2    O2 1310   4.288   1.507  15.745  0.1943  0.2245 -0.3233
   86TCq2    C2 1311   4.302   1.729  15.687 -0.1014 -0.0984  0.1105
   86TCq2    C3 1312   4.220   1.840  15.701  0.1397 -0.7783 -0.2792
   86TCq2    C4 1313   4.254   1.959  15.640  0.4907 -0.2771 -0.1986
   86TCq2    C5 1314   4.374   1.964  15.573 -0.0869  0.2015  0.6092
   86TCq2    C6 1315   4.463   1.855  15.569  0.3736 -0.0376  0.2024
   86TCq2    C7 1316   4.427   1.735  15.627 -0.2917  0.6194  0.2077
   86TCq2    C8 1317   4.582   1.867  15.485  0.0028  0.0854 -0.5239
   86TCq2    O4 1318   4.583   1.959  15.403  0.1887 -0.9310  0.3641
   86TCq2    C9 1319   4.168   2.072  15.627  0.2410 -0.4453 -0.5213
   86TCq2    O5 1320   4.084   2.090  15.719 -0.0832 -0.3835 -0.0586
   86TCq2    O6 1321   4.193   2.159  15.541 -0.4110  0.7415 -0.7371
   86TCq2    H2 1322   4.125   1.833  15.752 -1.5592  0.6755 -3.3262
   86TCq2    H3 1323   4.395   2.060  15.527  1.1909 -0.5113 -0.2837
   86TCq2    H4 1324   4.484   1.643  15.611  0.3275  0.6533  2.2339
   87MPD2     C 1325   1.574   4.601   0.674 -0.0691 -0.2955  1.0054
   87MPD2    C1 1326   1.538   4.621   0.802  0.7550 -0.7500 -0.4697
   87MPD2    C2 1327   1.430   4.707   0.823  0.2100  0.3471 -0.3065
   87MPD2    C3 1328   1.371   0.059   0.721  0.1321 -0.2621  0.4904
   87MPD2    C4 1329   1.425   0.053   0.596 -0.4668 -0.5587 -0.5213
   87MPD2    C5 1330   1.523   4.682   0.572 -0.4852  0.5997 -0.0093
   87MPD2     H 1331   1.399   0.006   0.925  1.0560 -3.5978  0.7979
   87MPD2    H1 1332   1.385   0.117   0.518 -0.8318  0.6175  0.6352
   87MPD2    H2 1333   1.659   4.537   0.651 -1.2135 -1.0322 -1.1722
   87MPD2    H3 1334   1.573   4.674   0.476 -0.8763  0.7094 -0.2196
   87MPD2     N 1335   1.261   0.148   0.740 -0.3965  0.0811 -0.0384
   87MPD2    H5 1336   1.238   0.204   0.658 -0.9331 -0.2738 -0.1324
   87MPD2    N1 1337   1.599   4.551   0.910  0.4866  0.2371 -0.4115
   87MPD2    H7 1338   1.674   4.489   0.884 -0.6702 -1.2892 -0.1584
   88TCq2    C1 1339   1.581   4.571   1.046  0.1549  0.0821  0.6282
   88TCq2    O2 1340   1.504   4.654   1.096  0.2320  0.3435 -0.2963
   88TCq2    C2 1341   1.674   4.504   1.134  0.1264 -0.6412  0.0150
   88TCq2    C3 1342   1.696   4.571   1.250 -0.0488  0.1976  0.2423
   88TCq2    C4 1343   1.825   4.569   1.310 -0.2098  0.4101  0.1605
   88TCq2    C5 1344   1.925   4.498   1.253 -0.6990 -0.1189  0.2287
   88TCq2    C6 1345   1.897   4.429   1.143  0.5237  0.4239  0.0057
   88TCq2    C7 1346   1.778   4.448   1.070 -0.9488  0.3526  0.2905
   88TCq2    C8 1347   2.005   4.382   1.048 -0.5271  0.5388 -0.1712
   88TCq2    O4 1348   1.975   4.299   0.961  0.1912  0.0220 -0.3868
   88TCq2    C9 1349   1.842   4.650   1.431 -0.4595  0.4447  0.4440
   88TCq2    O5 1350   1.737   4.691   1.493  0.5677  0.0955 -0.2843
   88TCq2    O6 1351   1.958   4.699   1.439  0.0375 -0.1620 -0.0472
   88TCq2    H2 1352   1.622   4.627   1.306 -0.8106 -0.7721  0.1993
   88TCq2    H3 1353   2.020   4.500   1.305 -0.7087  0.7072  0.2168
   88TCq2    H4 1354   1.773   4.397   0.975  1.2145 -0.0965  0.4173
   89MPD2     C 1355   2.919   2.745   1.552  0.4364  0.0856 -0.4426
   89MPD2    C1 1356   2.840   2.838   1.620 -0.6546 -0.8040  0.3840
   89MPD2    C2 1357   2.897   2.956   1.665 -0.1945  0.4515  0.6681
   89MPD2    C3 1358   3.029   2.976   1.639 -0.3118  0.2328  0.2535
   89MPD2    C4 1359   3.107   2.885   1.572  0.1684  0.0404 -0.1262
   89MPD2    C5 1360   3.047   2.774   1.522  0.2996  0.3115 -0.4865
   89MPD2     H 1361   2.829   3.014   1.726 -1.5181 -0.5785  0.1919
   89MPD2    H1 1362   3.209   2.905   1.543 -0.1555  1.2043 -0.4582
   89MPD2    H2 1363   2.881   2.653   1.509 -1.7769  0.6942  0.2422
   89MPD2    H3 1364   3.098   2.695   1.467  2.2227  1.5325 -0.4332
   89MPD2     N 1365   3.089   3.089   1.698  0.2678  0.5722  0.7001
   89MPD2    H5 1366   3.023   3.164   1.717 -0.1751  0.6677 -1.2948
   89MPD2    N1 1367   2.708   2.801   1.653 -0.5870  0.1346  0.2968
   89MPD2    H7 1368   2.655   2.870   1.705 -0.1642  0.6622  0.0287
   90TCq2    C1 1369   3.223   3.133   1.705 -0.6361 -0.1978  0.0723
   90TCq2    O2 1370   3.329   3.079   1.668  0.2415  0.0590  0.0405
   90TCq2    C2 1371   3.235   3.257   1.774 -0.0955  0.3257  0.5495
   90TCq2    C3 1372   3.134   3.301   1.856  0.7020 -0.0476 -0.3311
   90TCq2    C4 1373   3.148   3.415   1.927 -0.4742 -0.8741  0.0673
   90TCq2    C5 1374   3.262   3.483   1.913  0.1730 -0.3876 -0.1423
   90TCq2    C6 1375   3.364   3.449   1.824  0.6088 -0.2967 -0.2085
   90TCq2    C7 1376   3.360   3.325   1.758 -0.4336 -1.1543  0.3234
   90TCq2    C8 1377   3.486   3.520   1.842 -0.1470 -0.5204 -0.1577
   90TCq2    O4 1378   3.490   3.597   1.939  0.1706 -0.1916  0.1297
   90TCq2    C9 1379   3.038   3.457   2.006  0.0453 -0.2251 -0.1322
   90TCq2    O5 1380   3.076   3.547   2.090 -0.3225  0.1901 -0.4150
   90TCq2    O6 1381   2.941   3.380   2.012  0.1490 -0.5901  0.1049
   90TCq2    H2 1382   3.038   3.252   1.849  0.8148 -0.5818  1.8153
   90TCq2    H3 1383   3.279   3.572   1.974  0.2524 -0.2242 -0.4028
   90TCq2    H4 1384   3.449   3.279   1.716  0.2187 -0.5688  1.0765
   91TMC2    C1 1385   4.158   2.516  16.351 -0.0481  0.0367 -0.0134
   91TMC2    C2 1386   4.241   2.545  16.248 -0.0732 -0.4798 -0.3389
   91TMC2    C3 1387   4.191   2.513  16.120 -0.2915 -1.0191  0.1905
   91TMC2    C4 1388   4.025   2.478  16.329  0.0336  0.2365  0.4292
   91TMC2    C5 1389   3.980   2.460  16.198  0.3720 -1.0427 -0.3612
   91TMC2    C6 1390   4.066   2.469  16.093 -0.1692 -0.2941 -0.2826
   91TMC2     C 1391   4.216   2.496  16.484 -0.2506 -0.0205 -0.4273
   91TMC2     O 1392   4.152   2.430  16.570 -0.0238  0.4516 -0.0686
   91TMC2     H 1393   4.344   2.575  16.266  0.8307 -2.2680 -2.5085
   91TMC2    H1 1394   3.958   2.455  16.411  1.6794 -0.8482  1.4692
   91TMC2    H2 1395   4.025   2.471  15.993 -2.1310 -0.5541  0.5118
   91TMC2    C7 1396   3.851   2.386  16.193 -0.2060  0.1685  0.1812
   91TMC2    C8 1397   4.288   2.532  16.012  0.3466  0.3443  0.5434
   91TMC2    O1 1398   3.787   2.406  16.297  0.0937  0.4389  0.0938
   91TMC2    O2 1399   4.366   2.630  16.017 -0.0134 -0.2415  0.1551
   91TMC2    O5 1400   4.269   2.449  15.908 -0.0847  0.2832  0.0104
   91TMC2    H5 1401   4.204   2.377  15.920  0.5280 -0.5668 -1.7355
   92MPD2     C 1402   4.442   2.379  16.640  0.2296  0.7917 -0.2584
   92MPD2    C1 1403   4.457   2.485  16.556 -0.0824 -0.1594  0.4328
   92MPD2    C2 1404   4.582   2.544  16.543  0.4724  0.0238 -0.1443
   92MPD2    C3 1405   4.697   2.505  16.599 -0.4488  0.1544  0.4540
   92MPD2    C4 1406   4.673   2.395  16.688 -0.7908 -0.0925  0.2900
   92MPD2    C5 1407   4.554   2.342  16.708 -0.1532 -0.3799  0.3364
   92MPD2     H 1408   4.589   2.636  16.487  1.6070 -0.1710 -0.3270
   92MPD2    H1 1409   0.030   2.357  16.751  1.0018  0.8913 -1.3768
   92MPD2    H2 1410   4.345   2.344  16.673 -0.8330  3.0437 -1.0089
   92MPD2    H3 1411   4.534   2.265  16.782 -2.2207 -0.0636  0.0983
   92MPD2     N 1412   0.101   2.569  16.572 -0.2491 -0.0944 -0.3191
   92MPD2    H5 1413   0.098   2.661  16.529 -0.3877 -0.4209 -1.0120
   92MPD2    N1 1414   4.347   2.548  16.493 -0.2754 -0.2823  0.2749
   92MPD2    H7 1415   4.377   2.636  16.453 -2.5732 -0.1194 -1.1052
   93MPD2     C 1416   1.758   2.066  13.646  0.0264  0.9745  0.1960
   93MPD2    C1 1417   1.668   2.169  13.670 -0.6006 -0.1953  0.0163
   93MPD2    C2 1418   1.535   2.143  13.653 -0.2122 -0.1908  0.4260
   93MPD2    C3 1419   1.486   2.014  13.625 -0.0060  0.2692 -0.1618
   93MPD2    C4 1420   1.583   1.915  13.605  0.4748 -0.0638 -0.9510
   93MPD2    C5 1421   1.713   1.942  13.612 -0.2576  0.6923  0.3933
   93MPD2     H 1422   1.460   2.218  13.678 -0.3607 -0.6054  1.2507
   93MPD2    H1 1423   1.552   1.814  13.584 -0.3189  0.1808 -0.9690
   93MPD2    H2 1424   1.866   2.069  13.650  0.1158  0.8461 -1.8051
   93MPD2    H3 1425   1.786   1.863  13.605 -1.2037 -0.1565  0.1107
   93MPD2     N 1426   1.350   1.981  13.603  0.1242  0.0067 -0.3759
   93MPD2    H5 1427   1.336   1.889  13.564 -0.6187  0.1543 -0.4656
   93MPD2    N1 1428   1.710   2.304  13.700 -0.6848  0.2360 -0.2412
   93MPD2    H7 1429   1.640   2.375  13.725 -1.1923  0.2687 -1.7438
   94TCq2    C1 1430   1.834   2.351  13.684  0.2376 -0.1524 -0.1645
   94TCq2    O2 1431   1.919   2.298  13.614 -0.2572 -0.3869  0.0461
   94TCq2    C2 1432   1.862   2.491  13.722  0.0357 -0.3063  0.9428
   94TCq2    C3 1433   1.779   2.554  13.813  0.0572 -0.4111 -0.4960
   94TCq2    C4 1434   1.831   2.668  13.866 -0.6201  0.7275  0.4005
   94TCq2    C5 1435   1.958   2.714  13.844 -0.3941  0.3996  0.5553
   94TCq2    C6 1436   2.025   2.643  13.751 -0.0776  0.0932 -0.7026
   94TCq2    C7 1437   1.983   2.534  13.684 -0.0168 -0.6794 -0.6746
   94TCq2    C8 1438   2.172   2.661  13.730 -0.0596 -0.7669  0.3076
   94TCq2    O4 1439   2.238   2.560  13.726 -0.5318  0.7889 -1.0179
   94TCq2    C9 1440   1.752   2.746  13.955 -0.4309  0.5803 -0.4251
   94TCq2    O5 1441   1.629   2.720  13.970 -0.6112  0.6198  0.3558
   94TCq2    O6 1442   1.807   2.842  14.012 -0.9912 -0.1946 -0.4402
   94TCq2    H2 1443   1.679   2.527  13.846 -0.8644  1.6959 -1.5457
   94TCq2    H3 1444   2.004   2.804  13.884  0.0469  1.2679 -1.8703
   94TCq2    H4 1445   2.036   2.479  13.606  1.7214  1.3185 -0.8904
   95TMC2    C1 1446   1.311   3.983  16.334 -0.1931 -0.0152 -0.1969
   95TMC2    C2 1447   1.185   3.924  16.355 -0.4689 -0.1712  0.3468
   95TMC2    C3 1448   1.155   3.879  16.485 -0.5328 -0.2170 -0.0613
   95TMC2    C4 1449   1.403   3.994  16.429  0.0591  0.1279  0.9535
   95TMC2    C5 1450   1.371   3.950  16.555  0.2567  0.2560 -0.2164
   95TMC2    C6 1451   1.250   3.890  16.581  0.3377  0.9186 -0.4962
   95TMC2     C 1452   1.338   4.059  16.207  0.4988  0.5041 -0.1358
   95TMC2     O 1453   1.452   4.107  16.212  1.0182 -0.1135 -0.0101
   95TMC2     H 1454   1.116   3.902  16.274  0.4467 -0.0844 -0.4609
   95TMC2    H1 1455   1.501   4.041  16.423 -1.2116  2.6381  0.0627
   95TMC2    H2 1456   1.231   3.865  16.685  0.7424 -1.0170 -0.8888
   95TMC2    C7 1457   1.471   3.975  16.660 -0.0184 -0.3693 -0.3987
   95TMC2    C8 1458   1.028   3.829  16.513 -0.5887 -0.8961 -0.1927
   95TMC2    O1 1459   1.517   4.087  16.656 -0.1319  0.5215  0.1430
   95TMC2    O2 1460   1.016   3.767  16.616  0.2081  0.3046 -0.5971
   95TMC2    O5 1461   0.929   3.897  16.451 -0.1514 -0.5670  0.4321
   95TMC2    H5 1462   0.961   3.970  16.393 -2.2729 -1.0441 -1.3166
   96MPD2     C 1463   1.222   4.212  15.729  0.0294 -0.2143 -0.5967
   96MPD2    C1 1464   1.339   4.227  15.802 -0.6979  0.1315  0.0776
   96MPD2    C2 1465   1.348   4.174  15.934  0.4756  0.1223 -0.4691
   96MPD2    C3 1466   1.234   4.145  16.000 -0.7019 -0.3536  0.4497
   96MPD2    C4 1467   1.114   4.159  15.935  0.5280  0.1620 -0.6638
   96MPD2    C5 1468   1.112   4.181  15.801 -0.7988  1.4950  0.7113
   96MPD2     H 1469   1.438   4.184  15.993 -0.3458  0.9442  0.6543
   96MPD2    H1 1470   1.021   4.135  15.985 -0.1208  2.0865 -0.9520
   96MPD2    H2 1471   1.205   4.231  15.624  0.6056 -0.8379 -0.8008
   96MPD2    H3 1472   1.014   4.176  15.756 -0.6744 -0.1374  0.6402
   96MPD2     N 1473   1.228   4.078  16.121  0.8539  0.1447 -0.1529
   96MPD2    H5 1474   1.143   4.031  16.151  0.4819 -0.6044 -2.4078
   96MPD2    N1 1475   1.432   4.307  15.735 -0.0423 -0.2288  0.1699
   96MPD2    H7 1476   1.409   4.326  15.638 -1.7796 -2.1478  0.1974
   97MPD2     C 1477   2.840   1.553   0.531 -0.4875  0.2533  0.7913
   97MPD2    C1 1478   2.926   1.660   0.545  0.1213  0.2312 -0.6594
   97MPD2    C2 1479   3.022   1.683   0.451 -0.4496 -0.4342  0.4243
   97MPD2    C3 1480   3.045   1.591   0.348  0.4830 -0.2713 -0.2539
   97MPD2    C4 1481   2.966   1.473   0.343 -0.4758 -0.6392  0.1396
   97MPD2    C5 1482   2.868   1.459   0.436 -0.0929 -0.4994  0.7026
   97MPD2     H 1483   3.088   1.769   0.454 -1.0743  0.0656 -0.1228
   97MPD2    H1 1484   2.979   1.399   0.264  3.3678  0.1532  0.0296
   97MPD2    H2 1485   2.766   1.524   0.604 -0.4353 -1.3275  0.2213
   97MPD2    H3 1486   2.797   1.377   0.434  0.7023 -1.1842  0.1511
   97MPD2     N 1487   3.134   1.611   0.235 -0.8570  0.3407 -0.8001
   97MPD2    H5 1488   3.147   1.536   0.168 -2.0184 -1.0986  0.5486
   97MPD2    N1 1489   2.914   1.743   0.658 -0.0476  0.4681 -0.8058
   97MPD2    H7 1490   2.830   1.734   0.715 -0.0707 -0.7242 -1.0174
   98TCq2    C1 1491   3.182   1.732   0.203  0.2077  0.0377  0.3177
   98TCq2    O2 1492   3.193   1.832   0.273  0.4506  0.0389 -0.2230
   98TCq2    C2 1493   3.246   1.737   0.073  0.4292 -0.1723  0.5805
   98TCq2    C3 1494   3.238   1.639  17.671 -0.3348 -0.7082 -0.7937
   98TCq2    C4 1495   3.298   1.659  17.556 -0.6500 -1.1046  0.5803
   98TCq2    C5 1496   3.384   1.760  17.532  0.2197  0.1871  0.3272
   98TCq2    C6 1497   3.408   1.848  17.633  0.8688 -0.0069  0.0869
   98TCq2    C7 1498   3.331   1.846   0.050  0.1324  0.1340  0.2754
   98TCq2    C8 1499   3.497   1.965  17.619 -0.5786  0.3724  0.3606
   98TCq2    O4 1500   3.592   1.963  17.542  0.2459 -0.2338  0.2629
   98TCq2    C9 1501   3.275   1.564  17.452  0.3150 -0.0538  0.0481
   98TCq2    O5 1502   3.233   1.452  17.490 -0.4694  0.7132  0.1450
   98TCq2    O6 1503   3.312   1.601  17.338 -0.1457  0.2730  0.7018
   98TCq2    H2 1504   3.169   1.557  17.680 -0.8162 -0.4955 -2.6173
   98TCq2    H3 1505   3.444   1.773  17.443  0.9718 -1.6666  0.5693
   98TCq2    H4 1506   3.347   1.909   0.137  0.1215  0.8320 -0.2235
   99MPD2     C 1507   2.304   4.127   2.132 -0.6949  0.3701 -0.1631
   99MPD2    C1 1508   2.164   4.097   2.133  0.2085 -0.1502  0.3916
   99MPD2    C2 1509   2.110   4.033   2.025  0.4364  0.0716 -0.1021
   99MPD2    C3 1510   2.175   4.013   1.902  0.0809  0.2147  0.2455
   99MPD2    C4 1511   2.308   4.054   1.899 -0.1135 -0.2083  0.1459
   99MPD2    C5 1512   2.372   4.095   2.012  0.2146 -0.0062  0.6032
   99MPD2     H 1513   2.012   3.987   2.034  1.4600 -1.5767  2.4809
   99MPD2    H1 1514   2.376   4.054   1.815  0.3385 -3.1520  0.5207
   99MPD2    H2 1515   2.361   4.175   2.211 -0.5274 -1.0755  0.5864
   99MPD2    H3 1516   2.473   4.135   2.009 -0.4226  1.5267 -0.4985
   99MPD2     N 1517   2.105   3.955   1.795 -0.4955  0.5446 -0.8196
   99MPD2    H5 1518   2.005   3.945   1.806  0.0654 -2.1018  1.6639
   99MPD2    N1 1519   2.078   4.123   2.242 -0.0111  0.6009  0.1245
   99MPD2    H7 1520   1.987   4.078   2.235  0.5824 -0.4124 -1.1627
  100TCq2    C1 1521   2.125   4.186   2.357 -0.1624  0.7290  0.1800
  100TCq2    O2 1522   2.221   4.259   2.370  0.2138 -0.4194 -0.0040
  100TCq2    C2 1523   2.025   4.196   2.462  0.5274  0.3403  0.4129
  100TCq2    C3 1524   2.047   4.306   2.547  0.2029 -0.1518 -0.2609
  100TCq2    C4 1525   1.946   4.334   2.638 -0.0402  0.4655  0.0365
  100TCq2    C5 1526   1.828   4.257   2.651 -0.0365  0.3062 -0.6268
  100TCq2    C6 1527   1.815   4.154   2.556  0.2272  0.5363 -0.3365
  100TCq2    C7 1528   1.919   4.115   2.475 -0.5407 -0.2325 -0.0345
  100TCq2    C8 1529   1.694   4.073   2.564  0.8450 -0.4199 -0.3360
  100TCq2    O4 1530   1.632   4.087   2.664 -0.1717 -0.3950 -0.0108
  100TCq2    C9 1531   1.955   4.447   2.714  0.4763 -0.2968 -0.0076
  100TCq2    O5 1532   1.862   4.476   2.795  0.0925  0.3671 -0.6009
  100TCq2    O6 1533   2.050   4.520   2.699 -0.0132  0.5172  0.2478
  100TCq2    H2 1534   2.126   4.378   2.524 -0.1459 -0.3604 -2.1784
  100TCq2    H3 1535   1.743   4.289   2.710 -0.1651  3.1900 -2.3637
  100TCq2    H4 1536   1.919   4.027   2.412 -3.1592 -2.4506  3.0791
  101MPD2     C 1537   3.308   4.572  12.860  0.2120  0.1764  0.6974
  101MPD2    C1 1538   3.232   4.687  12.880  0.4130 -0.3888 -0.5114
  101MPD2    C2 1539   3.161   4.698  12.994  0.6591 -1.0396  0.3359
  101MPD2    C3 1540   3.149   4.590  13.077 -0.3084 -0.1501  0.4989
  101MPD2    C4 1541   3.213   4.470  13.055 -0.3987  0.5765  0.6359
  101MPD2    C5 1542   3.295   4.461  12.946 -0.1000  0.4542 -0.2196
  101MPD2     H 1543   3.106   0.064  13.025 -0.2796 -1.2253 -0.7763
  101MPD2    H1 1544   3.208   4.381  13.116  0.0436  0.1862  0.1085
  101MPD2    H2 1545   3.363   4.557  12.768 -0.9931  2.1601 -0.3564
  101MPD2    H3 1546   3.346   4.366  12.930 -1.2811 -0.2324  0.1252
  101MPD2     N 1547   3.056   4.605  13.187 -0.7647  0.1065 -0.2358
  101MPD2    H5 1548   2.997   4.688  13.181 -0.7261  0.1329 -0.2466
  101MPD2    N1 1549   3.244   0.067  12.782  0.5053  0.0232 -0.2181
  101MPD2    H7 1550   3.304   0.056  12.701  0.6436  1.4267 -0.3049
  102TCq2    C1 1551   3.447   0.358  12.429  0.1540 -0.2990 -0.7559
  102TCq2    O2 1552   3.530   0.268  12.438  0.1106  0.0627 -0.1232
  102TCq2    C2 1553   3.317   0.335  12.482 -0.2925  0.0662  0.0278
  102TCq2    C3 1554   3.203   0.387  12.418 -0.0728  0.5016 -0.4903
  102TCq2    C4 1555   3.084   0.376  12.485  0.4881 -0.3960 -0.3806
  102TCq2    C5 1556   3.072   0.315  12.601 -0.5281  0.3205 -0.3683
  102TCq2    C6 1557   3.179   0.246  12.650 -0.3662 -0.4918  0.4197
  102TCq2    C7 1558   3.303   0.257  12.593 -0.4792 -0.3802  0.3888
  102TCq2    C8 1559   3.160   0.175  12.774 -0.0747 -0.1884  0.2157
  102TCq2    O4 1560   3.058   0.192  12.838 -1.0048  0.7353  0.0424
  102TCq2    C9 1561   2.970   0.449  12.435  0.4065  0.3046  1.1233
  102TCq2    O5 1562   2.881   0.480  12.520  0.2522  0.0252  0.0070
  102TCq2    O6 1563   2.970   0.473  12.310 -0.4090  0.4965  0.2747
  102TCq2    H2 1564   3.204   0.431  12.319 -0.0032  0.8785 -0.3185
  102TCq2    H3 1565   2.974   0.320  12.648  1.2261 -0.1744  3.3063
  102TCq2    H4 1566   3.392   0.219  12.642 -0.9202 -1.0284  0.6962
  103TMC2    C1 1567   1.859   0.527  12.486 -0.1529 -0.5389 -0.0621
  103TMC2    C2 1568   1.966   0.482  12.563  0.1719 -0.6086  0.3106
  103TMC2    C3 1569   1.956   0.508  12.697  0.1099  0.0667 -0.7453
  103TMC2    C4 1570   1.740   0.581  12.536 -0.1236  0.3301 -0.6703
  103TMC2    C5 1571   1.736   0.594  12.670  0.1599 -0.5731  0.9779
  103TMC2    C6 1572   1.838   0.552  12.753 -0.5000 -0.0657  0.0651
  103TMC2     C 1573   1.866   0.493  12.348 -0.2478 -0.7249 -1.1741
  103TMC2     O 1574   1.792   0.556  12.271  0.6396 -0.4007 -0.3102
  103TMC2     H 1575   2.060   0.457  12.515 -1.8796  0.3624 -4.1924
  103TMC2    H1 1576   1.660   0.604  12.466 -0.9514 -0.5730 -0.0211
  103TMC2    H2 1577   1.829   0.576  12.858  0.7335 -1.7051  0.5366
  103TMC2    C7 1578   1.606   0.571  12.729  1.1325 -0.3637 -0.2786
  103TMC2    C8 1579   2.061   0.482  12.793  0.5787 -0.4568 -0.3403
  103TMC2    O1 1580   1.609   0.520  12.837  0.2479  0.0137  0.2064
  103TMC2    O2 1581   2.054   0.518  12.911  0.2316 -0.2846 -0.2675
  103TMC2    O5 1582   2.117   0.357  12.763 -0.0358 -0.2239  0.2170
  103TMC2    H5 1583   2.086   0.326  12.675  1.8460 -2.1610  0.2075
  104MPD2     C 1584   2.021   0.188  12.221  1.3037  0.3510 -0.1733
  104MPD2    C1 1585   1.945   0.300  12.213 -0.5618  0.3269 -0.3360
  104MPD2    C2 1586   1.872   0.322  12.097  0.4789 -0.5283 -0.3943
  104MPD2    C3 1587   1.884   0.230  11.992 -0.1511  0.4764 -0.0977
  104MPD2    C4 1588   1.961   0.116  12.006 -0.7739 -0.1454  1.0755
  104MPD2    C5 1589   2.034   0.101  12.119 -0.1555 -0.1036 -0.3939
  104MPD2     H 1590   1.810   0.411  12.088  0.0185 -0.6335  1.8026
  104MPD2    H1 1591   1.957   0.033  11.936 -3.4306  1.1161 -0.2878
  104MPD2    H2 1592   2.084   0.174  12.308 -0.8938 -1.2102  1.1635
  104MPD2    H3 1593   2.097   0.016  12.141  1.9399  1.4277 -0.5299
  104MPD2     N 1594   1.800   0.253  11.879  0.5277 -0.1229 -0.1876
  104MPD2    H5 1595   1.741   0.336  11.885 -0.9113 -1.1523 -0.1758
  104MPD2    N1 1596   1.940   0.379  12.331 -0.6433 -0.0929 -0.6827
  104MPD2    H7 1597   1.980   0.335  12.413  0.0922  1.2713 -0.3186
  105MPD2     C 1598   3.161   4.264   0.060 -0.8746 -0.6713 -0.2057
  105MPD2    C1 1599   3.040   4.332   0.035  0.4112  0.6696  0.0254
  105MPD2    C2 1600   2.941   4.327   0.130  0.1241 -0.3340  0.1996
  105MPD2    C3 1601   2.950   4.245   0.234 -0.8793  0.0584 -0.5662
  105MPD2    C4 1602   3.069   4.184   0.263  0.3845  0.1064  0.3262
  105MPD2    C5 1603   3.173   4.192   0.175  0.3828 -0.0570  0.0375
  105MPD2     H 1604   2.848   4.378   0.110  0.5565  0.8560  1.2003
  105MPD2    H1 1605   3.073   4.117   0.347 -0.4972  1.7770  1.6984
  105MPD2    H2 1606   3.250   4.272  17.692 -0.1797 -1.6579  0.6720
  105MPD2    H3 1607   3.263   4.137   0.200  0.8042 -0.4735 -2.4170
  105MPD2     N 1608   2.842   4.206   0.319 -0.1927 -0.1299  0.0085
  105MPD2    H5 1609   2.870   4.154   0.401  0.5037 -1.7611 -1.2619
  105MPD2    N1 1610   3.019   4.411  17.618  0.5795 -0.2886  0.0939
  105MPD2    H7 1611   2.933   4.464  17.618  1.2303  0.7709 -2.1630
  106TCq2    C1 1612   2.711   4.228   0.288  0.4132  0.9438 -0.4800
  106TCq2    O2 1613   2.651   4.281   0.196 -0.0689 -0.5018  0.1060
  106TCq2    C2 1614   2.621   4.171   0.390 -0.4038  0.9339 -0.2508
  106TCq2    C3 1615   2.499   4.137   0.350  0.2744  0.6896  0.1273
  106TCq2    C4 1616   2.410   4.090   0.444 -0.4520  0.0337  0.1219
  106TCq2    C5 1617   2.441   4.095   0.574  0.2884 -0.5931 -0.1181
  106TCq2    C6 1618   2.566   4.146   0.606 -0.3325 -0.2559 -0.3620
  106TCq2    C7 1619   2.660   4.178   0.515  0.0593 -0.2387  0.5721
  106TCq2    C8 1620   2.575   4.219   0.735  0.0977 -0.3565  0.0938
  106TCq2    O4 1621   2.679   4.281   0.753 -0.0763 -0.1561 -0.8778
  106TCq2    C9 1622   2.283   4.037   0.399  0.6247  0.2682 -0.4584
  106TCq2    O5 1623   2.194   4.008   0.484  0.1419  0.0765  0.2773
  106TCq2    O6 1624   2.257   4.065   0.283 -0.3872  0.6554  0.6943
  106TCq2    H2 1625   2.476   4.122   0.245 -0.4879  2.1073  0.0905
  106TCq2    H3 1626   2.375   4.048   0.646  0.7783 -1.0920  0.0094
  106TCq2    H4 1627   2.750   4.232   0.542 -0.1301  0.0479  0.6262
  107TMC2    C1 1628   3.743   3.942  11.223  0.5319 -0.1722 -0.3191
  107TMC2    C2 1629   3.726   4.065  11.168 -0.5045 -0.1083  0.5021
  107TMC2    C3 1630   3.741   4.082  11.032  0.1163 -0.3475 -0.5578
  107TMC2    C4 1631   3.782   3.838  11.144 -0.2252  0.0560 -0.2469
  107TMC2    C5 1632   3.803   3.866  11.005  0.1643 -0.4919  0.0744
  107TMC2    C6 1633   3.771   3.986  10.944 -0.3859 -0.6560 -0.0964
  107TMC2     C 1634   3.677   3.920  11.351  0.2571 -0.8173 -0.6646
  107TMC2     O 1635   3.622   3.812  11.370 -0.3726  0.1518 -0.4929
  107TMC2     H 1636   3.687   4.150  11.222  0.8488  0.8749 -0.0567
  107TMC2    H1 1637   3.796   3.739  11.185  0.0216  0.3562  0.4060
  107TMC2    H2 1638   3.798   4.017  10.844 -0.6471  0.5320  0.2082
  107TMC2    C7 1639   3.759   3.750  10.927  0.6487  0.4155 -0.0257
  107TMC2    C8 1640   3.678   4.198  10.982 -0.4104  0.2375 -0.4952
  107TMC2    O1 1641   3.725   3.647  10.983  0.1115 -0.1772  0.2921
  107TMC2    O2 1642   3.741   4.290  10.938  0.3048  0.2698  0.4294
  107TMC2    O5 1643   3.549   4.164  10.979 -0.1823  0.1541  0.3754
  107TMC2    H5 1644   3.532   4.072  11.009 -0.3674 -0.9246 -3.0677
  108MPD2     C 1645   3.651   4.195  11.600  0.5508  0.1409 -0.2920
  108MPD2    C1 1646   3.622   4.070  11.553 -0.3060  0.4959 -0.2474
  108MPD2    C2 1647   3.559   3.974  11.641 -0.0369  0.8890 -0.6090
  108MPD2    C3 1648   3.512   4.019  11.766 -0.0435 -0.5020 -0.1851
  108MPD2    C4 1649   3.535   4.148  11.807 -0.2510 -0.1266  0.1517
  108MPD2    C5 1650   3.611   4.234  11.733  0.2531 -0.0790  0.1798
  108MPD2     H 1651   3.540   3.874  11.604 -0.9799  0.1674  1.8479
  108MPD2    H1 1652   3.491   4.186  11.899 -0.0896 -1.8102  0.9208
  108MPD2    H2 1653   3.701   4.266  11.536  0.3819  1.1335  0.6710
  108MPD2    H3 1654   3.624   4.338  11.760 -0.1810 -0.0782  0.3818
  108MPD2     N 1655   3.439   3.932  11.860 -0.1230 -0.5705 -0.2608
  108MPD2    H5 1656   3.409   3.968  11.950 -0.3138 -0.4820 -0.3605
  108MPD2    N1 1657   3.681   4.035  11.429 -0.1657  0.1292 -0.1959
  108MPD2    H7 1658   3.738   4.111  11.393 -0.5456  1.2346  1.5115
  109MPD2     C 1659   2.010   1.034   1.614 -0.2444  0.0112 -0.2211
  109MPD2    C1 1660   2.087   1.106   1.519 -0.7723 -0.1178 -0.4660
  109MPD2    C2 1661   2.156   1.215   1.568 -0.4669  0.4977 -0.0815
  109MPD2    C3 1662   2.156   1.260   1.703 -0.1223  0.2135  0.3784
  109MPD2    C4 1663   2.081   1.187   1.795  0.3392 -0.2509 -0.9232
  109MPD2    C5 1664   2.003   1.077   1.746  0.2603 -0.2113  0.3035
  109MPD2     H 1665   2.231   1.255   1.501  0.1829  0.5559  0.6780
  109MPD2    H1 1666   2.075   1.225   1.897 -1.1226  0.6189 -1.3314
  109MPD2    H2 1667   1.962   0.938   1.596 -0.7694  0.2778 -0.2616
  109MPD2    H3 1668   1.948   1.025   1.825  2.9777 -0.6056  1.9531
  109MPD2     N 1669   2.228   1.377   1.732  0.0462 -0.6508  0.2165
  109MPD2    H5 1670   2.289   1.408   1.658 -0.8465 -3.0349 -1.5223
  109MPD2    N1 1671   2.096   1.063   1.385 -0.2636 -0.4527  0.1004
  109MPD2    H7 1672   2.053   0.978   1.352 -0.7537  0.5895 -1.9938
  110TCq2    C1 1673   2.251   1.440   1.853  0.5001  0.3615 -0.2325
  110TCq2    O2 1674   2.216   1.413   1.964 -0.0379 -0.0288 -0.1682
  110TCq2    C2 1675   2.334   1.562   1.831 -0.4830  0.5353 -0.1257
  110TCq2    C3 1676   2.430   1.587   1.921  0.2933 -0.3768 -0.2994
  110TCq2    C4 1677   2.534   1.670   1.890 -0.1305 -0.7581  0.2025
  110TCq2    C5 1678   2.544   1.716   1.760  0.0963  0.1079  0.2870
  110TCq2    C6 1679   2.457   1.680   1.665  0.1862  0.1737  0.2490
  110TCq2    C7 1680   2.349   1.600   1.700  0.4327  0.6077  0.1430
  110TCq2    C8 1681   2.469   1.735   1.526 -0.5038 -0.5330  0.1219
  110TCq2    O4 1682   2.557   1.820   1.508 -0.1247 -0.0599 -1.0396
  110TCq2    C9 1683   2.642   1.696   1.978 -0.3123  0.9764 -0.7266
  110TCq2    O5 1684   2.623   1.661   2.093  0.2448 -0.4514  0.7458
  110TCq2    O6 1685   2.748   1.735   1.920 -0.4006  0.0697 -0.7592
  110TCq2    H2 1686   2.434   1.546   2.021 -0.5837 -0.3905 -0.2727
  110TCq2    H3 1687   2.631   1.775   1.734  1.4983 -0.7270  3.0495
  110TCq2    H4 1688   2.273   1.587   1.623  1.1884 -0.4119 -0.4324
  111TMC2    C1 1689   4.057   0.836  11.136  0.7914 -0.9603 -0.0921
  111TMC2    C2 1690   4.152   0.877  11.045  0.1953 -0.2334  0.0674
  111TMC2    C3 1691   4.280   0.885  11.096 -0.0029 -0.3100 -0.4332
  111TMC2    C4 1692   4.081   0.797  11.261  0.2017  0.2985 -0.0035
  111TMC2    C5 1693   4.205   0.808  11.306  0.7460  0.6460  0.3550
  111TMC2    C6 1694   4.305   0.863  11.230 -0.0321 -0.3391 -0.6291
  111TMC2     C 1695   3.916   0.851  11.091 -0.4648  0.0756 -0.3064
  111TMC2     O 1696   3.902   0.863  10.970 -0.4081 -0.0745  0.0228
  111TMC2     H 1697   4.127   0.916  10.947  0.2593 -0.3573  0.0009
  111TMC2    H1 1698   4.009   0.738  11.317 -0.2695 -0.4156 -1.3691
  111TMC2    H2 1699   4.406   0.877  11.267 -1.5409  1.5653  2.8508
  111TMC2    C7 1700   4.236   0.736  11.420 -0.0589 -0.3509 -0.2335
  111TMC2    C8 1701   4.387   0.937  11.016 -0.0904 -0.2369 -0.6301
  111TMC2    O1 1702   4.153   0.694  11.502  0.2317 -0.1036  0.1661
  111TMC2    O2 1703   4.498   0.970  11.055 -0.1049  0.0057  0.3339
  111TMC2    O5 1704   4.355   0.908  10.888 -0.6833 -0.0258 -0.1299
  111TMC2    H5 1705   4.273   0.854  10.879  0.1603 -1.1225 -1.2575
  112MPD2     C 1706   3.429   0.971  11.146  0.7947  0.3976 -0.0448
  112MPD2    C1 1707   3.507   0.962  11.031  0.3733 -0.0723  0.1335
  112MPD2    C2 1708   3.640   0.925  11.044  0.7133 -0.0361  0.6939
  112MPD2    C3 1709   3.692   0.898  11.167 -0.4736  0.0709 -0.0540
  112MPD2    C4 1710   3.617   0.917  11.281 -0.4875 -0.0454 -0.0468
  112MPD2    C5 1711   3.479   0.941  11.267 -0.2884 -0.0849 -0.0086
  112MPD2     H 1712   3.693   0.917  10.949  1.3541 -0.5120  1.0853
  112MPD2    H1 1713   3.659   0.910  11.381  2.1907  1.2448 -1.0635
  112MPD2    H2 1714   3.322   0.992  11.145  0.9646  1.2778  0.2250
  112MPD2    H3 1715   3.426   0.961  11.360 -0.7299 -1.5670  0.0505
  112MPD2     N 1716   3.826   0.870  11.191 -0.1380 -0.4009 -0.5725
  112MPD2    H5 1717   3.866   0.888  11.282  0.2975  0.2495 -0.8974
  112MPD2    N1 1718   3.455   1.000  10.902 -0.2606  1.3399 -0.7538
  112MPD2    H7 1719   3.522   0.996  10.826  1.1063  3.0360  0.3913
  113MPD2     C 1720   1.322   3.861   1.786 -0.1246  0.3707 -0.1630
  113MPD2    C1 1721   1.191   3.885   1.813 -0.6043 -0.1217 -0.5121
  113MPD2    C2 1722   1.094   3.870   1.711 -0.1717 -0.2830  0.2662
  113MPD2    C3 1723   1.138   3.843   1.584 -0.0684 -0.9713  0.1464
  113MPD2    C4 1724   1.270   3.841   1.552 -0.2064  0.1883  0.0168
  113MPD2    C5 1725   1.355   3.838   1.659 -0.0632 -0.1969  0.4065
  113MPD2     H 1726   0.991   3.888   1.737  0.6656  2.6187  1.5284
  113MPD2    H1 1727   1.307   3.801   1.458 -0.0637 -0.4849  0.3570
  113MPD2    H2 1728   1.403   3.858   1.858  0.5178  2.3233 -0.8315
  113MPD2    H3 1729   1.463   3.827   1.649 -0.1474  0.9536 -1.8483
  113MPD2     N 1730   1.055   3.825   1.475 -0.7737 -0.2263 -0.8336
  113MPD2    H5 1731   1.109   3.802   1.391  1.4598  0.9548  0.2759
  113MPD2    N1 1732   1.144   3.927   1.938  0.2017  0.4724 -0.1764
  113MPD2    H7 1733   1.045   3.940   1.956  0.6685 -0.2477  2.7971
  114TCq2    C1 1734   0.925   3.819   1.480 -0.8894  0.3119  0.1168
  114TCq2    O2 1735   0.854   3.816   1.578 -0.1859  0.1490  0.3870
  114TCq2    C2 1736   0.871   3.791   1.352  0.3359 -0.1867 -0.2786
  114TCq2    C3 1737   0.740   3.770   1.352  0.4311  0.1456 -0.0341
  114TCq2    C4 1738   0.684   3.701   1.249 -0.7171  0.0451 -0.5861
  114TCq2    C5 1739   0.757   3.662   1.135  0.4637 -0.0004 -0.0477
  114TCq2    C6 1740   0.893   3.683   1.144 -0.6136  0.2623 -0.2509
  114TCq2    C7 1741   0.955   3.747   1.251  0.0625  0.3236  0.3692
  114TCq2    C8 1742   0.989   3.616   1.060 -0.4860  0.5152 -0.3437
  114TCq2    O4 1743   1.099   3.664   1.056  0.6499  0.3525 -1.1742
  114TCq2    C9 1744   0.547   3.661   1.253  0.5317 -0.4251  0.2556
  114TCq2    O5 1745   0.500   3.596   1.155  0.0575  0.4445 -0.3351
  114TCq2    O6 1746   0.489   3.670   1.359 -0.0508  0.1597 -0.5590
  114TCq2    H2 1747   0.680   3.788   1.441 -0.8214  1.9524 -1.2574
  114TCq2    H3 1748   0.709   3.600   1.060  1.7655 -0.1171 -0.7773
  114TCq2    H4 1749   1.063   3.751   1.247 -0.0006  0.6078 -1.0667
  115TMC2    C1 1750   2.003   1.856  17.245 -0.3889 -0.2113  0.6787
  115TMC2    C2 1751   1.979   1.899  17.123 -0.1075 -0.4587 -0.0447
  115TMC2    C3 1752   2.048   2.001  17.070  0.4521 -0.3025  1.4881
  115TMC2    C4 1753   2.107   1.914  17.308 -0.1163 -0.4645 -0.0518
  115TMC2    C5 1754   2.188   2.002  17.254 -0.3602 -0.8347  0.1927
  115TMC2    C6 1755   2.156   2.055  17.132 -0.3162 -0.3581 -0.3318
  115TMC2     C 1756   1.952   1.725  17.280  0.1755  0.2481 -0.6201
  115TMC2     O 1757   1.886   1.668  17.198 -0.5898  0.5476  0.6245
  115TMC2     H 1758   1.896   1.852  17.071 -1.2461 -0.8466  2.1607
  115TMC2    H1 1759   2.140   1.858  17.396 -0.1726 -0.5273 -0.0708
  115TMC2    H2 1760   2.220   2.121  17.074 -0.4920  0.9573  0.9600
  115TMC2    C7 1761   2.232   2.099  17.359 -0.2035  0.9082  0.2019
  115TMC2    C8 1762   2.042   2.001  16.927 -0.2852 -0.8076 -0.2020
  115TMC2    O1 1763   2.178   2.101  17.469 -0.2254 -0.4462 -0.4054
  115TMC2    O2 1764   1.987   2.098  16.874  0.2277  0.7143  0.2518
  115TMC2    O5 1765   2.154   1.934  16.887 -0.2211  0.6656 -0.4686
  115TMC2    H5 1766   2.197   1.878  16.954 -0.5671  0.3557 -0.5055
  116MPD2     C 1767   1.924   1.314  17.593 -0.0180  0.1284  0.4048
  116MPD2    C1 1768   1.927   1.323  17.453  0.3357  0.0835  0.6014
  116MPD2    C2 1769   1.932   1.448  17.393 -0.3019 -0.2902  0.7689
  116MPD2    C3 1770   1.959   1.561  17.464 -0.0526  0.4413 -0.6925
  116MPD2    C4 1771   1.965   1.548  17.604 -0.0915 -0.1605 -0.1210
  116MPD2    C5 1772   1.947   1.429  17.666 -0.6032 -0.0638  0.1017
  116MPD2     H 1773   1.940   1.451  17.285  0.2601  0.4131  0.8318
  116MPD2    H1 1774   1.979   1.638  17.661  1.1210  0.2574 -1.0757
  116MPD2    H2 1775   1.920   1.218  17.644 -0.6350  0.7147  1.4651
  116MPD2    H3 1776   1.952   1.427   0.082  0.5062  1.3999  0.0763
  116MPD2     N 1777   1.978   1.691  17.410  0.6583  0.3076  0.2420
  116MPD2    H5 1778   1.993   1.761  17.482 -1.5957  0.5092  0.5294
  116MPD2    N1 1779   1.939   1.202  17.374 -0.4888  0.1905  0.1519
  116MPD2    H7 1780   1.925   1.111  17.415  1.7417 -0.1832  0.0916
  117TMC2    C1 1781   1.591   2.725  13.532 -0.5190 -0.0513  0.2574
  117TMC2    C2 1782   1.719   2.695  13.482 -0.0464  0.1163  0.2173
  117TMC2    C3 1783   1.823   2.779  13.512 -0.5581 -0.3283  0.2490
  117TMC2    C4 1784   1.570   2.827  13.622 -0.2015  0.4947  0.6829
  117TMC2    C5 1785   1.678   2.909  13.655 -0.6030  0.8476  0.5619
  117TMC2    C6 1786   1.801   2.887  13.598 -0.1098 -0.5610  0.2980
  117TMC2     C 1787   1.484   2.632  13.500 -0.4626 -0.7564 -0.1520
  117TMC2     O 1788   1.526   2.529  13.449 -0.7220  0.0439 -0.0985
  117TMC2     H 1789   1.730   2.608  13.418 -2.1386  1.0431 -1.3846
  117TMC2    H1 1790   1.472   2.864  13.648  0.8594  1.9876  2.6037
  117TMC2    H2 1791   1.885   2.952  13.618 -0.2244 -0.2584 -0.2143
  117TMC2    C7 1792   1.669   3.005  13.760 -0.3143  0.3334  0.0823
  117TMC2    C8 1793   1.948   2.769  13.440  0.1780  0.2777 -0.3772
  117TMC2    O1 1794   1.569   3.001  13.828  0.3571  0.0382 -0.1502
  117TMC2    O2 1795   2.053   2.820  13.474 -0.0962 -0.3925  0.0413
  117TMC2    O5 1796   1.919   2.738  13.306  0.0932 -0.1533 -0.1362
  117TMC2    H5 1797   1.823   2.721  13.293  0.2578 -0.6580 -0.7205
  118MPD2     C 1798   1.858   3.331  13.773 -0.1633 -0.0469  0.0964
  118MPD2    C1 1799   1.768   3.231  13.816  0.2524 -0.3247  0.2591
  118MPD2    C2 1800   1.697   3.253  13.935 -0.4247 -0.7946  0.0658
  118MPD2    C3 1801   1.713   3.365  14.012 -0.1225  1.0550 -0.5884
  118MPD2    C4 1802   1.801   3.462  13.968  0.1720 -0.3804  0.1590
  118MPD2    C5 1803   1.869   3.445  13.852 -0.5364  0.2213  0.0321
  118MPD2     H 1804   1.631   3.174  13.968  1.1102 -1.0905  2.4932
  118MPD2    H1 1805   1.824   3.552  14.024 -0.0288 -1.1770  1.5470
  118MPD2    H2 1806   1.934   3.312  13.698  0.2065  0.8080  0.2556
  118MPD2    H3 1807   1.947   3.516  13.828 -0.8557  1.2786  2.1433
  118MPD2     N 1808   1.658   3.382  14.136  0.0435  0.0252 -0.0751
  118MPD2    H5 1809   1.703   3.453  14.192  0.1404  0.9212 -1.2749
  118MPD2    N1 1810   1.759   3.109  13.739 -0.1715 -0.0134 -0.4310
  118MPD2    H7 1811   1.819   3.106  13.658  0.1249  2.3347 -0.2697
  119MPD2     C 1812   4.190   4.531  13.411  0.6224 -0.0236 -0.3783
  119MPD2    C1 1813   4.057   4.499  13.423  0.4367  0.0783  0.6129
  119MPD2    C2 1814   3.995   4.443  13.309 -0.0916 -0.6966  0.2749
  119MPD2    C3 1815   4.063   4.433  13.186  0.1911  0.6761 -0.4226
  119MPD2    C4 1816   4.199   4.466  13.179  0.0451  0.6317 -0.3485
  119MPD2    C5 1817   4.255   4.513  13.289 -0.1012 -0.4079 -0.2419
  119MPD2     H 1818   3.898   4.397  13.323 -0.9346  0.3547 -2.2005
  119MPD2    H1 1819   4.259   4.471  13.088  0.1098  1.7813 -0.2446
  119MPD2    H2 1820   4.246   4.570  13.495 -0.2915  0.1427  0.1637
  119MPD2    H3 1821   4.360   4.539  13.280  0.4163 -2.3554  0.2583
  119MPD2     N 1822   4.002   4.378  13.067  0.9005  0.7551  0.5159
  119MPD2    H5 1823   4.062   4.381  12.985 -0.4990 -0.0650 -0.5478
  119MPD2    N1 1824   4.008   4.513  13.547 -0.8381  0.2609  0.6033
  119MPD2    H7 1825   4.074   4.539  13.619  0.9338 -0.3955 -0.7878
  120TCq2    C1 1826   3.869   4.355  13.060  0.2025  0.1418 -0.0768
  120TCq2    O2 1827   3.777   4.362  13.136 -0.4606  0.0767 -0.0966
  120TCq2    C2 1828   3.832   4.301  12.928 -0.4505  0.3545  0.0833
  120TCq2    C3 1829   3.921   4.212  12.859 -0.4138 -0.4814 -0.6098
  120TCq2    C4 1830   3.864   4.099  12.798  0.2545  0.3039  0.3233
  120TCq2    C5 1831   3.729   4.088  12.792 -0.4534 -0.3704 -0.8171
  120TCq2    C6 1832   3.644   4.175  12.859 -0.2194 -0.1950 -0.2387
  120TCq2    C7 1833   3.696   4.284  12.931 -0.6985 -0.7145 -0.0112
  120TCq2    C8 1834   3.528   4.107  12.909  0.0907  0.0116 -0.9645
  120TCq2    O4 1835   3.468   4.035  12.830 -0.0868 -0.0154  0.5779
  120TCq2    C9 1836   3.947   3.996  12.742 -0.5246  0.9795  0.1836
  120TCq2    O5 1837   3.893   3.901  12.681  0.5186  0.2597 -0.3806
  120TCq2    O6 1838   4.073   4.003  12.762 -0.3873  0.0531 -0.2192
  120TCq2    H2 1839   4.028   4.209  12.875 -0.4666 -0.2833 -0.2206
  120TCq2    H3 1840   3.688   3.999  12.745 -3.1057  0.7284 -0.5576
  120TCq2    H4 1841   3.625   4.353  12.976  1.0093 -0.1632  1.8642
  121TMC2    C1 1842   0.396   1.195  13.881  0.8587  0.5943 -0.5165
  121TMC2    C2 1843   0.494   1.101  13.914 -0.7867  0.0664  0.1720
  121TMC2    C3 1844   0.459   1.004  14.009  0.6451  0.4111 -0.0137
  121TMC2    C4 1845   0.273   1.191  13.931  0.3846  0.4788  0.3007
  121TMC2    C5 1846   0.257   1.103  14.041 -0.0362 -0.1409  0.2433
  121TMC2    C6 1847   0.344   1.005  14.077  0.1826 -0.5101 -0.6575
  121TMC2     C 1848   0.432   1.326  13.822 -0.5221  0.2177  0.1226
  121TMC2     O 1849   0.351   1.416  13.811  0.3061  0.3978  0.5611
  121TMC2     H 1850   0.590   1.096  13.862  0.0076  0.5384  1.5906
  121TMC2    H1 1851   0.204   1.272  13.910  0.1865  0.3940  0.6210
  121TMC2    H2 1852   0.311   0.912  14.121  2.1483 -0.6518  0.4952
  121TMC2    C7 1853   0.124   1.068  14.073 -0.2521  0.5077  0.6695
  121TMC2    C8 1854   0.559   0.902  14.045  0.6946 -0.1411 -0.1409
  121TMC2    O1 1855   0.097   0.968  14.136  0.5049  0.4122  0.0234
  121TMC2    O2 1856   0.637   0.858  13.965  0.0587  0.1584 -0.0869
  121TMC2    O5 1857   0.535   0.833  14.155  0.0538 -0.3645  0.0035
  121TMC2    H5 1858   0.462   0.871  14.208  1.0521  3.3724 -1.2868
  122MPD2     C 1859   0.598   1.567  13.743  0.3518 -0.1322 -0.3731
  122MPD2    C1 1860   0.639   1.436  13.728  0.1824 -0.3131  0.3836
  122MPD2    C2 1861   0.764   1.407  13.676  0.1015 -0.4954  0.4305
  122MPD2    C3 1862   0.848   1.512  13.637  0.1480  0.1482  0.4946
  122MPD2    C4 1863   0.813   1.644  13.656 -0.4496 -0.5358 -0.2184
  122MPD2    C5 1864   0.684   1.669  13.712 -0.1523 -0.6372  0.3772
  122MPD2     H 1865   0.784   1.301  13.669  0.0294 -0.4981  0.2595
  122MPD2    H1 1866   0.869   1.731  13.624  0.4846 -0.9642  0.2474
  122MPD2    H2 1867   0.496   1.592  13.771  0.3944 -0.1217 -0.2252
  122MPD2    H3 1868   0.649   1.772  13.719  2.2771  0.3177 -1.1520
  122MPD2     N 1869   0.974   1.484  13.573  0.2046  0.3997  0.2493
  122MPD2    H5 1870   1.034   1.559  13.541 -1.0854  2.4447  2.6447
  122MPD2    N1 1871   0.560   1.322  13.766 -0.6938 -0.4615 -0.1773
  122MPD2    H7 1872   0.609   1.234  13.753  2.3468  0.9349  1.8200
  123MPD2     C 1873   3.859   4.317  10.297  0.0702 -0.3170  0.3175
  123MPD2    C1 1874   3.899   4.421  10.211 -0.4305  0.7121 -0.2029
  123MPD2    C2 1875   3.980   4.525  10.262 -0.1161 -0.1206 -1.0220
  123MPD2    C3 1876   4.020   4.520  10.397  0.9085 -0.3263 -0.2037
  123MPD2    C4 1877   3.996   4.406  10.476 -0.0883  0.1362 -0.1077
  123MPD2    C5 1878   3.911   4.310  10.424  0.5602  0.1257  0.0056
  123MPD2     H 1879   4.005   4.613  10.205 -0.9859  0.9264  0.2203
  123MPD2    H1 1880   4.025   4.402  10.581 -0.3930  0.8533  0.0047
  123MPD2    H2 1881   3.794   4.235  10.270  3.1818 -3.0524  1.0313
  123MPD2    H3 1882   3.875   4.230  10.488 -0.2365 -0.4430 -1.1558
  123MPD2     N 1883   4.089   4.634  10.447 -0.3155  0.5214 -0.4672
  123MPD2    H5 1884   4.124   4.693  10.373  2.0403  0.3765  0.5301
  123MPD2    N1 1885   3.833   4.416  10.078  0.4332 -0.7923 -0.3965
  123MPD2    H7 1886   3.779   4.335  10.053 -0.2177 -0.2400 -0.7699
  124TCq2    C1 1887   4.113   4.665  10.576 -0.2482 -0.1069 -0.3793
  124TCq2    O2 1888   4.060   4.619  10.674 -0.6038 -0.5256  0.5096
  124TCq2    C2 1889   4.176   0.077  10.584 -0.2341 -0.0536  0.1097
  124TCq2    C3 1890   4.085   0.165  10.627 -0.4803 -0.3025  0.5674
  124TCq2    C4 1891   4.066   0.287  10.566  0.0291 -0.2252 -0.4265
  124TCq2    C5 1892   4.119   0.310  10.442  0.8014  0.8068  0.5270
  124TCq2    C6 1893   4.208   0.218  10.398 -0.7714  0.7290  0.5429
  124TCq2    C7 1894   4.243   0.110  10.469 -0.1399  0.2554 -0.9944
  124TCq2    C8 1895   4.211   0.183  10.258 -0.6314  0.0050 -0.0275
  124TCq2    O4 1896   4.223   0.062  10.231  0.5616  0.5860  0.2671
  124TCq2    C9 1897   3.976   0.381  10.616  0.0967 -0.0616 -0.2566
  124TCq2    O5 1898   3.971   0.488  10.560  0.0450  0.2584 -1.0765
  124TCq2    O6 1899   3.904   0.345  10.713  0.4515  0.0782  0.3404
  124TCq2    H2 1900   4.036   0.142  10.720 -1.7972  0.6877  0.1187
  124TCq2    H3 1901   4.088   0.392  10.378  2.4730  1.2880  0.3275
  124TCq2    H4 1902   4.318   0.039  10.435 -1.3813 -0.5549 -2.0188
  125TMC2    C1 1903   0.753   2.725   9.433 -0.6174 -0.4147 -0.3220
  125TMC2    C2 1904   0.729   2.857   9.474 -0.3746  0.2907  1.0393
  125TMC2    C3 1905   0.610   2.897   9.513  0.7372  0.3698 -0.5313
  125TMC2    C4 1906   0.654   2.631   9.442  0.6249 -0.3474  0.4023
  125TMC2    C5 1907   0.538   2.674   9.505 -0.2235  0.3967  0.4329
  125TMC2    C6 1908   0.514   2.802   9.541 -0.5579 -0.0838 -0.2807
  125TMC2     C 1909   0.880   2.682   9.381 -0.7238  0.8253  0.6740
  125TMC2     O 1910   0.907   2.565   9.393  0.2038 -0.1722  0.1182
  125TMC2     H 1911   0.806   2.933   9.474 -0.2428  0.1562  0.0663
  125TMC2    H1 1912   0.671   2.526   9.425  0.7448 -0.7106  2.8013
  125TMC2    H2 1913   0.418   2.828   9.583  0.0833  0.5858  0.7863
  125TMC2    C7 1914   0.434   2.574   9.546 -0.3622  0.2192  0.0246
  125TMC2    C8 1915   0.613   3.020   9.590 -0.2652 -0.1572 -0.2279
  125TMC2    O1 1916   0.322   2.621   9.574  0.9314 -0.1565  0.3522
  125TMC2    O2 1917   0.561   3.023   9.698  0.2394 -0.3330  0.1886
  125TMC2    O5 1918   0.671   3.119   9.520  0.1390 -0.2152 -0.1994
  125TMC2    H5 1919   0.679   3.090   9.426 -0.3636  0.5379 -0.4766
  126MPD1     C 1920   1.299   2.762   9.100  0.0078  0.8856 -0.8053
  126MPD1    C1 1921   1.248   2.887   9.130  0.1385 -0.3741 -0.0092
  126MPD1    C2 1922   1.124   2.887   9.194  0.6446 -0.2304 -0.3634
  126MPD1    C3 1923   1.069   2.771   9.250 -0.7467  0.0358  0.5161
  126MPD1    C4 1924   1.135   2.655   9.230  0.1915  0.5631  0.1903
  126MPD1    C5 1925   1.252   2.649   9.165  0.2240  0.0059 -0.1284
  126MPD1     H 1926   1.060   2.974   9.191  0.1676 -0.5166  1.2909
  126MPD1    H1 1927   1.095   2.564   9.274 -1.2768  1.7804  1.3910
  126MPD1    H2 1928   1.383   2.744   9.034  0.0188 -1.8270 -0.0497
  126MPD1    H3 1929   1.287   2.548   9.147  2.2439  0.4110  1.6116
  126MPD1     N 1930   0.939   2.778   9.303 -0.1880  0.0278 -0.8745
  126MPD1    H5 1931   0.902   2.871   9.315  0.4310  0.3060 -1.0990
  126MPD1    N1 1932   1.294   3.006   9.060  0.1349 -0.1187 -0.1157
  126MPD1    H6 1933   1.284   3.088   9.119 -1.6212 -0.6701  0.3659
  126MPD1    H7 1934   1.392   3.015   9.034  0.2928  0.6231  0.7435
  127MPD2     C 1935   0.113   0.284   9.508  0.5310 -0.2046  0.3725
  127MPD2    C1 1936   0.213   0.186   9.506  0.3855 -0.5233  0.0883
  127MPD2    C2 1937   0.345   0.226   9.493  0.2913  0.5395 -0.2885
  127MPD2    C3 1938   0.376   0.361   9.496 -0.1473  0.2468 -0.5912
  127MPD2    C4 1939   0.276   0.455   9.491  0.0863 -0.0235  0.1528
  127MPD2    C5 1940   0.144   0.414   9.495  0.0126  0.1630 -0.2014
  127MPD2     H 1941   0.431   0.163   9.473  0.0429 -0.3205  1.3522
  127MPD2    H1 1942   0.282   0.563   9.482  0.0586 -0.1609 -1.4640
  127MPD2    H2 1943   0.012   0.245   9.516  1.8117 -3.3878  0.8193
  127MPD2    H3 1944   0.059   0.481   9.486  0.1478  0.2055 -1.1690
  127MPD2     N 1945   0.516   0.400   9.490  0.4571  0.4594 -0.3005
  127MPD2    H5 1946   0.580   0.321   9.482  0.4056  0.1660  2.1316
  127MPD2    N1 1947   0.169   0.053   9.536  0.2418 -0.2713  0.4568
  127MPD2    H7 1948   0.071   0.038   9.553 -0.5192 -0.0465 -3.7001
  128TCq2    C1 1949   0.250   4.664   9.527 -0.7948 -0.1305  0.7076
  128TCq2    O2 1950   0.358   4.652   9.465  0.1869 -0.6421 -0.1144
  128TCq2    C2 1951   0.189   4.545   9.591  0.4346 -0.4346 -0.3608
  128TCq2    C3 1952   0.127   4.567   9.710  0.0257  0.4310  0.2825
  128TCq2    C4 1953   0.069   4.453   9.768  0.2791 -0.0925  0.6934
  128TCq2    C5 1954   0.091   4.325   9.725  0.4360 -0.0779  0.1489
  128TCq2    C6 1955   0.170   4.309   9.615 -0.2649 -0.5755 -0.1518
  128TCq2    C7 1956   0.225   4.421   9.545  0.5943  0.0883  0.8444
  128TCq2    C8 1957   0.178   4.183   9.545 -0.3127  0.2023 -0.5183
  128TCq2    O4 1958   0.241   4.173   9.439 -0.3267 -0.0955  0.2550
  128TCq2    C9 1959   4.691   4.475   9.872 -0.0118 -0.0430 -0.6193
  128TCq2    O5 1960   4.659   4.376   9.945 -0.1499  0.1075 -0.1147
  128TCq2    O6 1961   4.630   4.582   9.870 -0.4174  0.0215 -0.0292
  128TCq2    H2 1962   0.120   4.663   9.760 -2.0393  1.3342 -1.7517
  128TCq2    H3 1963   0.062   4.243   9.790 -0.1460 -1.9779 -2.5241
  128TCq2    H4 1964   0.264   4.404   9.445 -0.9332 -0.1037  0.2868
  129MPD2     C 1965   2.955   1.294   0.779  0.0182 -0.1654  0.5871
  129MPD2    C1 1966   3.036   1.383   0.851  0.1790  1.1242  1.0523
  129MPD2    C2 1967   3.155   1.423   0.786  0.1144 -0.1773 -0.3119
  129MPD2    C3 1968   3.188   1.384   0.662 -0.2038  0.0742 -0.0680
  129MPD2    C4 1969   3.104   1.294   0.595  0.3509 -0.2127  0.0788
  129MPD2    C5 1970   2.987   1.253   0.655  0.4943  0.4800 -0.1721
  129MPD2     H 1971   3.215   1.494   0.841  1.0882 -1.4067  0.1927
  129MPD2    H1 1972   3.122   1.254   0.496  0.9466 -1.8542  0.8514
  129MPD2    H2 1973   2.865   1.253   0.824 -0.2816  0.7717  0.8346
  129MPD2    H3 1974   2.913   1.195   0.602 -0.0349  1.7807 -0.8653
  129MPD2     N 1975   3.305   1.437   0.607 -0.0008 -0.4496 -0.1546
  129MPD2    H5 1976   3.367   1.485   0.672 -0.5027 -1.6016  1.1768
  129MPD2    N1 1977   2.998   1.445   0.974 -0.7863  0.3088 -0.0296
  129MPD2    H7 1978   3.071   1.501   1.018 -1.0558  0.7239 -0.1034
  130TCq2    C1 1979   2.871   1.432   1.025  1.0259 -0.0640  0.4218
  130TCq2    O2 1980   2.771   1.382   0.976  0.6601  0.2540  0.8815
  130TCq2    C2 1981   2.848   1.512   1.145  0.2134  0.5546  0.0336
  130TCq2    C3 1982   2.943   1.604   1.185 -0.7287 -0.0526  0.2075
  130TCq2    C4 1983   2.950   1.630   1.315 -0.3899  0.2951  0.0650
  130TCq2    C5 1984   2.865   1.567   1.407 -0.6811 -0.7224  0.2910
  130TCq2    C6 1985   2.765   1.482   1.362 -0.6649  0.3905  0.5208
  130TCq2    C7 1986   2.751   1.469   1.230 -0.6954  0.1812  0.4772
  130TCq2    C8 1987   2.678   1.394   1.440  0.4517  0.3914  0.1216
  130TCq2    O4 1988   2.586   1.344   1.377 -0.0312 -0.3760  0.1008
  130TCq2    C9 1989   3.063   1.715   1.354 -0.1415 -0.3255  0.3725
  130TCq2    O5 1990   3.068   1.748   1.470 -0.0270  0.0327  0.0370
  130TCq2    O6 1991   3.159   1.730   1.269 -0.8536 -0.5088 -0.5899
  130TCq2    H2 1992   3.004   1.654   1.111 -1.5971  0.0788 -0.4259
  130TCq2    H3 1993   2.902   1.573   1.509  0.1503  1.1103 -0.0986
  130TCq2    H4 1994   2.692   1.386   1.192 -1.9210  0.8152  0.9702
  131MPD2     C 1995   3.723   0.447   9.402  0.0092  0.1859  0.0979
  131MPD2    C1 1996   3.739   0.448   9.541  0.5355 -1.1120  0.2539
  131MPD2    C2 1997   3.733   0.325   9.610 -0.0675 -0.1296  0.3320
  131MPD2    C3 1998   3.703   0.211   9.540  0.1884 -0.2452 -0.1036
  131MPD2    C4 1999   3.684   0.215   9.405  0.3352 -0.2512 -0.6446
  131MPD2    C5 2000   3.687   0.330   9.335  0.5501  0.1414 -0.0874
  131MPD2     H 2001   3.745   0.325   9.718  0.2555 -1.2371  0.3035
  131MPD2    H1 2002   3.644   0.138   9.339  0.0532  0.7224 -1.6159
  131MPD2    H2 2003   3.720   0.533   9.336  2.0688 -1.5128 -2.1981
  131MPD2    H3 2004   3.660   0.329   9.230 -0.2475 -1.4692  0.1396
  131MPD2     N 2005   3.685   0.082   9.615 -0.4407 -0.0457  0.4254
  131MPD2    H5 2006   3.697   0.074   9.715  1.4522 -1.7220  0.0729
  131MPD2    N1 2007   3.760   0.575   9.601 -0.4156  0.3718 -0.3396
  131MPD2    H7 2008   3.774   0.648   9.531  1.5170  0.9991  0.7107
  132TCq2    C1 2009   3.740   1.078   9.622 -0.8004  0.1911 -0.0987
  132TCq2    O2 2010   3.712   1.045   9.511 -0.0423 -0.1772  0.2970
  132TCq2    C2 2011   3.771   0.965   9.716 -0.0499 -0.4549  0.0050
  132TCq2    C3 2012   3.786   0.992   9.845  0.2817  0.6755  0.7177
  132TCq2    C4 2013   3.804   0.888   9.932 -0.2695  0.6111 -0.5510
  132TCq2    C5 2014   3.805   0.761   9.896 -0.0071 -0.2602  0.3710
  132TCq2    C6 2015   3.792   0.740   9.763 -0.5282  0.3185  0.0844
  132TCq2    C7 2016   3.776   0.838   9.675  0.2658  0.2940 -0.0006
  132TCq2    C8 2017   3.773   0.601   9.731  0.3640 -0.1245 -0.1774
  132TCq2    O4 2018   3.774   0.525   9.827 -0.0633  0.0405 -0.1077
  132TCq2    C9 2019   3.829   0.925  10.072 -0.1543  0.7532 -0.0416
  132TCq2    O5 2020   3.832   0.831  10.156  0.1924 -0.0137 -0.2614
  132TCq2    O6 2021   3.893   1.034  10.080  0.6245 -0.4530  0.2889
  132TCq2    H2 2022   3.770   1.091   9.886 -0.0277  1.0119 -0.2089
  132TCq2    H3 2023   3.827   0.683   9.968 -0.3067 -1.9587 -1.3785
  132TCq2    H4 2024   3.780   0.824   9.568  1.4905 -0.1004  0.0980
  133MPD2     C 2025   2.094   1.200   9.228 -0.1877  0.3843  0.2086
  133MPD2    C1 2026   2.214   1.130   9.207  0.4452 -0.1151  0.2564
  133MPD2    C2 2027   2.204   0.993   9.185  0.2802  0.2361  0.5671
  133MPD2    C3 2028   2.078   0.929   9.172  0.0985  0.3599  0.5065
  133MPD2    C4 2029   1.961   1.007   9.194 -0.5497  0.6969 -0.2260
  133MPD2    C5 2030   1.971   1.143   9.214  0.9146 -0.1687 -0.7050
  133MPD2     H 2031   2.298   0.940   9.184 -0.2013 -0.6065  0.3620
  133MPD2    H1 2032   1.863   0.960   9.196  0.8817 -2.3207 -0.4658
  133MPD2    H2 2033   2.093   1.306   9.252 -1.6359 -0.1768  2.6864
  133MPD2    H3 2034   1.883   1.205   9.227  0.0158 -1.5973  0.0654
  133MPD2     N 2035   2.063   0.793   9.172  0.1643 -0.3242 -0.1618
  133MPD2    H5 2036   1.967   0.765   9.192  0.5803 -2.1804 -0.7999
  133MPD2    N1 2037   2.333   1.204   9.217  0.1072  0.2592 -0.1976
  133MPD2    H7 2038   2.326   1.305   9.232 -0.1236  0.2199 -0.0423
  134TCq2    C1 2039   2.463   1.154   9.225  0.1384 -0.1764 -1.0950
  134TCq2    O2 2040   2.510   1.043   9.222 -0.4167 -0.1548  0.4223
  134TCq2    C2 2041   2.556   1.262   9.224 -0.3510  0.5357  0.5022
  134TCq2    C3 2042   2.510   1.381   9.172  0.3919  0.5737  0.4911
  134TCq2    C4 2043   2.578   1.495   9.198 -0.4697 -0.0902  0.4239
  134TCq2    C5 2044   2.695   1.480   9.276 -0.6039 -0.7037 -0.7742
  134TCq2    C6 2045   2.735   1.356   9.325  0.1134  0.6892  0.1032
  134TCq2    C7 2046   2.662   1.244   9.299 -0.3694  0.4355  0.1329
  134TCq2    C8 2047   2.849   1.347   9.415 -0.2248 -0.0161  0.3042
  134TCq2    O4 2048   2.911   1.242   9.412  0.3070 -0.1234 -0.6326
  134TCq2    C9 2049   2.548   1.628   9.143 -0.5096 -0.0664 -0.1851
  134TCq2    O5 2050   2.634   1.721   9.154  0.2587 -0.0409 -0.6457
  134TCq2    O6 2051   2.445   1.637   9.077  0.2603 -0.2584  0.7569
  134TCq2    H2 2052   2.436   1.383   9.093  1.2737 -3.6815 -0.4001
  134TCq2    H3 2053   2.759   1.566   9.294 -3.1610  0.8730  0.8058
  134TCq2    H4 2054   2.703   1.150   9.333 -1.3735  1.2861  3.7620
  135MPD2     C 2055   1.505   2.743   9.392 -0.0340  0.2642  0.8126
  135MPD2    C1 2056   1.468   2.609   9.398  0.2991  0.4472  0.1283
  135MPD2    C2 2057   1.551   2.515   9.340  0.2266  0.1211  0.1143
  135MPD2    C3 2058   1.666   2.548   9.281  0.2990 -0.5296  0.6928
  135MPD2    C4 2059   1.708   2.678   9.283  0.1856 -0.0733 -0.7099
  135MPD2    C5 2060   1.622   2.775   9.336  0.1803 -0.1977 -0.2401
  135MPD2     H 2061   1.519   2.412   9.348  0.8493 -0.0668  0.1817
  135MPD2    H1 2062   1.801   2.707   9.233 -0.3053 -1.2664 -2.3213
  135MPD2    H2 2063   1.450   2.825   9.436  1.9421 -0.0817  3.9111
  135MPD2    H3 2064   1.646   2.879   9.351  1.8393 -0.7317  0.9842
  135MPD2     N 2065   1.751   2.452   9.218 -0.4862  0.0548 -1.1699
  135MPD2    H5 2066   1.836   2.483   9.172 -0.1525  2.4886  1.1129
  135MPD2    N1 2067   1.357   2.562   9.467 -0.1743  0.0860 -0.6758
  135MPD2    H7 2068   1.346   2.464   9.490 -0.4871  0.7803  2.1041
  136TCq2    C1 2069   1.256   2.640   9.526 -0.3771  0.1819  0.1384
  136TCq2    O2 2070   1.244   2.761   9.545  0.1136 -0.6096 -0.3250
  136TCq2    C2 2071   1.156   2.564   9.607 -0.2154 -0.1025  0.1367
  136TCq2    C3 2072   1.174   2.439   9.638 -0.0870 -0.0719 -0.5502
  136TCq2    C4 2073   1.090   2.375   9.733 -0.0526  0.6130  0.0333
  136TCq2    C5 2074   0.997   2.451   9.803 -0.4520  0.1862  0.1004
  136TCq2    C6 2075   0.982   2.583   9.760 -0.5470 -0.2422  0.2247
  136TCq2    C7 2076   1.062   2.643   9.664  1.1106 -0.1041 -0.1552
  136TCq2    C8 2077   0.843   2.636   9.771  0.5505 -0.3690 -0.6346
  136TCq2    O4 2078   0.816   2.753   9.753 -0.4366 -0.5489 -0.5425
  136TCq2    C9 2079   1.096   2.234   9.756 -0.3590 -0.6585 -0.3744
  136TCq2    O5 2080   1.029   2.189   9.852  0.3395 -0.4896  0.0893
  136TCq2    O6 2081   1.164   2.154   9.683 -0.1513 -0.1844 -0.6359
  136TCq2    H2 2082   1.243   2.374   9.585 -0.5094 -0.1100 -1.0547
  136TCq2    H3 2083   0.948   2.411   9.891 -1.0218  0.7835  0.0554
  136TCq2    H4 2084   1.032   2.740   9.624 -0.0584 -0.3514  0.1267
  137MPD2     C 2085   0.549   1.561   9.280 -0.0061 -0.1027  0.1447
  137MPD2    C1 2086   0.439   1.617   9.339  0.0443 -0.0249  0.2928
  137MPD2    C2 2087   0.358   1.539   9.413  1.2602  0.0030  0.5996
  137MPD2    C3 2088   0.377   1.410   9.449  0.0966 -0.0821  0.6432
  137MPD2    C4 2089   0.488   1.352   9.391 -0.0912  0.4967 -0.1391
  137MPD2    C5 2090   0.571   1.434   9.307 -0.2860  0.1782 -0.2240
  137MPD2     H 2091   0.281   1.591   9.469  0.6823  0.0905 -0.2732
  137MPD2    H1 2092   0.510   1.246   9.394 -1.2459  0.2910  0.8817
  137MPD2    H2 2093   0.614   1.606   9.207  0.6863 -1.2344  0.0535
  137MPD2    H3 2094   0.647   1.378   9.253  0.2809 -0.6491  1.4144
  137MPD2     N 2095   0.286   1.353   9.541 -0.2543  0.4239 -0.6671
  137MPD2    H5 2096   0.195   1.393   9.560  0.7882  1.7120  1.6712
  137MPD2    N1 2097   0.415   1.753   9.315 -0.2375  0.2917  0.2407
  137MPD2    H7 2098   0.484   1.804   9.260 -1.4464  0.7253 -0.8748
  138TCq2    C1 2099   0.298   1.816   9.343  0.1562 -0.1252  0.4779
  138TCq2    O2 2100   0.189   1.775   9.380  0.0248 -0.2174 -0.5854
  138TCq2    C2 2101   0.310   1.961   9.328  0.5719  0.1138 -0.0715
  138TCq2    C3 2102   0.413   2.024   9.267 -0.0704  0.1083 -0.3593
  138TCq2    C4 2103   0.405   2.146   9.203  0.3671 -0.4706  1.0211
  138TCq2    C5 2104   0.278   2.185   9.168  0.1682  0.2279  0.1756
  138TCq2    C6 2105   0.168   2.134   9.234 -0.3082  0.1113  0.1752
  138TCq2    C7 2106   0.183   2.021   9.310 -0.4250  0.1238 -0.7597
  138TCq2    C8 2107   0.035   2.178   9.197 -0.2083 -0.3234 -0.0619
  138TCq2    O4 2108   0.030   2.259   9.100  0.6562 -0.1036 -0.0238
  138TCq2    C9 2109   0.516   2.225   9.167  0.1204  0.0358  0.1219
  138TCq2    O5 2110   0.624   2.175   9.192  0.4835  0.7598 -0.3568
  138TCq2    O6 2111   0.497   2.343   9.121 -0.2664 -0.4749 -0.6111
  138TCq2    H2 2112   0.517   1.997   9.283 -0.0804  0.1394 -0.2407
  138TCq2    H3 2113   0.270   2.269   9.101 -1.1162  0.5803  0.7673
  138TCq2    H4 2114   0.097   1.971   9.353 -0.0332  2.0354  2.2616
  139TMC2    C1 2115   0.924   3.700  13.318  0.2279  0.0522  0.5662
  139TMC2    C2 2116   0.995   3.788  13.240  0.4966  0.1421  0.3307
  139TMC2    C3 2117   0.990   3.926  13.256  0.0710 -0.4471 -0.2378
  139TMC2    C4 2118   0.833   3.758  13.413 -0.0139 -0.2931  0.4420
  139TMC2    C5 2119   0.826   3.895  13.418 -0.2370  0.0348  0.1227
  139TMC2    C6 2120   0.904   3.984  13.344  0.2348 -0.2461  0.1578
  139TMC2     C 2121   0.975   3.571  13.329  0.3390 -0.2440 -0.2612
  139TMC2     O 2122   1.059   3.538  13.244  0.3660  0.0619 -0.1331
  139TMC2     H 2123   1.074   3.749  13.176 -0.5307 -1.2527 -0.0810
  139TMC2    H1 2124   0.757   3.704  13.469  0.5505 -0.5347  0.9786
  139TMC2    H2 2125   0.877   4.089  13.345  0.9881 -0.0487 -0.3686
  139TMC2    C7 2126   0.720   3.956  13.488  0.1723  0.1427  0.3385
  139TMC2    C8 2127   1.106   3.993  13.205  1.1322 -0.2793 -0.2164
  139TMC2    O1 2128   0.673   4.052  13.429  0.7114  0.1110  0.0300
  139TMC2    O2 2129   1.148   4.093  13.257 -0.1912  0.4873  0.1180
  139TMC2    O5 2130   1.121   3.948  13.082 -0.0521 -0.0130 -0.2968
  139TMC2    H5 2131   1.066   3.871  13.056 -0.1889  0.0253 -0.1232
  140MPD2     C 2132   0.906   3.306  13.574 -0.1685 -0.5106 -0.0049
  140MPD2    C1 2133   0.966   3.365  13.458 -0.2468 -0.3899 -0.4121
  140MPD2    C2 2134   1.058   3.295  13.383 -0.2471  0.1756 -0.5698
  140MPD2    C3 2135   1.074   3.159  13.400  0.9405 -0.1168  0.0993
  140MPD2    C4 2136   1.006   3.091  13.501 -0.2124  0.4481 -0.4252
  140MPD2    C5 2137   0.929   3.172  13.589 -0.2172  0.2922 -0.1087
  140MPD2     H 2138   1.113   3.341  13.302 -2.5490  2.0577 -1.0555
  140MPD2    H1 2139   1.002   2.983  13.516 -2.5327  0.6602  0.5012
  140MPD2    H2 2140   0.839   3.361  13.640  1.5897 -0.2922  1.5930
  140MPD2    H3 2141   0.870   3.130  13.669  2.2721  0.2322  1.6777
  140MPD2     N 2142   1.141   3.098  13.298  0.2308  0.0928 -1.2455
  140MPD2    H5 2143   1.202   3.155  13.240  2.1052  1.8094  2.3917
  140MPD2    N1 2144   0.925   3.502  13.442 -0.0380 -0.1577 -0.0003
  140MPD2    H7 2145   0.862   3.556  13.500 -1.7790 -3.8148  1.4891
  141TCq2    C1 2146   1.347   0.281  13.812  0.2395  0.2407 -0.4634
  141TCq2    O2 2147   1.360   0.329  13.707  0.6282 -0.7091 -0.3652
  141TCq2    C2 2148   1.429   0.329  13.916 -0.0529 -0.2415  0.1103
  141TCq2    C3 2149   1.436   0.262  14.040  0.3460 -0.0519 -0.7378
  141TCq2    C4 2150   1.493   0.333  14.142  0.2815 -0.5119 -0.1680
  141TCq2    C5 2151   1.539   0.461  14.132  0.5920 -0.5138 -0.1727
  141TCq2    C6 2152   1.537   0.514  14.005  0.1392  0.2022  0.4827
  141TCq2    C7 2153   1.478   0.454  13.901  0.0342  0.3007  0.7041
  141TCq2    C8 2154   1.564   0.655  13.983  0.3692 -0.1390 -0.0757
  141TCq2    O4 2155   1.525   0.710  13.880 -0.3031 -0.3235  0.3608
  141TCq2    C9 2156   1.490   0.263  14.270  0.9626 -0.0103  1.3405
  141TCq2    O5 2157   1.428   0.153  14.282  0.3403 -0.2515  0.4013
  141TCq2    O6 2158   1.543   0.321  14.369  0.2521  0.0916 -0.0255
  141TCq2    H2 2159   1.402   0.160  14.056  1.9944 -0.5638 -0.5753
  141TCq2    H3 2160   1.580   0.516  14.216 -1.2388 -1.4553  1.3171
  141TCq2    H4 2161   1.460   0.520  13.817  0.5164  0.1560  0.4889
  142MPD2     C 2162   3.724   3.885  10.027 -0.6038 -0.6067 -0.9126
  142MPD2    C1 2163   3.737   3.878   9.895  0.1395  0.2428  0.0927
  142MPD2    C2 2164   3.800   3.976   9.820 -0.4102 -0.2238 -0.3219
  142MPD2    C3 2165   3.868   4.077   9.885 -0.4915  0.1358  0.1674
  142MPD2    C4 2166   3.859   4.084  10.020  0.0750 -0.5685  0.0199
  142MPD2    C5 2167   3.781   3.998  10.088 -0.2947  0.4321 -0.3371
  142MPD2     H 2168   3.771   3.989   9.716 -2.5803 -0.9849  0.1810
  142MPD2    H1 2169   3.915   4.161  10.072 -0.1001 -0.8681  0.6589
  142MPD2    H2 2170   3.675   3.808  10.085 -0.0414  1.4328  2.2535
  142MPD2    H3 2171   3.779   3.996  10.197 -1.6700  1.7764 -0.3393
  142MPD2     N 2172   3.932   4.179   9.816  0.2592 -0.3282  0.1189
  142MPD2    H5 2173   3.962   4.260   9.870 -0.3444 -1.7160  2.5221
  142MPD2    N1 2174   3.672   3.761   9.848 -0.3735  0.3120 -0.1662
  142MPD2    H7 2175   3.617   3.710   9.916  0.2871 -1.3624 -0.8880
  143TCq2    C1 2176   3.948   4.187   9.681 -0.4489 -0.9811  0.2182
  143TCq2    O2 2177   3.901   4.127   9.587  0.1043  0.3716 -0.0689
  143TCq2    C2 2178   4.023   4.301   9.643 -0.0925  0.4772  0.3773
  143TCq2    C3 2179   4.021   4.328   9.510 -0.1948  0.3778 -0.0014
  143TCq2    C4 2180   4.067   4.457   9.469  0.6301  0.6902 -0.3662
  143TCq2    C5 2181   4.123   4.550   9.555  0.1656 -0.3978 -0.2352
  143TCq2    C6 2182   4.117   4.520   9.688  0.1486  0.2065 -0.3460
  143TCq2    C7 2183   4.063   4.399   9.730 -0.0474 -0.1448 -0.6540
  143TCq2    C8 2184   4.125   4.623   9.790  0.1410 -0.4129  0.3900
  143TCq2    O4 2185   4.167   4.586   9.897 -0.3083  0.7691  0.7326
  143TCq2    C9 2186   4.083   4.472   9.323 -0.1903 -0.6714 -0.5148
  143TCq2    O5 2187   4.130   4.582   9.286 -0.0044 -0.0491 -0.3528
  143TCq2    O6 2188   4.039   4.380   9.251 -0.0379  0.1800  0.0824
  143TCq2    H2 2189   3.990   4.258   9.434 -0.1431 -1.1888  1.4320
  143TCq2    H3 2190   4.180   4.635   9.520 -0.5969  1.2802  2.5806
  143TCq2    H4 2191   4.067   4.375   9.836 -1.7564  1.0856 -0.3092
  144MPD2     C 2192   1.464   3.005   0.906 -0.4011 -0.2266  0.6469
  144MPD2    C1 2193   1.554   2.928   0.839 -0.7528 -0.1523 -0.5716
  144MPD2    C2 2194   1.690   2.939   0.876 -0.1993 -0.3577 -0.1040
  144MPD2    C3 2195   1.727   3.025   0.982  0.5031 -0.2048  0.1441
  144MPD2    C4 2196   1.634   3.101   1.051 -0.9088  0.5945 -0.2252
  144MPD2    C5 2197   1.502   3.082   1.013  0.0012  0.1098 -0.3113
  144MPD2     H 2198   1.767   2.887   0.820 -1.1060 -0.8732 -0.8671
  144MPD2    H1 2199   1.648   3.175   1.129  0.6312 -1.6387  1.5772
  144MPD2    H2 2200   1.361   3.009   0.874 -0.1872 -1.0180 -0.1467
  144MPD2    H3 2201   1.430   3.144   1.066 -0.4758 -2.3847  1.9698
  144MPD2     N 2202   1.867   3.043   1.012 -0.0614  0.2061  0.3251
  144MPD2    H5 2203   1.880   3.102   1.093  1.3821  0.8628 -0.3772
  144MPD2    N1 2204   1.512   2.844   0.728  0.6413 -0.1935  0.1408
  144MPD2    H7 2205   1.584   2.795   0.677 -0.0156  0.1361 -1.0948
  145TCq2    C1 2206   1.975   2.980   0.946 -0.9449 -0.0473  0.9358
  145TCq2    O2 2207   1.966   2.875   0.892 -0.5571  0.3957 -0.4955
  145TCq2    C2 2208   2.102   3.029   0.991  0.2079  0.3689  0.7886
  145TCq2    C3 2209   2.216   2.955   0.980 -0.5739  0.7365  0.2392
  145TCq2    C4 2210   2.334   2.989   1.030  0.1039  0.3553  0.4805
  145TCq2    C5 2211   2.346   3.106   1.104  0.2866 -0.1705  0.5570
  145TCq2    C6 2212   2.234   3.174   1.133 -0.5503  0.2126 -0.1381
  145TCq2    C7 2213   2.114   3.140   1.074  0.7489  0.7158  0.2327
  145TCq2    C8 2214   2.258   3.278   1.234  0.3050  0.0463  0.5027
  145TCq2    O4 2215   2.375   3.319   1.242  0.1147  0.0670  0.1152
  145TCq2    C9 2216   2.449   2.901   1.016  0.0027  0.4721  1.0857
  145TCq2    O5 2217   2.547   2.921   1.093 -0.0180 -0.1404 -0.1595
  145TCq2    O6 2218   2.414   2.783   0.978  0.3388 -0.5754  0.5442
  145TCq2    H2 2219   2.209   2.868   0.916 -0.5340  2.0558 -1.5555
  145TCq2    H3 2220   2.439   3.125   1.157  0.0623  0.7061  0.6425
  145TCq2    H4 2221   2.028   3.206   1.078  0.2429  0.2767 -3.1014
  146TMC2    C1 2222   3.399   1.652  12.599 -0.5451 -0.1118  0.4397
  146TMC2    C2 2223   3.392   1.765  12.526  0.1701  0.2764  0.1011
  146TMC2    C3 2224   3.450   1.769  12.403 -0.6945  0.9428 -0.1913
  146TMC2    C4 2225   3.471   1.541  12.560 -0.1698  0.2801 -0.0123
  146TMC2    C5 2226   3.551   1.556  12.445 -0.0818  0.0165  0.3191
  146TMC2    C6 2227   3.537   1.671  12.366 -0.5380  0.0961  0.7135
  146TMC2     C 2228   3.338   1.659  12.732  0.3347 -0.2940  0.9365
  146TMC2     O 2229   3.255   1.751  12.745 -0.1867  0.3931  0.1184
  146TMC2     H 2230   3.340   1.853  12.561 -2.0813 -0.2338 -1.9967
  146TMC2    H1 2231   3.477   1.450  12.620 -0.3562  0.7225  0.6816
  146TMC2    H2 2232   3.574   1.672  12.265 -2.4335 -0.9057  0.0064
  146TMC2    C7 2233   3.605   1.438  12.383 -0.6362 -0.1202  0.5800
  146TMC2    C8 2234   3.455   1.891  12.325  0.3604  0.4243 -0.2600
  146TMC2    O1 2235   3.624   1.449  12.263 -1.0979 -0.2855 -0.2217
  146TMC2    O2 2236   3.547   1.934  12.255  0.3693 -0.8234  0.1864
  146TMC2    O5 2237   3.350   1.966  12.354  0.4994 -0.2034  0.1703
  146TMC2    H5 2238   3.277   1.909  12.386  0.7755 -0.4529  0.3594
  147MPD2     C 2239   3.790   0.961  12.405  0.2786 -0.1274  0.1948
  147MPD2    C1 2240   3.746   0.995  12.526  1.1479  0.5959  0.3985
  147MPD2    C2 2241   3.693   1.118  12.552 -0.5215  0.6524  0.8480
  147MPD2    C3 2242   3.681   1.208  12.446 -0.1850  0.6761  0.1473
  147MPD2    C4 2243   3.729   1.178  12.318 -0.3258 -0.0250 -0.2226
  147MPD2    C5 2244   3.786   1.052  12.304  0.1919 -0.0054 -0.4781
  147MPD2     H 2245   3.676   1.153  12.654  1.4400  1.3240  0.9295
  147MPD2    H1 2246   3.717   1.238  12.228 -0.8286  0.2625  0.0340
  147MPD2    H2 2247   3.825   0.862  12.375  2.2340  0.7438 -0.3995
  147MPD2    H3 2248   3.815   1.021  12.204  2.6409  1.8088 -0.3237
  147MPD2     N 2249   3.623   1.340  12.472  0.8149 -0.3055  0.0231
  147MPD2    H5 2250   3.592   1.350  12.569  2.2400  1.6895  0.2894
  147MPD2    N1 2251   3.759   0.893  12.620 -0.0934  0.4149 -0.4619
  147MPD2    H7 2252   3.808   0.806  12.602  2.2850  1.7860 -0.5935
  148MPD2     C 2253   3.586   4.302  10.636 -0.1161  0.8570 -0.1500
  148MPD2    C1 2254   3.541   4.391  10.539 -0.1894 -0.7424  0.2675
  148MPD2    C2 2255   3.429   4.348  10.471  0.6126 -0.3697 -0.4295
  148MPD2    C3 2256   3.371   4.221  10.486 -0.5328  0.3513 -0.4494
  148MPD2    C4 2257   3.428   4.130  10.574  0.3020 -0.3161 -0.6822
  148MPD2    C5 2258   3.539   4.172  10.639 -0.8001 -0.3337  0.5646
  148MPD2     H 2259   3.391   4.418  10.397  0.3087  2.1769  2.1607
  148MPD2    H1 2260   3.401   4.025  10.587  1.0430 -0.5610 -1.1335
  148MPD2    H2 2261   3.675   4.330  10.691 -0.9217 -0.5152  1.8857
  148MPD2    H3 2262   3.582   4.098  10.705 -0.6745 -1.0864 -0.3559
  148MPD2     N 2263   3.256   4.174  10.412 -0.8415  0.0157  0.0744
  148MPD2    H5 2264   3.213   4.088  10.442 -0.2853  0.0140  0.8666
  148MPD2    N1 2265   3.602   4.515  10.531  0.1092  0.0547  0.2275
  148MPD2    H7 2266   3.663   4.554  10.602  1.4027 -2.5016  0.4939
  149TCq2    C1 2267   3.589   4.595  10.423 -0.0080  0.0645  0.3213
  149TCq2    O2 2268   3.538   4.575  10.312 -0.3117 -0.3487  0.0190
  149TCq2    C2 2269   3.660   4.720  10.427  0.2728 -0.2445 -0.2689
  149TCq2    C3 2270   3.611   0.096  10.511 -0.2442 -0.6960  0.0732
  149TCq2    C4 2271   3.649   0.224  10.491  0.6194 -0.3374  0.5465
  149TCq2    C5 2272   3.690   0.264  10.364 -0.0749 -0.3431  0.1455
  149TCq2    C6 2273   3.715   0.165  10.274  0.0528  0.3849  0.3013
  149TCq2    C7 2274   3.715   0.031  10.308  0.4241 -0.3450 -0.0911
  149TCq2    C8 2275   3.662   0.193  10.142  0.4176  0.3764  0.3153
  149TCq2    O4 2276   3.665   0.309  10.102 -0.3401 -0.4786 -0.2536
  149TCq2    C9 2277   3.594   0.325  10.572 -0.0751  0.4778 -0.3050
  149TCq2    O5 2278   3.524   0.286  10.669  0.1042  0.4792  0.1634
  149TCq2    O6 2279   3.616   0.449  10.549  0.3351 -0.2093 -0.1606
  149TCq2    H2 2280   3.557   0.063  10.600 -1.7796 -0.2545 -0.6962
  149TCq2    H3 2281   3.699   0.369  10.336  0.3927 -0.5439 -0.4499
  149TCq2    H4 2282   3.756   4.674  10.247  2.2623  0.1122  0.5479
  150MPD2     C 2283   0.523   3.860  11.874  0.0489  0.3344  0.0480
  150MPD2    C1 2284   0.503   3.952  11.774 -0.1290 -0.0294 -0.4778
  150MPD2    C2 2285   0.616   4.034  11.757 -0.5409 -0.1362 -0.2812
  150MPD2    C3 2286   0.733   4.031  11.828 -0.7257 -0.2607  0.5459
  150MPD2    C4 2287   0.738   3.944  11.930  0.0463 -0.6257 -0.1474
  150MPD2    C5 2288   0.637   3.850  11.947  0.1892  0.6532 -0.4295
  150MPD2     H 2289   0.617   4.110  11.679 -2.7036 -0.5900 -0.7572
  150MPD2    H1 2290   0.831   3.941  11.987  0.5746 -0.2522 -0.9942
  150MPD2    H2 2291   0.434   3.804  11.899  1.0108 -1.1139  0.2185
  150MPD2    H3 2292   0.647   3.787  12.035  0.4227  0.8537 -0.3146
  150MPD2     N 2293   0.836   4.125  11.797 -0.1781 -0.3898  0.1838
  150MPD2    H5 2294   0.818   4.196  11.726  0.9393  0.3288  0.6232
  150MPD2    N1 2295   0.385   3.955  11.689 -0.1231  0.2521 -0.5148
  150MPD2    H7 2296   0.313   3.888  11.713 -0.2749  0.8065  0.5559
  151TCq2    C1 2297   0.964   4.122  11.851 -0.5177 -0.7216  0.2756
  151TCq2    O2 2298   1.020   4.036  11.923 -0.5213 -1.0105  0.1047
  151TCq2    C2 2299   1.069   4.217  11.796 -0.0835 -0.2071  0.1065
  151TCq2    C3 2300   1.032   4.274  11.680  0.2787  0.2686  0.2698
  151TCq2    C4 2301   1.133   4.328  11.604  0.2585 -0.4195 -0.0881
  151TCq2    C5 2302   1.260   4.326  11.644 -0.8846 -0.9914 -0.8656
  151TCq2    C6 2303   1.294   4.269  11.768 -0.1310 -0.5814 -0.4141
  151TCq2    C7 2304   1.200   4.198  11.840  0.0648  0.5470 -0.5031
  151TCq2    C8 2305   1.436   4.256  11.803  0.5400  1.0270  0.4035
  151TCq2    O4 2306   1.514   4.339  11.758  0.3615 -0.1545 -0.8466
  151TCq2    C9 2307   1.099   4.381  11.475 -0.0651 -0.4319 -0.6545
  151TCq2    O5 2308   0.985   4.366  11.432 -0.1295  0.2728  0.7208
  151TCq2    O6 2309   1.198   4.426  11.413 -0.1095  0.2645 -0.5232
  151TCq2    H2 2310   0.933   4.294  11.640  0.1958 -0.7690 -0.0381
  151TCq2    H3 2311   1.337   4.379  11.590 -0.6980  2.1275  2.4348
  151TCq2    H4 2312   1.222   4.153  11.936 -2.3195  2.7136  1.0820
  152MPD2     C 2313   0.175   3.309  12.420 -0.2200 -0.3197 -0.1723
  152MPD2    C1 2314   0.195   3.444  12.390 -0.3237  0.2467  0.1952
  152MPD2    C2 2315   0.098   3.511  12.315 -0.6430  0.0687  0.5352
  152MPD2    C3 2316   4.701   3.455  12.281  0.6186  0.0158  0.6148
  152MPD2    C4 2317   4.680   3.319  12.310  0.2107 -0.4743  0.0489
  152MPD2    C5 2318   0.053   3.250  12.380 -0.4063 -0.0659 -0.6142
  152MPD2     H 2319   0.104   3.617  12.295  0.9777 -0.7044 -2.9991
  152MPD2    H1 2320   4.590   3.268  12.277  1.9334 -2.1361 -2.0928
  152MPD2    H2 2321   0.242   3.252  12.483  1.2720  0.9843 -0.5841
  152MPD2    H3 2322   0.036   3.146  12.404 -1.0462  0.5708  1.6357
  152MPD2     N 2323   4.607   3.538  12.210  0.0942  0.0201  0.2562
  152MPD2    H5 2324   4.629   3.637  12.210  0.1163  0.0144 -0.1626
  152MPD2    N1 2325   0.313   3.506  12.435 -0.3356  0.7785 -0.1217
  152MPD2    H7 2326   0.369   3.449  12.498 -2.3443 -0.1985  0.7708
  153TCq2    C1 2327   0.346   3.639  12.430  0.2049  0.0407  0.0554
  153TCq2    O2 2328   0.280   3.740  12.409  0.2432 -0.5780  0.0673
  153TCq2    C2 2329   0.466   3.670  12.502 -0.4228  0.5909  0.0318
  153TCq2    C3 2330   0.572   3.593  12.470 -0.2588 -0.3020 -0.1721
  153TCq2    C4 2331   0.688   3.620  12.527 -0.6283  0.1999  0.3793
  153TCq2    C5 2332   0.699   3.717  12.621  0.3459  0.8848 -0.0688
  153TCq2    C6 2333   0.588   3.793  12.649 -0.6464  0.2997  0.5948
  153TCq2    C7 2334   0.466   3.770  12.589  0.2920  0.1249 -0.4453
  153TCq2    C8 2335   0.591   3.875  12.767  0.7813 -0.2212  0.4126
  153TCq2    O4 2336   0.484   3.883  12.826  0.5749  0.2543  0.0437
  153TCq2    C9 2337   0.796   3.531  12.500  0.8702  0.1919  0.4430
  153TCq2    O5 2338   0.782   3.466  12.394  0.3175 -0.5791 -0.0590
  153TCq2    O6 2339   0.897   3.530  12.581 -0.0966  0.3812 -0.1877
  153TCq2    H2 2340   0.555   3.518  12.395  1.0606  0.5925 -1.3733
  153TCq2    H3 2341   0.792   3.739  12.673  1.0883  1.0185 -1.4438
  153TCq2    H4 2342   0.385   3.830  12.628 -0.5597 -0.5169 -1.2046
  154MPD2     C 2343   0.587   4.020   0.831 -0.1299 -0.0233  0.2710
  154MPD2    C1 2344   0.688   4.019   0.923  0.0452 -0.1662 -0.3992
  154MPD2    C2 2345   0.656   4.075   1.048  0.0891  0.3020 -0.4789
  154MPD2    C3 2346   0.532   4.125   1.085 -0.8485  0.2613 -0.0132
  154MPD2    C4 2347   0.434   4.120   0.983 -0.5400  0.0274 -0.9672
  154MPD2    C5 2348   0.463   4.065   0.860 -0.0730 -0.5758  0.0364
  154MPD2     H 2349   0.720   4.058   1.134 -1.3422 -1.5310  0.2432
  154MPD2    H1 2350   0.333   4.156   0.995 -0.8341 -0.9240 -0.5341
  154MPD2    H2 2351   0.600   3.994   0.727  2.9863  2.6907 -0.0415
  154MPD2    H3 2352   0.382   4.069   0.789 -0.7966 -0.9573  0.8362
  154MPD2     N 2353   0.498   4.174   1.214  0.1173 -0.2564 -0.5805
  154MPD2    H5 2354   0.571   4.187   1.283  0.0407  1.0281 -0.7245
  154MPD2    N1 2355   0.814   3.971   0.881  0.3458  0.4938  0.6117
  154MPD2    H7 2356   0.811   3.927   0.789 -0.0463  0.8172  0.4706
  155TCq2    C1 2357   0.932   3.998   0.947 -0.4419 -0.2118 -0.9097
  155TCq2    O2 2358   0.959   4.066   1.046  0.7191  0.6215 -0.0374
  155TCq2    C2 2359   1.047   3.942   0.872  1.6548 -0.4671  0.6130
  155TCq2    C3 2360   1.166   3.980   0.915  0.2844  0.2097  0.4159
  155TCq2    C4 2361   1.273   3.910   0.873  0.2504  0.4574  0.3101
  155TCq2    C5 2362   1.261   3.807   0.786  0.1404  0.2104  0.1564
  155TCq2    C6 2363   1.133   3.763   0.747  0.4641 -0.2716 -0.2764
  155TCq2    C7 2364   1.024   3.832   0.788 -0.1913  0.1185  0.0306
  155TCq2    C8 2365   1.112   3.643   0.672 -0.7229  0.6433 -0.4258
  155TCq2    O4 2366   0.997   3.623   0.640 -0.2279  0.5733 -0.1665
  155TCq2    C9 2367   1.398   3.931   0.940 -0.2981 -0.2158  0.4533
  155TCq2    O5 2368   1.404   3.933   1.066  0.0244 -0.0597  0.8406
  155TCq2    O6 2369   1.491   3.910   0.863  0.3822 -0.7889  0.2068
  155TCq2    H2 2370   1.191   4.065   0.978  1.4063 -0.4155  0.8300
  155TCq2    H3 2371   1.345   3.745   0.758  0.6279 -0.1180  2.3448
  155TCq2    H4 2372   0.925   3.809   0.750  0.1189 -0.1474 -0.6212
  156MPD2     C 2373   0.619   1.042  12.179  0.4371 -0.5640 -0.1443
  156MPD2    C1 2374   0.628   1.146  12.081  0.2277  0.1530 -0.3817
  156MPD2    C2 2375   0.734   1.237  12.093  0.7138 -0.1276 -0.7015
  156MPD2    C3 2376   0.833   1.212  12.187  0.1287  0.7549  0.7979
  156MPD2    C4 2377   0.824   1.108  12.277 -0.1658  0.1220 -0.5888
  156MPD2    C5 2378   0.718   1.025  12.274 -0.1612 -0.3123 -0.1765
  156MPD2     H 2379   0.744   1.323  12.029  0.3741  1.0884  0.8692
  156MPD2    H1 2380   0.902   1.098  12.351 -1.4437 -3.4723  0.2798
  156MPD2    H2 2381   0.540   0.967  12.175  1.0448 -1.1468 -1.0911
  156MPD2    H3 2382   0.725   0.938  12.339 -0.6351 -1.0682 -1.1294
  156MPD2     N 2383   0.952   1.291  12.190  0.2233  0.1236  0.7795
  156MPD2    H5 2384   0.955   1.369  12.126  1.8379 -2.2281 -2.0053
  156MPD2    N1 2385   0.527   1.159  11.990  0.1145 -0.1447 -0.1579
  156MPD2    H7 2386   0.440   1.110  12.008  0.6778 -1.6674 -1.6497
  157TCq2    C1 2387   0.516   1.256  11.887  0.2343  0.0143  0.1448
  157TCq2    O2 2388   0.597   1.333  11.844  0.0644  0.1099  0.5156
  157TCq2    C2 2389   0.381   1.251  11.828 -0.5141  0.2447 -0.2996
  157TCq2    C3 2390   0.283   1.165  11.876 -1.0166  0.1618  0.6610
  157TCq2    C4 2391   0.151   1.212  11.872 -0.3832 -0.3207 -0.1046
  157TCq2    C5 2392   0.118   1.332  11.817  0.2867 -0.3138 -0.3995
  157TCq2    C6 2393   0.212   1.392  11.742 -0.1803 -0.4723  0.1600
  157TCq2    C7 2394   0.345   1.366  11.751  0.4933  0.0046 -0.0029
  157TCq2    C8 2395   0.170   1.509  11.655  0.6004 -0.2418  0.1400
  157TCq2    O4 2396   0.253   1.579  11.598 -0.4477  0.2663 -0.4227
  157TCq2    C9 2397   0.046   1.125  11.924 -0.0784 -0.0622  0.1700
  157TCq2    O5 2398   4.662   1.183  11.947  0.6144 -0.3535  0.4934
  157TCq2    O6 2399   0.076   1.011  11.969  0.7381 -0.1998  0.0055
  157TCq2    H2 2400   0.303   1.073  11.929  2.4511  0.0308 -0.8851
  157TCq2    H3 2401   0.014   1.359  11.816  0.0257 -1.2904  0.1153
  157TCq2    H4 2402   0.420   1.423  11.696  0.5899  0.7755  0.9216
  158TMC2    C1 2403   0.291   0.678  13.529  0.2883 -0.2558  0.4167
  158TMC2    C2 2404   0.307   0.800  13.463  0.8580  0.2741 -0.5375
  158TMC2    C3 2405   0.215   0.840  13.374  0.4893  0.4458  0.2854
  158TMC2    C4 2406   0.196   0.585  13.493 -0.1398  0.2172 -0.3166
  158TMC2    C5 2407   0.109   0.633  13.399 -0.6495  0.1830  0.4012
  158TMC2    C6 2408   0.112   0.758  13.340 -0.0983  0.1022  0.1400
  158TMC2     C 2409   0.393   0.630  13.617 -0.6473  0.0341 -0.9607
  158TMC2     O 2410   0.511   0.658  13.600 -0.0915 -1.2421 -0.0255
  158TMC2     H 2411   0.383   0.863  13.508  0.4733 -0.4338  1.0967
  158TMC2    H1 2412   0.206   0.481  13.522  0.9996  0.1376 -0.9690
  158TMC2    H2 2413   0.040   0.788  13.265 -1.4268  1.0705  1.8097
  158TMC2    C7 2414   0.023   0.536  13.328 -0.5520 -0.6410  0.3335
  158TMC2    C8 2415   0.285   0.906  13.267 -0.3199  0.4891 -0.1717
  158TMC2    O1 2416   4.685   0.569  13.224  0.7308  0.1614  0.1438
  158TMC2    O2 2417   0.408   0.903  13.256 -0.4990 -0.2338 -0.4935
  158TMC2    O5 2418   0.215   1.019  13.249  0.3783  0.0843  0.1619
  158TMC2    H5 2419   0.119   1.004  13.231  0.4916  1.5484 -1.7077
  159MPD2     C 2420   0.573   0.329  13.989 -0.5640  0.0633  0.0131
  159MPD2    C1 2421   0.439   0.353  14.019 -0.6080  0.6815 -0.4883
  159MPD2    C2 2422   0.367   0.421  13.924 -0.7388  0.4998  0.4490
  159MPD2    C3 2423   0.425   0.463  13.804 -0.0280  0.8885  0.0211
  159MPD2    C4 2424   0.555   0.437  13.777 -0.1986 -0.5488 -0.3656
  159MPD2    C5 2425   0.629   0.366  13.870  0.0987  0.2618  0.2847
  159MPD2     H 2426   0.264   0.450  13.940 -0.5799  1.5039 -0.3302
  159MPD2    H1 2427   0.597   0.473  13.683 -3.1660  0.3222 -1.3336
  159MPD2    H2 2428   0.638   0.271  14.055 -0.9978 -1.9108 -1.2896
  159MPD2    H3 2429   0.725   0.326  13.842  0.2451  1.4251 -0.8611
  159MPD2     N 2430   0.344   0.539  13.709 -0.0881 -0.2510 -0.0159
  159MPD2    H5 2431   0.243   0.545  13.718 -0.0287  2.6270 -1.3591
  159MPD2    N1 2432   0.382   0.303  14.137  0.1122 -0.3683 -0.3729
  159MPD2    H7 2433   0.446   0.240  14.184 -1.3480 -0.7918  1.0420
  160TMC2    C1 2434   4.447   3.453   2.460 -0.6801 -0.0052  0.0433
  160TMC2    C2 2435   4.429   3.392   2.581  0.0300  0.8639  0.4965
  160TMC2    C3 2436   4.447   3.257   2.590  0.8443 -0.0215 -0.4128
  160TMC2    C4 2437   4.491   3.381   2.349  0.5174 -0.1711 -0.5143
  160TMC2    C5 2438   4.507   3.249   2.362 -0.0548 -0.1117  0.8926
  160TMC2    C6 2439   4.491   3.180   2.483 -0.2297 -0.3367  0.0536
  160TMC2     C 2440   4.410   3.591   2.454 -0.3919  0.3202  0.4065
  160TMC2     O 2441   4.392   3.642   2.566 -0.3153 -0.2707 -0.1480
  160TMC2     H 2442   4.398   3.449   2.668 -2.9107 -1.2501  0.8441
  160TMC2    H1 2443   4.498   3.426   2.251  2.8066 -0.9161 -0.6978
  160TMC2    H2 2444   4.524   3.077   2.492 -1.2160 -0.7793 -1.4508
  160TMC2    C7 2445   4.562   3.163   2.252  0.2090 -0.0129 -0.3403
  160TMC2    C8 2446   4.472   3.200   2.721  0.3111 -0.4505  0.7093
  160TMC2    O1 2447   4.541   3.042   2.267  0.3184 -0.4667 -0.8948
  160TMC2    O2 2448   4.524   3.274   2.804 -0.0182  0.0024  0.3105
  160TMC2    O5 2449   4.370   3.106   2.742 -0.8621  0.0535  0.0586
  160TMC2    H5 2450   4.299   3.108   2.675 -0.8804  1.4397  0.1151
  161MPD2     C 2451   4.355   3.871   2.384 -0.0139 -0.5037 -0.4736
  161MPD2    C1 2452   4.375   3.770   2.294  0.6942  0.5154 -0.5888
  161MPD2    C2 2453   4.348   3.802   2.155  1.0782  0.5481 -0.2069
  161MPD2    C3 2454   4.327   3.933   2.117 -0.0738  0.1340 -1.0742
  161MPD2    C4 2455   4.314   4.037   2.210  0.0239  0.3329  0.3142
  161MPD2    C5 2456   4.331   3.997   2.341 -0.0149  0.6637 -0.8852
  161MPD2     H 2457   4.343   3.722   2.082 -2.3103  1.4968 -1.0299
  161MPD2    H1 2458   4.297   4.141   2.184 -2.3765  0.2892  1.6532
  161MPD2    H2 2459   4.368   3.847   2.489 -0.6408  0.7076 -0.1222
  161MPD2    H3 2460   4.318   4.074   2.416 -0.1604 -0.5364  0.3149
  161MPD2     N 2461   4.325   3.977   1.984  0.3045  0.1603 -0.2853
  161MPD2    H5 2462   4.292   4.071   1.965 -1.8767 -0.2862  1.2270
  161MPD2    N1 2463   4.407   3.638   2.328  0.3384 -0.3608  0.0843
  161MPD2    H7 2464   4.428   3.585   2.244 -0.5372 -0.1874 -0.2475
  162TMC2    C1 2465   2.307   4.690   0.816  0.7707 -0.0881  0.4463
  162TMC2    C2 2466   2.258   4.589   0.736 -0.2021 -0.4001  0.2328
  162TMC2    C3 2467   2.120   4.563   0.729  0.8129  0.5542  0.2454
  162TMC2    C4 2468   2.234   0.040   0.901 -0.4572 -0.3375 -0.6542
  162TMC2    C5 2469   2.102   0.014   0.900  0.1197 -0.4035 -0.0357
  162TMC2    C6 2470   2.037   4.641   0.816  0.1688  0.1819  0.2512
  162TMC2     C 2471   2.451   4.710   0.810 -0.1039  0.4821 -0.3376
  162TMC2     O 2472   2.516   4.662   0.719 -0.5345 -0.1683  0.2657
  162TMC2     H 2473   2.331   4.536   0.675  1.9166  1.2063  1.3828
  162TMC2    H1 2474   2.274   0.125   0.955 -1.9433  0.3084 -0.5880
  162TMC2    H2 2475   1.932   4.618   0.829  0.0639  0.7871  0.4575
  162TMC2    C7 2476   2.018   0.092   0.991 -0.1286  0.7059 -0.0514
  162TMC2    C8 2477   2.072   4.452   0.650  0.2108 -0.0173  0.1931
  162TMC2    O1 2478   1.896   0.081   0.977 -0.5532  0.1688 -0.1110
  162TMC2    O2 2479   2.111   4.337   0.658  0.4014 -0.1019 -0.0769
  162TMC2    O5 2480   1.952   4.487   0.601  0.0210  0.2263  0.7089
  162TMC2    H5 2481   1.943   4.585   0.601  0.7311  0.2985 -0.8081
  163MPD2     C 2482   2.900   0.136   0.994 -0.2072  1.0112 -0.2830
  163MPD2    C1 2483   2.865   0.113   0.859 -0.2047 -0.6663  0.1645
  163MPD2    C2 2484   2.731   0.078   0.836 -0.8593  0.0968 -0.7891
  163MPD2    C3 2485   2.633   0.074   0.940 -0.0257  0.3418  0.0766
  163MPD2    C4 2486   2.677   0.115   1.065 -0.5305  0.7704 -0.2510
  163MPD2    C5 2487   2.809   0.125   1.095 -0.4676 -0.5915 -0.0394
  163MPD2     H 2488   2.695   0.059   0.736  0.4818 -0.4872 -1.1703
  163MPD2    H1 2489   2.609   0.110   1.149 -0.0722  1.4247  0.1561
  163MPD2    H2 2490   3.002   0.163   1.019  0.8345 -2.2137 -1.1114
  163MPD2    H3 2491   2.841   0.150   1.195 -1.3463 -0.8847  0.3155
  163MPD2     N 2492   2.496   0.043   0.924  0.2783  0.1661 -0.0321
  163MPD2    H5 2493   2.439   0.044   1.008  0.6210 -1.1766  0.2148
  163MPD2    N1 2494   2.966   0.133   0.756  0.5932 -0.0374 -0.1155
  163MPD2    H7 2495   3.056   0.161   0.795 -0.1487  0.5641  1.1585
  164TCq2    C1 2496   4.050   4.541  11.045 -0.0253 -0.5839  0.4565
  164TCq2    O2 2497   3.960   4.492  11.114 -0.1970  0.3229 -0.1019
  164TCq2    C2 2498   4.046   4.687  11.025  0.4419  0.5232 -0.3337
  164TCq2    C3 2499   4.159   0.034  10.988  0.0468  0.1395 -0.1945
  164TCq2    C4 2500   4.167   0.167  11.009 -0.2201 -0.5290 -0.4109
  164TCq2    C5 2501   4.063   0.236  11.063 -0.1489  0.1546 -0.0697
  164TCq2    C6 2502   3.946   0.168  11.099  0.5051 -0.2232 -1.1946
  164TCq2    C7 2503   3.948   0.035  11.088  0.4177 -0.3216  0.0452
  164TCq2    C8 2504   3.837   0.241  11.161 -0.2603  0.1312 -0.5653
  164TCq2    O4 2505   3.723   0.202  11.140 -0.6301  0.6541  0.0504
  164TCq2    C9 2506   4.287   0.241  10.966  0.5063  0.8944 -1.0200
  164TCq2    O5 2507   4.395   0.179  10.948  0.0586  0.0762  0.1125
  164TCq2    O6 2508   4.278   0.371  10.968  0.0558  0.3326  0.0397
  164TCq2    H2 2509   4.244   4.702  10.948 -0.2138  0.4288 -1.1503
  164TCq2    H3 2510   4.075   0.343  11.076  0.1483  0.2331 -1.0460
  164TCq2    H4 2511   3.856   4.717  11.128  1.1032 -1.4413  0.4683
  165MPD2     C 2512   0.115   1.775   1.510 -0.5347  0.0222 -0.7877
  165MPD2    C1 2513   4.698   1.782   1.495 -0.6290  0.0474 -0.8366
  165MPD2    C2 2514   4.630   1.908   1.515  0.7744 -0.6005 -0.1830
  165MPD2    C3 2515   4.703   2.020   1.551 -0.0665 -0.1585 -0.7873
  165MPD2    C4 2516   0.117   2.012   1.561 -0.0084 -0.4787 -0.1037
  165MPD2    C5 2517   0.183   1.893   1.551 -0.1821  0.2112  0.0433
  165MPD2     H 2518   4.524   1.915   1.491 -0.1710 -1.0213  3.9413
  165MPD2    H1 2519   0.173   2.102   1.581  1.6367 -1.8110  1.2811
  165MPD2    H2 2520   0.162   1.679   1.494  0.4592  1.1028 -4.2960
  165MPD2    H3 2521   0.292   1.895   1.552 -0.1965  0.7988  0.4130
  165MPD2     N 2522   4.644   2.152   1.556 -1.1295  0.1124 -0.2414
  165MPD2    H5 2523   4.709   2.226   1.577  0.4850 -0.5879 -2.8264
  165MPD2    N1 2524   4.636   1.671   1.442  0.0786 -0.4768 -0.0878
  165MPD2    H7 2525   4.692   1.590   1.416 -0.9135 -1.6244  1.3593
  166TCq2    C1 2526   4.510   2.186   1.541  0.7149  0.1759  0.0530
  166TCq2    O2 2527   4.411   2.112   1.523 -0.5631 -0.2367 -0.1554
  166TCq2    C2 2528   4.484   2.327   1.519 -0.2414  0.3351  0.3421
  166TCq2    C3 2529   4.350   2.366   1.538  0.5363  0.4710  0.1128
  166TCq2    C4 2530   4.316   2.485   1.484 -0.3200 -0.2344  0.8258
  166TCq2    C5 2531   4.405   2.569   1.418 -0.6144 -0.1285 -0.2947
  166TCq2    C6 2532   4.534   2.527   1.405  0.5637  0.1613  0.0404
  166TCq2    C7 2533   4.572   2.401   1.446  0.2664 -0.4892 -0.3072
  166TCq2    C8 2534   4.643   2.601   1.337  0.3146  0.1914  0.2515
  166TCq2    O4 2535   0.018   2.532   1.310 -0.3485  0.1268  0.1716
  166TCq2    C9 2536   4.180   2.537   1.504 -0.0737 -0.2808 -0.0374
  166TCq2    O5 2537   4.110   2.475   1.587 -0.2428 -1.0596  0.2412
  166TCq2    O6 2538   4.159   2.649   1.451 -0.0702  0.5628  0.3565
  166TCq2    H2 2539   4.278   2.314   1.599  1.2145 -0.5610  0.0414
  166TCq2    H3 2540   4.382   2.670   1.386  1.5680  0.7062  0.8299
  166TCq2    H4 2541   4.671   2.361   1.433 -0.0485 -1.3632 -0.0193
  167TMC2    C1 2542   2.789   0.116  12.318  0.0193 -0.4793 -0.3319
  167TMC2    C2 2543   2.725   0.195  12.415 -0.3249  0.1918 -0.4708
  167TMC2    C3 2544   2.754   0.163  12.544 -0.4203 -0.3616 -0.2212
  167TMC2    C4 2545   2.880   0.011  12.346 -0.2269 -0.2259  0.3842
  167TMC2    C5 2546   2.901   4.707  12.479 -0.2152 -0.0213  0.4735
  167TMC2    C6 2547   2.840   0.059  12.579 -0.3337 -0.0221 -0.0084
  167TMC2     C 2548   2.759   0.145  12.181 -0.5803  1.0128  0.1931
  167TMC2     O 2549   2.739   0.263  12.147 -0.0791  0.4518 -0.2813
  167TMC2     H 2550   2.645   0.259  12.379 -0.1567  0.3504 -0.5595
  167TMC2    H1 2551   2.924   4.674  12.267 -1.8366  2.1488 -2.3242
  167TMC2    H2 2552   2.881   0.050  12.679  0.9903  2.0906 -0.3559
  167TMC2    C7 2553   2.998   4.608  12.523 -0.9741  0.3590 -0.0786
  167TMC2    C8 2554   2.666   0.205  12.651  0.4183  0.1859  0.7682
  167TMC2    O1 2555   2.989   4.560  12.635  0.6432 -0.0986  0.0631
  167TMC2    O2 2556   2.640   0.128  12.739  1.0368 -1.0019  0.3440
  167TMC2    O5 2557   2.668   0.339  12.651  0.0056 -0.6543  0.2349
  167TMC2    H5 2558   2.715   0.380  12.576  1.0705 -1.2519  0.5690
  168MPD2     C 2559   2.675   0.127  11.883 -0.4431 -0.0853 -0.1265
  168MPD2    C1 2560   2.705   0.028  11.974  0.0492  0.3194 -0.0673
  168MPD2    C2 2561   2.710   4.619  11.927  0.0233 -0.3303  0.0345
  168MPD2    C3 2562   2.681   4.594  11.799 -0.2033  0.3615 -0.3443
  168MPD2    C4 2563   2.664   4.696  11.708  0.2518 -0.1451  0.0393
  168MPD2    C5 2564   2.657   0.103  11.749  0.0119  0.1087  0.0692
  168MPD2     H 2565   2.739   4.539  11.995 -1.8581  0.2572  1.5339
  168MPD2    H1 2566   2.650   4.690  11.601 -0.4199 -0.6720  0.1487
  168MPD2    H2 2567   2.664   0.230  11.914 -1.1299 -0.5265  1.1328
  168MPD2    H3 2568   2.631   0.179  11.676  1.7545 -0.0713 -0.7469
  168MPD2     N 2569   2.701   4.462  11.741  0.0900 -0.0589  0.5820
  168MPD2    H5 2570   2.700   4.448  11.640 -1.1506 -1.7071  0.8271
  168MPD2    N1 2571   2.731   0.039  12.106  0.0465 -0.3385  0.0539
  168MPD2    H7 2572   2.735   4.675  12.159 -0.5062 -0.5370 -0.2372
  169MPD1     C 2573   0.921   0.628   9.183  0.1754  0.2522 -0.4133
  169MPD1    C1 2574   1.031   0.567   9.242  0.2364  0.1660 -0.5073
  169MPD1    C2 2575   1.024   0.437   9.288  0.0059 -0.0346  0.2688
  169MPD1    C3 2576   0.905   0.365   9.296  0.6292 -0.3013 -0.2873
  169MPD1    C4 2577   0.792   0.439   9.255 -0.1210  0.6094 -0.1204
  169MPD1    C5 2578   0.799   0.561   9.188 -0.0160 -0.0904 -0.0377
  169MPD1     H 2579   1.115   0.391   9.322 -0.6603 -0.8984  0.8616
  169MPD1    H1 2580   0.694   0.396   9.270 -0.5626  0.7973 -2.3245
  169MPD1    H2 2581   0.922   0.717   9.121  0.6700  0.2426 -0.4215
  169MPD1    H3 2582   0.716   0.614   9.144 -0.7597 -2.3238 -1.3182
  169MPD1     N 2583   0.906   0.235   9.352 -0.3561 -0.0534  0.2375
  169MPD1    H5 2584   0.993   0.186   9.369 -0.6360  0.3992  2.8724
  169MPD1    N1 2585   1.157   0.612   9.207  0.0010 -0.6382 -0.2748
  169MPD1    H6 2586   1.162   0.713   9.199  1.2321 -0.6694  0.2195
  169MPD1    H7 2587   1.228   0.578   9.272 -1.3156  0.5500  1.7966
  170MPD1     C 2588   0.068   1.979  13.149 -0.2810  0.2743 -0.1425
  170MPD1    C1 2589   0.062   1.956  13.282 -0.1579  0.4410 -0.0706
  170MPD1    C2 2590   4.659   1.963  13.345 -0.1335  0.2460 -0.7656
  170MPD1    C3 2591   4.543   1.979  13.267  0.3381 -0.6310  0.1914
  170MPD1    C4 2592   4.559   1.999  13.128 -0.6126 -0.1093  0.5144
  170MPD1    C5 2593   4.680   1.999  13.069  0.6652 -0.2521  0.0477
  170MPD1     H 2594   4.653   1.933  13.449 -0.9382 -0.1685 -0.9340
  170MPD1    H1 2595   4.472   2.016  13.064  2.3410  1.9092 -2.9635
  170MPD1    H2 2596   0.160   1.969  13.092 -1.2711  0.7588 -1.8191
  170MPD1    H3 2597   4.692   2.017  12.963  0.7295  1.6291  0.3790
  170MPD1     N 2598   4.415   1.992  13.330 -0.0005  0.1179 -0.4167
  170MPD1    H5 2599   4.417   1.995  13.432 -4.1371 -2.1850 -0.2586
  170MPD1    N1 2600   0.178   1.949  13.366 -0.3775  0.3401 -0.4469
  170MPD1    H6 2601   0.258   1.913  13.314 -0.7121  1.2005 -1.5448
  170MPD1    H7 2602   0.172   1.890  13.449  0.0237  1.0109  0.0605
  171MPD1     C 2603   2.459   3.981  15.464  0.3597  1.0941 -0.1812
  171MPD1    C1 2604   2.453   3.890  15.361  0.3377 -0.2659  0.3083
  171MPD1    C2 2605   2.512   3.766  15.388  0.0631  0.3486  0.1492
  171MPD1    C3 2606   2.575   3.731  15.510 -0.4383  0.8203 -0.2149
  171MPD1    C4 2607   2.582   3.829  15.607  0.4422 -0.1232 -0.1031
  171MPD1    C5 2608   2.533   3.958  15.575  0.3199 -0.7290 -0.4489
  171MPD1     H 2609   2.502   3.692  15.309  0.8376  1.5502 -1.0933
  171MPD1    H1 2610   2.628   3.798  15.699  1.8876 -1.7462 -1.3653
  171MPD1    H2 2611   2.420   4.081  15.445 -2.1600 -0.2253 -2.0310
  171MPD1    H3 2612   2.547   4.035  15.650 -1.9581  0.3926 -1.1963
  171MPD1     N 2613   2.603   3.598  15.547  0.1235  0.2271  1.0079
  171MPD1    H5 2614   2.619   3.591  15.647 -0.9847  0.2165  1.1857
  171MPD1    N1 2615   2.370   3.921  15.250  0.3902 -0.0595 -0.2437
  171MPD1    H6 2616   2.367   4.021  15.234  3.3541  0.5000  2.6712
  171MPD1    H7 2617   2.407   3.864  15.174  1.3201 -0.2583  0.3561
  172MPD1     C 2618   2.004   2.322   0.730 -0.1976  0.0939 -0.1152
  172MPD1    C1 2619   1.887   2.396   0.728 -0.4970  0.2589  0.5748
  172MPD1    C2 2620   1.880   2.516   0.659  0.2245  0.0047 -0.1426
  172MPD1    C3 2621   1.995   2.578   0.607  0.0439  0.1073  0.1378
  172MPD1    C4 2622   2.114   2.502   0.617 -0.1335 -0.1255 -0.0137
  172MPD1    C5 2623   2.116   2.376   0.678  0.1350  0.6407  0.9644
  172MPD1     H 2624   1.784   2.566   0.654 -0.2864 -1.1670 -2.2640
  172MPD1    H1 2625   2.203   2.544   0.572  0.9557 -1.0065  1.3244
  172MPD1    H2 2626   2.003   2.222   0.772  3.2906 -0.9340 -2.4752
  172MPD1    H3 2627   2.207   2.317   0.663 -0.2309  0.6107 -1.2481
  172MPD1     N 2628   2.005   2.707   0.544 -0.0246  0.0237 -0.2195
  172MPD1    H5 2629   2.099   2.739   0.528 -0.0727 -0.0256 -0.5941
  172MPD1    N1 2630   1.767   2.335   0.770  0.5888  0.6670  0.1604
  172MPD1    H6 2631   1.774   2.268   0.846 -1.4171 -0.4033 -0.6122
  172MPD1    H7 2632   1.697   2.408   0.787 -1.1331 -0.9948  0.1489
  173MPD1     C 2633   3.590   2.139  13.697  0.0457 -0.1924  0.1788
  173MPD1    C1 2634   3.460   2.169  13.728  0.5055 -0.3837  0.3062
  173MPD1    C2 2635   3.432   2.204  13.857  0.4364 -0.1053 -0.0896
  173MPD1    C3 2636   3.526   2.198  13.960 -0.0699 -0.6168 -0.1334
  173MPD1    C4 2637   3.655   2.162  13.931 -0.5901  0.4088 -0.0364
  173MPD1    C5 2638   3.686   2.138  13.795  0.1531 -0.5331  0.2507
  173MPD1     H 2639   3.339   2.256  13.880 -0.0989 -1.5331  0.9649
  173MPD1    H1 2640   3.734   2.149  14.004  0.6587  0.1167 -1.4182
  173MPD1    H2 2641   3.624   2.108  13.598  0.3599  1.9883 -0.3916
  173MPD1    H3 2642   3.784   2.098  13.773  0.1817  1.0116 -2.4039
  173MPD1     N 2643   3.496   2.245  14.085  0.2493 -0.5089 -0.3031
  173MPD1    H5 2644   3.402   2.276  14.109  0.6542  0.9884 -0.6015
  173MPD1    N1 2645   3.364   2.191  13.626 -0.0174 -0.1401 -0.0823
  173MPD1    H6 2646   3.268   2.181  13.657  0.2414 -2.2724  0.0623
  173MPD1    H7 2647   3.375   2.123  13.551  1.2951  0.8346 -0.7647
  174MPD1     C 2648   3.682   2.212  15.158 -0.7524 -0.3139  0.2773
  174MPD1    C1 2649   3.775   2.249  15.062 -0.3973  0.0169 -0.4149
  174MPD1    C2 2650   3.729   2.262  14.931  0.1252  0.3014  0.5238
  174MPD1    C3 2651   3.597   2.231  14.894  0.4303  0.0296  0.0170
  174MPD1    C4 2652   3.515   2.178  14.987  0.4443  0.1634 -0.5371
  174MPD1    C5 2653   3.561   2.170  15.117  0.1934 -0.6991  0.8723
  174MPD1     H 2654   3.799   2.296  14.855 -0.2005 -0.4271 -0.0951
  174MPD1    H1 2655   3.413   2.146  14.970  0.0324 -0.2670  2.6042
  174MPD1    H2 2656   3.705   2.207  15.264  0.9726 -3.9102 -0.2774
  174MPD1    H3 2657   3.485   2.136  15.187  0.6240 -0.8865  1.2520
  174MPD1     N 2658   3.534   2.247  14.766  0.9354  0.5953  0.1943
  174MPD1    H5 2659   3.438   2.215  14.762  0.4695  2.1057 -0.7149
  174MPD1    N1 2660   3.897   2.299  15.115 -0.0758  0.5352  0.1925
  174MPD1    H6 2661   3.975   2.283  15.050 -1.3797  1.3298 -1.5719
  174MPD1    H7 2662   3.918   2.248  15.200  0.2879  1.8697  0.9073
  175MPD1     C 2663   1.625   4.024  15.346  0.8617  0.1048 -0.6661
  175MPD1    C1 2664   1.508   3.953  15.334 -0.3478 -0.2109  0.2809
  175MPD1    C2 2665   1.441   3.920  15.455 -0.3825  0.5329 -0.3010
  175MPD1    C3 2666   1.508   3.932  15.573 -0.7915  0.1647  0.1246
  175MPD1    C4 2667   1.632   3.985  15.571  1.1219  0.0388  0.1085
  175MPD1    C5 2668   1.695   4.040  15.461 -0.3338 -0.2543 -1.0139
  175MPD1     H 2669   1.344   3.878  15.435 -0.0269 -0.0890 -0.7214
  175MPD1    H1 2670   1.686   3.998  15.664 -0.0961  1.8014  0.5668
  175MPD1    H2 2671   1.666   4.072  15.257  1.7928 -0.5196 -0.5798
  175MPD1    H3 2672   1.786   4.098  15.473 -1.9194  1.6213  2.1606
  175MPD1     N 2673   1.455   3.882  15.688  0.2402 -0.3611  0.2425
  175MPD1    H5 2674   1.515   3.863  15.768  1.0054 -0.1907 -0.2883
  175MPD1    N1 2675   1.443   3.939  15.207 -0.6725  0.2355  0.3525
  175MPD1    H6 2676   1.369   3.870  15.198  1.0481 -1.5588 -0.1937
  175MPD1    H7 2677   1.508   3.923  15.130 -0.4522  0.8858  0.4024
  176MPD1     C 2678   3.237   0.384  16.492  0.2036 -0.5715 -0.6221
  176MPD1    C1 2679   3.260   0.489  16.585 -0.6587  0.4395  0.0415
  176MPD1    C2 2680   3.157   0.521  16.668  0.3280 -0.3882 -0.0956
  176MPD1    C3 2681   3.032   0.465  16.645  0.0670 -0.1478 -0.0548
  176MPD1    C4 2682   3.005   0.372  16.549  0.0931  0.4140 -0.0338
  176MPD1    C5 2683   3.115   0.329  16.478 -0.4002 -0.4107  0.2583
  176MPD1     H 2684   3.182   0.590  16.747  0.2529 -1.2882  0.7080
  176MPD1    H1 2685   2.914   0.314  16.538 -1.6841  3.1862 -0.0323
  176MPD1    H2 2686   3.320   0.341  16.437  0.0185  1.0171 -2.1662
  176MPD1    H3 2687   3.107   0.245  16.410 -4.2063  1.4300 -1.6128
  176MPD1     N 2688   2.929   0.505  16.741 -0.0381 -0.2373  0.2289
  176MPD1    H5 2689   2.953   0.572  16.814  0.7448 -0.6638  0.3579
  176MPD1    N1 2690   3.385   0.539  16.622  0.8511  0.1571 -0.0494
  176MPD1    H6 2691   3.465   0.519  16.563  0.5051  0.3881 -0.6010
  176MPD1    H7 2692   3.381   0.640  16.636  2.0076  0.2622 -0.4811
  177MPD1     C 2693   1.052   4.560   9.807  0.5806  0.1482 -0.0686
  177MPD1    C1 2694   0.915   4.581   9.817 -0.4763  0.2686  0.4182
  177MPD1    C2 2695   0.877   4.709   9.784 -0.1970 -0.9661 -0.9224
  177MPD1    C3 2696   0.963   0.085   9.736 -0.2398 -0.1419  0.2952
  177MPD1    C4 2697   1.099   0.060   9.737 -0.1266 -0.3915  0.2567
  177MPD1    C5 2698   1.142   4.658   9.772  0.1466  0.0753  0.3771
  177MPD1     H 2699   0.770   0.005   9.781 -0.1125 -0.1557  1.0233
  177MPD1    H1 2700   1.172   0.126   9.692 -1.0300  0.0057 -0.6404
  177MPD1    H2 2701   1.099   4.466   9.834 -1.9919 -0.6877  1.4961
  177MPD1    H3 2702   1.249   4.638   9.767 -0.0456 -0.6203 -1.1705
  177MPD1     N 2703   0.908   0.211   9.699 -0.1486 -0.1148  0.0265
  177MPD1    H5 2704   0.808   0.217   9.710 -0.2463  1.4578 -1.7427
  177MPD1    N1 2705   0.833   4.487   9.878  0.1959  0.3900  0.1642
  177MPD1    H6 2706   0.872   4.393   9.867 -1.5095 -0.2613 -0.2509
  177MPD1    H7 2707   0.735   4.491   9.854  0.0720 -1.0169  0.4339
  178MPD1     C 2708   3.706   1.890   0.380  0.6494 -0.1473 -0.7335
  178MPD1    C1 2709   3.597   1.834   0.325 -0.4049  0.2165  0.2182
  178MPD1    C2 2710   3.613   1.759   0.211  0.6502 -0.2300 -0.2435
  178MPD1    C3 2711   3.734   1.748   0.141 -0.0357 -0.6778  0.7077
  178MPD1    C4 2712   3.839   1.820   0.193 -0.4590 -0.5321  0.1336
  178MPD1    C5 2713   3.831   1.885   0.315  0.1052  0.0319 -0.3381
  178MPD1     H 2714   3.528   1.706   0.170  1.3387  0.6598 -2.8051
  178MPD1    H1 2715   3.937   1.813   0.146  0.1890  1.9467  1.1503
  178MPD1    H2 2716   3.696   1.950   0.470  0.9837  1.4454 -1.7403
  178MPD1    H3 2717   3.919   1.926   0.363 -0.7554  2.5156 -0.8829
  178MPD1     N 2718   3.752   1.684   0.014 -0.4664 -0.0090 -0.0620
  178MPD1    H5 2719   3.841   1.705  17.662 -0.2604 -1.7815 -0.4613
  178MPD1    N1 2720   3.469   1.864   0.372 -0.2257 -0.6581 -0.5237
  178MPD1    H6 2721   3.470   1.890   0.471 -2.2810  0.3209 -0.7627
  178MPD1    H7 2722   3.403   1.787   0.360  0.0260 -1.1070  0.9588
  179MPD1     C 2723   3.438   0.170  16.273 -0.2831 -0.1661 -0.0669
  179MPD1    C1 2724   3.370   0.173  16.161  0.4134  0.1377 -0.8096
  179MPD1    C2 2725   3.354   0.053  16.096  0.4341 -0.1351  0.5880
  179MPD1    C3 2726   3.404   4.654  16.155  0.3353 -0.0913  0.9009
  179MPD1    C4 2727   3.456   4.652  16.283  0.3481  0.6696  0.1012
  179MPD1    C5 2728   3.484   0.048  16.334  0.6785 -0.3643 -0.4744
  179MPD1     H 2729   3.289   0.052  16.009  0.7612  0.7452  0.3460
  179MPD1    H1 2730   3.501   4.567  16.332 -1.7943  0.9380  2.5447
  179MPD1    H2 2731   3.475   0.263  16.313 -0.5824 -0.0760 -0.0007
  179MPD1    H3 2732   3.559   0.050  16.413 -1.4684 -0.7110  1.5701
  179MPD1     N 2733   3.406   4.526  16.096  0.7480 -0.3271 -0.4374
  179MPD1    H5 2734   3.442   4.449  16.151 -0.4261  0.6077  1.6160
  179MPD1    N1 2735   3.352   0.306  16.107  0.0268 -0.2304 -0.3237
  179MPD1    H6 2736   3.349   0.387  16.168 -0.3336 -0.4246 -0.0843
  179MPD1    H7 2737   3.276   0.308  16.039 -0.6318  1.8129  0.4761
  180MPD1     C 2738   2.798   1.608  14.512  0.1223  0.5585 -0.6071
  180MPD1    C1 2739   2.766   1.563  14.388 -0.6748 -0.2547 -0.2125
  180MPD1    C2 2740   2.764   1.426  14.374  0.7150 -0.1620 -0.4980
  180MPD1    C3 2741   2.803   1.333  14.473  0.7235 -0.4990 -0.5762
  180MPD1    C4 2742   2.862   1.388  14.589 -0.0580  0.6024 -0.0956
  180MPD1    C5 2743   2.850   1.520  14.603  0.1092  0.0758 -0.2528
  180MPD1     H 2744   2.719   1.399  14.279 -1.7026 -1.2242  0.9591
  180MPD1    H1 2745   2.898   1.323  14.668 -0.1252  2.4565  1.4488
  180MPD1    H2 2746   2.790   1.712  14.542  3.1142  0.7442 -0.4073
  180MPD1    H3 2747   2.881   1.556  14.700  0.9551 -0.2537 -0.3946
  180MPD1     N 2748   2.799   1.199  14.442  0.0516 -0.2220 -0.1303
  180MPD1    H5 2749   2.756   1.172  14.354 -1.3625  0.2791  0.3969
  180MPD1    N1 2750   2.718   1.655  14.294  0.2513  0.0209 -0.1660
  180MPD1    H6 2751   2.745   1.753  14.300  1.4024 -0.1892 -1.6700
  180MPD1    H7 2752   2.700   1.627  14.198  2.3557  0.1268 -0.6103
  181MPD1     C 2753   0.837   3.575   9.258 -0.4275 -0.2295 -0.2756
  181MPD1    C1 2754   0.887   3.694   9.319  0.1162 -0.6219 -0.4336
  181MPD1    C2 2755   0.912   3.679   9.454 -0.2363  0.0629 -0.0281
  181MPD1    C3 2756   0.898   3.553   9.515 -0.2312  0.4894 -0.0528
  181MPD1    C4 2757   0.863   3.443   9.450 -0.2774 -0.2151 -0.8396
  181MPD1    C5 2758   0.825   3.451   9.320 -0.4486 -0.1222 -0.4206
  181MPD1     H 2759   0.963   3.753   9.515  0.5094  0.1239 -0.7209
  181MPD1    H1 2760   0.863   3.349   9.504  0.6472 -1.8007 -3.5773
  181MPD1    H2 2761   0.828   3.573   9.149 -0.5065  2.7502 -0.3279
  181MPD1    H3 2762   0.781   3.363   9.274 -0.3404 -0.7132  0.6129
  181MPD1     N 2763   0.909   3.527   9.654 -0.4368  0.6239 -0.5536
  181MPD1    H5 2764   0.905   3.433   9.691 -1.6399  0.4289 -1.1996
  181MPD1    N1 2765   0.952   3.796   9.245 -0.0662  0.0497  0.1255
  181MPD1    H6 2766   0.900   3.805   9.159  0.7115  0.5621 -0.2921
  181MPD1    H7 2767   0.953   3.884   9.296  0.6357  0.8306 -1.2564
  182MPD1     C 2768   1.378   2.384   1.797 -0.3990 -0.1990  0.2757
  182MPD1    C1 2769   1.424   2.278   1.719  0.3204 -0.9483  0.4967
  182MPD1    C2 2770   1.343   2.231   1.614  0.1117  0.1863 -0.6221
  182MPD1    C3 2771   1.212   2.279   1.600  0.3737  0.2397 -0.6203
  182MPD1    C4 2772   1.168   2.382   1.682 -0.0885 -0.3369 -0.0168
  182MPD1    C5 2773   1.254   2.439   1.774 -0.2258  0.0374  0.1876
  182MPD1     H 2774   1.382   2.149   1.555 -0.4045 -0.6100  0.1386
  182MPD1    H1 2775   1.065   2.418   1.675  0.5352  1.0895 -1.8105
  182MPD1    H2 2776   1.440   2.430   1.873  0.6750 -1.2668  0.0508
  182MPD1    H3 2777   1.210   2.517   1.834  2.7283  1.3827  0.6200
  182MPD1     N 2778   1.121   2.227   1.504 -0.0238 -0.1887  0.6710
  182MPD1    H5 2779   1.030   2.271   1.499  0.3713  0.6233  0.5920
  182MPD1    N1 2780   1.557   2.230   1.741  0.0393 -0.5513  0.3300
  182MPD1    H6 2781   1.609   2.259   1.824 -1.3799  0.8639  0.7356
  182MPD1    H7 2782   1.566   2.132   1.717  3.6768 -0.6861  2.3009
  183MPD1     C 2783   2.575   3.038   9.477 -0.2612  0.8507  0.0930
  183MPD1    C1 2784   2.453   3.091   9.451  0.0757  0.5729  0.0198
  183MPD1    C2 2785   2.350   3.046   9.532 -0.0970  0.7718 -0.3398
  183MPD1    C3 2786   2.367   2.951   9.628  0.7593 -0.1470 -0.1298
  183MPD1    C4 2787   2.493   2.897   9.643  0.1873 -0.6841  0.5742
  183MPD1    C5 2788   2.594   2.948   9.569  0.0518 -0.3147  0.0609
  183MPD1     H 2789   2.257   3.098   9.514 -1.1489 -1.0301 -0.2080
  183MPD1    H1 2790   2.508   2.822   9.719  0.1941 -1.4005 -0.1284
  183MPD1    H2 2791   2.655   3.058   9.406  0.8103 -0.9114  0.7933
  183MPD1    H3 2792   2.693   2.904   9.569  0.8026  1.3779  0.2562
  183MPD1     N 2793   2.264   2.932   9.714 -0.5570 -0.1881  0.6206
  183MPD1    H5 2794   2.187   2.997   9.707  1.8217  2.7359  1.5650
  183MPD1    N1 2795   2.429   3.147   9.331 -0.0849 -0.0067 -0.3199
  183MPD1    H6 2796   2.501   3.188   9.272  2.4984 -1.5870  1.7470
  183MPD1    H7 2797   2.358   3.218   9.348  0.7552  0.9809 -0.9099
  184MPD1     C 2798   0.847   0.183  10.748  0.0991 -0.7827 -0.4413
  184MPD1    C1 2799   0.731   0.252  10.740  0.2241  0.7127  0.0506
  184MPD1    C2 2800   0.686   0.296  10.618 -0.1968 -0.3402 -0.3967
  184MPD1    C3 2801   0.754   0.272  10.503 -0.2570  1.0218 -0.5030
  184MPD1    C4 2802   0.865   0.197  10.505 -0.3637 -0.9152 -0.6767
  184MPD1    C5 2803   0.909   0.153  10.632  0.1617 -0.4033  0.4919
  184MPD1     H 2804   0.591   0.347  10.607 -1.2758 -2.2409  0.1408
  184MPD1    H1 2805   0.919   0.185  10.413  1.5347 -0.1931  0.3582
  184MPD1    H2 2806   0.891   0.148  10.840  0.9020  0.0461 -0.5057
  184MPD1    H3 2807   0.992   0.083  10.632  1.0922  0.7023 -0.9610
  184MPD1     N 2808   0.730   0.340  10.383  0.1904  0.1215  0.1810
  184MPD1    H5 2809   0.810   0.343  10.321 -1.1347  0.5218 -1.4907
  184MPD1    N1 2810   0.659   0.291  10.853 -0.2042 -0.4707  0.2235
  184MPD1    H6 2811   0.561   0.309  10.832 -0.0888  2.0800  1.8030
  184MPD1    H7 2812   0.665   0.220  10.925  3.8826  0.3707  0.6868
  185MPD1     C 2813   0.042   0.761   9.661  0.7761  0.9722 -0.7134
  185MPD1    C1 2814   0.014   0.664   9.759  0.0120  0.2234  0.0430
  185MPD1    C2 2815   0.117   0.617   9.832 -1.4459 -0.8151 -0.4387
  185MPD1    C3 2816   0.246   0.663   9.807 -0.5354 -0.5296  0.0788
  185MPD1    C4 2817   0.275   0.762   9.712  0.0297  0.0729 -0.6209
  185MPD1    C5 2818   0.172   0.802   9.641  0.5431 -0.0888 -0.6876
  185MPD1     H 2819   0.098   0.530   9.895  1.3114 -0.2489  1.1610
  185MPD1    H1 2820   0.372   0.799   9.680 -0.0175  0.2347 -0.5750
  185MPD1    H2 2821   4.689   0.806   9.597 -2.5089 -1.1053  1.6660
  185MPD1    H3 2822   0.191   0.839   9.540 -2.2305 -0.3153 -1.2908
  185MPD1     N 2823   0.355   0.629   9.882 -0.0247 -0.2433 -0.5550
  185MPD1    H5 2824   0.443   0.675   9.863 -0.9602  0.9907 -1.8675
  185MPD1    N1 2825   4.605   0.627   9.785 -0.4609  0.1436 -0.4306
  185MPD1    H6 2826   4.599   0.530   9.815 -2.3056  1.2761  2.8341
  185MPD1    H7 2827   4.545   0.642   9.704 -3.2033  3.0703  2.1427
  186MPD1     C 2828   3.949   4.205  15.964 -0.0588 -0.1751  0.1548
  186MPD1    C1 2829   3.978   4.316  15.884 -0.5583 -0.2003  0.3924
  186MPD1    C2 2830   3.986   4.441  15.945  0.2437  0.2351 -0.2854
  186MPD1    C3 2831   3.952   4.457  16.081 -0.1909  0.3288 -0.4009
  186MPD1    C4 2832   3.904   4.345  16.147 -0.1596  0.6973 -0.3117
  186MPD1    C5 2833   3.917   4.219  16.096  0.7904  0.6847 -0.0253
  186MPD1     H 2834   4.013   4.526  15.884  0.6288 -0.8553 -1.6305
  186MPD1    H1 2835   3.860   4.340  16.246  0.5436 -1.0286 -0.0874
  186MPD1    H2 2836   3.957   4.103  15.929 -0.4950  0.7124 -2.6025
  186MPD1    H3 2837   3.895   4.126  16.147 -1.7468  1.7554  0.8376
  186MPD1     N 2838   3.942   4.586  16.140 -0.0746 -0.0478 -0.4326
  186MPD1    H5 2839   3.905   4.588  16.235 -0.8575 -0.6362 -0.7266
  186MPD1    N1 2840   4.016   4.298  15.752  0.1635 -0.0399 -0.0632
  186MPD1    H6 2841   3.954   4.221  15.728  1.6239 -0.5614 -2.1221
  186MPD1    H7 2842   4.010   4.385  15.699  2.7111  0.3738  0.3259
  187MPD1     C 2843   2.535   1.324   0.217 -0.3718  0.0160  0.1390
  187MPD1    C1 2844   2.562   1.447   0.267 -0.5960  0.4492  0.2921
  187MPD1    C2 2845   2.649   1.528   0.199  0.0745  0.2029 -0.1276
  187MPD1    C3 2846   2.709   1.488   0.075  0.5141  0.0742  0.1681
  187MPD1    C4 2847   2.681   1.356   0.030 -0.3285  0.9254 -0.6806
  187MPD1    C5 2848   2.581   1.284   0.094  0.1655  0.1813  0.3561
  187MPD1     H 2849   2.687   1.621   0.239  2.0203 -0.7209  0.1451
  187MPD1    H1 2850   2.721   1.310  17.634  0.6381  2.0466 -0.8273
  187MPD1    H2 2851   2.466   1.260   0.272  0.6192 -0.0926  1.2544
  187MPD1    H3 2852   2.536   1.193   0.055  1.4528  0.0111 -0.7135
  187MPD1     N 2853   2.808   1.555   0.000  0.6714  0.0118  0.3759
  187MPD1    H5 2854   2.858   1.504  17.622  1.8379  0.8845  0.5705
  187MPD1    N1 2855   2.525   1.484   0.399 -0.8016 -0.6253 -0.2382
  187MPD1    H6 2856   2.429   1.458   0.418 -0.1727 -2.5563  0.3332
  187MPD1    H7 2857   2.522   1.585   0.406 -1.1706 -0.6519 -0.0098
  188MPD1     C 2858   2.924   2.128   9.816  0.1905  0.3100  0.1902
  188MPD1    C1 2859   2.983   2.052   9.916 -0.6845  0.5433 -0.3976
  188MPD1    C2 2860   2.934   1.916   9.931  0.1955  0.1314 -0.1720
  188MPD1    C3 2861   2.846   1.859   9.836  0.0402 -0.4662 -0.8366
  188MPD1    C4 2862   2.792   1.939   9.738 -0.1679 -0.3521  0.2880
  188MPD1    C5 2863   2.837   2.071   9.724  0.1555 -0.2013  0.3934
  188MPD1     H 2864   2.966   1.872  10.025  0.2982  0.3045 -0.1262
  188MPD1    H1 2865   2.732   1.890   9.662 -1.3075  2.2301 -0.4871
  188MPD1    H2 2866   2.961   2.229   9.813 -0.5204  0.5829  0.6640
  188MPD1    H3 2867   2.809   2.138   9.643  2.1743  0.8773  0.5892
  188MPD1     N 2868   2.819   1.722   9.830 -0.0557  0.2947  0.6396
  188MPD1    H5 2869   2.772   1.690   9.746 -1.2277 -0.1470  1.4796
  188MPD1    N1 2870   3.056   2.115  10.020  0.0989 -0.2951 -0.3819
  188MPD1    H6 2871   3.111   2.050  10.076 -2.0725 -0.5553  1.4699
  188MPD1    H7 2872   3.107   2.196   9.986  0.4325 -0.5912 -0.5939
  189MPD1     C 2873   4.698   1.652   0.295  0.0256  0.1783 -0.2917
  189MPD1    C1 2874   4.576   1.626   0.227 -0.4260 -0.3358  0.4768
  189MPD1    C2 2875   4.483   1.722   0.234  0.7719 -0.5476  0.7435
  189MPD1    C3 2876   4.509   1.851   0.281 -0.0490 -0.2087 -0.0065
  189MPD1    C4 2877   4.627   1.875   0.346 -0.3402  0.3577  0.3023
  189MPD1    C5 2878   4.709   1.769   0.357 -0.8703 -0.4909 -0.5423
  189MPD1     H 2879   4.387   1.704   0.186 -0.8727  2.3891  2.9559
  189MPD1    H1 2880   4.657   1.962   0.403 -2.6655  0.8367  0.8042
  189MPD1    H2 2881   0.049   1.579   0.328  1.2220  0.9472 -1.2325
  189MPD1    H3 2882   0.072   1.772   0.422 -1.1533 -0.4546 -0.1683
  189MPD1     N 2883   4.417   1.956   0.248 -0.1359 -0.2081 -0.7185
  189MPD1    H5 2884   4.345   1.920   0.185  0.2435 -2.3589  0.1031
  189MPD1    N1 2885   4.542   1.494   0.190  0.1389 -0.1861  0.2256
  189MPD1    H6 2886   4.617   1.432   0.163  1.9399  1.7838  0.6798
  189MPD1    H7 2887   4.472   1.499   0.116 -0.3263  0.0735  0.6770
  190MPD1     C 2888   3.127   0.584  15.384 -0.7646  0.4375  0.4419
  190MPD1    C1 2889   3.206   0.630  15.284  0.0918  1.0988  0.4809
  190MPD1    C2 2890   3.324   0.689  15.330 -1.0140  0.1206 -0.3797
  190MPD1    C3 2891   3.339   0.730  15.459  0.5276  0.3889 -0.8640
  190MPD1    C4 2892   3.231   0.711  15.550  0.4971 -0.1358 -0.3703
  190MPD1    C5 2893   3.121   0.639  15.509  0.3876 -0.4172 -0.1408
  190MPD1     H 2894   3.402   0.699  15.255  0.0872  1.1342  0.9087
  190MPD1    H1 2895   3.228   0.719  15.658  1.4093 -1.2817 -0.2513
  190MPD1    H2 2896   3.034   0.532  15.363 -0.7732  0.5913  0.0978
  190MPD1    H3 2897   3.055   0.609  15.589  0.9359 -3.0035 -0.6705
  190MPD1     N 2898   3.461   0.793  15.497 -0.3708  0.2703  0.2037
  190MPD1    H5 2899   3.532   0.813  15.427 -0.5488  2.3785  0.6201
  190MPD1    N1 2900   3.196   0.579  15.154  0.5761 -0.5723  0.1561
  190MPD1    H6 2901   3.097   0.565  15.135  0.4925  0.2919 -0.0369
  190MPD1    H7 2902   3.237   0.632  15.077 -1.9214  0.3648 -0.5093
  191MPD1     C 2903   2.919   2.720  12.289  0.6205  0.6832 -0.2387
  191MPD1    C1 2904   2.894   2.854  12.249  0.3094  0.0644 -0.6793
  191MPD1    C2 2905   2.996   2.931  12.196 -0.3419 -0.0318  0.2787
  191MPD1    C3 2906   3.125   2.882  12.188 -0.5209 -0.2779 -0.6776
  191MPD1    C4 2907   3.157   2.760  12.242 -0.1703  0.6249 -0.2964
  191MPD1    C5 2908   3.049   2.678  12.289  0.5533  0.2220  0.0064
  191MPD1     H 2909   2.973   3.030  12.158  1.5669  1.1043  2.0673
  191MPD1    H1 2910   3.256   2.716  12.246  0.0096  1.1639  1.2059
  191MPD1    H2 2911   2.846   2.647  12.322 -1.0670  1.9102 -1.2126
  191MPD1    H3 2912   3.064   2.575  12.321  0.7423 -0.0444 -0.9254
  191MPD1     N 2913   3.221   2.962  12.116 -0.6907 -0.5342  0.1996
  191MPD1    H5 2914   3.181   3.043  12.070  0.7859  0.3613  0.4665
  191MPD1    N1 2915   2.765   2.910  12.252  0.5613 -0.3408 -0.2345
  191MPD1    H6 2916   2.690   2.871  12.309 -0.2010 -0.7672 -1.5281
  191MPD1    H7 2917   2.776   3.010  12.268  0.2733 -0.3973  0.3170
  192MPD1     C 2918   2.996   3.239  11.337  0.6038  0.5059  0.0037
  192MPD1    C1 2919   3.123   3.296  11.341  0.0316 -0.1873  0.0949
  192MPD1    C2 2920   3.208   3.266  11.450  0.0936 -0.1991  0.8103
  192MPD1    C3 2921   3.184   3.157  11.537 -0.2907 -0.0082 -0.1024
  192MPD1    C4 2922   3.061   3.093  11.522  0.3339  0.5653  0.0884
  192MPD1    C5 2923   2.966   3.138  11.433  0.2893  0.5018 -0.0243
  192MPD1     H 2924   3.297   3.327  11.446  0.3543 -0.8054 -2.5404
  192MPD1    H1 2925   3.028   3.027  11.601  1.3293 -2.0429 -1.7054
  192MPD1    H2 2926   2.916   3.278  11.274 -1.1509 -1.5834  0.9597
  192MPD1    H3 2927   2.861   3.110  11.433  0.6830 -0.9480 -1.3736
  192MPD1     N 2928   3.265   3.123  11.655 -0.7849 -0.1467  0.5843
  192MPD1    H5 2929   3.241   3.038  11.706 -2.4379 -0.1729 -0.2480
  192MPD1    N1 2930   3.145   3.415  11.268  0.1094  0.3315  0.4478
  192MPD1    H6 2931   3.246   3.415  11.255 -0.1031 -0.8680 -1.2290
  192MPD1    H7 2932   3.103   3.414  11.175 -0.0489 -0.9680  0.5403
  193MPD1     C 2933   2.245   3.246  16.008  0.2354 -0.4569  0.2747
  193MPD1    C1 2934   2.249   3.367  16.073 -0.1749 -0.0725  0.1550
  193MPD1    C2 2935   2.361   3.398  16.153  0.2165  0.6394  0.3001
  193MPD1    C3 2936   2.464   3.311  16.160 -0.4683 -0.6691  0.0966
  193MPD1    C4 2937   2.463   3.201  16.081  0.2063 -0.1178 -0.5814
  193MPD1    C5 2938   2.351   3.159  16.012 -0.1732 -0.2500  0.3299
  193MPD1     H 2939   2.371   3.490  16.209 -1.0407  0.5155  0.7322
  193MPD1    H1 2940   2.549   3.136  16.086 -0.6231 -1.1806 -0.1672
  193MPD1    H2 2941   2.162   3.223  15.942  0.7121  2.3294 -1.3236
  193MPD1    H3 2942   2.352   3.065  15.958 -0.2643 -0.7988  1.3025
  193MPD1     N 2943   2.573   3.338  16.247  0.0227  0.4340 -0.2040
  193MPD1    H5 2944   2.643   3.265  16.259 -0.2252  0.2032 -0.1794
  193MPD1    N1 2945   2.150   3.468  16.069  0.2337 -0.0913  0.3424
  193MPD1    H6 2946   2.136   3.517  16.157  0.8211  1.1476 -0.2446
  193MPD1    H7 2947   2.060   3.426  16.047  1.7087 -1.8289 -2.3819
  194MPD1     C 2948   0.115   4.694   0.376 -0.0569  0.8443 -0.8334
  194MPD1    C1 2949   0.068   4.719   0.247  0.5788 -0.2724 -0.2779
  194MPD1    C2 2950   0.043   4.617   0.160  0.6571 -0.0610 -0.3540
  194MPD1    C3 2951   0.052   4.481   0.208  0.0350 -0.1363 -0.1599
  194MPD1    C4 2952   0.108   4.461   0.331 -0.2777  0.3679  0.4050
  194MPD1    C5 2953   0.138   4.566   0.412 -0.2838 -0.0931  0.0049
  194MPD1     H 2954   0.007   4.641   0.061  0.4079 -0.4249 -0.3529
  194MPD1    H1 2955   0.144   4.367   0.370 -3.5812 -0.2860  1.7933
  194MPD1    H2 2956   0.142   0.053   0.442 -0.0098 -1.1143  1.5893
  194MPD1    H3 2957   0.187   4.543   0.506  1.1713 -1.4975 -1.1151
  194MPD1     N 2958   0.029   4.358   0.137  1.2148  0.1921 -0.0153
  194MPD1    H5 2959   0.065   4.274   0.181  3.3814  1.0135 -0.2442
  194MPD1    N1 2960   0.067   0.124   0.198 -0.7338 -0.1422  0.6425
  194MPD1    H6 2961   4.721   0.137   0.124 -0.0457  1.6378  0.3223
  194MPD1    H7 2962   0.027   0.182   0.271  0.7454 -1.0588  2.1776
  195MPD1     C 2963   2.747   2.074  17.398 -0.2895  0.2204  0.1980
  195MPD1    C1 2964   2.727   1.995  17.294 -0.4357 -0.1215 -0.6298
  195MPD1    C2 2965   2.628   1.898  17.311 -0.5621  0.2351 -0.0868
  195MPD1    C3 2966   2.567   1.876  17.435  1.0572 -0.1091 -0.2827
  195MPD1    C4 2967   2.591   1.965  17.535  0.1979  0.0051  0.4712
  195MPD1    C5 2968   2.689   2.054  17.519  0.1957 -0.4494  0.0416
  195MPD1     H 2969   2.595   1.827  17.237  0.2881  0.5034 -0.7203
  195MPD1    H1 2970   2.529   1.964  17.625 -0.6130  2.3096 -0.0402
  195MPD1    H2 2971   2.821   2.153  17.391 -2.2422  2.0729  0.4251
  195MPD1    H3 2972   2.701   2.130  17.596  0.0056 -0.4785  0.1025
  195MPD1     N 2973   2.476   1.770  17.464 -0.3440 -0.2130 -0.2682
  195MPD1    H5 2974   2.442   1.763  17.559  0.0809 -0.7876 -0.1593
  195MPD1    N1 2975   2.777   2.029  17.166 -0.4322 -0.1264 -0.0133
  195MPD1    H6 2976   2.863   2.085  17.169 -1.4436  1.5736 -1.9893
  195MPD1    H7 2977   2.792   1.941  17.118 -1.6320  0.2658 -1.1267
  196MPD1     C 2978   2.169   0.979   0.569 -0.3059  0.5891 -0.2186
  196MPD1    C1 2979   2.253   1.083   0.575  0.6417 -0.5042  0.0035
  196MPD1    C2 2980   2.232   1.179   0.676  0.6041  0.8293 -0.4311
  196MPD1    C3 2981   2.128   1.156   0.771  0.0572 -0.7142 -0.4106
  196MPD1    C4 2982   2.060   1.040   0.768  0.3586 -0.1762  0.5290
  196MPD1    C5 2983   2.085   0.948   0.669 -0.4088  0.5506  0.5603
  196MPD1     H 2984   2.278   1.275   0.692 -0.7214  1.2988  0.5800
  196MPD1    H1 2985   1.972   1.026   0.830 -0.0845  1.4268  0.2624
  196MPD1    H2 2986   2.187   0.902   0.495 -0.3674  0.5001 -0.1412
  196MPD1    H3 2987   2.028   0.856   0.669  1.9839 -0.9300  1.2428
  196MPD1     N 2988   2.090   1.249   0.869  0.2166 -0.0045 -0.2209
  196MPD1    H5 2989   2.008   1.232   0.926  0.1462 -1.7581 -0.8380
  196MPD1    N1 2990   2.340   1.109   0.467 -0.2135  0.3121  0.5900
  196MPD1    H6 2991   2.427   1.159   0.483  1.1621 -0.9513 -2.7469
  196MPD1    H7 2992   2.369   1.019   0.429 -2.6868 -0.5609  0.8072
  197MPD1     C 2993   1.561   2.920  17.643 -0.0663 -0.1855  0.2073
  197MPD1    C1 2994   1.578   3.043   0.009 -0.7412  0.7420  0.3216
  197MPD1    C2 2995   1.576   3.159  17.621  0.5742  0.0305 -0.4088
  197MPD1    C3 2996   1.585   3.137  17.482  0.3655  0.4737 -1.1041
  197MPD1    C4 2997   1.570   3.014  17.430 -0.4479  0.0536 -0.0676
  197MPD1    C5 2998   1.554   2.909  17.508  0.6209 -0.0021 -0.0169
  197MPD1     H 2999   1.584   3.258  17.665  0.5674 -0.5535  0.8931
  197MPD1    H1 3000   1.569   2.997  17.323 -1.4158  0.6065 -0.1449
  197MPD1    H2 3001   1.551   2.830   0.010  2.9535 -2.6206 -2.8869
  197MPD1    H3 3002   1.539   2.812  17.461  1.3253  0.7178 -1.7625
  197MPD1     N 3003   1.629   3.241  17.395 -0.1157  0.0919 -0.1756
  197MPD1    H5 3004   1.664   3.214  17.304 -1.6074  0.2217 -0.7935
  197MPD1    N1 3005   1.562   3.056   0.149  0.3369  0.0770 -0.2709
  197MPD1    H6 3006   1.601   2.971   0.189 -1.5650 -0.4063  0.5633
  197MPD1    H7 3007   1.617   3.131   0.190  0.3249  0.0567 -0.2183
  198MPD1     C 3008   3.201   1.325  15.002  0.4682  0.7317 -0.0243
  198MPD1    C1 3009   3.286   1.407  14.934 -0.7336  0.2215 -0.2548
  198MPD1    C2 3010   3.327   1.523  15.003  0.0636  0.8232  0.2735
  198MPD1    C3 3011   3.319   1.535  15.139  0.0109 -0.7486  0.0176
  198MPD1    C4 3012   3.246   1.433  15.207  0.8432 -0.3152  0.0650
  198MPD1    C5 3013   3.185   1.335  15.140 -0.1867 -0.6442  0.3716
  198MPD1     H 3014   3.383   1.593  14.943  2.6361 -1.4892 -0.0257
  198MPD1    H1 3015   3.236   1.428  15.315 -1.9022 -1.3353 -0.2387
  198MPD1    H2 3016   3.150   1.242  14.955  1.0013  0.1043  0.5308
  198MPD1    H3 3017   3.124   1.263  15.193 -1.7991 -0.6554 -1.4987
  198MPD1     N 3018   3.386   1.638  15.208  0.1862  0.3092 -0.1717
  198MPD1    H5 3019   3.444   1.707  15.160  1.6792 -0.5564  0.3647
  198MPD1    N1 3020   3.312   1.384  14.796  0.2343 -0.1748 -0.0747
  198MPD1    H6 3021   3.392   1.433  14.756 -1.3346  1.9198 -0.6754
  198MPD1    H7 3022   3.342   1.289  14.777  0.2187 -0.2257  0.1602
  199MPD1     C 3023   0.276   3.452  10.383 -0.3173 -0.7465  1.1337
  199MPD1    C1 3024   0.364   3.354  10.337  0.3943  0.0601 -0.1440
  199MPD1    C2 3025   0.431   3.376  10.219  0.0176 -0.2047 -0.0278
  199MPD1    C3 3026   0.389   3.475  10.136  0.7195 -0.0179  0.0141
  199MPD1    C4 3027   0.309   3.573  10.192 -0.0224  0.2284  0.7600
  199MPD1    C5 3028   0.247   3.563  10.311  0.2676  0.4336  0.2130
  199MPD1     H 3029   0.513   3.307  10.197  0.3961  0.0291  0.6421
  199MPD1    H1 3030   0.290   3.661  10.131 -1.9645 -1.3890 -0.9584
  199MPD1    H2 3031   0.227   3.444  10.479 -2.0927 -2.5756  0.0545
  199MPD1    H3 3032   0.171   3.636  10.338  0.7806  1.3470 -0.7826
  199MPD1     N 3033   0.425   3.496  10.007  0.9082  0.7220 -0.1664
  199MPD1    H5 3034   0.398   3.588   9.973 -0.7918 -0.1357 -1.0920
  199MPD1    N1 3035   0.403   3.245  10.422  0.3447 -0.3386  0.1475
  199MPD1    H6 3036   0.433   3.167  10.363 -0.5352  0.2792 -1.1189
  199MPD1    H7 3037   0.332   3.213  10.488  1.3855 -1.1294  0.8902
  200MPD1     C 3038   4.164   3.118  14.462  0.0242 -0.0203  0.3542
  200MPD1    C1 3039   4.108   3.155  14.342 -0.4855  0.4445  0.4180
  200MPD1    C2 3040   4.192   3.163  14.232  0.2840  0.0699  0.2815
  200MPD1    C3 3041   4.306   3.088  14.235 -0.2692 -0.2419  0.5210
  200MPD1    C4 3042   4.355   3.029  14.345  0.1815  0.0361  0.7018
  200MPD1    C5 3043   4.288   3.058  14.464  0.0830  0.5771  0.2327
  200MPD1     H 3044   4.150   3.208  14.143  0.3749 -0.8378 -0.2219
  200MPD1    H1 3045   4.447   2.974  14.360 -0.7589 -1.4120  1.1639
  200MPD1    H2 3046   4.100   3.139  14.547 -0.0147 -1.5782  0.7077
  200MPD1    H3 3047   4.315   3.011  14.558 -2.0049  0.2120  0.6315
  200MPD1     N 3048   4.365   3.065  14.104 -0.4586  0.6418  0.0870
  200MPD1    H5 3049   4.324   3.119  14.028  0.8732 -0.5997 -1.5120
  200MPD1    N1 3050   3.977   3.209  14.334  0.8547  0.5228 -0.4446
  200MPD1    H6 3051   3.918   3.167  14.406  2.6492  1.2760  1.4719
  200MPD1    H7 3052   3.928   3.214  14.245  0.1133  1.8537  0.0268
  201MPD1     C 3053   1.658   2.325  13.172 -0.1131  0.3229  0.2790
  201MPD1    C1 3054   1.741   2.326  13.059 -0.0680  0.0131 -0.4888
  201MPD1    C2 3055   1.861   2.263  13.062 -0.4601 -1.2969 -0.2797
  201MPD1    C3 3056   1.903   2.192  13.175  0.0221  0.0313 -0.0512
  201MPD1    C4 3057   1.826   2.213  13.294  0.2046  0.3605  0.3320
  201MPD1    C5 3058   1.707   2.280  13.289  0.4569 -0.2309  0.2754
  201MPD1     H 3059   1.925   2.261  12.974  1.1867  1.1674  0.8699
  201MPD1    H1 3060   1.847   2.168  13.391  0.2596  2.1437  1.1407
  201MPD1    H2 3061   1.564   2.378  13.182 -0.5989 -0.7782  1.4291
  201MPD1    H3 3062   1.649   2.299  13.379  0.0957 -1.4505  0.2975
  201MPD1     N 3063   2.021   2.112  13.170  0.1310  0.6729 -0.5044
  201MPD1    H5 3064   2.086   2.118  13.092 -0.1658 -0.8558 -0.8654
  201MPD1    N1 3065   1.707   2.397  12.943 -0.1317 -0.3124  0.0249
  201MPD1    H6 3066   1.624   2.455  12.958  0.6701  1.5323 -2.6421
  201MPD1    H7 3067   1.775   2.470  12.922  1.1124 -1.0391  1.5016
  202MPD1     C 3068   2.482   2.171   9.312 -1.0770 -0.7667 -0.7059
  202MPD1    C1 3069   2.513   2.035   9.318  0.3816  0.3198 -0.1401
  202MPD1    C2 3070   2.468   1.962   9.428  0.3497  0.2721 -0.3779
  202MPD1    C3 3071   2.422   2.033   9.538 -0.2913  0.7070 -0.3359
  202MPD1    C4 3072   2.416   2.175   9.541  0.5758 -0.3049 -0.0449
  202MPD1    C5 3073   2.455   2.238   9.429  0.2397 -0.2203  0.3119
  202MPD1     H 3074   2.498   1.858   9.434 -0.3899 -0.0390 -2.0843
  202MPD1    H1 3075   2.389   2.230   9.630 -1.6946 -0.3569 -0.7091
  202MPD1    H2 3076   2.533   2.233   9.240 -2.5551  0.0957 -1.0117
  202MPD1    H3 3077   2.454   2.346   9.421  2.8688 -0.2983 -1.3010
  202MPD1     N 3078   2.360   1.972   9.651 -0.0307  0.0016 -0.4799
  202MPD1    H5 3079   2.306   2.039   9.705  0.8842  1.2252 -1.1014
  202MPD1    N1 3080   2.525   1.968   9.195  0.4006 -0.0897 -0.5385
  202MPD1    H6 3081   2.580   2.031   9.137  3.4888  1.5388  4.1910
  202MPD1    H7 3082   2.571   1.877   9.199  1.8992  0.5789 -2.6145
  203MPD1     C 3083   1.482   2.687  12.587  0.3487 -0.5037  0.1338
  203MPD1    C1 3084   1.587   2.632  12.652  0.6095 -0.1518  0.8783
  203MPD1    C2 3085   1.600   2.491  12.640  0.5138 -0.0758  0.2976
  203MPD1    C3 3086   1.502   2.414  12.578  0.1055 -0.0745  0.6844
  203MPD1    C4 3087   1.389   2.478  12.523  0.6765 -0.2671  0.4109
  203MPD1    C5 3088   1.381   2.618  12.526  0.5885  0.6801 -0.6364
  203MPD1     H 3089   1.687   2.447  12.687  1.9066  0.8140 -1.4599
  203MPD1    H1 3090   1.302   2.429  12.482 -1.2921  1.8168  2.0556
  203MPD1    H2 3091   1.467   2.795  12.585 -1.7368 -0.8267 -1.9708
  203MPD1    H3 3092   1.296   2.673  12.490  0.5181 -0.0299 -1.5524
  203MPD1     N 3093   1.507   2.269  12.578 -0.4197  0.6147  0.4377
  203MPD1    H5 3094   1.575   2.228  12.642 -1.9160 -0.4599  1.3268
  203MPD1    N1 3095   1.674   2.720  12.722  0.2083 -0.8586 -0.0660
  203MPD1    H6 3096   1.724   2.675  12.799 -1.9793 -0.5710  1.5369
  203MPD1    H7 3097   1.626   2.805  12.750  1.4175  0.2077 -1.2832
  204MPD1     C 3098   4.585   3.145  16.999 -0.6766  0.9649 -0.4364
  204MPD1    C1 3099   4.712   3.194  17.019 -0.1206  0.0374 -0.1440
  204MPD1    C2 3100   0.083   3.109  17.068  0.4305  0.0935 -0.0330
  204MPD1    C3 3101   0.051   2.985  17.118  0.2498 -0.1427  0.2245
  204MPD1    C4 3102   4.639   2.941  17.107  0.1606 -0.0455 -0.8868
  204MPD1    C5 3103   4.543   3.021  17.042 -0.5102 -0.5437  0.3921
  204MPD1     H 3104   0.186   3.137  17.085  0.4574  0.6577 -1.1279
  204MPD1    H1 3105   4.602   2.844  17.139 -0.5122 -0.2550 -2.2880
  204MPD1    H2 3106   4.509   3.205  16.951 -2.6177 -1.2339 -0.0882
  204MPD1    H3 3107   4.441   2.987  17.029 -0.6427 -0.2227  0.5925
  204MPD1     N 3108   0.151   2.907  17.183  0.1216  0.6576 -0.1075
  204MPD1    H5 3109   0.244   2.946  17.192  1.2162 -1.3465 -2.5976
  204MPD1    N1 3110   0.023   3.315  16.958  0.0876  0.3098 -1.1411
  204MPD1    H6 3111   0.103   3.358  17.004  0.7889 -0.5268 -1.5863
  204MPD1    H7 3112   4.667   3.379  16.955  0.3801  0.7580  0.9759
  205MPD1     C 3113   0.785   1.414  16.263 -0.4553 -0.2765  0.3744
  205MPD1    C1 3114   0.678   1.423  16.343  0.8510 -0.1845  0.1929
  205MPD1    C2 3115   0.686   1.496  16.462 -0.7477 -0.1377  0.2425
  205MPD1    C3 3116   0.802   1.546  16.513  0.0409  0.6798 -0.0545
  205MPD1    C4 3117   0.910   1.524  16.430 -0.3430 -0.5050  0.0225
  205MPD1    C5 3118   0.899   1.468  16.307 -0.3244 -0.3128  0.5763
  205MPD1     H 3119   0.592   1.509  16.516  1.0122 -1.4859  3.6391
  205MPD1    H1 3120   1.011   1.544  16.464 -0.1400 -0.2616 -0.7038
  205MPD1    H2 3121   0.789   1.365  16.166  1.1675  1.0454 -0.2170
  205MPD1    H3 3122   0.983   1.431  16.249  0.2274  1.5585  0.2055
  205MPD1     N 3123   0.819   1.604  16.638 -0.4615  0.1978  0.3339
  205MPD1    H5 3124   0.912   1.631  16.665  0.6651 -0.9203 -2.3542
  205MPD1    N1 3125   0.559   1.384  16.287  0.1663 -0.2571  0.4016
  205MPD1    H6 3126   0.573   1.300  16.232  1.0891 -0.8932  1.6120
  205MPD1    H7 3127   0.493   1.361  16.361 -0.3986 -3.5860 -1.0990
  206MPD1     C 3128   1.389   0.759  16.403 -0.3272  0.2298 -0.1017
  206MPD1    C1 3129   1.344   0.630  16.394  0.2680  0.6159 -0.8478
  206MPD1    C2 3130   1.258   0.590  16.292  0.4422 -0.7412 -0.0538
  206MPD1    C3 3131   1.237   0.678  16.186  0.0590  0.8031  0.1249
  206MPD1    C4 3132   1.291   0.806  16.196  0.0969  0.1553  0.8875
  206MPD1    C5 3133   1.353   0.852  16.312 -0.3101 -0.6177 -0.3449
  206MPD1     H 3134   1.219   0.488  16.292  0.2450 -0.6662 -0.1332
  206MPD1    H1 3135   1.283   0.877  16.115 -0.0098 -0.1751  0.6101
  206MPD1    H2 3136   1.455   0.791  16.482  0.2418  1.4959 -1.0914
  206MPD1    H3 3137   1.389   0.954  16.321 -1.9312 -0.0393 -0.2138
  206MPD1     N 3138   1.152   0.650  16.079  0.2966  0.0833 -0.4267
  206MPD1    H5 3139   1.155   0.711  15.998  0.3897 -0.1826 -0.6239
  206MPD1    N1 3140   1.390   0.532  16.479 -0.2999  0.0409  0.4238
  206MPD1    H6 3141   1.430   0.563  16.567  0.8623  1.3675 -0.5778
  206MPD1    H7 3142   1.316   0.466  16.504  1.2900 -1.2182  1.8008
  207MPD1     C 3143   3.483   3.456   8.877 -0.2235 -0.3092  0.4346
  207MPD1    C1 3144   3.395   3.395   8.958  0.0949  0.4479 -0.2949
  207MPD1    C2 3145   3.415   3.419   9.099  0.2061 -0.4248  0.0704
  207MPD1    C3 3146   3.530   3.476   9.154  0.1668 -0.1220  0.0323
  207MPD1    C4 3147   3.623   3.528   9.067 -0.4813  0.2641  0.1376
  207MPD1    C5 3148   3.600   3.517   8.928 -0.0866 -0.0292  0.9033
  207MPD1     H 3149   3.340   3.381   9.167 -1.4094  1.5977 -0.5799
  207MPD1    H1 3150   3.717   3.573   9.097 -0.0016 -0.8218  0.2569
  207MPD1    H2 3151   3.473   3.450   8.769  1.3021 -1.1734  0.3436
  207MPD1    H3 3152   3.670   3.552   8.853  0.1778 -0.4121  0.9707
  207MPD1     N 3153   3.545   3.497   9.291  0.2446 -0.3456  0.5532
  207MPD1    H5 3154   3.609   3.570   9.322  0.3704 -1.0043  1.8405
  207MPD1    N1 3155   3.267   3.358   8.907 -0.3340 -0.3517 -0.4840
  207MPD1    H6 3156   3.217   3.295   8.969  0.4932  0.0790  0.6240
  207MPD1    H7 3157   3.265   3.317   8.813 -1.3291 -2.5804  0.5096
  208MPD1     C 3158   1.512   2.435  17.491 -0.0850  0.4040  0.7853
  208MPD1    C1 3159   1.484   2.315  17.441 -0.5792  0.0991 -0.5768
  208MPD1    C2 3160   1.456   2.202  17.522 -0.8562  0.1533  0.5366
  208MPD1    C3 3161   1.476   2.210  17.656  0.0679  0.8755  0.2650
  208MPD1    C4 3162   1.527   2.327   0.019 -0.4598 -0.2639  0.2878
  208MPD1    C5 3163   1.538   2.441  17.633 -0.7232 -0.7510  0.7889
  208MPD1     H 3164   1.426   2.107  17.478 -0.9512  1.3829 -2.0508
  208MPD1    H1 3165   1.539   2.342   0.126  1.2734 -3.2270  0.5046
  208MPD1    H2 3166   1.513   2.523  17.427 -0.8713 -1.6410 -2.0386
  208MPD1    H3 3167   1.552   2.538  17.679 -0.4192 -0.4725  0.1069
  208MPD1     N 3168   1.446   2.101   0.042 -0.3132 -0.0819  0.9822
  208MPD1    H5 3169   1.391   2.032  17.684  0.8201 -0.5846  0.4511
  208MPD1    N1 3170   1.446   2.299  17.308 -0.0111 -0.0241  0.0584
  208MPD1    H6 3171   1.471   2.209  17.268  1.2500  0.1119  0.5201
  208MPD1    H7 3172   1.484   2.369  17.244 -0.2206  0.2206  0.2010
  209MPD1     C 3173   3.321   2.327  10.980  0.0017 -0.1912  0.3637
  209MPD1    C1 3174   3.453   2.356  11.013 -0.5013 -0.0802  0.3338
  209MPD1    C2 3175   3.531   2.426  10.920 -0.4859 -1.0020 -0.7388
  209MPD1    C3 3176   3.472   2.476  10.804 -0.7674  0.0473  0.2313
  209MPD1    C4 3177   3.343   2.449  10.773  0.0051  0.8308 -0.3902
  209MPD1    C5 3178   3.273   2.370  10.858  0.5274  0.3386  0.4916
  209MPD1     H 3179   3.635   2.446  10.946 -1.5890  0.7459  2.4136
  209MPD1    H1 3180   3.294   2.493  10.687 -0.0673  0.1101 -0.7241
  209MPD1    H2 3181   3.255   2.277  11.051 -2.1855 -0.7227 -2.0530
  209MPD1    H3 3182   3.169   2.358  10.830  0.9306 -1.7696 -0.1349
  209MPD1     N 3183   3.556   2.563  10.729 -0.0998 -0.7221 -0.1167
  209MPD1    H5 3184   3.650   2.584  10.762  0.4973 -1.3777 -1.4135
  209MPD1    N1 3185   3.510   2.295  11.128 -0.6095  0.3597  0.4915
  209MPD1    H6 3186   3.594   2.347  11.152 -0.3218 -0.1916  0.6760
  209MPD1    H7 3187   3.446   2.325  11.201  0.5646  0.5700  1.4249
  210MPD1     C 3188   4.017   3.447  10.857 -0.2818  0.0280  0.9004
  210MPD1    C1 3189   4.011   3.329  10.922 -0.1597 -0.3405  0.0510
  210MPD1    C2 3190   3.945   3.223  10.866  0.2318 -0.6278  0.0138
  210MPD1    C3 3191   3.888   3.231  10.738 -0.0646  0.3270  0.6018
  210MPD1    C4 3192   3.900   3.359  10.677 -0.4375 -0.2093  0.1163
  210MPD1    C5 3193   3.959   3.458  10.741 -0.2095 -0.4122 -0.1911
  210MPD1     H 3194   3.934   3.134  10.927  0.7271 -0.0728  0.9138
  210MPD1    H1 3195   3.853   3.377  10.582 -0.1010  1.5439  0.2902
  210MPD1    H2 3196   4.060   3.535  10.902 -0.8368 -0.5249  2.4988
  210MPD1    H3 3197   3.952   3.557  10.699  0.0472 -0.6846 -0.8781
  210MPD1     N 3198   3.816   3.131  10.669  0.0867  0.3141 -0.0534
  210MPD1    H5 3199   3.797   3.147  10.571  1.9596 -0.2535 -0.5144
  210MPD1    N1 3200   4.072   3.323  11.050  0.2897  0.1600  0.2452
  210MPD1    H6 3201   4.111   3.231  11.067 -2.5227 -1.2461 -0.8725
  210MPD1    H7 3202   4.144   3.395  11.058  0.6267 -0.1772  0.2348
  211MPD1     C 3203   0.781   1.931  16.452 -0.4960 -0.3090  0.2148
  211MPD1    C1 3204   0.834   2.033  16.373 -0.2128 -0.2629  0.4056
  211MPD1    C2 3205   0.785   2.164  16.397  0.1679 -0.3136 -0.4927
  211MPD1    C3 3206   0.706   2.193  16.509 -0.0004  0.0552  0.5812
  211MPD1    C4 3207   0.676   2.085  16.590  0.5932 -0.2551  0.1373
  211MPD1    C5 3208   0.703   1.956  16.553 -0.7739  0.4364  0.1807
  211MPD1     H 3209   0.809   2.238  16.321  0.8456 -0.4518 -0.4125
  211MPD1    H1 3210   0.606   2.101  16.671  1.3135  3.5543  0.0059
  211MPD1    H2 3211   0.786   1.826  16.426  2.8301  0.6075 -2.9236
  211MPD1    H3 3212   0.647   1.878  16.602 -0.2822 -1.3292 -2.0712
  211MPD1     N 3213   0.640   2.314  16.539 -0.4139  0.3970 -0.0605
  211MPD1    H5 3214   0.585   2.325  16.624 -1.0670 -0.1378 -0.4266
  211MPD1    N1 3215   0.907   2.001  16.257 -0.0899  0.4466 -0.0246
  211MPD1    H6 3216   0.971   2.073  16.222  0.4344 -0.7006 -1.4551
  211MPD1    H7 3217   0.967   1.921  16.277  0.9956  1.3413  0.2901
  212MPD1     C 3218   0.020   0.948  16.457 -0.3311  0.1833 -0.1498
  212MPD1    C1 3219   4.688   0.993  16.575  0.3775 -0.5599 -0.4874
  212MPD1    C2 3220   4.606   0.906  16.648  0.1189 -0.0721  0.5761
  212MPD1    C3 3221   4.564   0.782  16.595 -0.4542  0.1116  0.4421
  212MPD1    C4 3222   4.607   0.746  16.471  0.0678 -0.0497  0.6682
  212MPD1    C5 3223   4.690   0.829  16.404  0.1244  0.2138 -0.2071
  212MPD1     H 3224   4.558   0.954  16.733  0.5824  0.8137  0.3358
  212MPD1    H1 3225   4.593   0.649  16.425  0.5930  1.8374 -3.4871
  212MPD1    H2 3226   0.090   1.013  16.405  1.5014 -1.3954  0.3184
  212MPD1    H3 3227   0.015   0.796  16.313  1.5089 -2.8384  1.5936
  212MPD1     N 3228   4.474   0.700  16.667 -0.4422  0.4170 -0.1516
  212MPD1    H5 3229   4.440   0.614  16.624  2.8424 -2.0380  2.1854
  212MPD1    N1 3230   4.713   1.121  16.625  0.7126  0.7494 -0.7663
  212MPD1    H6 3231   4.654   1.138  16.706  1.2485 -0.6089 -0.0905
  212MPD1    H7 3232   4.705   1.193  16.553 -0.3356 -0.2467 -1.6574
  213MPD1     C 3233   2.707   1.066  15.765  0.1529 -0.8241 -0.1671
  213MPD1    C1 3234   2.814   1.124  15.708 -0.4335  0.8769  0.0376
  213MPD1    C2 3235   2.793   1.209  15.598 -0.2319 -0.1203 -0.0064
  213MPD1    C3 3236   2.666   1.202  15.530 -0.1010 -0.3586 -0.6593
  213MPD1    C4 3237   2.560   1.136  15.581 -0.9707 -0.2956 -0.0251
  213MPD1    C5 3238   2.583   1.068  15.699  0.1955  0.5138  0.3015
  213MPD1     H 3239   2.871   1.275  15.562 -1.2698  2.2868  2.1367
  213MPD1    H1 3240   2.462   1.142  15.535 -1.0128 -1.4757 -0.1069
  213MPD1    H2 3241   2.719   1.027  15.865  0.4443 -1.1767 -0.3429
  213MPD1    H3 3242   2.496   1.016  15.738 -0.0694  0.0451 -0.8834
  213MPD1     N 3243   2.656   1.277  15.412 -0.5033 -0.2287  0.2218
  213MPD1    H5 3244   2.740   1.324  15.381 -2.2563  2.0406 -1.1390
  213MPD1    N1 3245   2.926   1.142  15.792 -0.4417 -0.0171  0.2326
  213MPD1    H6 3246   3.007   1.173  15.739 -0.9700  1.5839  0.3504
  213MPD1    H7 3247   2.937   1.049  15.832  0.4451 -0.7104 -1.6184
  214MPD1     C 3248   1.921   1.783  14.900  0.1878  0.4306  0.5253
  214MPD1    C1 3249   2.007   1.872  14.953  0.1528 -0.3981 -0.6459
  214MPD1    C2 3250   2.114   1.824  15.019  0.0087 -0.2237  0.2034
  214MPD1    C3 3251   2.129   1.687  15.038  0.2216  0.0102  0.2201
  214MPD1    C4 3252   2.039   1.596  14.981  0.4277  0.0286  0.0231
  214MPD1    C5 3253   1.938   1.646  14.901 -0.1074 -0.4668 -0.0674
  214MPD1     H 3254   2.177   1.894  15.074 -2.9027  1.3738  1.5068
  214MPD1    H1 3255   2.047   1.489  14.995 -1.8408  0.0071  1.0675
  214MPD1    H2 3256   1.837   1.817  14.841 -1.5073 -1.5368  1.8196
  214MPD1    H3 3257   1.862   1.582  14.856 -1.1263 -0.6519  1.9189
  214MPD1     N 3258   2.234   1.631  15.115 -0.1126  0.0366  0.8714
  214MPD1    H5 3259   2.234   1.529  15.119 -0.5666 -0.0431 -1.4650
  214MPD1    N1 3260   1.979   2.007  14.962 -0.2718 -0.6788 -0.6110
  214MPD1    H6 3261   1.936   2.035  14.874  0.0273 -0.2232 -0.6142
  214MPD1    H7 3262   2.058   2.072  14.966 -0.5383 -0.3363 -0.9208
  215MPD1     C 3263   2.744   2.301  10.681 -0.0757 -0.3199  0.1137
  215MPD1    C1 3264   2.729   2.312  10.819 -0.6354  0.3517  0.7060
  215MPD1    C2 3265   2.806   2.403  10.880 -0.3104  0.2359  0.7169
  215MPD1    C3 3266   2.904   2.482  10.817  0.3845 -0.0695 -0.5869
  215MPD1    C4 3267   2.911   2.477  10.680 -0.5105  0.0884  0.1570
  215MPD1    C5 3268   2.831   2.383  10.614  0.3639  0.5731  0.0260
  215MPD1     H 3269   2.799   2.407  10.988  0.9032  4.3677  0.6691
  215MPD1    H1 3270   2.982   2.537  10.624  0.1237 -1.6805 -0.9308
  215MPD1    H2 3271   2.682   2.234  10.624 -1.1533 -0.2230  1.1591
  215MPD1    H3 3272   2.845   2.389  10.507 -0.1106 -1.7452 -0.1693
  215MPD1     N 3273   2.995   2.571  10.883 -0.7697  0.0710 -0.1997
  215MPD1    H5 3274   3.062   2.615  10.821 -0.3250 -1.9600 -1.1447
  215MPD1    N1 3275   2.638   2.229  10.883  0.0627 -0.8018 -0.2681
  215MPD1    H6 3276   2.550   2.218  10.833  1.0340 -1.3401 -1.8588
  215MPD1    H7 3277   2.619   2.253  10.981  2.4410 -1.0490  0.2549
  216MPD1     C 3278   3.547   0.524   0.543  0.4737  0.3328  0.7309
  216MPD1    C1 3279   3.665   0.538   0.481 -0.4440 -0.4102 -0.8369
  216MPD1    C2 3280   3.776   0.463   0.515  0.4903  0.1984  0.1773
  216MPD1    C3 3281   3.748   0.343   0.580  0.1747  0.0889  0.5753
  216MPD1    C4 3282   3.618   0.314   0.621 -0.1741  0.8220  0.4629
  216MPD1    C5 3283   3.523   0.412   0.612 -0.2428  0.0939  1.2094
  216MPD1     H 3284   3.869   0.492   0.468 -0.7106 -0.1172 -2.4039
  216MPD1    H1 3285   3.582   0.219   0.658  1.4268 -0.8830 -2.3913
  216MPD1    H2 3286   3.468   0.598   0.544  1.3030  1.2329  0.8003
  216MPD1    H3 3287   3.428   0.396   0.661 -0.2348  2.4111  2.0025
  216MPD1     N 3288   3.858   0.259   0.596  0.3400 -0.2937 -0.6391
  216MPD1    H5 3289   3.944   0.297   0.559  0.5674 -0.8878 -0.7210
  216MPD1    N1 3290   3.689   0.664   0.430  1.0246  0.2450  0.6339
  216MPD1    H6 3291   3.607   0.712   0.395 -0.0536 -2.1117 -0.0343
  216MPD1    H7 3292   3.755   0.654   0.353  0.4369 -1.5442  0.3667
  217MPD1     C 3293   2.322   2.639   8.701  0.7772 -0.0679  0.3563
  217MPD1    C1 3294   2.348   2.505   8.715  0.0380  0.1587  0.4449
  217MPD1    C2 3295   2.313   2.431   8.825 -0.1032 -0.0080 -0.8761
  217MPD1    C3 3296   2.246   2.493   8.927 -0.8448  0.0713  0.0498
  217MPD1    C4 3297   2.215   2.626   8.911  0.1421  0.2871  0.6975
  217MPD1    C5 3298   2.270   2.699   8.809  0.4296  0.1290  0.4287
  217MPD1     H 3299   2.335   2.325   8.829 -0.3452 -0.0159  0.2805
  217MPD1    H1 3300   2.157   2.679   8.985 -1.2457 -0.4012  0.0936
  217MPD1    H2 3301   2.343   2.695   8.611 -0.0147 -2.4263 -1.2922
  217MPD1    H3 3302   2.260   2.807   8.807 -0.3315  0.0523 -0.0390
  217MPD1     N 3303   2.199   2.426   9.041 -0.2488  0.4962  0.1732
  217MPD1    H5 3304   2.131   2.482   9.091  1.4697  1.2941  1.6100
  217MPD1    N1 3305   2.399   2.438   8.602 -0.5122  0.2552  0.5246
  217MPD1    H6 3306   2.453   2.356   8.630 -1.6777 -0.4104  0.8310
  217MPD1    H7 3307   2.459   2.492   8.541 -0.6744 -0.5398 -0.3455
  218MPD1     C 3308   2.344   2.096  12.471  0.2494  0.4540 -0.2092
  218MPD1    C1 3309   2.436   2.048  12.564  0.1558 -0.0007  0.2711
  218MPD1    C2 3310   2.565   2.089  12.542  0.8671  0.6246  0.6166
  218MPD1    C3 3311   2.606   2.176  12.450  0.5696 -0.2489  0.1837
  218MPD1    C4 3312   2.515   2.226  12.360  0.0163  0.5397 -0.2903
  218MPD1    C5 3313   2.384   2.181  12.371 -0.4374 -0.2597 -0.1274
  218MPD1     H 3314   2.636   2.032  12.601  0.5413 -1.4512 -1.0035
  218MPD1    H1 3315   2.525   2.286  12.270  0.5059 -2.3418 -2.1628
  218MPD1    H2 3316   2.238   2.076  12.480  0.7403 -1.4449  1.3475
  218MPD1    H3 3317   2.313   2.213  12.296  2.5793  0.5710 -2.6283
  218MPD1     N 3318   2.748   2.202  12.441  0.0292  1.3310  0.0067
  218MPD1    H5 3319   2.810   2.151  12.504  0.5828 -0.1136 -1.7218
  218MPD1    N1 3320   2.406   1.936  12.643 -0.0090 -0.1256  0.1195
  218MPD1    H6 3321   2.311   1.937  12.678 -0.3122 -0.1960 -0.7035
  218MPD1    H7 3322   2.477   1.929  12.715 -0.1638 -0.8496  0.2000
  219MPD1     C 3323   3.095   2.383  11.573 -0.2106 -0.3552  0.1300
  219MPD1    C1 3324   3.201   2.411  11.653 -0.2575 -0.6258  0.6043
  219MPD1    C2 3325   3.199   2.379  11.787  0.5538  0.1434 -0.1177
  219MPD1    C3 3326   3.096   2.299  11.835 -0.2594 -0.0163 -0.2340
  219MPD1    C4 3327   3.002   2.259  11.752  1.0286 -1.0733 -0.0792
  219MPD1    C5 3328   2.994   2.300  11.617  0.5640  0.4969  0.0977
  219MPD1     H 3329   3.281   2.407  11.852 -0.2858 -1.2926  1.5321
  219MPD1    H1 3330   2.914   2.209  11.793  0.8905 -1.1660 -0.4944
  219MPD1    H2 3331   3.094   2.424  11.472 -0.0335  0.2990  0.3969
  219MPD1    H3 3332   2.909   2.289  11.551  0.1366 -1.2453  0.9460
  219MPD1     N 3333   3.091   2.258  11.971 -0.2530 -0.3130  0.1949
  219MPD1    H5 3334   3.016   2.195  11.997  0.2414 -1.8157 -1.9855
  219MPD1    N1 3335   3.308   2.490  11.600  0.0050  0.1846 -0.2549
  219MPD1    H6 3336   3.332   2.453  11.509  1.3714  0.8545 -0.1694
  219MPD1    H7 3337   3.385   2.458  11.659 -0.2010 -1.0232 -0.6502
  220MPD1     C 3338   3.168   3.621   9.373  0.0417  0.2344  0.5586
  220MPD1    C1 3339   3.116   3.497   9.375 -0.0918 -0.4808 -0.2789
  220MPD1    C2 3340   3.112   3.433   9.496 -0.0838 -0.0868  0.4749
  220MPD1    C3 3341   3.178   3.479   9.609 -0.1452 -0.6557  0.4569
  220MPD1    C4 3342   3.230   3.607   9.605 -0.1802 -0.2001  0.0128
  220MPD1    C5 3343   3.234   3.671   9.482  0.1940  0.2019  0.4447
  220MPD1     H 3344   3.054   3.342   9.505  1.0491 -1.1268 -2.8040
  220MPD1    H1 3345   3.255   3.646   9.703  0.7657 -1.2573  0.1905
  220MPD1    H2 3346   3.173   3.681   9.283 -0.2654  1.5235  1.3893
  220MPD1    H3 3347   3.274   3.771   9.467 -2.3220  0.6192 -3.3955
  220MPD1     N 3348   3.164   3.404   9.730 -0.6634 -0.0754 -0.4638
  220MPD1    H5 3349   3.115   3.315   9.727  0.7613 -0.8841  0.4177
  220MPD1    N1 3350   3.028   3.451   9.278  0.4225 -0.3655  0.3634
  220MPD1    H6 3351   3.060   3.472   9.184  0.7945 -0.4674  0.4670
  220MPD1    H7 3352   3.023   3.350   9.266  0.9362 -0.3894  0.3373
  221MPD1     C 3353   4.594   3.035  16.056 -0.3546 -0.6155 -0.0641
  221MPD1    C1 3354   4.553   2.906  16.077  0.3679 -0.3684 -0.6744
  221MPD1    C2 3355   4.643   2.804  16.096 -0.4119 -0.2069 -0.2342
  221MPD1    C3 3356   0.051   2.835  16.075  0.7796  0.7512 -0.2117
  221MPD1    C4 3357   0.094   2.963  16.058 -0.4137  0.4940 -0.1220
  221MPD1    C5 3358   0.004   3.065  16.038 -1.0757  0.7999 -0.4072
  221MPD1     H 3359   4.608   2.709  16.135 -1.5958 -0.2138 -1.2985
  221MPD1    H1 3360   0.197   2.993  16.049 -0.8117  2.3887  1.5420
  221MPD1    H2 3361   4.520   3.112  16.040  0.6290  0.0868 -1.2037
  221MPD1    H3 3362   0.030   3.167  16.013  1.9791  0.2583  0.5428
  221MPD1     N 3363   0.157   2.743  16.101  0.3464  0.0148  0.1085
  221MPD1    H5 3364   0.254   2.770  16.086  0.7245 -0.9574  0.8250
  221MPD1    N1 3365   4.426   2.873  16.121  0.2435  0.3818  0.7517
  221MPD1    H6 3366   4.362   2.939  16.076 -1.8327 -0.8778  1.8667
  221MPD1    H7 3367   4.405   2.780  16.085  0.4163  0.7374 -0.2748
  222MPD1     C 3368   1.145   0.843  16.653  0.1300  0.3340  0.6680
  222MPD1    C1 3369   1.109   0.878  16.777  0.6641 -0.3842 -0.8648
  222MPD1    C2 3370   0.980   0.884  16.808  0.0438 -0.8753  0.2560
  222MPD1    C3 3371   0.885   0.843  16.719  0.2149  0.4798  0.0573
  222MPD1    C4 3372   0.919   0.785  16.601 -0.2799 -0.3278  0.7425
  222MPD1    C5 3373   1.054   0.790  16.561  0.6823 -0.7434 -0.3921
  222MPD1     H 3374   0.955   0.929  16.903  0.4398  1.5780 -0.7856
  222MPD1    H1 3375   0.837   0.756  16.536  0.0523  1.7816 -0.6215
  222MPD1    H2 3376   1.242   0.863  16.611  0.1526  0.5243  0.8122
  222MPD1    H3 3377   1.089   0.756  16.464  1.0612 -0.6756 -0.2799
  222MPD1     N 3378   0.746   0.860  16.743 -0.0697 -0.2634 -0.2887
  222MPD1    H5 3379   0.683   0.851  16.664 -0.5905 -0.8570  0.1921
  222MPD1    N1 3380   1.197   0.956  16.863 -0.3626  0.2874  0.0322
  222MPD1    H6 3381   1.297   0.935  16.856 -0.9114 -2.1582 -0.5164
  222MPD1    H7 3382   1.163   0.960  16.959 -0.7451  0.7034 -0.1198
  223MPD1     C 3383   0.027   0.306  16.647 -1.0135 -0.1603  0.0116
  223MPD1    C1 3384   0.012   0.341  16.782 -0.3039 -0.3449  0.2213
  223MPD1    C2 3385   0.057   0.467  16.814  0.0170  0.1791 -0.5596
  223MPD1    C3 3386   0.112   0.557  16.720  0.2527 -0.5068  0.2615
  223MPD1    C4 3387   0.114   0.516  16.594  0.1128 -0.0937 -0.7306
  223MPD1    C5 3388   0.080   0.389  16.559  0.0807 -0.9050 -0.4043
  223MPD1     H 3389   0.057   0.490  16.920  0.5329  1.2011 -0.7855
  223MPD1    H1 3390   0.148   0.579  16.513  1.3247 -2.0279 -1.7184
  223MPD1    H2 3391   4.711   0.210  16.616  0.6536 -1.2624  1.3644
  223MPD1    H3 3392   0.085   0.359  16.455  0.5113  1.2911 -1.0210
  223MPD1     N 3393   0.179   0.674  16.765 -0.1966 -0.1994 -0.4378
  223MPD1    H5 3394   0.174   0.701  16.863  1.7937  0.7242 -0.5805
  223MPD1    N1 3395   4.705   0.246  16.882 -0.4368 -0.0487  0.7699
  223MPD1    H6 3396   4.650   0.167  16.849  0.3903 -0.2592 -0.0904
  223MPD1    H7 3397   4.662   0.297  16.959  0.5207  2.4806 -0.3620
  224MPD1     C 3398   2.181   2.491   9.461  0.2713 -0.0909 -0.0808
  224MPD1    C1 3399   2.150   2.617   9.495  0.8951 -0.0983 -0.1476
  224MPD1    C2 3400   2.025   2.628   9.555  0.3202  0.0891 -0.4771
  224MPD1    C3 3401   1.953   2.516   9.590  0.2670  0.7839 -0.0780
  224MPD1    C4 3402   1.997   2.387   9.562 -0.2558  0.2512  0.3167
  224MPD1    C5 3403   2.109   2.381   9.484  0.5153  0.5250 -0.6542
  224MPD1     H 3404   1.979   2.722   9.583 -1.0028 -0.8998  0.6436
  224MPD1    H1 3405   1.936   2.298   9.570 -1.6055  1.2164  0.8243
  224MPD1    H2 3406   2.268   2.475   9.398  1.0501 -0.5784  1.1244
  224MPD1    H3 3407   2.150   2.287   9.450 -0.9864 -0.4183  0.2017
  224MPD1     N 3408   1.827   2.531   9.653  0.2372 -0.0483 -0.2150
  224MPD1    H5 3409   1.776   2.443   9.652  0.3374 -0.1066 -0.2968
  224MPD1    N1 3410   2.212   2.727   9.436  0.1311 -0.3261  0.2485
  224MPD1    H6 3411   2.210   2.812   9.492 -0.1727 -0.3221  0.2321
  224MPD1    H7 3412   2.310   2.725   9.411  0.2594 -0.0787  0.7480
  225MPD1     C 3413   3.180   3.398  11.993  0.0587  0.1788  0.4743
  225MPD1    C1 3414   3.125   3.367  11.868  0.4523 -0.0643 -0.2493
  225MPD1    C2 3415   3.007   3.296  11.856  0.4352  0.0035 -0.5766
  225MPD1    C3 3416   2.953   3.258  11.978 -0.4724 -0.0507 -0.2353
  225MPD1    C4 3417   3.012   3.284  12.097 -0.1340  0.1673 -0.0159
  225MPD1    C5 3418   3.118   3.362  12.107 -0.4288 -0.1234  0.1897
  225MPD1     H 3419   2.954   3.295  11.761  0.0139  0.5340 -0.3454
  225MPD1    H1 3420   2.954   3.273  12.188  1.0888  1.0340  0.8705
  225MPD1    H2 3421   3.264   3.466  11.993 -0.1731  0.4668  0.3054
  225MPD1    H3 3422   3.161   3.383  12.204  0.5290 -0.2428 -0.2090
  225MPD1     N 3423   2.833   3.189  11.987  0.3183 -0.6886  0.0069
  225MPD1    H5 3424   2.788   3.185  12.078 -4.1203 -0.0852 -2.1976
  225MPD1    N1 3425   3.172   3.436  11.754  0.0853  0.1710 -0.4190
  225MPD1    H6 3426   3.273   3.453  11.755  0.1838 -0.4383 -0.1170
  225MPD1    H7 3427   3.152   3.369  11.679 -2.4575 -0.6248  0.9757
  226MPD1     C 3428   1.096   2.962  10.511  0.1719  0.7491  0.3297
  226MPD1    C1 3429   1.231   2.990  10.513  0.8010 -0.1073 -0.6882
  226MPD1    C2 3430   1.275   3.111  10.462 -0.0565  0.4707  0.4853
  226MPD1    C3 3431   1.188   3.208  10.413  0.2458 -0.2040  0.7156
  226MPD1    C4 3432   1.056   3.181  10.421 -0.1184 -0.0552  0.2843
  226MPD1    C5 3433   1.007   3.056  10.462 -0.2849  0.8684 -1.2907
  226MPD1     H 3434   1.380   3.131  10.444 -0.4632  0.8313 -1.4391
  226MPD1    H1 3435   0.975   3.249  10.398 -0.5182 -0.6589 -0.0577
  226MPD1    H2 3436   1.063   2.866  10.549 -0.4571  0.5211 -0.7762
  226MPD1    H3 3437   0.903   3.025  10.462 -0.4958  1.5702 -3.3453
  226MPD1     N 3438   1.239   3.334  10.378  0.1447  0.4265  0.1601
  226MPD1    H5 3439   1.337   3.348  10.357 -0.0764 -0.6473 -1.6590
  226MPD1    N1 3440   1.321   2.885  10.536 -0.0178  0.4729  0.0364
  226MPD1    H6 3441   1.410   2.916  10.576 -0.8019  1.8450  0.7230
  226MPD1    H7 3442   1.277   2.813  10.594  1.6143  0.6202  1.4748
  227MPD1     C 3443   0.703   4.103  10.045  0.0236  0.1488  0.4668
  227MPD1    C1 3444   0.729   4.097  10.183 -0.9664  0.1269 -0.5302
  227MPD1    C2 3445   0.832   4.013  10.215 -0.1907 -0.1348  0.4308
  227MPD1    C3 3446   0.917   3.963  10.124  0.1311  1.0778 -0.8723
  227MPD1    C4 3447   0.897   3.978   9.987  1.1709 -0.1565  0.5834
  227MPD1    C5 3448   0.789   4.054   9.953 -0.0540  0.4680  0.4858
  227MPD1     H 3449   0.858   3.997  10.319  0.6900  2.0706  0.5518
  227MPD1    H1 3450   0.961   3.941   9.909  1.5427 -2.6359  2.0667
  227MPD1    H2 3451   0.604   4.135  10.014 -0.4660 -0.2835  1.5702
  227MPD1    H3 3452   0.774   4.077   9.849 -1.8705  0.8123  0.8363
  227MPD1     N 3453   1.008   3.867  10.170  0.3659  0.1456  0.2351
  227MPD1    H5 3454   1.002   3.841  10.268  0.6585 -1.0063 -0.0536
  227MPD1    N1 3455   0.622   4.128  10.266  0.5574  0.0733  0.5291
  227MPD1    H6 3456   0.657   4.169  10.352  0.5635 -1.5436  1.2889
  227MPD1    H7 3457   0.563   4.208  10.242 -2.2693 -3.1331 -3.2723
  228MPD1     C 3458   4.507   0.611  12.959 -0.5711 -0.3944 -0.1200
  228MPD1    C1 3459   4.468   0.707  12.867 -0.1587  0.0580  0.5214
  228MPD1    C2 3460   4.333   0.733  12.862  0.0523  0.4537  0.5037
  228MPD1    C3 3461   4.243   0.646  12.925  0.1291  0.5174 -0.3895
  228MPD1    C4 3462   4.290   0.546  13.008 -0.5015 -0.1919  0.5706
  228MPD1    C5 3463   4.422   0.528  13.028  0.3597 -0.7269  0.7800
  228MPD1     H 3464   4.300   0.815  12.799  0.4643 -0.0947 -0.4209
  228MPD1    H1 3465   4.224   0.471  13.050  0.7609 -1.1941  0.7720
  228MPD1    H2 3466   4.613   0.597  12.975 -0.3506 -0.3426 -1.4888
  228MPD1    H3 3467   4.457   0.444  13.086 -0.5494 -1.5691  0.1194
  228MPD1     N 3468   4.108   0.672  12.901 -0.1718  0.7070  0.3135
  228MPD1    H5 3469   4.081   0.754  12.849  0.3751  1.1552  0.7320
  228MPD1    N1 3470   4.560   0.808  12.822 -0.2579 -0.0289 -0.0445
  228MPD1    H6 3471   4.650   0.769  12.796 -0.9781  0.5274 -3.3736
  228MPD1    H7 3472   4.534   0.857  12.737  3.4827 -1.9997 -2.2969
  229MPD1     C 3473   3.168   4.652  14.445 -0.3069  0.0909 -0.2360
  229MPD1    C1 3474   3.204   4.529  14.393 -0.0528  0.1266 -0.8438
  229MPD1    C2 3475   3.255   4.437  14.490  0.0749  0.1373 -0.1842
  229MPD1    C3 3476   3.276   4.471  14.621 -0.4081 -0.0659  0.1490
  229MPD1    C4 3477   3.213   4.590  14.667  0.2440  0.0809 -0.1683
  229MPD1    C5 3478   3.150   4.670  14.575  0.4105 -0.0250  0.0256
  229MPD1     H 3479   3.279   4.339  14.452  1.3577  0.3323  0.1232
  229MPD1    H1 3480   3.202   4.619  14.771 -1.1257 -0.0791 -0.2749
  229MPD1    H2 3481   3.135   0.004  14.373  1.8969 -0.3229 -1.6764
  229MPD1    H3 3482   3.103   0.042  14.595 -0.2200 -0.1065 -1.0555
  229MPD1     N 3483   3.326   4.386  14.719  0.4166 -0.3635 -0.2739
  229MPD1    H5 3484   3.307   4.417  14.813  1.1926  0.8020 -0.5133
  229MPD1    N1 3485   3.223   4.511  14.251 -0.3255 -0.3518 -0.3461
  229MPD1    H6 3486   3.150   4.534  14.183  0.2217  0.3301 -0.7013
  229MPD1    H7 3487   3.235   4.412  14.232 -2.5804  0.1055 -4.1904
  230MPD1     C 3488   3.684   4.288  15.616 -0.2176  0.6551  0.4803
  230MPD1    C1 3489   3.733   4.172  15.562 -0.0963  0.9165  0.0933
  230MPD1    C2 3490   3.697   4.139  15.435  0.3228  0.0420  0.1907
  230MPD1    C3 3491   3.618   4.228  15.367 -0.0269 -0.1628 -0.3975
  230MPD1    C4 3492   3.589   4.357  15.405  0.0401 -0.3903  0.1177
  230MPD1    C5 3493   3.623   4.379  15.540  0.1784 -0.1748  0.1414
  230MPD1     H 3494   3.722   4.049  15.381 -2.0186 -1.1956  1.2160
  230MPD1    H1 3495   3.538   4.436  15.351  0.3636  0.1665  0.6272
  230MPD1    H2 3496   3.711   4.319  15.717  0.4722  0.3529  0.3907
  230MPD1    H3 3497   3.586   4.470  15.588 -0.4810 -0.8614  0.9429
  230MPD1     N 3498   3.576   4.189  15.240 -0.6138  0.0813 -0.5437
  230MPD1    H5 3499   3.611   4.098  15.212  0.3759  0.7095 -1.3278
  230MPD1    N1 3500   3.832   4.101  15.634  0.3375 -0.0672  0.4581
  230MPD1    H6 3501   3.800   4.053  15.718 -1.4580  1.4115  0.5973
  230MPD1    H7 3502   3.858   4.030  15.564 -0.3608 -0.6574  0.7975
  231MPD1     C 3503   2.271   2.450  15.506  0.1535  0.4331 -0.6227
  231MPD1    C1 3504   2.400   2.406  15.500 -0.5846  0.9529 -0.8750
  231MPD1    C2 3505   2.441   2.344  15.385  0.1919 -0.0411 -0.4039
  231MPD1    C3 3506   2.354   2.309  15.283 -0.1231  0.6626 -0.5076
  231MPD1    C4 3507   2.218   2.342  15.292  0.2611 -0.0314 -0.6584
  231MPD1    C5 3508   2.183   2.407  15.407  0.4002 -0.2182 -0.5134
  231MPD1     H 3509   2.543   2.315  15.359  0.2262  0.2594 -0.6004
  231MPD1    H1 3510   2.142   2.322  15.218 -0.8409  0.7677  0.2478
  231MPD1    H2 3511   2.244   2.515  15.588  0.6296 -0.3733  0.1748
  231MPD1    H3 3512   2.081   2.441  15.405  0.1738 -0.9136 -0.7354
  231MPD1     N 3513   2.409   2.251  15.167 -0.0207 -0.0238  0.0019
  231MPD1    H5 3514   2.510   2.244  15.158  0.1247  1.1786  0.7475
  231MPD1    N1 3515   2.489   2.443  15.604  0.6362  0.9820  0.3110
  231MPD1    H6 3516   2.568   2.380  15.617  0.6265  0.5930 -1.5350
  231MPD1    H7 3517   2.459   2.454  15.700 -1.0519  3.1493 -0.4743
  232MPD1     C 3518   2.960   0.048   0.140 -0.2588 -0.1283 -0.2908
  232MPD1    C1 3519   2.891   4.708   0.235  0.3868 -0.5052  0.2030
  232MPD1    C2 3520   2.953   4.620   0.326 -0.7717 -0.6613  0.3426
  232MPD1    C3 3521   3.088   4.612   0.320 -1.0174  0.3604 -0.2353
  232MPD1    C4 3522   3.160   4.685   0.232 -0.3107 -0.7717  0.4072
  232MPD1    C5 3523   3.096   0.038   0.141 -0.1643 -0.0238 -0.0216
  232MPD1     H 3524   2.905   4.570   0.410 -3.4575  0.0613 -0.7811
  232MPD1    H1 3525   3.269   4.683   0.235 -0.2872 -0.2890 -0.0815
  232MPD1    H2 3526   2.923   0.107   0.057 -2.6321 -1.2779 -0.0307
  232MPD1    H3 3527   3.155   0.086   0.064 -0.8970  1.0364  0.0768
  232MPD1     N 3528   3.150   4.518   0.402  0.9451 -0.0242  0.0227
  232MPD1    H5 3529   3.097   4.468   0.472  0.5020 -0.6404 -0.7566
  232MPD1    N1 3530   2.751   4.723   0.230 -0.0094 -0.2783  0.1086
  232MPD1    H6 3531   2.711   0.000   0.324 -1.1610 -1.1829 -0.3760
  232MPD1    H7 3532   2.721   0.084   0.181 -1.1541 -0.5875  0.2735
  233MPD1     C 3533   4.257   2.745   0.822  0.5915 -0.0648  0.5909
  233MPD1    C1 3534   4.210   2.620   0.820 -1.1011  0.4708 -0.7033
  233MPD1    C2 3535   4.288   2.525   0.878 -0.5194 -0.4803  0.0539
  233MPD1    C3 3536   4.415   2.552   0.931 -0.0094  0.0146  0.4371
  233MPD1    C4 3537   4.466   2.684   0.927 -0.6051 -0.5786 -0.0110
  233MPD1    C5 3538   4.385   2.778   0.864  0.1578  0.3375  0.3713
  233MPD1     H 3539   4.242   2.429   0.898 -1.3663 -0.4083 -1.5553
  233MPD1    H1 3540   4.556   2.724   0.973  0.1288 -1.7212 -0.4709
  233MPD1    H2 3541   4.202   2.821   0.767  1.5223  0.5791  0.5295
  233MPD1    H3 3542   4.411   2.882   0.849  1.7839  0.0197  1.0641
  233MPD1     N 3543   4.490   2.452   0.999  0.5585  0.7914  0.2126
  233MPD1    H5 3544   4.591   2.459   0.997  0.5672  1.1142  1.4422
  233MPD1    N1 3545   4.076   2.599   0.787  0.6140  0.0517  0.0551
  233MPD1    H6 3546   4.063   2.506   0.748  1.1369  0.9006 -2.1430
  233MPD1    H7 3547   4.032   2.661   0.719 -0.2509  1.8151  2.2183
  234MPD1     C 3548   1.809   0.790   9.723  0.4605 -1.3667 -0.2132
  234MPD1    C1 3549   1.926   0.870   9.750  0.1112 -0.8384  0.0581
  234MPD1    C2 3550   1.901   0.996   9.807 -0.1731 -0.8028 -0.7915
  234MPD1    C3 3551   1.778   1.043   9.836  0.6592  0.8138  0.3590
  234MPD1    C4 3552   1.662   0.970   9.801  0.0644 -0.0621  0.7092
  234MPD1    C5 3553   1.686   0.842   9.752  0.2643  0.5232 -0.7425
  234MPD1     H 3554   1.983   1.060   9.839 -0.2850 -0.4621 -1.1903
  234MPD1    H1 3555   1.563   1.015   9.802 -0.7660 -1.8721 -2.5877
  234MPD1    H2 3556   1.816   0.692   9.678  2.3924 -1.0581 -0.5852
  234MPD1    H3 3557   1.597   0.789   9.718  0.2520  0.4540 -0.6015
  234MPD1     N 3558   1.764   1.178   9.876 -0.4148  0.3541  0.3825
  234MPD1    H5 3559   1.849   1.232   9.865  1.0508 -2.0539 -0.1278
  234MPD1    N1 3560   2.054   0.833   9.700  0.2683 -0.0586  0.0769
  234MPD1    H6 3561   2.064   0.734   9.724 -2.1652 -0.6832 -1.4862
  234MPD1    H7 3562   2.130   0.894   9.732 -0.7362  1.0012  0.4254
  235MPD1     C 3563   3.137   3.991   9.562 -0.2720 -0.5399  0.4827
  235MPD1    C1 3564   3.145   4.110   9.501  0.3161 -0.3183  0.4803
  235MPD1    C2 3565   3.261   4.184   9.509  0.2517 -0.3003 -0.6786
  235MPD1    C3 3566   3.365   4.143   9.591  0.6847 -0.0663  0.4867
  235MPD1    C4 3567   3.359   4.024   9.651  0.1902 -0.0907 -0.4165
  235MPD1    C5 3568   3.241   3.955   9.640 -0.3911 -0.0432 -0.5092
  235MPD1     H 3569   3.270   4.277   9.454 -0.4408  0.3687  0.3312
  235MPD1    H1 3570   3.438   3.986   9.714  1.0614  1.1906 -0.7245
  235MPD1    H2 3571   3.057   3.919   9.546 -0.7586  0.5548 -1.9741
  235MPD1    H3 3572   3.231   3.857   9.685 -0.1883  0.9445  1.7072
  235MPD1     N 3573   3.460   4.239   9.614  0.1304  0.6171 -0.3651
  235MPD1    H5 3574   3.444   4.327   9.565 -1.6034  1.1272  1.1011
  235MPD1    N1 3575   3.045   4.153   9.412 -0.4193 -0.1090 -0.8781
  235MPD1    H6 3576   3.055   4.251   9.388 -3.3609  0.5552  0.5669
  235MPD1    H7 3577   2.949   4.142   9.443  0.4360 -0.5844  1.5823
  236MPD1     C 3578   2.489   0.002  10.025  0.6415  0.0631  0.3766
  236MPD1    C1 3579   2.447   4.594  10.046  0.5328 -0.4283  0.5550
  236MPD1    C2 3580   2.543   4.503  10.081  0.0004 -0.2479  0.9994
  236MPD1    C3 3581   2.676   4.518  10.059  0.2279 -0.3766  0.2732
  236MPD1    C4 3582   2.716   4.645  10.025  0.4317 -0.2497 -0.7398
  236MPD1    C5 3583   2.620   0.021  10.007  0.7532  0.2840 -0.2848
  236MPD1     H 3584   2.500   4.405  10.098  3.0708 -1.6320  0.8962
  236MPD1    H1 3585   2.820   4.675  10.029 -0.2638  1.9757  0.3962
  236MPD1    H2 3586   2.421   0.085  10.008 -0.8712 -1.3156 -0.3141
  236MPD1    H3 3587   2.646   0.122   9.978 -1.3498  0.4706 -1.4957
  236MPD1     N 3588   2.775   4.409  10.075  0.6395 -0.0926  0.1692
  236MPD1    H5 3589   2.871   4.442  10.071  0.9913 -1.1216  0.1687
  236MPD1    N1 3590   2.307   4.570  10.070  0.4150  0.1892  0.3454
  236MPD1    H6 3591   2.246   4.615  10.002  0.5636 -0.2335 -0.0723
  236MPD1    H7 3592   2.292   4.470  10.052  0.4015  0.2960 -0.2218
  237MPD1     C 3593   2.674   2.759  15.888 -0.0272 -0.1275 -0.6484
  237MPD1    C1 3594   2.636   2.739  16.021  0.3363 -0.2688 -0.0207
  237MPD1    C2 3595   2.495   2.764  16.051  0.3171  0.0013  0.0427
  237MPD1    C3 3596   2.398   2.786  15.958 -0.0220 -0.6370 -0.7893
  237MPD1    C4 3597   2.448   2.813  15.830  0.3720 -0.3412 -0.3613
  237MPD1    C5 3598   2.580   2.784  15.798 -0.2950 -0.4354 -0.2861
  237MPD1     H 3599   2.465   2.762  16.155  0.5656  2.1207  0.1713
  237MPD1    H1 3600   2.381   2.831  15.747  3.2516  2.0108 -2.1714
  237MPD1    H2 3601   2.776   2.778  15.856  0.3783 -1.4275 -0.1111
  237MPD1    H3 3602   2.603   2.790  15.692 -1.6730 -0.0808 -0.5586
  237MPD1     N 3603   2.258   2.778  15.980 -0.0044 -0.4236  0.0908
  237MPD1    H5 3604   2.201   2.806  15.901 -0.2985 -0.4916  0.2791
  237MPD1    N1 3605   2.734   2.729  16.122 -0.2417 -0.5202 -0.1151
  237MPD1    H6 3606   2.699   2.689  16.209  0.0072 -0.3314  0.0683
  237MPD1    H7 3607   2.815   2.677  16.089 -0.3234 -0.5465 -0.2767
  238MPD1     C 3608   4.487   1.360  14.604 -0.2856 -1.0784 -0.6142
  238MPD1    C1 3609   4.426   1.249  14.655  0.1137 -0.0246 -0.2419
  238MPD1    C2 3610   4.288   1.238  14.660 -0.0736 -0.6139  0.7373
  238MPD1    C3 3611   4.208   1.341  14.609 -0.2094  0.4597  0.4413
  238MPD1    C4 3612   4.265   1.446  14.548 -0.2139 -0.5057 -0.5184
  238MPD1    C5 3613   4.408   1.454  14.545  0.1574 -0.1093  0.4429
  238MPD1     H 3614   4.247   1.146  14.702 -1.1066  0.3737  1.8896
  238MPD1    H1 3615   4.209   1.521  14.493 -0.4601 -0.6454 -0.4583
  238MPD1    H2 3616   4.593   1.375  14.591 -0.1770 -1.5905 -0.2804
  238MPD1    H3 3617   4.459   1.539  14.501 -0.7057  1.1733  1.9221
  238MPD1     N 3618   4.069   1.342  14.618  0.2714 -0.2260 -0.2821
  238MPD1    H5 3619   4.019   1.417  14.571 -0.5479 -0.5587  0.0580
  238MPD1    N1 3620   4.510   1.155  14.718  0.8369  0.5350  0.0380
  238MPD1    H6 3621   4.464   1.076  14.763 -1.2237  1.4407 -0.4896
  238MPD1    H7 3622   4.580   1.127  14.650 -0.3303 -1.3146 -0.4049
  239MPD1     C 3623   4.243   2.310  14.653 -0.1774 -0.2297 -0.2926
  239MPD1    C1 3624   4.292   2.324  14.525 -0.8542 -0.2130 -0.6837
  239MPD1    C2 3625   4.201   2.382  14.432  0.6011 -0.0987  0.3553
  239MPD1    C3 3626   4.067   2.407  14.450 -0.2544  0.9501  0.4102
  239MPD1    C4 3627   4.022   2.383  14.578  0.4836 -0.0564 -0.8975
  239MPD1    C5 3628   4.105   2.333  14.673  0.0605 -0.1896 -0.3332
  239MPD1     H 3629   4.240   2.385  14.331 -0.4533  0.6899 -0.0258
  239MPD1    H1 3630   3.918   2.397  14.604  0.4880  1.1147 -1.4776
  239MPD1    H2 3631   4.300   2.283  14.742 -0.4980 -2.1182 -0.6563
  239MPD1    H3 3632   4.083   2.314  14.777 -0.5658  1.7905 -0.1041
  239MPD1     N 3633   3.978   2.459  14.355  0.1979 -0.3168 -0.2266
  239MPD1    H5 3634   3.882   2.469  14.385  0.0251 -2.6498  0.0513
  239MPD1    N1 3635   4.429   2.304  14.502 -0.4018  0.2003 -0.0449
  239MPD1    H6 3636   4.468   2.233  14.564 -1.2834  1.8300  2.3639
  239MPD1    H7 3637   4.456   2.293  14.404  0.1391  0.7501  0.0365
  240MPD1     C 3638   3.961   1.817  13.776  0.0818 -0.0916  0.0713
  240MPD1    C1 3639   3.834   1.791  13.722  0.1788  0.2266 -0.8802
  240MPD1    C2 3640   3.728   1.798  13.818  0.0624 -0.0670  0.0896
  240MPD1    C3 3641   3.739   1.841  13.952 -0.8364  0.1719  0.1482
  240MPD1    C4 3642   3.864   1.892  13.990 -0.3665  0.3285  0.0321
  240MPD1    C5 3643   3.974   1.872  13.909 -0.0113 -0.2446 -0.2429
  240MPD1     H 3644   3.632   1.760  13.787 -0.0312 -0.3702  0.7438
  240MPD1    H1 3645   3.886   1.930  14.089 -0.5759  1.8507 -0.5091
  240MPD1    H2 3646   4.046   1.820  13.710  0.9208 -0.4811  1.1322
  240MPD1    H3 3647   4.077   1.888  13.937 -0.0215  1.9755 -1.5171
  240MPD1     N 3648   3.631   1.824  14.043  0.4669 -0.2899 -0.3575
  240MPD1    H5 3649   3.538   1.791  14.016  0.5041  0.1066 -0.9628
  240MPD1    N1 3650   3.825   1.731  13.598  0.1281 -0.1529 -0.2964
  240MPD1    H6 3651   3.739   1.765  13.556 -0.8310 -0.7912  1.1319
  240MPD1    H7 3652   3.896   1.776  13.541  0.1844 -2.1091 -1.7744
  241MPD1     C 3653   3.867   1.518  14.944 -0.3301  0.0685 -0.1014
  241MPD1    C1 3654   3.736   1.498  14.947 -0.4387  0.5798  0.2406
  241MPD1    C2 3655   3.667   1.524  14.825  0.0448  0.2895  0.1311
  241MPD1    C3 3656   3.732   1.591  14.718  0.5435 -0.6181 -0.3333
  241MPD1    C4 3657   3.869   1.606  14.722 -0.4909 -1.0558 -0.0740
  241MPD1    C5 3658   3.927   1.578  14.840  0.6263  0.2189 -0.4269
  241MPD1     H 3659   3.566   1.487  14.813  0.6143 -1.4229  0.5012
  241MPD1    H1 3660   3.922   1.659  14.645 -1.2212 -0.9397 -0.4998
  241MPD1    H2 3661   3.935   1.479  15.018 -1.3266  0.5221  1.0479
  241MPD1    H3 3662   4.030   1.612  14.846  0.4144  0.5873  1.1426
  241MPD1     N 3663   3.668   1.619  14.595 -0.1422 -0.4128 -0.1731
  241MPD1    H5 3664   3.723   1.669  14.526 -0.6748  2.1079  1.2359
  241MPD1    N1 3665   3.679   1.436  15.052 -0.0358  0.7425  0.3369
  241MPD1    H6 3666   3.725   1.447  15.142  1.4881 -2.4128 -0.0513
  241MPD1    H7 3667   3.579   1.446  15.062  0.2589  2.4999  1.4291
  242MPD1     C 3668   2.822   0.349  16.184 -0.6279 -0.6357 -0.5315
  242MPD1    C1 3669   2.774   0.422  16.071 -0.3350 -0.2035 -0.4594
  242MPD1    C2 3670   2.845   0.398  15.949 -0.1861  0.1442  0.0117
  242MPD1    C3 3671   2.927   0.292  15.938 -0.4429 -0.2095 -0.1718
  242MPD1    C4 3672   2.965   0.218  16.054  0.0534 -0.5682 -0.0745
  242MPD1    C5 3673   2.907   0.239  16.173 -0.3247 -0.0058 -0.0190
  242MPD1     H 3674   2.833   0.468  15.866 -1.0539 -0.1420 -0.1094
  242MPD1    H1 3675   3.032   0.132  16.055  3.0183  1.7224 -1.4827
  242MPD1    H2 3676   2.780   0.383  16.278 -1.8468 -2.0273 -0.5770
  242MPD1    H3 3677   2.943   0.184  16.260  0.0074  2.2603  1.2879
  242MPD1     N 3678   2.980   0.256  15.813  0.1736  0.0563  0.3155
  242MPD1    H5 3679   3.041   0.175  15.813 -1.3249 -1.0576  1.6765
  242MPD1    N1 3680   2.700   0.537  16.091  0.2583  0.5120  0.2847
  242MPD1    H6 3681   2.629   0.529  16.163  0.2360 -3.4185 -0.2141
  242MPD1    H7 3682   2.655   0.570  16.005  1.0743 -1.1892 -0.7962
  243MPD1     C 3683   0.857   2.474  16.847  0.4723  0.5964 -0.3972
  243MPD1    C1 3684   0.876   2.596  16.785  1.0006 -0.0328  0.4529
  243MPD1    C2 3685   0.773   2.689  16.783  0.3447 -0.2426  0.6434
  243MPD1    C3 3686   0.651   2.650  16.824 -0.3319  0.8371 -0.1911
  243MPD1    C4 3687   0.626   2.530  16.884 -0.3961 -0.2439 -0.2661
  243MPD1    C5 3688   0.727   2.437  16.891  0.3761 -0.0179  0.5273
  243MPD1     H 3689   0.788   2.793  16.755 -0.5696 -0.9718 -2.5579
  243MPD1    H1 3690   0.527   2.497  16.911  0.2323 -1.1873  0.9203
  243MPD1    H2 3691   0.926   2.390  16.846 -0.0774  0.1378 -0.5246
  243MPD1    H3 3692   0.710   2.343  16.941  0.4271 -0.0253  0.5306
  243MPD1     N 3693   0.547   2.741  16.811  0.4866 -0.0951  0.4697
  243MPD1    H5 3694   0.560   2.823  16.753 -1.1070  0.0841  0.3539
  243MPD1    N1 3695   0.999   2.630  16.744  0.7770  0.2536  0.4088
  243MPD1    H6 3696   1.003   2.715  16.688  1.8439 -0.2735 -0.3238
  243MPD1    H7 3697   1.033   2.558  16.681 -0.7512  0.9060 -1.1606
  244MPD1     C 3698   4.208   2.884  16.673  0.2183  0.2892  0.0135
  244MPD1    C1 3699   4.265   2.994  16.615  0.1339  0.0603 -0.3435
  244MPD1    C2 3700   4.399   3.008  16.626  0.3450 -0.1916 -0.8794
  244MPD1    C3 3701   4.480   2.911  16.684  0.6160  0.1041  0.5536
  244MPD1    C4 3702   4.424   2.800  16.732  0.0619 -0.6455 -0.2340
  244MPD1    C5 3703   4.283   2.792  16.736 -0.5027  0.6904  0.4144
  244MPD1     H 3704   4.442   3.096  16.578  2.2252 -1.0286 -0.6837
  244MPD1    H1 3705   4.470   2.711  16.773  0.1104 -0.2451  0.5918
  244MPD1    H2 3706   4.102   2.867  16.690  0.0048  0.3135 -1.2636
  244MPD1    H3 3707   4.241   2.713  16.798 -1.0307  2.0868  1.8310
  244MPD1     N 3708   4.620   2.930  16.693  0.7779 -0.7409  0.6209
  244MPD1    H5 3709   4.661   3.014  16.652 -1.3075 -0.3721 -0.6865
  244MPD1    N1 3710   4.179   3.099  16.559  0.5303  0.2410 -0.0987
  244MPD1    H6 3711   4.224   3.135  16.475 -0.1390 -0.4021 -0.7351
  244MPD1    H7 3712   4.090   3.057  16.532  0.4963 -1.3574  2.5903
  245MPD1     C 3713   1.810   3.991  13.151 -0.0654 -0.2098 -0.1443
  245MPD1    C1 3714   1.776   3.974  13.285  0.6464 -0.4315 -0.3789
  245MPD1    C2 3715   1.794   4.083  13.374 -0.2201  0.1639 -0.3401
  245MPD1    C3 3716   1.833   4.212  13.329 -0.5251 -0.6127  0.5606
  245MPD1    C4 3717   1.882   4.216  13.199 -0.5578  0.8067  0.6008
  245MPD1    C5 3718   1.873   4.107  13.122 -0.0160 -0.4110  0.3774
  245MPD1     H 3719   1.747   4.078  13.471 -0.2115  2.8547 -0.1802
  245MPD1    H1 3720   1.935   4.301  13.157  0.1846  0.4826  0.8879
  245MPD1    H2 3721   1.798   3.921  13.069 -1.5522 -0.5444  0.3562
  245MPD1    H3 3722   1.915   4.113  13.022 -0.6042 -1.9747  0.0269
  245MPD1     N 3723   1.841   4.317  13.419 -0.2640  0.3144 -0.1605
  245MPD1    H5 3724   1.816   4.290  13.513 -2.2454 -0.9854 -1.0612
  245MPD1    N1 3725   1.720   3.852  13.331 -0.5916 -0.4861 -0.0674
  245MPD1    H6 3726   1.742   3.846  13.430  1.7994 -0.3060 -0.5831
  245MPD1    H7 3727   1.751   3.770  13.279 -1.8071 -0.0210 -1.5288
  246MPD1     C 3728   3.178   1.537   9.769  0.0520 -0.1744 -0.2509
  246MPD1    C1 3729   3.119   1.637   9.701 -0.0006  0.3921 -0.5459
  246MPD1    C2 3730   3.031   1.612   9.602 -0.0751  1.2964  0.7410
  246MPD1    C3 3731   2.985   1.480   9.579 -0.6541 -0.4205 -0.1775
  246MPD1    C4 3732   3.048   1.373   9.648  0.0885 -0.3699 -0.4666
  246MPD1    C5 3733   3.140   1.403   9.742  0.2035 -0.6111  0.7903
  246MPD1     H 3734   2.993   1.701   9.553 -1.1605  1.1206  1.2582
  246MPD1    H1 3735   3.020   1.268   9.645 -0.1175 -0.3851  2.1693
  246MPD1    H2 3736   3.239   1.555   9.857 -0.1667  2.1103 -0.5607
  246MPD1    H3 3737   3.164   1.317   9.804 -0.4296 -1.4835 -0.1910
  246MPD1     N 3738   2.878   1.461   9.483 -0.3028 -0.1299  0.2460
  246MPD1    H5 3739   2.832   1.548   9.460 -0.2444 -0.0543  0.4127
  246MPD1    N1 3740   3.159   1.772   9.712 -0.4902  0.2372  0.0188
  246MPD1    H6 3741   3.087   1.839   9.688 -0.1122  0.2773 -0.9956
  246MPD1    H7 3742   3.195   1.811   9.798  0.2943  0.7656 -0.5535
  247MPD1     C 3743   1.655   3.901  17.138  0.5504 -0.5352 -0.3032
  247MPD1    C1 3744   1.676   4.003  17.051  1.0016 -0.2760 -0.2986
  247MPD1    C2 3745   1.628   3.997  16.921  0.7192  0.0643 -1.1145
  247MPD1    C3 3746   1.551   3.890  16.883 -0.6584 -0.0826 -0.3400
  247MPD1    C4 3747   1.534   3.785  16.970 -0.7078 -0.5254 -0.2890
  247MPD1    C5 3748   1.584   3.795  17.094  0.7144 -0.7462 -0.0403
  247MPD1     H 3749   1.651   4.074  16.848 -1.1715  0.5522 -1.2160
  247MPD1    H1 3750   1.477   3.694  16.952  2.2905 -2.5918  0.4673
  247MPD1    H2 3751   1.689   3.897  17.241  0.4409  0.5549 -0.2209
  247MPD1    H3 3752   1.567   3.714  17.164 -1.7102 -1.8059 -1.8525
  247MPD1     N 3753   1.488   3.874  16.752 -0.3917  0.3210  0.5710
  247MPD1    H5 3754   1.438   3.786  16.738 -1.3042  1.0144 -0.5004
  247MPD1    N1 3755   1.739   4.115  17.098  0.3011 -0.1528 -0.9060
  247MPD1    H6 3756   1.776   4.168  17.019  1.7590 -0.4929 -0.4645
  247MPD1    H7 3757   1.812   4.098  17.167  0.6135 -0.5364 -1.3274
  248MPD1     C 3758   1.269   3.198   0.478 -0.5264  0.6258  0.1891
  248MPD1    C1 3759   1.380   3.276   0.490 -0.5134  0.7113  0.2746
  248MPD1    C2 3760   1.360   3.408   0.541 -0.4004  0.2084  0.4521
  248MPD1    C3 3761   1.233   3.454   0.577  0.5071  0.2904 -0.2671
  248MPD1    C4 3762   1.125   3.369   0.566 -0.2831 -0.5229  0.7664
  248MPD1    C5 3763   1.148   3.247   0.505  0.1306 -0.4332  0.9970
  248MPD1     H 3764   1.444   3.476   0.551 -0.0522 -0.3269  1.1638
  248MPD1    H1 3765   1.026   3.397   0.601  0.2254 -0.2581  1.9572
  248MPD1    H2 3766   1.272   3.096   0.441 -1.9889  0.3044  0.9363
  248MPD1    H3 3767   1.069   3.177   0.477 -1.2330  0.7308  1.9294
  248MPD1     N 3768   1.221   3.579   0.637  0.7399  0.3487 -0.8102
  248MPD1    H5 3769   1.309   3.621   0.665  1.3929 -1.1989 -0.5536
  248MPD1    N1 3770   1.509   3.239   0.437 -0.0505 -0.8891  0.1326
  248MPD1    H6 3771   1.578   3.297   0.485  1.2743 -1.3745 -1.1597
  248MPD1    H7 3772   1.528   3.143   0.462  1.3369 -0.6919 -0.1394
  249MPD1     C 3773   3.371   2.322  10.034 -0.8106  0.4098 -0.0676
  249MPD1    C1 3774   3.406   2.268   9.917 -0.3834 -0.1347 -0.2109
  249MPD1    C2 3775   3.446   2.352   9.815  0.9727 -0.3310  0.4047
  249MPD1    C3 3776   3.446   2.490   9.833 -0.5228  0.2407 -0.1077
  249MPD1    C4 3777   3.407   2.544   9.955 -0.1370  0.1709 -0.3694
  249MPD1    C5 3778   3.377   2.454  10.056  0.3003  0.0334 -0.0784
  249MPD1     H 3779   3.472   2.306   9.720 -0.0201 -0.0721  0.0042
  249MPD1    H1 3780   3.413   2.650   9.979 -0.7298  0.3235 -0.9094
  249MPD1    H2 3781   3.353   2.265  10.125  0.4981 -2.1734 -1.4243
  249MPD1    H3 3782   3.348   2.505  10.148  1.4149  0.8058 -0.1636
  249MPD1     N 3783   3.505   2.573   9.734  0.0271  0.3679  0.3199
  249MPD1    H5 3784   3.537   2.523   9.652 -2.3930  1.3640 -1.2362
  249MPD1    N1 3785   3.405   2.129   9.895 -0.1542  0.2398  0.0587
  249MPD1    H6 3786   3.440   2.078   9.814  0.1330  0.0769  0.2859
  249MPD1    H7 3787   3.400   2.068   9.976 -0.6090  0.9509  0.5602
  250MPD2     C 3788   0.540   2.805  13.168 -0.1174  0.2208  0.9182
  250MPD2    C1 3789   0.611   2.853  13.065  0.2057 -0.0566  0.7589
  250MPD2    C2 3790   0.625   2.773  12.949  0.2761 -0.5433 -0.1555
  250MPD2    C3 3791   0.578   2.643  12.946 -0.5119  0.0579  0.1046
  250MPD2    C4 3792   0.508   2.598  13.057 -0.3607  0.2998 -0.1371
  250MPD2    C5 3793   0.489   2.677  13.165 -0.5598 -0.0330  0.1221
  250MPD2     H 3794   0.680   2.824  12.871 -2.4239 -1.3526 -2.5553
  250MPD2    H1 3795   0.468   2.498  13.065  2.2249 -0.7377 -0.0004
  250MPD2    H2 3796   0.539   2.860  13.261 -0.9030 -1.0627  1.6796
  250MPD2    H3 3797   0.433   2.638  13.249 -0.6102  0.0116  0.1093
  250MPD2     N 3798   0.588   2.548  12.839 -0.0169  0.0431 -0.2865
  250MPD2    H5 3799   0.545   2.457  12.853 -2.0846  1.4654  2.5004
  250MPD2    N1 3800   0.667   2.979  13.067  0.1354 -0.2238 -0.0306
  250MPD2    H7 3801   0.720   3.004  12.984  0.1295 -3.0176 -0.9102
  251TMC3    C1 3802   0.749   3.184  13.138  0.6571  0.1168  0.5081
  251TMC3    C2 3803   0.710   3.304  13.184 -0.1220  0.5493 -0.6288
  251TMC3    C3 3804   0.769   3.418  13.130  0.0558  0.0574 -0.3813
  251TMC3    C4 3805   0.853   3.165  13.053  0.7338  0.1999  0.0680
  251TMC3    C5 3806   0.919   3.277  13.013  0.4726 -0.4418 -0.0935
  251TMC3    C6 3807   0.870   3.406  13.040 -0.1504  0.1257  0.7657
  251TMC3     C 3808   0.673   3.069  13.172  0.1817 -0.2004 -0.3869
  251TMC3     O 3809   0.612   3.072  13.279 -0.0954 -0.3694 -0.4022
  251TMC3     H 3810   0.616   3.302  13.239 -0.3628  1.9661 -1.0070
  251TMC3    H1 3811   0.891   3.065  13.040 -0.6476 -0.2299 -0.6550
  251TMC3    H2 3812   0.923   3.488  12.992 -0.9228  1.1069  1.5950
  251TMC3    C7 3813   1.068   3.259  12.991 -1.2266 -0.2176  0.6844
  251TMC3    C8 3814   0.689   3.540  13.128 -0.1822 -0.5915  0.4397
  251TMC3    O1 3815   1.101   3.145  12.975  0.2600 -0.1935 -0.2384
  251TMC3    O2 3816   0.719   3.624  13.046 -0.0010 -0.5228  0.3297
  252TMC3    C1 3817   0.818   0.024   9.413  0.7377  0.4547  0.2975
  252TMC3    C2 3818   0.900   4.673   9.328 -0.3031  0.2683  0.3486
  252TMC3    C3 3819   0.888   4.538   9.339 -0.6286  0.3068  0.5130
  252TMC3    C4 3820   0.721   4.687   9.487  0.0572 -0.0004  0.5624
  252TMC3    C5 3821   0.727   4.547   9.508  1.1110 -0.2550  0.1207
  252TMC3    C6 3822   0.806   4.472   9.426 -0.1162 -0.3232 -0.2250
  252TMC3     C 3823   0.791   0.163   9.374 -0.9250  0.1256  0.2200
  252TMC3     O 3824   0.675   0.195   9.376  0.2826 -0.5352  0.3967
  252TMC3     H 3825   0.981   4.715   9.271 -0.3197  0.6320  0.5951
  252TMC3    H1 3826   0.656   0.025   9.550 -0.1489  0.0436  0.3043
  252TMC3    H2 3827   0.824   4.367   9.447  0.1762 -0.8333 -3.0976
  252TMC3    C7 3828   0.624   4.491   9.595 -0.5877 -0.1931  0.5674
  252TMC3    C8 3829   1.010   4.474   9.297  0.1809  0.3081  0.5736
  252TMC3    O1 3830   0.591   4.568   9.683  0.5647 -0.1443 -0.1382
  252TMC3    O2 3831   1.040   4.500   9.182  0.5044  0.2832  0.1916
  253MPD2     C 3832   1.497   3.311  15.803 -0.2339 -0.1483  0.8437
  253MPD2    C1 3833   1.377   3.283  15.746 -0.1355  0.0302 -0.1657
  253MPD2    C2 3834   1.288   3.203  15.818 -0.4328 -0.3389 -0.0382
  253MPD2    C3 3835   1.324   3.140  15.938  0.3033  0.4899  1.0349
  253MPD2    C4 3836   1.452   3.170  15.987  0.0636 -0.7223 -0.0708
  253MPD2    C5 3837   1.539   3.252  15.916 -0.4101 -0.0477  0.2810
  253MPD2     H 3838   1.189   3.187  15.776 -0.2829 -2.3229  0.3245
  253MPD2    H1 3839   1.492   3.135  16.082 -0.1861  0.2104  0.3798
  253MPD2    H2 3840   1.559   3.389  15.759 -0.8916  0.8515  1.7036
  253MPD2    H3 3841   1.642   3.267  15.949 -0.3546 -1.8386  0.9017
  253MPD2     N 3842   1.239   3.058  16.015  0.5606 -0.0084 -0.1741
  253MPD2    H5 3843   1.280   3.027  16.103  0.3553  1.0516  0.3005
  253MPD2    N1 3844   1.329   3.358  15.641  0.3517 -0.3563  0.2005
  253MPD2    H7 3845   1.242   3.328  15.599  0.1746 -0.9484  1.0012
  254TMC3    C1 3846   1.041   2.953  16.099 -0.2616  0.3620 -0.7452
  254TMC3    C2 3847   0.903   2.966  16.118  0.2084 -0.4175  0.1666
  254TMC3    C3 3848   0.851   2.878  16.208 -0.3922 -0.4900  0.3101
  254TMC3    C4 3849   1.124   2.846  16.137  0.0210  0.5886 -0.2879
  254TMC3    C5 3850   1.062   2.765  16.226 -0.0863 -0.4091 -0.2658
  254TMC3    C6 3851   0.930   2.778  16.258  0.6231 -0.4940 -0.5253
  254TMC3     C 3852   1.105   3.030  15.993  0.0028  0.4461  0.5644
  254TMC3     O 3853   1.027   3.066  15.907 -0.6662 -0.1853 -0.4211
  254TMC3     H 3854   0.858   3.059  16.085 -1.8940 -1.1903  0.8661
  254TMC3    H1 3855   1.227   2.828  16.111 -0.9918 -3.5484 -1.4686
  254TMC3    H2 3856   0.882   2.710  16.327  0.0404  1.0952  0.6521
  254TMC3    C7 3857   1.149   2.669  16.300  0.3526  0.5600 -0.2475
  254TMC3    C8 3858   0.801   2.954  16.325 -0.6763 -0.6228  0.2285
  254TMC3    O1 3859   1.271   2.672  16.295 -0.8992  0.1651  0.4112
  254TMC3    O2 3860   0.841   2.917  16.437  0.0793 -0.6364 -0.2844
  255MPD2     C 3861   4.462   1.806   9.933  0.3214  0.1347 -0.0679
  255MPD2    C1 3862   4.596   1.805   9.921 -0.6297  1.0945 -0.3210
  255MPD2    C2 3863   4.659   1.700   9.859 -0.0537 -0.1624  0.0591
  255MPD2    C3 3864   4.588   1.583   9.833  0.1207 -0.1127 -0.4025
  255MPD2    C4 3865   4.452   1.579   9.850  0.5647  0.8278  0.0815
  255MPD2    C5 3866   4.388   1.695   9.886  0.0891  0.3043  0.0689
  255MPD2     H 3867   0.044   1.700   9.847  0.0120 -0.3655  0.6612
  255MPD2    H1 3868   4.394   1.488   9.848  2.1619 -0.1886  0.1344
  255MPD2    H2 3869   4.418   1.882   9.996 -0.7271 -0.8872  0.4334
  255MPD2    H3 3870   4.282   1.690   9.907  0.4120 -1.6195  1.2304
  255MPD2     N 3871   4.671   1.469   9.815 -0.1616  0.3447  0.2350
  255MPD2    H5 3872   0.049   1.484   9.818  0.1726 -1.3518 -1.9304
  255MPD2    N1 3873   4.666   1.910   9.976 -0.0512  0.9711 -0.0097
  255MPD2    H7 3874   4.625   1.980  10.037 -0.3422  1.4599 -0.7604
  256TMC3    C1 3875   0.129   2.015  10.070 -0.5105 -0.3872  0.6975
  256TMC3    C2 3876   0.181   2.137  10.020  0.1502 -0.1335 -0.3624
  256TMC3    C3 3877   0.157   2.254  10.093  0.4225 -0.5725  0.0159
  256TMC3    C4 3878   0.061   2.015  10.187 -0.0173  0.4289  0.1104
  256TMC3    C5 3879   0.013   2.135  10.235 -0.1706 -0.7704  0.0212
  256TMC3    C6 3880   0.068   2.253  10.194 -0.3189  0.5611 -0.7444
  256TMC3     C 3881   0.081   1.925   9.968  0.1181  0.3479 -0.5436
  256TMC3     O 3882   0.167   1.884   9.892  0.6678 -0.4109 -0.3662
  256TMC3     H 3883   0.230   2.142   9.923 -2.0472 -0.4767 -1.4947
  256TMC3    H1 3884   0.013   1.926  10.228  1.6604 -0.4662  0.1163
  256TMC3    H2 3885   0.035   2.347  10.238 -0.1362 -0.6446  1.9726
  256TMC3    C7 3886   4.593   2.132  10.269  0.3265  0.2044 -0.6315
  256TMC3    C8 3887   0.233   2.377  10.076 -0.7512 -0.2512 -0.5143
  256TMC3    O1 3888   4.538   2.022  10.249  0.5482  0.2785 -0.1993
  256TMC3    O2 3889   0.216   2.469  10.153 -0.1389  0.3064  0.4185
  257MPD2     C 3890   3.780   2.461  12.849  0.1159 -0.4956 -0.4203
  257MPD2    C1 3891   3.916   2.454  12.879 -0.6466  0.7988 -0.4175
  257MPD2    C2 3892   3.955   2.387  12.995 -0.1425  0.1838 -0.7091
  257MPD2    C3 3893   3.862   2.322  13.079  0.4168  0.4658 -0.7490
  257MPD2    C4 3894   3.731   2.330  13.055 -0.4899  0.2292 -0.0785
  257MPD2    C5 3895   3.689   2.395  12.941  0.6655 -0.6051  0.0051
  257MPD2     H 3896   4.061   2.376  13.015 -0.1332 -0.7341 -1.2665
  257MPD2    H1 3897   3.666   2.266  13.114 -1.0595  0.0166 -0.9351
  257MPD2    H2 3898   3.740   2.514  12.763  1.4683  1.8024  0.3827
  257MPD2    H3 3899   3.584   2.391  12.915  0.3715 -0.8820  1.2369
  257MPD2     N 3900   3.919   2.247  13.183  0.3835 -0.1528  0.1001
  257MPD2    H5 3901   4.021   2.253  13.184  0.1826  2.9335  2.2684
  257MPD2    N1 3902   4.012   2.496  12.783  0.0437 -0.8941 -0.0990
  257MPD2    H7 3903   3.975   2.545  12.702 -1.2488 -1.6083  0.0523
  258TMC3    C1 3904   3.960   2.124  13.371  0.4340 -0.6217  0.3356
  258TMC3    C2 3905   4.061   2.063  13.297 -0.1131 -0.1084  0.2195
  258TMC3    C3 3906   4.182   2.039  13.359 -0.6061 -0.2733 -0.2384
  258TMC3    C4 3907   3.985   2.178  13.491 -0.0013  0.0288 -0.0793
  258TMC3    C5 3908   4.106   2.154  13.545  0.8988  0.3747 -0.4620
  258TMC3    C6 3909   4.204   2.080  13.485 -0.3153 -0.4837 -0.0183
  258TMC3     C 3910   3.858   2.191  13.290 -0.2487 -0.3825  0.2355
  258TMC3     O 3911   3.745   2.189  13.334  0.3012  0.5654  0.1548
  258TMC3     H 3912   4.040   2.016  13.202 -1.3920 -0.4606  0.6706
  258TMC3    H1 3913   3.916   2.251  13.531  1.5161  1.3668  0.1001
  258TMC3    H2 3914   4.306   2.064  13.517 -0.3815 -0.8429  0.0133
  258TMC3    C7 3915   4.117   2.169  13.688 -0.1589 -0.5979 -0.4332
  258TMC3    C8 3916   4.295   2.008  13.273 -0.2141 -0.1041 -0.3047
  258TMC3    O1 3917   4.016   2.199  13.753 -0.6613  0.1737  0.2245
  258TMC3    O2 3918   4.259   1.985  13.160  0.0154  0.1517 -0.2490
  259MPD2     C 3919   1.842   4.268   1.529  0.3812  0.5944  0.0936
  259MPD2    C1 3920   1.971   4.272   1.582  0.0560  0.0174  0.1167
  259MPD2    C2 3921   2.070   4.216   1.508  0.0420 -0.1392  0.4964
  259MPD2    C3 3922   2.049   4.152   1.382  0.1339  0.2069  0.8134
  259MPD2    C4 3923   1.918   4.145   1.331  0.3189  0.4224  0.2931
  259MPD2    C5 3924   1.817   4.204   1.408  0.3391 -0.0938  0.0096
  259MPD2     H 3925   2.169   4.205   1.550  1.2159  0.9515 -2.0484
  259MPD2    H1 3926   1.883   4.101   1.238 -0.4028 -0.5007  1.0053
  259MPD2    H2 3927   1.758   4.304   1.586  0.4690  0.9648 -0.0145
  259MPD2    H3 3928   1.716   4.206   1.369  0.6276 -2.3996 -0.8855
  259MPD2     N 3929   2.167   4.094   1.322  0.2778  0.7149  0.1976
  259MPD2    H5 3930   2.252   4.106   1.375  0.2272  0.6584  0.2922
  259MPD2    N1 3931   1.991   4.330   1.709  0.4803  0.4484  0.0386
  259MPD2    H7 3932   1.902   4.365   1.745  0.5868 -0.3832  1.1035
  260TMC3    C1 3933   2.311   4.002   1.163  0.0133  0.2372  0.2658
  260TMC3    C2 3934   2.418   4.067   1.209  0.0613  0.2196 -0.2152
  260TMC3    C3 3935   2.535   4.048   1.142 -0.1358  0.3130  0.5311
  260TMC3    C4 3936   2.318   3.914   1.055  0.3052  0.1795 -0.1036
  260TMC3    C5 3937   2.437   3.903   0.992  0.8918 -0.0404  0.2888
  260TMC3    C6 3938   2.544   3.976   1.024 -0.1505 -0.2208 -0.1920
  260TMC3     C 3939   2.179   4.044   1.197  0.9487  0.0755  0.6823
  260TMC3     O 3940   2.093   4.032   1.107  0.6653  0.2776  0.2213
  260TMC3     H 3941   2.417   4.142   1.288  0.1265 -0.7087  0.6732
  260TMC3    H1 3942   2.232   3.850   1.039  1.9144 -2.1209  0.5780
  260TMC3    H2 3943   2.641   3.952   0.982  0.7386  2.4658  0.3391
  260TMC3    C7 3944   2.446   3.829   0.872  0.2139 -0.3546  0.9400
  260TMC3    C8 3945   2.646   4.145   1.173 -0.3450  1.0767  1.0628
  260TMC3    O1 3946   2.556   3.805   0.837  0.6897 -0.0570 -0.3391
  260TMC3    O2 3947   2.631   4.210   1.276 -0.0047  0.2618 -0.0886
  261MPD2     C 3948   0.584   2.632  12.006  0.1207 -0.5570 -0.1706
  261MPD2    C1 3949   0.506   2.635  12.119 -0.2675 -0.0207 -0.4519
  261MPD2    C2 3950   0.399   2.722  12.133  0.5831 -0.0055 -0.4276
  261MPD2    C3 3951   0.366   2.806  12.028  0.8249 -0.4958  0.9677
  261MPD2    C4 3952   0.457   2.813  11.923  0.0175 -1.1123 -0.0718
  261MPD2    C5 3953   0.564   2.726  11.906  0.4438 -0.5107 -0.1708
  261MPD2     H 3954   0.326   2.734  12.213 -0.5691  1.4133 -1.6823
  261MPD2    H1 3955   0.460   2.886  11.842 -2.8086  0.0252  0.8382
  261MPD2    H2 3956   0.681   2.584  12.007  0.6401  0.3864 -3.8741
  261MPD2    H3 3957   0.632   2.731  11.822 -0.3478  1.1099 -0.6875
  261MPD2     N 3958   0.245   2.880  12.042 -0.1189 -0.2333 -0.2693
  261MPD2    H5 3959   0.183   2.863  12.121 -0.3729  1.4185 -0.0924
  261MPD2    N1 3960   0.551   2.571  12.234 -0.3672 -0.3510 -0.0910
  261MPD2    H7 3961   0.498   2.583  12.319  1.0588  1.4086  0.5391
  262TMC3    C1 3962   0.081   3.039  11.987 -0.9101 -0.2708  0.8995
  262TMC3    C2 3963   0.075   3.171  11.971 -0.6842 -0.0357 -0.2078
  262TMC3    C3 3964   4.678   3.237  11.970 -0.8503  0.3150  0.1672
  262TMC3    C4 3965   4.697   2.968  12.022 -0.5400 -0.0964 -0.0610
  262TMC3    C5 3966   4.575   3.028  12.017 -0.2794  0.2902 -1.4948
  262TMC3    C6 3967   4.568   3.166  11.991  0.6378  0.3536 -0.1308
  262TMC3     C 3968   0.199   2.974  11.944 -0.8189 -0.2374  0.3856
  262TMC3     O 3969   0.255   3.008  11.841 -0.3915 -0.1103  0.4124
  262TMC3     H 3970   0.167   3.217  11.938  0.8111 -2.2980  0.7843
  262TMC3    H1 3971   4.700   2.862  12.043 -1.3213  0.1912  1.4704
  262TMC3    H2 3972   4.474   3.213  12.017  0.4944 -0.4246  0.7636
  262TMC3    C7 3973   4.458   2.942  12.011 -0.4980 -0.2975  0.6717
  262TMC3    C8 3974   4.667   3.363  11.895  0.0600  0.1043  0.8548
  262TMC3    O1 3975   4.454   2.855  12.096 -0.5169  0.6265  0.2429
  262TMC3    O2 3976   0.054   3.419  11.873  0.1470  0.8022 -0.1922
  263MPD2     C 3977   1.329   2.021  11.413 -0.3261  0.7317 -0.0875
  263MPD2    C1 3978   1.423   1.971  11.337 -0.6945  0.1740  0.4346
  263MPD2    C2 3979   1.443   2.030  11.213 -0.2150 -0.5556 -0.3789
  263MPD2    C3 3980   1.359   2.128  11.164  0.6906 -0.1681  0.1598
  263MPD2    C4 3981   1.249   2.169  11.238 -0.4856  0.1618 -0.6445
  263MPD2    C5 3982   1.236   2.105  11.363  0.2441  0.2912 -0.3791
  263MPD2     H 3983   1.525   1.997  11.151  0.5403 -1.6464  1.2082
  263MPD2    H1 3984   1.183   2.252  11.214 -1.9089 -1.3988 -2.1180
  263MPD2    H2 3985   1.303   1.980  11.510 -0.5495  0.7017 -0.1594
  263MPD2    H3 3986   1.160   2.140  11.431  0.4842  1.7251 -0.8507
  263MPD2     N 3987   1.381   2.172  11.037 -0.0763 -0.0095  0.5370
  263MPD2    H5 3988   1.459   2.133  10.985 -0.0643  0.2419  0.3682
  263MPD2    N1 3989   1.495   1.872  11.395  0.2757 -0.1995  0.0775
  263MPD2    H7 3990   1.470   1.846  11.490  0.6130 -1.3045 -0.1362
  264TMC3    C1 3991   1.333   2.265  10.822  0.1539  0.0815  0.2033
  264TMC3    C2 3992   1.242   2.320  10.736 -0.0620 -0.9411 -0.0077
  264TMC3    C3 3993   1.276   2.380  10.616  0.1349  0.1116 -0.2450
  264TMC3    C4 3994   1.465   2.250  10.779 -0.4082  0.2216 -0.6388
  264TMC3    C5 3995   1.501   2.306  10.661 -0.3413  0.1918  0.8472
  264TMC3    C6 3996   1.409   2.372  10.573 -0.3896 -0.3908  0.4032
  264TMC3     C 3997   1.296   2.243  10.960  0.4359 -0.1000  0.1833
  264TMC3     O 3998   1.178   2.264  10.987 -0.7731  0.3020 -0.1751
  264TMC3     H 3999   1.141   2.325  10.776 -0.5284  2.1880 -1.5426
  264TMC3    H1 4000   1.543   2.211  10.844 -3.2402 -2.9004  0.8955
  264TMC3    H2 4001   1.442   2.414  10.479 -2.0835  2.2260  0.9944
  264TMC3    C7 4002   1.638   2.371  10.657  0.8079 -0.2928  0.3483
  264TMC3    C8 4003   1.251   2.522  10.625 -0.4316  0.5083 -0.1639
  264TMC3    O1 4004   1.742   2.311  10.680  0.0856 -0.4525  0.5335
  264TMC3    O2 4005   1.355   2.581  10.635  0.5095 -0.0225 -0.0155
  265MPD2     C 4006   2.442   2.770  15.325  0.3453 -0.6117  0.2453
  265MPD2    C1 4007   2.556   2.849  15.305  0.2197 -0.0660  0.0356
  265MPD2    C2 4008   2.658   2.805  15.221  0.6447  0.2297 -0.0893
  265MPD2    C3 4009   2.648   2.684  15.157  0.1326 -0.0288 -0.0448
  265MPD2    C4 4010   2.541   2.599  15.186  0.0602  0.3783  0.2218
  265MPD2    C5 4011   2.438   2.647  15.260  0.6225 -0.1870 -0.0444
  265MPD2     H 4012   2.743   2.872  15.212  1.4481 -0.9742 -1.4526
  265MPD2    H1 4013   2.524   2.505  15.136 -0.3294  0.6003 -0.0603
  265MPD2    H2 4014   2.357   2.809  15.379  0.0375 -0.6907 -0.1824
  265MPD2    H3 4015   2.346   2.591  15.269  0.5656 -0.0950 -0.0502
  265MPD2     N 4016   2.750   2.632  15.070 -0.5676 -0.0627 -0.0468
  265MPD2    H5 4017   2.743   2.537  15.036 -1.0335  0.5404 -1.6454
  265MPD2    N1 4018   2.591   2.975  15.380 -0.1331 -0.2090 -0.2114
  265MPD2    H7 4019   2.677   3.026  15.359  0.5519  0.0762  3.3421
  266TMC3    C1 4020   2.570   3.136  15.563  0.2139  1.3486  0.3543
  266TMC3    C2 4021   2.574   3.150  15.700  0.2063 -0.1351  0.7807
  266TMC3    C3 4022   2.616   3.268  15.760  0.4533 -0.3026 -0.3650
  266TMC3    C4 4023   2.598   3.241  15.479 -0.7594 -0.0151  0.1076
  266TMC3    C5 4024   2.624   3.362  15.541  0.2504 -0.4461  0.4265
  266TMC3    C6 4025   2.632   3.373  15.677 -0.2661  0.7438  0.1415
  266TMC3     C 4026   2.522   3.016  15.494 -0.2780 -0.0343  0.2316
  266TMC3     O 4027   2.427   2.963  15.543 -0.2957 -0.2528 -0.2432
  266TMC3     H 4028   2.553   3.064  15.762  1.3835 -1.3957 -0.5600
  266TMC3    H1 4029   2.572   3.234  15.374  0.7386 -0.4371 -0.2344
  266TMC3    H2 4030   2.672   3.462  15.724 -0.8557  0.3399  1.3864
  266TMC3    C7 4031   2.594   3.486  15.470  0.5216  0.1406  0.2965
  266TMC3    C8 4032   2.713   3.246  15.865 -0.5916  0.5217  0.1808
  266TMC3    O1 4033   2.574   3.475  15.351 -0.1946  0.4712  0.3294
  266TMC3    O2 4034   2.775   3.146  15.863  0.6770  0.2886 -0.4980
  267MPD2     C 4035   4.363   4.372   1.261  0.3180 -0.2868 -0.4957
  267MPD2    C1 4036   4.393   4.327   1.132  0.2066 -0.1229 -0.1386
  267MPD2    C2 4037   4.316   4.376   1.029  0.5997  0.8560  0.4916
  267MPD2    C3 4038   4.208   4.462   1.041  1.0342 -0.6399 -0.0400
  267MPD2    C4 4039   4.172   4.496   1.169  0.0285  0.8328  0.0364
  267MPD2    C5 4040   4.247   4.442   1.271 -0.5311 -0.3917 -0.3430
  267MPD2     H 4041   4.339   4.353   0.925  1.0421  3.6994 -0.0578
  267MPD2    H1 4042   4.079   4.550   1.185 -0.2023  0.5269 -0.2905
  267MPD2    H2 4043   4.423   4.345   1.347 -1.2256  0.7661  0.9116
  267MPD2    H3 4044   4.218   4.471   1.372 -1.7533 -0.7690 -0.5750
  267MPD2     N 4045   4.133   4.522   0.931  0.4792 -0.3542  0.5628
  267MPD2    H5 4046   4.071   4.598   0.957  0.1688 -0.2271 -0.5291
  267MPD2    N1 4047   4.504   4.238   1.118 -0.0928 -0.4717 -0.0079
  267MPD2    H7 4048   4.548   4.206   1.203  0.0329 -0.0092  0.1015
  268TMC3    C1 4049   4.656   4.095   0.995  0.1639 -0.1035  0.2657
  268TMC3    C2 4050   4.645   4.012   0.884  0.9617 -0.1031 -0.6900
  268TMC3    C3 4051   4.720   3.904   0.891 -0.0995  0.2685 -0.0892
  268TMC3    C4 4052   0.004   4.071   1.105  0.2769  0.5597  0.3277
  268TMC3    C5 4053   0.070   3.954   1.106 -0.4826 -0.8321  0.3551
  268TMC3    C6 4054   0.078   3.871   0.999 -0.3674 -0.0348 -0.0455
  268TMC3     C 4055   4.559   4.199   0.995 -0.4407  0.2009  0.3982
  268TMC3     O 4056   4.538   4.252   0.887 -0.2848 -0.3009 -0.5703
  268TMC3     H 4057   4.576   4.040   0.805 -1.1516  0.5042  1.3643
  268TMC3    H1 4058   0.007   4.136   1.191 -1.3277  2.6468 -1.1888
  268TMC3    H2 4059   0.115   3.770   1.012  1.3004  0.8254  1.8082
  268TMC3    C7 4060   0.164   3.929   1.214 -0.3229  0.3634  0.5504
  268TMC3    C8 4061   4.722   3.808   0.780  0.2959  0.3452  0.0532
  268TMC3    O1 4062   0.252   3.846   1.194 -0.4440  0.4939  0.4078
  268TMC3    O2 4063   0.028   3.691   0.801 -0.4080 -0.0902  0.5094
  269MPD2     C 4064   0.913   3.297  15.696 -0.0251 -0.4691  0.6217
  269MPD2    C1 4065   0.785   3.305  15.646  0.8568 -0.6226  0.3911
  269MPD2    C2 4066   0.726   3.430  15.640 -0.1281 -0.2251 -0.6489
  269MPD2    C3 4067   0.807   3.541  15.666 -0.5347 -0.0503  0.3254
  269MPD2    C4 4068   0.942   3.528  15.705  0.5485 -0.0819  0.0498
  269MPD2    C5 4069   0.993   3.408  15.715  0.3849 -0.1244 -0.3901
  269MPD2     H 4070   0.625   3.435  15.600 -0.4059 -0.8033 -0.0178
  269MPD2    H1 4071   0.999   3.618  15.725  1.5988 -0.2338 -2.3673
  269MPD2    H2 4072   0.960   3.199  15.697  0.4121 -0.2879 -1.5529
  269MPD2    H3 4073   1.090   3.391  15.760  0.7408  2.7683 -0.0414
  269MPD2     N 4074   0.746   3.668  15.658  1.0726 -0.6428  0.5011
  269MPD2    H5 4075   0.649   3.662  15.628  0.8023  0.0109  1.2172
  269MPD2    N1 4076   0.716   3.183  15.607  0.5538 -0.1222 -0.1476
  269MPD2    H7 4077   0.766   3.097  15.627 -2.0255 -1.6510 -0.3044
  270TMC3    C1 4078   0.541   3.042  15.515  0.3611 -0.0118 -0.2777
  270TMC3    C2 4079   0.413   3.033  15.462 -0.1976  0.5099  0.0257
  270TMC3    C3 4080   0.367   2.911  15.426 -0.6009  0.6454 -0.0908
  270TMC3    C4 4081   0.624   2.935  15.526  0.2364  0.7213 -0.7609
  270TMC3    C5 4082   0.574   2.813  15.487  0.8007  0.2774 -0.2165
  270TMC3    C6 4083   0.441   2.798  15.448 -0.6705 -0.6379  0.0365
  270TMC3     C 4084   0.595   3.178  15.541  0.1122 -0.5739  0.3244
  270TMC3     O 4085   0.534   3.274  15.489 -0.4408  0.6095  0.0680
  270TMC3     H 4086   0.356   3.125  15.455 -1.6562 -0.0952  3.5838
  270TMC3    H1 4087   0.727   2.956  15.553  0.2187 -0.8379  0.5233
  270TMC3    H2 4088   0.402   2.703  15.413 -0.2665 -1.3597  1.5728
  270TMC3    C7 4089   0.642   2.693  15.542 -0.0004 -0.4939  0.2649
  270TMC3    C8 4090   0.232   2.892  15.372 -0.0190 -1.0344 -0.1112
  270TMC3    O1 4091   0.761   2.687  15.518 -0.3962  0.4267 -0.4832
  270TMC3    O2 4092   0.158   2.986  15.385 -0.4894 -0.3234 -0.5796
  271MPD2     C 4093   4.488   2.703  13.597  0.3593 -0.2330 -1.1652
  271MPD2    C1 4094   4.391   2.700  13.695 -0.4161 -0.3623  0.4656
  271MPD2    C2 4095   4.262   2.756  13.674 -0.3506  0.2946  0.4209
  271MPD2    C3 4096   4.238   2.824  13.555 -0.2361 -0.3118  0.0763
  271MPD2    C4 4097   4.334   2.823  13.451  0.1427 -0.2083  0.2623
  271MPD2    C5 4098   4.456   2.768  13.475  0.2288 -0.3653  0.3239
  271MPD2     H 4099   4.187   2.744  13.751  0.3143  2.2354  1.3653
  271MPD2    H1 4100   4.305   2.868  13.357 -0.5476 -0.9829  0.1047
  271MPD2    H2 4101   4.589   2.666  13.608  0.2973 -0.4871 -1.4726
  271MPD2    H3 4102   4.537   2.765  13.403 -0.5050 -0.2619 -0.5088
  271MPD2     N 4103   4.121   2.894  13.543 -0.2506 -0.5473 -0.2573
  271MPD2    H5 4104   4.091   2.929  13.453  1.0267  1.2405  0.0151
  271MPD2    N1 4105   4.403   2.625  13.807  0.5973  0.5457 -0.0290
  271MPD2    H7 4106   4.344   2.641  13.888  1.1863 -2.0652  0.9481
  272TMC3    C1 4107   4.508   2.487  13.971 -0.3443 -0.4674 -1.0473
  272TMC3    C2 4108   4.612   2.399  13.983 -0.9196  0.4776  0.5750
  272TMC3    C3 4109   4.675   2.405  14.112  0.3614  0.1012 -0.4178
  272TMC3    C4 4110   4.470   2.571  14.070  0.1020  0.7984 -0.5220
  272TMC3    C5 4111   4.521   2.559  14.192 -0.0608 -0.8708  0.0748
  272TMC3    C6 4112   4.634   2.494  14.209 -0.0044 -0.8544  0.2657
  272TMC3     C 4113   4.495   2.523  13.824 -0.0498 -0.2122 -0.8076
  272TMC3     O 4114   4.577   2.477  13.741  0.0791  0.0996  0.0363
  272TMC3     H 4115   4.650   2.333  13.906  1.1287  1.2219  0.9471
  272TMC3    H1 4116   4.397   2.647  14.046  1.0694  1.6928 -0.6380
  272TMC3    H2 4117   4.676   2.482  14.308 -0.6876  2.2035  0.9009
  272TMC3    C7 4118   4.451   2.614  14.298  0.3171 -0.4983  0.1256
  272TMC3    C8 4119   0.093   2.368  14.109  0.0455  0.5149  0.4144
  272TMC3    O1 4120   4.337   2.636  14.275 -0.8361  0.7645  0.5235
  272TMC3    O2 4121   0.134   2.370  13.996 -0.0372 -0.0222 -0.1018
  273MPD2     C 4122   2.042   0.666  12.118  0.3621 -0.8310 -0.1338
  273MPD2    C1 4123   1.966   0.773  12.084  1.0771 -0.0545  0.0913
  273MPD2    C2 4124   1.904   0.774  11.960  0.1015 -0.2404  0.6776
  273MPD2    C3 4125   1.925   0.672  11.867 -0.0329  0.2993 -0.2637
  273MPD2    C4 4126   2.018   0.566  11.900  0.0359 -0.7140 -0.5817
  273MPD2    C5 4127   2.062   0.561  12.027  0.3777  0.3637  0.3167
  273MPD2     H 4128   1.835   0.853  11.932  2.2381  1.9752  1.7573
  273MPD2    H1 4129   2.024   0.484  11.829 -1.1161 -0.0479 -1.4512
  273MPD2    H2 4130   2.083   0.659  12.217 -0.5189  0.2817  0.3150
  273MPD2    H3 4131   2.116   0.473  12.058  0.5078  0.6000  0.7529
  273MPD2     N 4132   1.855   0.677  11.737  0.3770 -0.3755  0.2289
  273MPD2    H5 4133   1.878   0.602  11.673  2.0832  1.1691 -0.9474
  273MPD2    N1 4134   1.951   0.887  12.167 -0.2197 -0.7482 -0.2246
  273MPD2    H7 4135   1.986   0.885  12.263  2.8732 -0.7483 -1.3526
  274TMC3    C1 4136   1.727   0.764  11.549  0.7912  0.6207 -0.4418
  274TMC3    C2 4137   1.601   0.800  11.519 -0.5256  0.3925 -0.1389
  274TMC3    C3 4138   1.582   0.837  11.394  0.6083  0.0255  0.0995
  274TMC3    C4 4139   1.830   0.768  11.463 -0.3974 -0.6344  0.6156
  274TMC3    C5 4140   1.812   0.814  11.339 -0.7420  0.1532  0.1738
  274TMC3    C6 4141   1.683   0.837  11.301 -0.0323  0.6155  0.1074
  274TMC3     C 4142   1.757   0.764  11.693  0.3671  0.3928 -0.0854
  274TMC3     O 4143   1.690   0.839  11.761  0.6755  0.4206  0.0980
  274TMC3     H 4144   1.526   0.801  11.597 -0.1725  0.6169  0.1956
  274TMC3    H1 4145   1.933   0.756  11.496 -0.4743 -0.9256  0.7493
  274TMC3    H2 4146   1.667   0.897  11.212  1.0492  1.2762  0.3481
  274TMC3    C7 4147   1.907   0.920  11.295 -0.0232  0.4854  0.0535
  274TMC3    C8 4148   1.457   0.894  11.350  0.3726 -0.0227 -0.5306
  274TMC3    O1 4149   1.971   0.976  11.383  0.1398 -0.1899  0.3160
  274TMC3    O2 4150   1.437   0.883  11.230 -0.0373  0.0405 -0.6771
  275MPD2     C 4151   0.985   3.676  14.700  0.4185 -0.6033 -0.4928
  275MPD2    C1 4152   0.905   3.763  14.643 -0.1138  0.3750  0.2929
  275MPD2    C2 4153   0.800   3.721  14.564  0.8792  1.1367  0.3700
  275MPD2    C3 4154   0.782   3.590  14.534 -0.1808  0.4951 -0.0795
  275MPD2    C4 4155   0.860   3.497  14.601  0.2313  0.5308 -0.2761
  275MPD2    C5 4156   0.956   3.540  14.690  0.4180  0.1298 -0.1009
  275MPD2     H 4157   0.746   3.799  14.511 -3.4663 -0.7777  1.9405
  275MPD2    H1 4158   0.839   3.391  14.590  1.1593  0.5037 -1.7349
  275MPD2    H2 4159   1.061   3.702  14.773 -1.4609 -0.3838  1.3780
  275MPD2    H3 4160   1.013   3.470  14.750 -0.3729 -0.7659 -0.3987
  275MPD2     N 4161   0.694   3.536  14.447 -0.0308  0.2899 -0.5036
  275MPD2    H5 4162   0.688   3.435  14.451  1.8399  0.1668 -0.6781
  275MPD2    N1 4163   0.916   3.903  14.671  0.2497 -0.0607 -0.3102
  275MPD2    H7 4164   0.835   3.950  14.632 -0.9091 -1.5011  0.3438
  276TMC3    C1 4165   0.982   4.104  14.779 -0.1531 -0.0326 -0.4096
  276TMC3    C2 4166   0.862   4.126  14.833 -0.0631 -0.5906  0.9591
  276TMC3    C3 4167   0.854   4.224  14.926  0.2714  0.1404 -0.6470
  276TMC3    C4 4168   1.094   4.168  14.826  0.5438 -0.2986 -0.5261
  276TMC3    C5 4169   1.085   4.253  14.931  0.4788  0.2565 -0.4445
  276TMC3    C6 4170   0.964   4.277  14.987  0.3265  0.1540 -0.3854
  276TMC3     C 4171   1.016   3.967  14.733  0.4247  0.7749 -0.0413
  276TMC3     O 4172   1.129   3.927  14.750  0.7331 -0.0575 -0.5122
  276TMC3     H 4173   0.771   4.070  14.813 -0.7655  0.8914 -0.0131
  276TMC3    H1 4174   1.196   4.139  14.800  0.4724  0.1832 -1.3632
  276TMC3    H2 4175   0.956   4.344  15.072  2.0258 -1.2377  0.8737
  276TMC3    C7 4176   1.203   4.296  15.009  0.4721 -0.1502 -0.8178
  276TMC3    C8 4177   0.765   4.167  15.027 -0.0935 -0.1203  0.3898
  276TMC3    O1 4178   1.192   4.362  15.110 -0.5963  0.0145 -0.1502
  276TMC3    O2 4179   0.648   4.179  14.997  0.0158  0.2587 -0.7109
  277MPD2     C 4180   3.434   2.711  12.973 -0.3199  0.3354  0.3598
  277MPD2    C1 4181   3.299   2.750  12.976 -0.0719  0.0340 -0.4673
  277MPD2    C2 4182   3.222   2.710  13.081 -0.0875  0.1495  0.2201
  277MPD2    C3 4183   3.273   2.640  13.189 -0.9149  0.4565  0.6051
  277MPD2    C4 4184   3.406   2.597  13.183 -0.3168 -0.4485 -0.9995
  277MPD2    C5 4185   3.483   2.638  13.081 -0.2744 -0.1317 -0.8033
  277MPD2     H 4186   3.124   2.755  13.096  0.9126  2.0035  1.0979
  277MPD2    H1 4187   3.454   2.547  13.266 -0.7774  1.0471  0.1582
  277MPD2    H2 4188   3.495   2.730  12.885 -0.2536 -2.0403 -0.0949
  277MPD2    H3 4189   3.589   2.616  13.086 -0.1580  0.3834 -1.0046
  277MPD2     N 4190   3.185   2.628  13.296  0.0512 -0.5285  0.7556
  277MPD2    H5 4191   3.095   2.675  13.294  1.0920  1.2513 -3.1814
  277MPD2    N1 4192   3.241   2.821  12.865  0.0488 -0.2030  0.8515
  277MPD2    H7 4193   3.297   2.841  12.783 -1.0232 -0.3948  0.0790
  278TMC3    C1 4194   3.087   2.537  13.492 -0.1601  0.2724  0.6565
  278TMC3    C2 4195   3.084   2.428  13.577  0.0023 -0.2360 -0.6487
  278TMC3    C3 4196   2.965   2.419  13.648  0.5621  0.9065 -0.2419
  278TMC3    C4 4197   2.988   2.633  13.483 -0.2324 -0.2717  0.3879
  278TMC3    C5 4198   2.884   2.626  13.572  0.7588  0.2550  0.5518
  278TMC3    C6 4199   2.872   2.518  13.653  0.4205  0.1041 -0.3921
  278TMC3     C 4200   3.205   2.552  13.408  0.2966 -0.0555  0.3275
  278TMC3     O 4201   3.298   2.482  13.444  0.5042 -0.0026 -0.2370
  278TMC3     H 4202   3.162   2.352  13.579 -0.1020 -0.3338 -0.1195
  278TMC3    H1 4203   2.984   2.715  13.412  2.1734 -2.0294 -1.7740
  278TMC3    H2 4204   2.791   2.498  13.722  0.2631  3.6504  0.4333
  278TMC3    C7 4205   2.802   2.743  13.583 -0.6740 -0.0270 -0.0187
  278TMC3    C8 4206   2.928   2.288  13.690  0.1724  0.6698 -0.2511
  278TMC3    O1 4207   2.841   2.845  13.527 -0.2421 -0.4870  0.0686
  278TMC3    O2 4208   3.011   2.210  13.733  0.6964  0.2665 -0.4179
  279MPD2     C 4209   2.412   2.780   0.136 -0.0966  0.8821  0.1214
  279MPD2    C1 4210   2.354   2.899   0.113 -0.6359  0.7042 -0.5994
  279MPD2    C2 4211   2.389   2.983   0.008 -0.2564 -0.3688 -0.3743
  279MPD2    C3 4212   2.467   2.920  17.604  0.6781  0.0099 -0.8995
  279MPD2    C4 4213   2.538   2.804  17.636 -0.3008 -0.0186  0.2156
  279MPD2    C5 4214   2.511   2.733   0.056 -1.1079  0.0467 -0.0823
  279MPD2     H 4215   2.332   3.072  17.678  1.3978  0.0759 -2.6993
  279MPD2    H1 4216   2.621   2.764  17.579 -2.7059 -1.4910 -2.2264
  279MPD2    H2 4217   2.380   2.728   0.226 -0.6543  1.5336  0.3062
  279MPD2    H3 4218   2.560   2.639   0.081  0.6820  0.4269 -2.1691
  279MPD2     N 4219   2.494   2.979  17.479 -0.1738 -0.3121 -0.0353
  279MPD2    H5 4220   2.554   2.925  17.419 -0.4574  0.2442 -0.8103
  279MPD2    N1 4221   2.259   2.936   0.213  0.4759 -0.0926 -0.1922
  279MPD2    H7 4222   2.242   2.876   0.293  0.9797 -2.6813 -1.9987
  280TMC3    C1 4223   2.089   3.053   0.332 -0.1612  0.3101  0.7210
  280TMC3    C2 4224   2.058   2.932   0.392 -0.3073  0.1400  0.5683
  280TMC3    C3 4225   1.963   2.935   0.491  0.4183  0.2326  0.7037
  280TMC3    C4 4226   2.023   3.170   0.361  0.4379 -0.7608 -0.2655
  280TMC3    C5 4227   1.926   3.167   0.463 -0.1644 -0.5416  0.8447
  280TMC3    C6 4228   1.897   3.048   0.525 -0.2186  0.4768  0.1603
  280TMC3     C 4229   2.179   3.053   0.220  0.0021  0.6231 -0.7710
  280TMC3     O 4230   2.182   3.151   0.146  0.0188 -0.1544 -0.3703
  280TMC3     H 4231   2.087   2.840   0.344 -0.2898  1.4843 -1.9982
  280TMC3    H1 4232   2.053   3.262   0.312  0.7822 -1.0570 -0.6088
  280TMC3    H2 4233   1.819   3.038   0.599  1.1713 -1.0821  1.4174
  280TMC3    C7 4234   1.842   3.283   0.484 -0.0027 -0.1990  0.4182
  280TMC3    C8 4235   1.909   2.804   0.534  0.8985 -0.3823 -0.0539
  280TMC3    O1 4236   1.772   3.289   0.584 -0.3412  0.5191  0.3487
  280TMC3    O2 4237   1.790   2.807   0.567  0.7363  0.1789 -0.2304
  281TMC3    C1 4238   1.257   2.916  13.194 -0.6656  0.4001 -0.0758
  281TMC3    C2 4239   1.359   3.002  13.151 -0.1631  0.1586  0.0782
  281TMC3    C3 4240   1.441   2.965  13.048  0.4922 -0.0026  0.2008
  281TMC3    C4 4241   1.250   2.787  13.154 -0.5502 -0.1219  0.5425
  281TMC3    C5 4242   1.342   2.751  13.054  0.3506  0.2440 -0.0062
  281TMC3    C6 4243   1.426   2.839  13.004  0.7608  0.4513 -0.8710
  281TMC3     C 4244   1.150   2.962  13.284  0.0168 -0.2639  0.1730
  281TMC3     O 4245   1.072   2.875  13.324  0.0298 -0.3176  0.1545
  281TMC3     H 4246   1.371   3.094  13.207 -0.5840 -0.8781  1.8673
  281TMC3    H1 4247   1.186   2.717  13.206 -0.0601 -0.0301  1.2600
  281TMC3    H2 4248   1.468   2.813  12.907 -0.7931 -0.3971 -1.3204
  281TMC3    C7 4249   1.385   2.611  13.044  0.1337  0.6822  1.1001
  281TMC3    C8 4250   1.555   3.035  12.996  0.0839 -0.5437  0.5472
  281TMC3    O1 4251   1.498   2.598  13.009  0.0325  0.0900  0.1397
  281TMC3    O2 4252   1.632   2.959  12.942  0.3169 -0.4908 -0.2812
  282MPD2     C 4253   2.878   4.669  15.465  0.8857 -0.2267  0.6161
  282MPD2    C1 4254   2.752   0.000  15.477  0.0819 -0.5106  0.3073
  282MPD2    C2 4255   2.663   4.718  15.375 -0.6063 -0.2584 -0.8964
  282MPD2    C3 4256   2.703   4.671  15.251  0.0982 -0.8758  0.4797
  282MPD2    C4 4257   2.835   4.629  15.235 -0.1935 -0.7983 -0.3762
  282MPD2    C5 4258   2.925   4.625  15.341  0.3996  0.3332  0.0577
  282MPD2     H 4259   2.559   0.020  15.396 -0.3398  0.4502 -0.3919
  282MPD2    H1 4260   2.883   4.616  15.139  0.5953 -3.9088  0.4627
  282MPD2    H2 4261   2.952   4.686  15.543  1.5326  2.3992 -0.5734
  282MPD2    H3 4262   3.027   4.593  15.329 -0.2434 -0.9771 -1.9613
  282MPD2     N 4263   2.601   4.658  15.149  0.5658 -0.0351  0.1595
  282MPD2    H5 4264   2.505   4.690  15.163  0.7367  0.1664  0.8677
  282MPD2    N1 4265   2.701   0.047  15.602  0.1650  0.7187 -0.4401
  282MPD2    H7 4266   2.622   0.111  15.603  1.9061  2.8189  3.2651
  283TMC3    C1 4267   2.669   0.069  15.825  0.1045  0.1624  0.4917
  283TMC3    C2 4268   2.614   0.188  15.798 -0.2213 -0.2765  0.4500
  283TMC3    C3 4269   2.522   0.226  15.894  0.4554 -0.2216  0.0752
  283TMC3    C4 4270   2.630   4.707  15.927 -0.8954 -0.5206  0.1577
  283TMC3    C5 4271   2.526   0.022  16.013  0.4570  0.0200  0.0363
  283TMC3    C6 4272   2.473   0.150  15.998  0.1995  0.3525  1.2443
  283TMC3     C 4273   2.751   0.010  15.723  0.3450 -0.7227  0.0218
  283TMC3     O 4274   2.834   4.641  15.748  0.8350 -0.0534 -0.1728
  283TMC3     H 4275   2.657   0.256  15.725  0.4875 -0.3126  0.8350
  283TMC3    H1 4276   2.675   4.609  15.939  0.7832 -0.1043 -2.8272
  283TMC3    H2 4277   2.399   0.192  16.066  0.4859  1.1910  1.0386
  283TMC3    C7 4278   2.431   4.647  16.053 -0.1880  0.2884  0.6212
  283TMC3    C8 4279   2.449   0.355  15.880 -0.2373 -0.5093 -0.0965
  283TMC3    O1 4280   2.342   4.690  16.125 -1.0391 -0.9250 -0.0787
  283TMC3    O2 4281   2.333   0.360  15.916 -0.6547 -0.1410  0.1305
  284MPD2     C 4282   1.044   3.195  11.697  0.0796 -0.0974  0.5912
  284MPD2    C1 4283   1.146   3.108  11.683 -0.0908 -0.2594 -0.7667
  284MPD2    C2 4284   1.150   3.026  11.565  0.0179 -0.3846  0.4631
  284MPD2    C3 4285   1.050   3.033  11.471 -0.2399  0.4370 -0.0158
  284MPD2    C4 4286   0.949   3.119  11.502 -0.1479  0.2005  0.6025
  284MPD2    C5 4287   0.940   3.199  11.611  0.4293  0.7873 -0.7778
  284MPD2     H 4288   1.220   2.944  11.554 -2.2978 -2.1475 -1.1074
  284MPD2    H1 4289   0.870   3.134  11.430 -0.7410 -1.1599  0.9703
  284MPD2    H2 4290   1.046   3.260  11.784  0.5475  0.3551  0.2402
  284MPD2    H3 4291   0.861   3.273  11.613 -0.4571 -0.1917  0.0071
  284MPD2     N 4292   1.046   2.954  11.355 -0.1905 -0.1879 -0.0104
  284MPD2    H5 4293   0.952   2.927  11.326  0.3241 -2.4140  0.4184
  284MPD2    N1 4294   1.264   3.094  11.761  0.0176 -0.3401 -0.2238
  284MPD2    H7 4295   1.341   3.044  11.719  0.9730 -0.8633  2.1222
  285TMC3    C1 4296   1.418   3.103  11.930  0.2058 -0.1333 -0.6086
  285TMC3    C2 4297   1.507   3.040  11.840  0.1698  0.1751 -0.5364
  285TMC3    C3 4298   1.640   3.045  11.859 -0.4084  0.1485  0.8079
  285TMC3    C4 4299   1.470   3.177  12.033 -0.4601  0.4705 -0.5774
  285TMC3    C5 4300   1.607   3.199  12.039 -0.1473 -0.6553  0.5903
  285TMC3    C6 4301   1.693   3.124  11.958 -0.1470 -0.1521 -0.1067
  285TMC3     C 4302   1.287   3.138  11.888 -0.2397 -0.0434  0.3145
  285TMC3     O 4303   1.218   3.218  11.956 -0.5386  0.5953  0.4200
  285TMC3     H 4304   1.477   2.969  11.764 -0.9548  0.1249 -0.0409
  285TMC3    H1 4305   1.398   3.231  12.093 -0.1835  1.4624 -1.1475
  285TMC3    H2 4306   1.801   3.125  11.961 -0.1685 -1.5997  1.3334
  285TMC3    C7 4307   1.643   3.341  12.042  0.6160  0.0004  0.2979
  285TMC3    C8 4308   1.703   3.058  11.728 -0.7152  0.5323 -0.4058
  285TMC3    O1 4309   1.551   3.420  12.032  0.2695  0.3008 -0.6032
  285TMC3    O2 4310   1.701   2.964  11.648  0.1073  0.2234  0.0455
  286MPD2     C 4311   0.925   2.733   1.405 -0.2510 -0.0736 -0.7306
  286MPD2    C1 4312   0.933   2.672   1.278  0.3254  0.4765  0.5757
  286MPD2    C2 4313   1.039   2.589   1.249  0.1095 -0.3267 -0.1237
  286MPD2    C3 4314   1.137   2.563   1.343  0.9011 -0.1037 -0.7926
  286MPD2    C4 4315   1.136   2.632   1.464 -0.1377 -0.1851  0.6843
  286MPD2    C5 4316   1.031   2.723   1.490  0.0422  0.0350 -0.4470
  286MPD2     H 4317   1.036   2.538   1.153  0.7603  0.5495 -0.6058
  286MPD2    H1 4318   1.227   2.629   1.523  0.7391  1.6009 -0.5971
  286MPD2    H2 4319   0.850   2.809   1.421 -1.5182 -1.4641  0.0068
  286MPD2    H3 4320   1.035   2.789   1.576  0.5999  1.5380 -1.6419
  286MPD2     N 4321   1.254   2.477   1.323 -0.1318  0.1857  0.4081
  286MPD2    H5 4322   1.320   2.478   1.400 -0.5252 -0.2173  0.7511
  286MPD2    N1 4323   0.848   2.692   1.167 -0.1710 -0.3562  0.2770
  286MPD2    H7 4324   0.887   2.662   1.079 -2.2557 -1.1284 -0.3943
  287TMC3    C1 4325   1.404   2.340   1.208  0.3163  0.4175 -0.2790
  287TMC3    C2 4326   1.433   2.271   1.093 -0.7606  0.2007 -0.0712
  287TMC3    C3 4327   1.541   2.188   1.102 -0.4117 -0.5163  0.0567
  287TMC3    C4 4328   1.493   2.336   1.315  0.1731  0.4943 -0.7081
  287TMC3    C5 4329   1.600   2.251   1.316 -0.5665  0.3690 -0.3427
  287TMC3    C6 4330   1.618   2.166   1.213 -0.2205 -0.8814 -0.8436
  287TMC3     C 4331   1.273   2.401   1.209  0.5944 -0.0225  1.2419
  287TMC3     O 4332   1.205   2.387   1.106  0.7520  0.1255 -0.1136
  287TMC3     H 4333   1.373   2.264   1.003 -1.5607  0.0290  0.4770
  287TMC3    H1 4334   1.467   2.386   1.408  0.2351 -1.7418  0.5355
  287TMC3    H2 4335   1.683   2.079   1.207  1.3496  0.4108 -2.4036
  287TMC3    C7 4336   1.717   2.287   1.393  0.1235 -0.4305 -0.4934
  287TMC3    C8 4337   1.559   2.097   0.992  0.1995 -0.1820  0.1869
  287TMC3    O1 4338   1.703   2.387   1.462  0.6560 -0.1248 -1.2528
  287TMC3    O2 4339   1.457   2.058   0.942 -0.2519  0.0836 -0.6010
  288TMC3    C1 4340   3.507   2.302  14.533  0.2861 -0.1067 -0.8710
  288TMC3    C2 4341   3.375   2.344  14.538  0.9556 -0.5689 -0.1456
  288TMC3    C3 4342   3.321   2.384  14.416 -0.6614 -1.0086  0.2265
  288TMC3    C4 4343   3.573   2.289  14.414 -0.2660  0.8175  0.2559
  288TMC3    C5 4344   3.510   2.309  14.296  0.1533 -0.4313  0.1871
  288TMC3    C6 4345   3.378   2.357  14.295  0.4139  0.4290  0.4337
  288TMC3     C 4346   3.594   2.285  14.653  0.3871 -0.4646  0.6068
  288TMC3     O 4347   3.713   2.314  14.641 -0.4174 -0.2445  0.7227
  288TMC3     H 4348   3.336   2.375  14.634  0.5628  0.1780 -0.5467
  288TMC3    H1 4349   3.670   2.243  14.425 -1.5202 -1.8471  0.3679
  288TMC3    H2 4350   3.318   2.395  14.213  0.1106  0.1114  0.5063
  288TMC3    C7 4351   3.586   2.265  14.184 -0.9605 -0.8051 -0.1306
  288TMC3    C8 4352   3.206   2.470  14.432  0.0369  0.1445  0.1215
  288TMC3    O1 4353   3.708   2.258  14.190  0.0139 -0.4124 -0.0073
  288TMC3    O2 4354   3.186   2.545  14.341 -0.5978  0.4809 -0.3280
  289MPD2     C 4355   3.133   1.254  14.192  0.0006  0.4146 -0.4796
  289MPD2    C1 4356   3.106   1.390  14.177 -0.0461 -0.0268 -0.0012
  289MPD2    C2 4357   2.993   1.434  14.116  0.4073  0.2887 -0.5518
  289MPD2    C3 4358   2.905   1.344  14.063  0.6354 -0.3190  0.0889
  289MPD2    C4 4359   2.937   1.214  14.063  0.9170  0.2165 -0.2522
  289MPD2    C5 4360   3.047   1.168  14.125 -0.5665 -0.1739 -0.1924
  289MPD2     H 4361   2.968   1.539  14.105 -1.7984  0.0303  2.1789
  289MPD2    H1 4362   2.864   1.151  14.012 -2.1783  2.1832  1.7452
  289MPD2    H2 4363   3.214   1.214  14.251 -1.1316 -0.6614  0.3443
  289MPD2    H3 4364   3.063   1.061  14.121  0.0147 -0.2201  2.8437
  289MPD2     N 4365   2.779   1.382  13.998 -0.4538  0.2838 -0.1652
  289MPD2    H5 4366   2.720   1.309  13.961  0.4872 -2.0305  2.8886
  289MPD2    N1 4367   3.205   1.477  14.229 -0.4407  0.6366  0.3202
  289MPD2    H7 4368   3.277   1.436  14.287 -0.9443  0.0032  0.5007
  290TMC3    C1 4369   2.600   1.502  13.919  0.0891  0.0837 -0.1275
  290TMC3    C2 4370   2.561   1.615  13.855 -0.0746  0.2381 -0.2817
  290TMC3    C3 4371   2.433   1.612  13.799 -0.4321  0.1348 -0.8153
  290TMC3    C4 4372   2.514   1.393  13.922  0.5322 -0.3622  0.4884
  290TMC3    C5 4373   2.389   1.395  13.866  0.1378  0.0755  0.0086
  290TMC3    C6 4374   2.349   1.507  13.798 -0.4177  0.0188  0.3301
  290TMC3     C 4375   2.732   1.505  13.974 -0.3513  0.1483  0.5945
  290TMC3     O 4376   2.774   1.618  13.993 -0.1533  0.9412 -0.1651
  290TMC3     H 4377   2.626   1.702  13.852  0.1052  0.0996 -0.4364
  290TMC3    H1 4378   2.540   1.304  13.978  1.1118 -0.4861  0.0109
  290TMC3    H2 4379   2.248   1.515  13.760  0.2122  1.9941 -0.9320
  290TMC3    C7 4380   2.307   1.280  13.852  0.2561  0.4978 -0.1072
  290TMC3    C8 4381   2.377   1.727  13.733 -0.9680 -0.1939 -0.4978
  290TMC3    O1 4382   2.215   1.268  13.766 -0.4507  0.1148  0.0545
  290TMC3    O2 4383   2.310   1.703  13.630 -0.3145 -0.2864 -0.0338
  291MPD2     C 4384   2.057   1.570   0.513 -0.2383 -0.1043  0.3149
  291MPD2    C1 4385   2.047   1.449   0.443 -0.2087 -0.5625  0.3158
  291MPD2    C2 4386   2.115   1.426   0.324 -0.2820 -0.3134  0.5036
  291MPD2    C3 4387   2.184   1.528   0.262  0.4518 -0.3902  0.5538
  291MPD2    C4 4388   2.189   1.653   0.327  0.3483  0.5248  0.1697
  291MPD2    C5 4389   2.132   1.668   0.452  0.5402  0.3526 -0.3224
  291MPD2     H 4390   2.103   1.331   0.274 -0.7475  0.9731 -1.8321
  291MPD2    H1 4391   2.233   1.735   0.272 -0.3357  0.4634 -0.4607
  291MPD2    H2 4392   1.995   1.602   0.596 -1.5186 -1.4247 -0.1216
  291MPD2    H3 4393   2.133   1.762   0.507 -1.7804  0.2831 -0.1580
  291MPD2     N 4394   2.243   1.520   0.140  0.6387  0.4674 -0.6296
  291MPD2    H5 4395   2.288   1.597   0.091  0.9719  1.1759  0.7916
  291MPD2    N1 4396   1.959   1.350   0.484 -0.0687  0.8324 -0.9437
  291MPD2    H7 4397   1.964   1.270   0.422  1.3756 -0.5038  0.8464
  292TMC3    C1 4398   1.818   1.212   0.613  0.4943 -0.5998 -0.5366
  292TMC3    C2 4399   1.712   1.204   0.697 -0.7291  0.0429  0.0897
  292TMC3    C3 4400   1.639   1.091   0.690 -0.5731  0.6223 -0.1444
  292TMC3    C4 4401   1.855   1.111   0.526  0.3342  0.7122 -0.3569
  292TMC3    C5 4402   1.773   1.003   0.520  0.3653  0.5865  0.5238
  292TMC3    C6 4403   1.667   0.986   0.602  0.4082  0.1784 -0.7027
  292TMC3     C 4404   1.881   1.341   0.594  0.0254  0.2219  0.3208
  292TMC3     O 4405   1.844   1.426   0.677  0.1098  0.8224 -0.0716
  292TMC3     H 4406   1.702   1.282   0.771  1.1134  2.0410 -1.7592
  292TMC3    H1 4407   1.933   1.111   0.451  0.8510 -1.6903  0.1780
  292TMC3    H2 4408   1.617   0.890   0.604  1.8238 -0.6279 -4.9550
  292TMC3    C7 4409   1.787   0.912   0.412  0.1008 -0.0378 -0.7799
  292TMC3    C8 4410   1.528   1.088   0.785 -0.0585  1.1972 -0.3024
  292TMC3    O1 4411   1.901   0.890   0.369 -0.4252 -0.1584  1.7766
  292TMC3    O2 4412   1.538   1.165   0.882 -0.2393  0.1405 -0.0922
  293MPD2     C 4413   4.491   2.322  12.446 -0.0953 -0.1276 -0.4799
  293MPD2    C1 4414   4.381   2.284  12.521  1.0959 -0.0829  0.3064
  293MPD2    C2 4415   4.384   2.285  12.657  0.3818  0.2710  0.0714
  293MPD2    C3 4416   4.493   2.325  12.729  0.3836  0.0394  0.0807
  293MPD2    C4 4417   4.609   2.359  12.652  0.8089  0.0662 -0.2181
  293MPD2    C5 4418   4.599   2.362  12.515  0.1812 -0.3007 -0.3342
  293MPD2     H 4419   4.299   2.250  12.713 -0.4942  1.6672 -0.3951
  293MPD2    H1 4420   4.702   2.393  12.695  0.9151  0.0505 -0.4371
  293MPD2    H2 4421   4.491   2.336  12.338  0.8537 -1.2929 -0.6295
  293MPD2    H3 4422   4.696   2.391  12.476  1.2462 -1.0016  1.7655
  293MPD2     N 4423   4.487   2.328  12.873  0.9188 -0.0390 -0.7175
  293MPD2    H5 4424   4.399   2.326  12.924  1.5861 -2.5960  0.3251
  293MPD2    N1 4425   4.271   2.236  12.446 -0.8221  0.5524  0.0537
  293MPD2    H7 4426   4.277   2.227  12.345 -2.9673 -0.9172  0.0497
  294TMC3    C1 4427   4.068   2.139  12.412 -0.3027  0.4017 -0.0532
  294TMC3    C2 4428   3.980   2.039  12.453 -0.1181 -0.3698  0.5883
  294TMC3    C3 4429   3.880   2.000  12.365  0.1627  0.3444  0.2737
  294TMC3    C4 4430   4.057   2.196  12.282  0.5809  0.1119 -0.5338
  294TMC3    C5 4431   3.947   2.156  12.208 -0.6288  0.3097 -0.1746
  294TMC3    C6 4432   3.855   2.066  12.250 -0.3540  0.1109 -0.4826
  294TMC3     C 4433   4.150   2.196  12.505  0.2863 -0.9620  1.3410
  294TMC3     O 4434   4.113   2.189  12.621 -0.4015  0.0889  0.0476
  294TMC3     H 4435   4.000   1.993  12.549 -0.7969  0.7956  1.2855
  294TMC3    H1 4436   4.137   2.259  12.245  1.1571  0.1465  0.7364
  294TMC3    H2 4437   3.768   2.048  12.189  0.2194 -1.7730 -0.7315
  294TMC3    C7 4438   3.964   2.140  12.065  0.1070 -0.3032  0.2191
  294TMC3    C8 4439   3.869   1.852  12.355 -0.1744 -0.3272 -0.5180
  294TMC3    O1 4440   3.923   2.033  12.021 -0.5947  0.4686 -0.0842
  294TMC3    O2 4441   3.870   1.783  12.459 -0.7667  0.2038  0.0974
  295MPD2     C 4442   3.893   1.195  17.470 -0.5832 -0.3454 -0.0755
  295MPD2    C1 4443   3.966   1.256  17.572 -0.6526 -0.3785  0.1808
  295MPD2    C2 4444   3.904   1.281   0.001  0.1566  0.3826  0.1501
  295MPD2    C3 4445   3.772   1.256   0.028  0.5639  0.6438 -0.8674
  295MPD2    C4 4446   3.708   1.185  17.621  0.1758 -0.2479  0.2391
  295MPD2    C5 4447   3.763   1.154  17.497 -0.5799 -0.6267  0.6203
  295MPD2     H 4448   3.968   1.331   0.072  1.1169  2.1447 -1.9673
  295MPD2    H1 4449   3.603   1.159  17.636  0.6991 -1.6839  1.4057
  295MPD2    H2 4450   3.931   1.178  17.370 -0.1042 -0.3298  0.1025
  295MPD2    H3 4451   3.705   1.101  17.422 -0.0785  0.8332 -0.8020
  295MPD2     N 4452   3.709   1.302   0.149  0.0391  0.1010  0.4193
  295MPD2    H5 4453   3.610   1.280   0.153  0.4597 -1.7310  0.6842
  295MPD2    N1 4454   4.102   1.303  17.557 -0.3458  0.6188  0.6322
  295MPD2    H7 4455   4.155   1.342  17.635 -2.3667  2.6076  1.0206
  296TMC3    C1 4456   3.684   1.454   0.342  0.7400 -0.2494 -0.1219
  296TMC3    C2 4457   3.751   1.516   0.445 -0.0350 -0.1269  0.7744
  296TMC3    C3 4458   3.675   1.565   0.549 -0.2834 -0.1511 -0.2779
  296TMC3    C4 4459   3.545   1.438   0.341 -0.0275 -0.3967 -0.3701
  296TMC3    C5 4460   3.485   1.478   0.455 -0.3992  0.5135 -0.0803
  296TMC3    C6 4461   3.540   1.552   0.549 -0.4868 -0.1158 -0.6275
  296TMC3     C 4462   3.769   1.388   0.243 -0.1337  0.2473 -0.0710
  296TMC3     O 4463   3.886   1.406   0.270 -0.3798 -0.0689  0.6869
  296TMC3     H 4464   3.856   1.544   0.441 -0.8794  3.0374  0.6975
  296TMC3    H1 4465   3.490   1.398   0.256  1.3083  0.2969 -1.5565
  296TMC3    H2 4466   3.483   1.600   0.628  3.7009 -0.6103  2.7203
  296TMC3    C7 4467   3.347   1.425   0.473 -0.5066  0.3158 -0.3441
  296TMC3    C8 4468   3.746   1.634   0.657  0.1222 -0.0387 -0.6300
  296TMC3    O1 4469   3.289   1.377   0.374 -0.2383 -0.0805 -0.2249
  296TMC3    O2 4470   3.692   1.731   0.707  0.0050  0.3344  0.4991
  297MPD2     C 4471   1.671   3.444  16.228  0.6043  0.4423  0.1946
  297MPD2    C1 4472   1.664   3.565  16.163  0.1665  0.3701  0.0489
  297MPD2    C2 4473   1.774   3.652  16.186 -0.2447  0.0388 -0.1170
  297MPD2    C3 4474   1.874   3.616  16.274 -0.7031  0.2336 -0.5334
  297MPD2    C4 4475   1.880   3.488  16.332  0.4109  0.3097  0.2183
  297MPD2    C5 4476   1.773   3.407  16.318 -0.4412 -0.7777 -0.1695
  297MPD2     H 4477   1.778   3.749  16.138  2.1562  0.7871  1.5829
  297MPD2    H1 4478   1.969   3.451  16.382  0.3900  2.1779  1.6634
  297MPD2    H2 4479   1.590   3.373  16.219 -1.0863  2.6322 -2.1695
  297MPD2    H3 4480   1.767   3.315  16.374 -0.6412  0.1017  1.2536
  297MPD2     N 4481   1.976   3.710  16.289 -0.2417  0.6982  0.9932
  297MPD2    H5 4482   1.953   3.808  16.277  1.4743  0.8805 -0.9567
  297MPD2    N1 4483   1.562   3.605  16.071 -0.3849 -0.0797 -0.0923
  297MPD2    H7 4484   1.585   3.667  15.994  0.2984 -2.6562 -1.9262
  298TMC3    C1 4485   1.340   3.608  15.990 -0.1098  0.7939 -0.5162
  298TMC3    C2 4486   1.382   3.683  15.885  0.3332 -0.1338 -0.1571
  298TMC3    C3 4487   1.291   3.768  15.827 -0.6846  0.0146  0.3620
  298TMC3    C4 4488   1.211   3.618  16.042 -0.8797  0.5623  0.1580
  298TMC3    C5 4489   1.120   3.709  15.993  0.0885 -0.7981 -0.1169
  298TMC3    C6 4490   1.162   3.789  15.885 -0.1586 -0.1292 -0.2293
  298TMC3     C 4491   1.435   3.552  16.081  0.5481 -0.3240  0.0352
  298TMC3     O 4492   1.386   3.482  16.169 -0.0724 -0.0295  0.4109
  298TMC3     H 4493   1.482   3.672  15.846  0.5850  0.5593  0.2918
  298TMC3    H1 4494   1.182   3.568  16.133 -2.1642  1.2912  0.1477
  298TMC3    H2 4495   1.111   3.873  15.841 -0.7325  0.8276  2.2250
  298TMC3    C7 4496   0.999   3.736  16.064 -0.0260 -0.2046 -0.5645
  298TMC3    C8 4497   1.324   3.852  15.714  0.1472  0.1938  0.1388
  298TMC3    O1 4498   0.990   3.682  16.173  0.0857 -0.7424 -0.5465
  298TMC3    O2 4499   1.230   3.904  15.654 -0.1881  0.1099 -0.3159
  299MPD2     C 4500   2.284   3.155  10.393  0.3136 -0.2415  0.1722
  299MPD2    C1 4501   2.356   3.271  10.372  0.1262 -0.7610 -0.2855
  299MPD2    C2 4502   2.287   3.386  10.376 -0.4187  0.0418  0.1137
  299MPD2    C3 4503   2.152   3.401  10.403 -0.0097  0.2758  0.1568
  299MPD2    C4 4504   2.080   3.286  10.406  0.0716 -0.7130  0.0718
  299MPD2    C5 4505   2.150   3.166  10.389 -1.1067  0.2653  0.0203
  299MPD2     H 4506   2.343   3.479  10.366 -0.0840 -0.0831  0.8164
  299MPD2    H1 4507   1.972   3.280  10.415 -0.2131 -0.2823 -3.0098
  299MPD2    H2 4508   2.331   3.058  10.389  0.7033 -0.0593  0.2852
  299MPD2    H3 4509   2.096   3.072  10.380 -0.9188  0.1432  0.1523
  299MPD2     N 4510   2.080   3.524  10.400  0.1902  0.1290 -0.0706
  299MPD2    H5 4511   1.981   3.518  10.423  0.2569  0.3846  0.2873
  299MPD2    N1 4512   2.497   3.261  10.358  1.0797  0.3648  0.1992
  299MPD2    H7 4513   2.528   3.165  10.362 -1.6501 -0.5717 -1.1665
  300TMC3    C1 4514   2.037   3.765  10.386  0.8441  0.1402 -0.1274
  300TMC3    C2 4515   2.089   3.884  10.413 -0.0379 -0.4562  0.4048
  300TMC3    C3 4516   2.003   3.991  10.432 -0.1612  0.0215  0.3832
  300TMC3    C4 4517   1.901   3.752  10.362 -0.1258 -0.5956 -0.1887
  300TMC3    C5 4518   1.826   3.864  10.369 -0.4111  0.0944  0.0787
  300TMC3    C6 4519   1.868   3.983  10.407 -0.4187 -0.4912  0.1220
  300TMC3     C 4520   2.133   3.654  10.377 -0.3387 -0.4612 -0.4377
  300TMC3     O 4521   2.250   3.692  10.358  0.1379 -0.3349  0.4946
  300TMC3     H 4522   2.197   3.897  10.422  0.1175 -1.6070  0.1908
  300TMC3    H1 4523   1.870   3.652  10.335 -0.4815 -0.3522 -0.6731
  300TMC3    H2 4524   1.802   4.068  10.416  0.0001 -0.0453 -1.0314
  300TMC3    C7 4525   1.686   3.846  10.379 -0.1562 -0.3831 -0.3063
  300TMC3    C8 4526   2.040   4.108  10.518 -0.2861 -0.2932 -0.4953
  300TMC3    O1 4527   1.608   3.938  10.351  0.0211  0.2414 -0.0288
  300TMC3    O2 4528   1.964   4.207  10.517 -0.0152  0.0313  0.4632
  301MPD2     C 4529   3.894   4.666   1.907  0.1549 -0.5962 -0.2568
  301MPD2    C1 4530   3.853   4.602   1.788 -0.5973  0.4719 -0.0147
  301MPD2    C2 4531   3.915   4.484   1.746  0.0610 -0.3105 -0.0094
  301MPD2    C3 4532   4.020   4.438   1.823  0.3602  0.1890  0.1468
  301MPD2    C4 4533   4.050   4.490   1.943  0.5074  0.7591 -0.1055
  301MPD2    C5 4534   3.993   4.608   1.984  0.3058 -0.4308 -0.5548
  301MPD2     H 4535   3.866   4.423   1.671 -1.4972 -0.8827  1.4700
  301MPD2    H1 4536   4.126   4.444   2.005  2.2219 -0.6830 -3.2605
  301MPD2    H2 4537   3.852   0.032   1.952 -0.6654 -1.6683  1.0925
  301MPD2    H3 4538   4.022   4.650   2.079 -1.3234 -1.0848  0.2271
  301MPD2     N 4539   4.090   4.325   1.778 -1.0775  0.1924 -0.0095
  301MPD2    H5 4540   4.167   4.306   1.841 -0.4250 -0.0417 -0.8832
  301MPD2    N1 4541   3.750   4.655   1.704  0.0885 -0.4633 -0.4399
  301MPD2    H7 4542   3.738   4.602   1.618 -0.1661 -1.9040  0.4804
  302TMC3    C1 4543   4.174   4.153   1.656 -1.3669 -0.2912  0.3120
  302TMC3    C2 4544   4.215   4.085   1.766 -0.1116  0.0337 -0.0325
  302TMC3    C3 4545   4.300   3.979   1.756  0.3584 -0.3643  0.6289
  302TMC3    C4 4546   4.223   4.118   1.535  0.0689 -0.2200  0.4894
  302TMC3    C5 4547   4.299   4.005   1.523 -0.5240 -0.4295 -0.4584
  302TMC3    C6 4548   4.348   3.935   1.633  0.2777 -0.1621  0.7894
  302TMC3     C 4549   4.073   4.256   1.665 -0.1653  0.1977 -0.0725
  302TMC3     O 4550   4.012   4.277   1.563  0.3008  0.2973  0.3156
  302TMC3     H 4551   4.174   4.115   1.862 -0.2997  1.0840 -0.4499
  302TMC3    H1 4552   4.212   4.185   1.451 -2.0047  0.2335  1.1229
  302TMC3    H2 4553   4.406   3.845   1.618  1.8897  0.7417  1.5495
  302TMC3    C7 4554   4.340   3.959   1.390 -0.9024  0.4646  0.1801
  302TMC3    C8 4555   4.327   3.900   1.877  0.3231 -0.3622  0.2837
  302TMC3    O1 4556   4.427   3.872   1.393 -0.3690 -0.0488  0.5251
  302TMC3    O2 4557   4.356   3.788   1.865  0.5635 -0.0846  0.0055
  303MPD2     C 4558   0.042   2.924  10.349  1.1217 -0.1418  0.0403
  303MPD2    C1 4559   0.016   2.791  10.332  0.0276 -0.0442  0.1924
  303MPD2    C2 4560   0.009   2.739  10.202 -1.6086 -0.3047 -0.1661
  303MPD2    C3 4561   0.041   2.820  10.094 -0.3744 -0.5375  0.2460
  303MPD2    C4 4562   0.072   2.952  10.118 -0.0722  0.2795 -0.6494
  303MPD2    C5 4563   0.071   3.003  10.240 -0.3185 -0.3998  0.3859
  303MPD2     H 4564   4.708   2.634  10.187  0.0770 -0.9170  1.4926
  303MPD2    H1 4565   0.086   3.019  10.035  1.2761  0.4379 -0.2870
  303MPD2    H2 4566   0.047   2.961  10.451 -3.8175  0.4520  0.0563
  303MPD2    H3 4567   0.073   3.111  10.249  1.5499 -0.5341  1.3676
  303MPD2     N 4568   0.041   2.770   9.958  0.5422  0.6857 -0.2957
  303MPD2    H5 4569   0.067   2.835   9.885 -0.3587 -1.3563 -2.4509
  303MPD2    N1 4570   4.702   2.722  10.448  0.3514 -0.6005  0.1416
  303MPD2    H7 4571   4.689   2.777  10.532  1.0977 -2.4148  1.4535
  304TMC3    C1 4572   4.589   2.549  10.573  0.8527  0.0224 -0.1245
  304TMC3    C2 4573   4.497   2.639  10.614 -0.0740  0.1903  0.1645
  304TMC3    C3 4574   4.387   2.584  10.684  0.1192 -0.0521  0.2557
  304TMC3    C4 4575   4.579   2.415  10.598  1.0351 -0.7472  0.4425
  304TMC3    C5 4576   4.490   2.371  10.688  0.5501  0.6761 -0.2504
  304TMC3    C6 4577   4.389   2.455  10.731  0.2415  0.0376  0.1926
  304TMC3     C 4578   4.668   2.589  10.457  0.8680 -0.0839  0.4354
  304TMC3     O 4579   4.679   2.495  10.380 -0.0027 -0.2329  0.5343
  304TMC3     H 4580   4.492   2.734  10.563 -0.2362 -0.1486 -0.4577
  304TMC3    H1 4581   4.651   2.342  10.562  1.2853  0.0101 -0.6141
  304TMC3    H2 4582   4.304   2.412  10.783 -1.2620  0.7766 -1.6637
  304TMC3    C7 4583   4.444   2.241  10.658  0.4767 -0.0930 -0.2225
  304TMC3    C8 4584   4.260   2.602  10.615  1.1313 -0.2545 -0.1501
  304TMC3    O1 4585   4.530   2.153  10.642  0.4665 -0.0499 -0.4395
  304TMC3    O2 4586   4.198   2.497  10.601  0.3224 -0.2795 -0.3703
  305MPD2     C 4587   2.949   0.115  14.098 -0.0987  0.3894  1.0282
  305MPD2    C1 4588   2.908   4.705  14.100 -0.0342  0.4274  0.0048
  305MPD2    C2 4589   2.895   4.640  13.983  0.0090 -0.7702  0.5856
  305MPD2    C3 4590   2.937   4.691  13.861 -0.3766 -0.2568  0.0604
  305MPD2    C4 4591   2.981   0.103  13.860 -0.2161 -0.2044  0.8804
  305MPD2    C5 4592   2.977   0.175  13.983  0.1179  0.0149  0.0931
  305MPD2     H 4593   2.857   4.538  13.987  1.4029 -1.3035  0.2751
  305MPD2    H1 4594   3.005   0.160  13.772 -3.4416  0.0345  0.1385
  305MPD2    H2 4595   2.969   0.184  14.179  0.6628 -1.3926  2.3766
  305MPD2    H3 4596   3.011   0.277  13.968  2.7357 -1.1746 -2.0868
  305MPD2     N 4597   2.935   4.618  13.741 -0.8949  0.4232 -0.1650
  305MPD2    H5 4598   2.977   4.670  13.664  1.3008 -0.4679  0.4306
  305MPD2    N1 4599   2.879   4.653  14.230 -0.0334  0.1117  0.4056
  305MPD2    H7 4600   2.888   4.718  14.307  1.7032 -0.8129  0.9758
  306TMC3    C1 4601   2.814   4.513  14.399  0.0148  0.0944  0.0552
  306TMC3    C2 4602   2.869   4.407  14.464  0.4917 -0.0716 -0.0537
  306TMC3    C3 4603   2.874   4.411  14.608  0.3379  0.0366 -0.8064
  306TMC3    C4 4604   2.788   4.630  14.458 -0.0461  0.1692 -0.2216
  306TMC3    C5 4605   2.798   4.634  14.592 -0.1601  0.1446  0.0187
  306TMC3    C6 4606   2.828   4.528  14.669  0.0733 -0.4664 -0.1251
  306TMC3     C 4607   2.855   4.526  14.259 -0.0725 -0.8430 -0.6545
  306TMC3     O 4608   2.868   4.423  14.197 -0.3336  0.3472 -0.5910
  306TMC3     H 4609   2.908   4.323  14.408  2.7369 -0.6366  2.3417
  306TMC3    H1 4610   2.735   4.713  14.413  2.1949  0.5127 -2.2079
  306TMC3    H2 4611   2.818   4.536  14.776  1.9081 -1.0734  0.0881
  306TMC3    C7 4612   2.732   0.024  14.654  0.0080 -0.6483 -0.4499
  306TMC3    C8 4613   2.939   4.301  14.672 -0.0020 -0.0400  0.2335
  306TMC3    O1 4614   2.644   0.080  14.595 -0.3773 -0.5465  0.1396
  306TMC3    O2 4615   2.954   4.194  14.612  0.4507  0.2099  0.2221
  307MPD2     C 4616   0.663   1.636   0.274 -0.4778 -0.4631  0.0608
  307MPD2    C1 4617   0.682   1.760   0.333 -0.5410 -0.7613  0.6803
  307MPD2    C2 4618   0.592   1.799   0.430  0.1032 -0.8739  0.2828
  307MPD2    C3 4619   0.489   1.720   0.467 -0.2432 -0.3208 -0.2257
  307MPD2    C4 4620   0.484   1.590   0.426  0.3511 -0.9132 -0.8190
  307MPD2    C5 4621   0.566   1.551   0.319  0.2041  0.1878 -0.0509
  307MPD2     H 4622   0.600   1.897   0.474 -0.1090 -0.9484  0.4898
  307MPD2    H1 4623   0.413   1.518   0.465  0.3985  0.2438  1.4109
  307MPD2    H2 4624   0.733   1.592   0.204  0.4725  1.0312  0.0638
  307MPD2    H3 4625   0.564   1.449   0.284  0.3630  0.4024 -0.6994
  307MPD2     N 4626   0.413   1.770   0.572 -0.2729  0.6725 -0.2792
  307MPD2    H5 4627   0.437   1.861   0.610 -0.2369  1.2950 -1.8046
  307MPD2    N1 4628   0.781   1.853   0.297 -0.1397 -0.1488 -0.8712
  307MPD2    H7 4629   0.780   1.946   0.338  1.4608 -1.0859  1.2664
  308TMC3    C1 4630   0.057   1.941   0.769  0.6579  0.9674 -0.0085
  308TMC3    C2 4631   0.134   2.032   0.841  0.3304 -0.2715  0.0812
  308TMC3    C3 4632   0.269   2.001   0.857  0.2991  0.4040  0.1487
  308TMC3    C4 4633   0.107   1.826   0.714 -0.1235  0.3072 -0.6947
  308TMC3    C5 4634   0.243   1.805   0.725 -0.1109 -0.0335 -0.0828
  308TMC3    C6 4635   0.324   1.886   0.803  0.4227 -0.1539  0.6177
  308TMC3     C 4636   4.639   1.970   0.729 -0.2735 -0.1368  0.1638
  308TMC3     O 4637   4.562   1.882   0.699 -0.0616  0.3699  0.6077
  308TMC3     H 4638   0.092   2.117   0.893 -3.9458 -2.2049 -0.2013
  308TMC3    H1 4639   0.053   1.755   0.651  1.2645 -0.7307 -0.7154
  308TMC3    H2 4640   0.430   1.864   0.800  0.1394 -1.8480  2.4739
  308TMC3    C7 4641   0.302   1.710   0.622 -0.5117  0.0909  0.2833
  308TMC3    C8 4642   0.365   2.090   0.917  0.2390  0.5374 -0.0321
  308TMC3    O1 4643   0.227   1.624   0.575 -0.5210 -0.0647 -0.3637
  308TMC3    O2 4644   0.470   2.042   0.951 -0.1420  0.0579 -1.0684
  309MPD2     C 4645   4.398   3.554  17.123 -0.3461 -0.4284 -0.0632
  309MPD2    C1 4646   4.299   3.531  17.029 -0.2091  0.4585  0.3033
  309MPD2    C2 4647   4.170   3.511  17.070 -0.4658 -0.0283  0.3778
  309MPD2    C3 4648   4.138   3.529  17.205  0.2147 -0.1970  0.6054
  309MPD2    C4 4649   4.229   3.576  17.294  0.3034 -0.1500  0.6066
  309MPD2    C5 4650   4.357   3.576  17.255 -0.5655  0.8602  0.3668
  309MPD2     H 4651   4.095   3.473  17.001 -0.0629 -0.1833  0.0212
  309MPD2    H1 4652   4.197   3.598  17.395  2.2437 -2.6748  1.7897
  309MPD2    H2 4653   4.502   3.558  17.093 -0.6137  0.5235 -0.8620
  309MPD2    H3 4654   4.430   3.602  17.330 -2.3235  0.5841  2.1671
  309MPD2     N 4655   4.009   3.492  17.244 -0.5875 -0.7685  0.6094
  309MPD2    H5 4656   3.939   3.472  17.174 -1.2098 -2.7618  1.7990
  309MPD2    N1 4657   4.324   3.509  16.891 -0.1807  0.1431 -0.0005
  309MPD2    H7 4658   4.250   3.486  16.825 -0.2316  0.1067  0.0695
  310TMC3    C1 4659   4.452   3.465  16.696  0.6052  0.6113  0.0454
  310TMC3    C2 4660   4.438   3.573  16.622  0.0178  0.0302  0.2008
  310TMC3    C3 4661   4.497   3.586  16.502  0.1119 -0.0818  0.2087
  310TMC3    C4 4662   4.554   3.376  16.657  0.2376 -0.1521  0.1223
  310TMC3    C5 4663   4.610   3.388  16.533 -0.2893  0.2012  0.5123
  310TMC3    C6 4664   4.578   3.494  16.451  0.2713 -0.1658  0.1732
  310TMC3     C 4665   4.444   3.493  16.838 -0.3586  0.1733  0.1874
  310TMC3     O 4666   4.555   3.504  16.897  0.1658 -0.0139 -0.2033
  310TMC3     H 4667   4.369   3.652  16.651  0.1983  0.9240 -1.7666
  310TMC3    H1 4668   4.571   3.295  16.727  0.3402 -0.4421 -0.2372
  310TMC3    H2 4669   4.608   3.496  16.347  1.4642  1.8770  0.5560
  310TMC3    C7 4670   4.704   3.284  16.492 -0.1305  0.2742 -0.3852
  310TMC3    C8 4671   4.449   3.690  16.414  0.2342 -0.2786  0.4617
  310TMC3    O1 4672   4.703   3.186  16.566  0.1745 -0.2728 -0.2925
  310TMC3    O2 4673   4.332   3.729  16.422  0.0958  0.4402 -0.1454
  311MPD2     C 4674   2.062   4.160  12.679 -0.2046 -0.6769 -0.6419
  311MPD2    C1 4675   2.047   4.297  12.706  0.6385 -0.2956  0.4701
  311MPD2    C2 4676   1.922   4.343  12.748  0.0602  0.6472  0.3097
  311MPD2    C3 4677   1.823   4.243  12.773 -0.7334 -0.3521 -0.3675
  311MPD2    C4 4678   1.847   4.108  12.755  0.5767  0.0402  0.2489
  311MPD2    C5 4679   1.966   4.068  12.705 -0.4062 -0.0245 -0.0873
  311MPD2     H 4680   1.904   4.448  12.768  0.5276  1.0208 -1.2026
  311MPD2    H1 4681   1.780   4.024  12.770 -0.6513  0.9585 -0.1004
  311MPD2    H2 4682   2.152   4.119  12.634 -0.2277  1.1562 -2.3550
  311MPD2    H3 4683   1.980   3.964  12.678 -1.1556  0.2542 -1.5810
  311MPD2     N 4684   1.703   4.285  12.830  0.3008 -0.0418  0.1858
  311MPD2    H5 4685   1.686   4.380  12.861 -2.3372 -0.4801  0.0445
  311MPD2    N1 4686   2.149   4.393  12.681 -0.1192 -0.6844  0.6424
  311MPD2    H7 4687   2.110   4.487  12.683  2.1365  0.2386  0.9420
  312TMC3    C1 4688   1.482   4.261  12.922 -0.7597  0.5159  0.1582
  312TMC3    C2 4689   1.356   4.230  12.885 -0.9452 -0.0534  0.6311
  312TMC3    C3 4690   1.254   4.302  12.935  0.7370  0.1273  0.4593
  312TMC3    C4 4691   1.506   4.345  13.029 -0.6611 -0.3558 -0.2405
  312TMC3    C5 4692   1.392   4.407  13.087 -0.2260  0.1275 -0.1124
  312TMC3    C6 4693   1.264   4.378  13.042  0.4185  0.4304  0.1708
  312TMC3     C 4694   1.590   4.204  12.846 -0.6445  0.2639  0.5418
  312TMC3     O 4695   1.572   4.095  12.793 -0.1240  0.4106 -0.1569
  312TMC3     H 4696   1.346   4.140  12.825 -0.4648 -1.6344  2.9197
  312TMC3    H1 4697   1.606   4.362  13.065  0.4773 -1.8941 -2.6956
  312TMC3    H2 4698   1.188   4.452  13.063 -0.3314 -1.0119  2.5255
  312TMC3    C7 4699   1.397   4.496  13.197  0.0830 -0.3631  0.9260
  312TMC3    C8 4700   1.132   4.249  12.892 -0.5693 -0.0822 -0.4232
  312TMC3    O1 4701   1.350   4.609  13.178  0.5073 -0.0602  0.1268
  312TMC3    O2 4702   1.117   4.217  12.776  0.1231  0.1253 -0.5044
  313MPD2     C 4703   1.416   3.500  11.305 -0.1364 -0.6536 -0.6213
  313MPD2    C1 4704   1.341   3.584  11.232 -0.1765  0.5686  0.8485
  313MPD2    C2 4705   1.226   3.538  11.170  0.1836 -0.6529 -0.7296
  313MPD2    C3 4706   1.189   3.401  11.186  0.5360  0.1414 -0.4064
  313MPD2    C4 4707   1.275   3.312  11.245  0.1253  0.7310 -0.2683
  313MPD2    C5 4708   1.387   3.362  11.302 -0.2299 -0.3103  0.5585
  313MPD2     H 4709   1.157   3.598  11.111 -1.8551 -0.5190  1.8083
  313MPD2    H1 4710   1.247   3.207  11.251 -4.0310  1.6736 -2.8182
  313MPD2    H2 4711   1.508   3.532  11.351 -0.9034 -0.0121  0.4799
  313MPD2    H3 4712   1.460   3.295  11.348  1.1746 -0.4071 -1.8154
  313MPD2     N 4713   1.058   3.369  11.136 -0.0253  0.2475  0.1292
  313MPD2    H5 4714   0.999   3.450  11.123 -1.2651 -0.6739  0.0698
  313MPD2    N1 4715   1.376   3.715  11.206  0.1350  0.7853  0.2658
  313MPD2    H7 4716   1.305   3.772  11.161  0.9203 -0.5362 -2.6726
  314TMC3    C1 4717   1.489   3.922  11.196  0.2418  0.1550  0.0302
  314TMC3    C2 4718   1.611   3.975  11.207 -0.3899 -0.1069 -0.8230
  314TMC3    C3 4719   1.640   4.068  11.107  0.5179  0.5576 -0.8217
  314TMC3    C4 4720   1.401   3.949  11.098 -0.5364 -0.2422 -0.9086
  314TMC3    C5 4721   1.441   4.038  10.993 -0.6203 -0.8113 -0.1146
  314TMC3    C6 4722   1.561   4.104  10.999  0.2593 -0.2129 -0.0344
  314TMC3     C 4723   1.492   3.780  11.248  0.0115 -0.1387 -0.2234
  314TMC3     O 4724   1.591   3.743  11.313  0.0612  0.3003 -0.1516
  314TMC3     H 4725   1.688   3.950  11.280  0.7361  2.1412 -1.2368
  314TMC3    H1 4726   1.312   3.890  11.082 -0.6241 -0.3023 -0.2002
  314TMC3    H2 4727   1.591   4.180  10.928  1.3941 -0.6428 -0.0202
  314TMC3    C7 4728   1.342   4.074  10.897  0.3606 -0.5548  0.1600
  314TMC3    C8 4729   1.754   4.157  11.125  0.4539 -0.2008  0.2288
  314TMC3    O1 4730   1.224   4.043  10.932  0.4556 -0.2693  0.6036
  314TMC3    O2 4731   1.752   4.251  11.047  0.6510  0.1958 -0.2272
  315MPD2     C 4732   1.053   3.003   0.008  0.3230 -0.5451 -0.5360
  315MPD2    C1 4733   1.179   3.031   0.045  1.1257  0.3088 -0.6953
  315MPD2    C2 4734   1.248   3.134  17.681 -0.2476  0.0975 -0.8479
  315MPD2    C3 4735   1.187   3.214  17.590 -0.0306  0.4336 -0.6607
  315MPD2    C4 4736   1.054   3.187  17.552 -0.1302  0.4244 -0.3542
  315MPD2    C5 4737   0.989   3.077  17.607  0.0441  0.4353 -0.1520
  315MPD2     H 4738   1.346   3.156   0.029 -0.6932 -1.1066  0.8659
  315MPD2    H1 4739   0.996   3.239  17.476 -1.2794  0.0946  0.3097
  315MPD2    H2 4740   1.000   2.923   0.058  0.6753 -0.1756  0.4457
  315MPD2    H3 4741   0.886   3.059  17.582  0.4192 -2.6956  0.6356
  315MPD2     N 4742   1.254   3.328  17.543  0.4113 -0.4286 -0.1060
  315MPD2    H5 4743   1.350   3.322  17.574 -0.0988  0.4223  1.6804
  315MPD2    N1 4744   1.255   2.958   0.141 -0.4974  0.1169 -0.1342
  315MPD2    H7 4745   1.355   2.977   0.138 -0.3788 -0.4526  0.3936
  316TMC3    C1 4746   1.320   3.532  17.452  0.3268 -0.8761 -0.9790
  316TMC3    C2 4747   1.371   3.569  17.571 -0.6283 -0.4724  0.3269
  316TMC3    C3 4748   1.420   3.697  17.579 -0.0730  0.2205 -0.3563
  316TMC3    C4 4749   1.297   3.624  17.351 -0.0933  0.0758  0.9094
  316TMC3    C5 4750   1.353   3.749  17.367 -0.0778 -0.3044  0.0364
  316TMC3    C6 4751   1.411   3.794  17.486  0.1267 -0.1206  0.4051
  316TMC3     C 4752   1.222   3.428  17.455 -0.0389  0.4963 -0.0855
  316TMC3     O 4753   1.107   3.453  17.424  0.5752 -0.9618 -0.3852
  316TMC3     H 4754   1.364   3.518  17.667 -1.0162  1.4328  1.3074
  316TMC3    H1 4755   1.258   3.591  17.256  2.4307 -1.6016  0.4450
  316TMC3    H2 4756   1.464   3.887  17.500 -0.3708  0.1438  0.5162
  316TMC3    C7 4757   1.321   3.861  17.285  0.7471  0.3775 -0.0499
  316TMC3    C8 4758   1.483   3.732   0.015  0.0029  0.1227  0.2863
  316TMC3    O1 4759   1.377   3.962  17.314 -0.2200  0.3306  0.2754
  316TMC3    O2 4760   1.445   3.834   0.064 -0.4376 -0.2726  0.1935
  317MPD2     C 4761   3.325   1.698  13.022  0.3186  0.0226  1.0556
  317MPD2    C1 4762   3.375   1.583  12.967 -0.2026 -0.1934  0.2380
  317MPD2    C2 4763   3.410   1.481  13.052 -0.6938 -0.2008  0.3240
  317MPD2    C3 4764   3.402   1.498  13.192  0.5230 -0.2972  0.4653
  317MPD2    C4 4765   3.353   1.616  13.249 -0.3691  0.2998 -0.3095
  317MPD2    C5 4766   3.322   1.713  13.159  0.4618  0.0951  0.0512
  317MPD2     H 4767   3.439   1.384  13.015 -1.2787  0.2834 -1.4102
  317MPD2    H1 4768   3.345   1.648  13.352  2.1658  1.1320 -0.3693
  317MPD2    H2 4769   3.305   1.789  12.966  0.3176  0.3156  1.5329
  317MPD2    H3 4770   3.282   1.805  13.202 -0.1638  0.2262 -0.8268
  317MPD2     N 4771   3.419   1.381  13.279  0.1302 -0.6333  0.1163
  317MPD2    H5 4772   3.443   1.292  13.235  1.3446 -0.5949  0.7068
  317MPD2    N1 4773   3.389   1.566  12.824  0.0063 -0.5785  0.6737
  317MPD2    H7 4774   3.443   1.486  12.792 -0.1350 -0.4240  0.0383
  318TMC3    C1 4775   3.425   1.244  13.472 -0.0057  0.5623 -0.2029
  318TMC3    C2 4776   3.342   1.153  13.404  0.8763  0.4179 -0.9962
  318TMC3    C3 4777   3.340   1.032  13.464 -0.8399 -0.4586 -0.1008
  318TMC3    C4 4778   3.498   1.217  13.590 -0.1806 -0.1237 -0.0734
  318TMC3    C5 4779   3.480   1.091  13.634  1.1706  0.4859  0.5695
  318TMC3    C6 4780   3.396   1.002  13.580  0.0112  0.1875  0.2527
  318TMC3     C 4781   3.426   1.380  13.418  0.1854 -0.0325  0.7096
  318TMC3     O 4782   3.426   1.469  13.505 -0.5434 -0.3679 -0.3250
  318TMC3     H 4783   3.297   1.165  13.306  1.3809 -0.3692 -1.3277
  318TMC3    H1 4784   3.578   1.282  13.623  0.1505 -0.5176 -0.0979
  318TMC3    H2 4785   3.374   0.909  13.631  0.2526  0.0944  0.1857
  318TMC3    C7 4786   3.583   1.026  13.710 -0.2217 -0.1499  0.3553
  318TMC3    C8 4787   3.302   0.921  13.383 -0.5468 -0.2725  0.3706
  318TMC3    O1 4788   3.592   0.905  13.710 -0.1404  0.2837 -0.0595
  318TMC3    O2 4789   3.341   0.815  13.427  0.5752 -0.6643 -0.4588
  319MPD2     C 4790   3.925   2.899  16.286 -0.4571  0.0617 -0.3668
  319MPD2    C1 4791   3.789   2.888  16.310 -0.3556  0.2159  0.5185
  319MPD2    C2 4792   3.707   2.833  16.212  0.2077 -0.0967 -0.1867
  319MPD2    C3 4793   3.766   2.800  16.090  0.0178  0.5449 -0.5858
  319MPD2    C4 4794   3.905   2.813  16.066 -0.5311 -0.1071 -0.2718
  319MPD2    C5 4795   3.984   2.857  16.167 -0.1626  0.4066 -0.2983
  319MPD2     H 4796   3.603   2.808  16.234 -0.0449  0.4149 -0.8154
  319MPD2    H1 4797   3.945   2.782  15.971 -0.3002  1.0684 -0.5639
  319MPD2    H2 4798   3.990   2.922  16.370  0.1968 -0.1043 -0.8299
  319MPD2    H3 4799   4.089   2.880  16.150 -0.3233  2.3857  1.3702
  319MPD2     N 4800   3.692   2.720  15.993  0.3586  0.1536 -0.2812
  319MPD2    H5 4801   3.730   2.715  15.899 -0.7488 -1.8097 -0.6197
  319MPD2    N1 4802   3.739   2.905  16.441 -0.0303 -0.3392 -0.0781
  319MPD2    H7 4803   3.645   2.878  16.466  0.0691 -0.2953  0.3403
  320TMC3    C1 4804   3.514   2.603  15.904 -0.2134 -0.0367 -0.7924
  320TMC3    C2 4805   3.507   2.682  15.792  0.3158  0.9777  0.5653
  320TMC3    C3 4806   3.413   2.648  15.694  0.1962 -0.9261 -0.6280
  320TMC3    C4 4807   3.437   2.492  15.923 -0.7114  0.0953 -0.6135
  320TMC3    C5 4808   3.341   2.457  15.832  0.4503 -0.6035 -0.5320
  320TMC3    C6 4809   3.336   2.540  15.726  0.1139 -0.1380 -0.0575
  320TMC3     C 4810   3.578   2.652  16.019  1.0587  0.3079 -0.3905
  320TMC3     O 4811   3.518   2.636  16.125 -0.0651  0.1254  0.1032
  320TMC3     H 4812   3.540   2.785  15.803  1.4636  0.8504 -1.6601
  320TMC3    H1 4813   3.462   2.431  16.009  0.4753  1.5438  0.0642
  320TMC3    H2 4814   3.256   2.505  15.661  0.4238 -0.2204 -0.3926
  320TMC3    C7 4815   3.259   2.340  15.858 -0.8847 -0.0421  0.3910
  320TMC3    C8 4816   3.360   2.765  15.632 -0.6821  0.2210 -0.1943
  320TMC3    O1 4817   3.211   2.286  15.759 -0.3036 -0.2468  0.3901
  320TMC3    O2 4818   3.433   2.860  15.608 -0.2640 -0.1191 -0.0167
  321TMC3    C1 4819   3.720   2.965  16.660 -0.6940  0.0069 -0.2281
  321TMC3    C2 4820   3.657   2.850  16.697 -0.8671  0.3023 -0.8836
  321TMC3    C3 4821   3.590   2.854  16.817 -0.4493  0.3259 -0.1363
  321TMC3    C4 4822   3.736   3.075  16.735  0.2019  0.2089  0.3856
  321TMC3    C5 4823   3.670   3.076  16.854  0.0724 -0.2320 -0.2209
  321TMC3    C6 4824   3.600   2.963  16.897  0.0209  0.2622 -0.4011
  321TMC3     C 4825   3.796   2.974  16.537 -0.4949 -0.7858 -0.2421
  321TMC3     O 4826   3.900   3.038  16.531 -0.3434 -0.0601  0.2648
  321TMC3     H 4827   3.666   2.762  16.634 -1.8845  0.6324 -1.4838
  321TMC3    H1 4828   3.785   3.167  16.707 -2.0326  0.9837 -0.9798
  321TMC3    H2 4829   3.548   2.967  16.992 -0.3984 -1.4957 -0.5568
  321TMC3    C7 4830   3.754   3.138  16.951  0.0580  0.0804 -0.1333
  321TMC3    C8 4831   3.626   2.741  16.905 -0.9148  0.5785  0.2802
  321TMC3    O1 4832   3.849   3.204  16.911  0.2601 -0.1583 -0.2013
  321TMC3    O2 4833   3.685   2.771  17.006  0.3744 -0.2834 -0.0054
  322MPD2     C 4834   2.538   3.962  13.941 -0.4416  0.1806 -0.2534
  322MPD2    C1 4835   2.612   3.892  14.034  0.5329  0.4315  0.7379
  322MPD2    C2 4836   2.634   3.758  14.001 -0.0123  0.6658 -0.1018
  322MPD2    C3 4837   2.574   3.696  13.892 -0.1275 -0.2514 -0.0757
  322MPD2    C4 4838   2.495   3.773  13.805 -0.2841  0.4504 -0.3593
  322MPD2    C5 4839   2.483   3.909  13.827  0.5682 -0.7380  0.5137
  322MPD2     H 4840   2.705   3.694  14.052 -2.1593 -0.9578  0.8659
  322MPD2    H1 4841   2.440   3.726  13.724 -0.3852 -3.1400  1.7666
  322MPD2    H2 4842   2.521   4.067  13.959 -1.0172 -0.2567  1.7345
  322MPD2    H3 4843   2.422   3.964  13.757  0.5034 -0.4565  0.7934
  322MPD2     N 4844   2.609   3.558  13.865 -0.4702  0.1158  0.4869
  322MPD2    H5 4845   2.661   3.513  13.940 -0.1332 -1.5920 -0.7874
  322MPD2    N1 4846   2.677   3.971  14.132  0.0409  0.3494  0.2144
  322MPD2    H7 4847   2.690   4.071  14.123  1.6807  0.2282  1.4143
  323TMC3    C1 4848   2.850   3.990  14.292 -0.1317 -0.0235  0.2734
  323TMC3    C2 4849   2.916   4.066  14.207 -0.3037  0.2769 -0.6297
  323TMC3    C3 4850   3.047   4.101  14.250  0.0508 -0.5960  0.2765
  323TMC3    C4 4851   2.905   3.935  14.405  0.1352 -0.6436 -0.7428
  323TMC3    C5 4852   3.029   3.977  14.445 -0.1169  0.6168 -0.5966
  323TMC3    C6 4853   3.101   4.060  14.369  0.1625 -0.2508 -0.1664
  323TMC3     C 4854   2.732   3.916  14.245  0.5394  1.1074  0.7075
  323TMC3     O 4855   2.709   3.804  14.295  0.6344  0.3879 -0.2090
  323TMC3     H 4856   2.877   4.090  14.109  0.6721  1.6004 -0.6893
  323TMC3    H1 4857   2.849   3.859  14.457  0.7412 -1.2103 -0.9110
  323TMC3    H2 4858   3.201   4.085  14.404  0.5533 -1.0354 -0.7171
  323TMC3    C7 4859   3.097   3.888  14.530 -0.4670 -0.1310 -0.2382
  323TMC3    C8 4860   3.125   4.196  14.169 -0.2389 -0.3278 -0.7160
  323TMC3    O1 4861   3.220   3.878  14.524  0.1306 -0.0892 -0.2451
  323TMC3    O2 4862   3.227   4.241  14.223  0.3900  0.3986 -0.6481
  324MPD2     C 4863   4.487   4.631  14.553  0.3248  0.1521  0.3231
  324MPD2    C1 4864   4.461   0.040  14.555 -0.1877 -1.0363 -0.0175
  324MPD2    C2 4865   4.341   0.084  14.496 -0.4754  0.0454 -0.4012
  324MPD2    C3 4866   4.252   4.714  14.441 -0.0701 -0.3771  0.0876
  324MPD2    C4 4867   4.278   4.578  14.448 -1.3882  0.6538  0.2595
  324MPD2    C5 4868   4.392   4.538  14.509  0.4348  0.6634 -0.2297
  324MPD2     H 4869   4.322   0.190  14.497 -2.2524 -0.2813  1.2004
  324MPD2    H1 4870   4.199   4.506  14.431 -0.8398  0.4020 -1.2330
  324MPD2    H2 4871   4.565   4.598  14.621  2.4552 -1.0413 -2.7393
  324MPD2    H3 4872   4.419   4.434  14.524  1.3790  0.8576 -0.5736
  324MPD2     N 4873   4.128   0.027  14.385 -0.9704 -0.5486  0.3810
  324MPD2    H5 4874   4.075   4.670  14.352 -1.3835 -0.4629  0.8316
  324MPD2    N1 4875   4.554   0.135  14.610 -0.0549  0.6388 -0.3930
  324MPD2    H7 4876   4.506   0.223  14.628  0.1813  1.0781 -1.8932
  325TMC3    C1 4877   3.957   0.189  14.332 -0.4783  0.3926  0.1205
  325TMC3    C2 4878   3.881   0.093  14.267 -0.5373 -0.4832  0.6606
  325TMC3    C3 4879   3.764   0.136  14.213 -0.3407  0.7096 -0.2395
  325TMC3    C4 4880   3.913   0.318  14.357 -0.0580 -0.6195 -0.3157
  325TMC3    C5 4881   3.782   0.339  14.321 -0.7348 -0.5580  0.6147
  325TMC3    C6 4882   3.703   0.255  14.242  0.3230 -0.3495 -0.0284
  325TMC3     C 4883   4.086   0.160  14.373 -0.0074  0.5001  0.4409
  325TMC3     O 4884   4.151   0.265  14.381 -0.1902  0.3301 -0.8117
  325TMC3     H 4885   3.920   4.716  14.248  1.4960  0.1857  1.3187
  325TMC3    H1 4886   3.972   0.394  14.406 -0.1413  0.9992 -2.7447
  325TMC3    H2 4887   3.610   0.284  14.194 -0.5688 -0.3591  1.7179
  325TMC3    C7 4888   3.760   0.479  14.307  0.3536 -0.2509 -0.2880
  325TMC3    C8 4889   3.717   0.079  14.087 -0.2415 -0.1388 -0.7900
  325TMC3    O1 4890   3.861   0.540  14.268  0.2470  0.3748 -0.1572
  325TMC3    O2 4891   3.811   0.081  14.003 -0.3430  0.2793 -0.1242
  326MPD2     C 4892   1.403   1.343  10.507  0.2596  0.0631 -0.4950
  326MPD2    C1 4893   1.393   1.373  10.636  0.1375  0.2589 -0.4380
  326MPD2    C2 4894   1.490   1.446  10.695 -0.5471 -0.1909 -0.1602
  326MPD2    C3 4895   1.591   1.503  10.623  0.0383 -0.4714  0.1879
  326MPD2    C4 4896   1.606   1.466  10.493 -0.2780 -0.1348  0.4711
  326MPD2    C5 4897   1.512   1.386  10.433  0.0180  0.2418  0.8452
  326MPD2     H 4898   1.473   1.473  10.799  1.1520 -2.6018  0.7338
  326MPD2    H1 4899   1.684   1.506  10.429  0.3381 -0.6179  0.9152
  326MPD2    H2 4900   1.326   1.287  10.457 -0.0332  0.8653 -0.9405
  326MPD2    H3 4901   1.527   1.349  10.332 -1.4028  1.8243  0.0628
  326MPD2     N 4902   1.698   1.578  10.679 -0.9380 -0.1869 -0.1909
  326MPD2    H5 4903   1.776   1.609  10.622 -0.7448  0.8169  0.6221
  326MPD2    N1 4904   1.274   1.348  10.712 -0.2201 -0.1111 -0.6286
  326MPD2    H7 4905   1.276   1.360  10.812  0.0472  0.5167 -0.7129
  327TMC3    C1 4906   1.056   1.263  10.743  0.4128  0.7261  0.3797
  327TMC3    C2 4907   0.933   1.291  10.682  0.6108  0.6186 -0.2766
  327TMC3    C3 4908   0.826   1.275  10.767 -0.3724 -0.8844 -0.4402
  327TMC3    C4 4909   1.066   1.257  10.877 -0.0455 -0.1965  0.8159
  327TMC3    C5 4910   0.954   1.250  10.950 -0.2962  0.2345  0.0407
  327TMC3    C6 4911   0.829   1.266  10.902 -0.3361 -0.5579 -0.3586
  327TMC3     C 4912   1.164   1.288  10.654 -0.0035  0.1134  0.7424
  327TMC3     O 4913   1.133   1.275  10.537  0.4060  0.4515 -0.2423
  327TMC3     H 4914   0.915   1.287  10.576 -0.1942 -1.7299 -0.0628
  327TMC3    H1 4915   1.164   1.239  10.919  0.8422  0.0856 -1.1309
  327TMC3    H2 4916   0.741   1.263  10.965  1.1285 -0.3363  1.6970
  327TMC3    C7 4917   0.962   1.224  11.098 -0.0627  0.2356 -0.0637
  327TMC3    C8 4918   0.711   1.323  10.700  0.0831  0.2030 -0.4505
  327TMC3    O1 4919   0.868   1.265  11.167 -0.3922  0.6640  0.3854
  327TMC3    O2 4920   0.741   1.407  10.619 -0.2584 -0.1273 -0.3229
  328MPD2     C 4921   2.948   0.971  17.326 -0.3634  1.1626 -0.3425
  328MPD2    C1 4922   2.958   0.909  17.203  0.6019 -0.5975  0.5487
  328MPD2    C2 4923   3.002   0.981  17.096 -0.3388  0.0446 -0.0345
  328MPD2    C3 4924   3.050   1.114  17.113 -0.2362 -0.6587 -0.0993
  328MPD2    C4 4925   3.046   1.168  17.241  0.0230 -0.7230  0.9418
  328MPD2    C5 4926   3.003   1.098  17.345  0.4371 -0.5178 -0.3665
  328MPD2     H 4927   2.994   0.928  17.002 -1.8467 -0.2866  0.2817
  328MPD2    H1 4928   3.055   1.276  17.249  1.8947 -0.6477 -2.4435
  328MPD2    H2 4929   2.904   0.916  17.408  0.0070  0.5342 -0.5579
  328MPD2    H3 4930   2.993   1.151  17.439  0.8536  0.2473 -0.7591
  328MPD2     N 4931   3.064   1.211  17.010 -0.6425 -0.6329 -0.1561
  328MPD2    H5 4932   3.094   1.301  17.045 -2.6061  0.1777 -0.5420
  328MPD2    N1 4933   2.893   0.781  17.184  0.8377  0.9373 -0.2192
  328MPD2    H7 4934   2.835   0.746  17.260  2.9277 -2.0964 -0.0451
  329TMC3    C1 4935   2.776   0.618  17.059  0.4750  0.0074 -0.2638
  329TMC3    C2 4936   2.665   0.692  17.032  0.0664  0.1400 -0.6603
  329TMC3    C3 4937   2.585   0.672  16.927  0.7523  0.2840  0.4460
  329TMC3    C4 4938   2.802   0.514  16.970  0.7691  0.9242 -0.2326
  329TMC3    C5 4939   2.723   0.503  16.854  0.1262 -0.0340  0.1672
  329TMC3    C6 4940   2.619   0.578  16.828  0.1109 -0.3455  0.5981
  329TMC3     C 4941   2.889   0.706  17.068 -0.4850  0.0529 -0.1148
  329TMC3     O 4942   2.968   0.703  16.973  0.0653 -0.2316 -0.6360
  329TMC3     H 4943   2.667   0.788  17.083  0.0938 -0.2608  0.0888
  329TMC3    H1 4944   2.882   0.444  16.991 -0.2030 -0.7297 -2.1116
  329TMC3    H2 4945   2.573   0.585  16.730  3.2542 -2.7462 -1.0361
  329TMC3    C7 4946   2.799   0.455  16.741  0.2507 -0.3547 -0.2656
  329TMC3    C8 4947   2.496   0.785  16.888  0.1683  0.5243 -0.2102
  329TMC3    O1 4948   2.741   0.396  16.654  0.4770  0.0612 -0.0949
  329TMC3    O2 4949   2.486   0.801  16.766 -0.0816  0.1852 -0.5565
  330TMC3    C1 4950   0.883   0.662   9.606  0.3866  0.1765  0.1939
  330TMC3    C2 4951   0.761   0.649   9.546  0.6678  0.0687 -0.5267
  330TMC3    C3 4952   0.702   0.525   9.540  0.6864  0.1113  0.1623
  330TMC3    C4 4953   0.953   0.559   9.670  0.5478 -0.3551  0.2240
  330TMC3    C5 4954   0.892   0.443   9.661  0.0796 -1.1437  0.3566
  330TMC3    C6 4955   0.759   0.430   9.616 -0.2638 -0.1684 -1.1680
  330TMC3     C 4956   0.955   0.792   9.609 -0.0945  0.6429 -0.5316
  330TMC3     O 4957   1.076   0.788   9.618 -0.0274 -0.2774 -0.2826
  330TMC3     H 4958   0.708   0.729   9.496 -0.8206 -0.6317 -0.0519
  330TMC3    H1 4959   1.059   0.569   9.690 -0.1462  1.2277  3.0177
  330TMC3    H2 4960   0.710   0.333   9.618  1.2572 -0.9434 -1.3205
  330TMC3    C7 4961   0.981   0.328   9.682  0.1059 -0.4009  0.3794
  330TMC3    C8 4962   0.563   0.529   9.507  0.2178  0.1975 -0.3944
  330TMC3    O1 4963   1.097   0.347   9.701  0.4796  0.3655 -0.5126
  330TMC3    O2 4964   0.500   0.631   9.516 -0.3547 -0.3335  0.4518
  331MPD2     C 4965   3.865   4.150  12.402 -0.5751  0.6594  0.7652
  331MPD2    C1 4966   3.979   4.199  12.335 -0.2381  0.5297  0.5676
  331MPD2    C2 4967   4.053   4.119  12.257 -0.5379 -0.2088 -0.8835
  331MPD2    C3 4968   4.023   3.982  12.248 -0.2017  0.0686 -0.5118
  331MPD2    C4 4969   3.923   3.934  12.320  0.5456  0.9969  0.5189
  331MPD2    C5 4970   3.842   4.017  12.393  0.6974 -0.6176  0.3361
  331MPD2     H 4971   4.135   4.159  12.200  0.5964 -0.0532  0.8703
  331MPD2    H1 4972   3.921   3.827  12.336 -0.1700  1.2355  2.0696
  331MPD2    H2 4973   3.800   4.219  12.455  1.2276  2.2109  0.9577
  331MPD2    H3 4974   3.766   3.973  12.456 -0.3873  0.1573 -0.4480
  331MPD2     N 4975   4.120   3.909  12.174 -1.0061 -1.2909 -0.5288
  331MPD2    H5 4976   4.207   3.947  12.139 -1.1240 -0.8444 -0.3383
  331MPD2    N1 4977   4.011   4.336  12.360  0.9366  0.4428 -0.0178
  331MPD2    H7 4978   3.940   4.392  12.405  0.1747 -1.9715  1.7891
  332TMC3    C1 4979   4.239   3.736  12.077 -0.0124  0.0876 -1.0343
  332TMC3    C2 4980   4.304   3.834  12.005  0.6699 -0.4226 -0.5518
  332TMC3    C3 4981   4.438   3.805  11.983 -0.2558  0.2597 -0.6853
  332TMC3    C4 4982   4.287   3.613  12.101 -0.0846  0.1235  0.2500
  332TMC3    C5 4983   4.419   3.595  12.072 -0.0993 -0.5295  0.7492
  332TMC3    C6 4984   4.500   3.689  12.021 -0.1489 -0.7823  0.0937
  332TMC3     C 4985   4.113   3.772  12.146  0.2040  0.3742  0.2290
  332TMC3     O 4986   4.041   3.685  12.193  0.0797  0.3253 -0.1742
  332TMC3     H 4987   4.273   3.935  11.980  2.2185  0.2140  0.1211
  332TMC3    H1 4988   4.223   3.536  12.142  0.6040  0.2839  1.6257
  332TMC3    H2 4989   4.601   3.663  11.992  0.4316 -0.3006  1.6835
  332TMC3    C7 4990   4.485   3.507  12.163  0.6196 -0.3228  0.0887
  332TMC3    C8 4991   4.519   3.910  11.934 -0.2809  0.1286  0.1709
  332TMC3    O1 4992   4.418   3.405  12.181  0.0683 -0.4988  0.0710
  332TMC3    O2 4993   4.635   3.892  11.972  0.1465 -0.2682  0.2796
  333MPD2     C 4994   4.537   0.017  11.187 -0.7439  0.7760 -0.2586
  333MPD2    C1 4995   4.633   4.651  11.161 -0.2086  0.5731 -1.0261
  333MPD2    C2 4996   4.608   4.512  11.178  0.8213  0.0987  0.2665
  333MPD2    C3 4997   4.481   4.465  11.216  0.5043 -0.1550 -0.4182
  333MPD2    C4 4998   4.383   4.566  11.256 -0.9238 -0.2004 -0.7110
  333MPD2    C5 4999   4.415   4.703  11.241  0.1308  0.2890  0.2374
  333MPD2     H 5000   4.675   4.430  11.155 -0.7254 -1.1737  0.3084
  333MPD2    H1 5001   4.281   4.543  11.285 -0.7419  0.4319  0.4450
  333MPD2    H2 5002   4.559   0.121  11.167  3.5281 -0.1143 -0.2217
  333MPD2    H3 5003   4.339   0.058  11.248  1.4779  1.6069  0.0824
  333MPD2     N 5004   4.464   4.324  11.215  0.7698  0.4561 -0.1114
  333MPD2    H5 5005   4.541   4.269  11.178 -1.3912 -1.3802 -1.8653
  333MPD2    N1 5006   0.034   4.699  11.118  0.3748 -0.1839 -0.3808
  333MPD2    H7 5007   0.040   0.071  11.081  1.3695  0.6517  1.8810
  334TMC3    C1 5008   0.256   4.659  11.035  0.1385  0.0226  0.7320
  334TMC3    C2 5009   0.383   4.609  11.045  0.7515  0.3551  0.0745
  334TMC3    C3 5010   0.476   4.651  10.951  0.1678  0.6285  0.1515
  334TMC3    C4 5011   0.221   0.010  10.924  0.3613 -0.0140  0.0734
  334TMC3    C5 5012   0.317   0.058  10.837 -0.0481  0.8213 -0.1438
  334TMC3    C6 5013   0.441   0.017  10.847  0.4379 -0.1504  0.5361
  334TMC3     C 5014   0.151   4.625  11.127  0.6850 -0.3938 -0.0356
  334TMC3     O 5015   0.172   4.527  11.197  0.5296 -0.3082 -0.3458
  334TMC3     H 5016   0.408   4.547  11.130  0.0897 -1.5084 -1.0852
  334TMC3    H1 5017   0.122   0.049  10.905 -0.2388 -0.9496  1.2688
  334TMC3    H2 5018   0.516   0.052  10.776 -0.6230 -1.3949 -1.1806
  334TMC3    C7 5019   0.279   0.170  10.749 -0.2147  0.4020 -0.3571
  334TMC3    C8 5020   0.607   4.611  10.981  0.4455  0.0975 -0.1557
  334TMC3    O1 5021   0.382   0.234  10.728  1.1553  0.1365 -0.0659
  334TMC3    O2 5022   0.630   4.597  11.100  0.3849 -0.3149 -0.2291
  335TMC3    C1 5023   3.693   1.563  17.505 -0.4289 -0.3893 -0.0095
  335TMC3    C2 5024   3.608   1.473  17.438  0.5735 -0.0180  0.2287
  335TMC3    C3 5025   3.631   1.457  17.305 -0.4352 -0.4980  0.0763
  335TMC3    C4 5026   3.805   1.611  17.443  0.2019 -0.3468 -0.0239
  335TMC3    C5 5027   3.826   1.591  17.312  0.5409 -0.1128 -0.2726
  335TMC3    C6 5028   3.745   1.501  17.242  0.4321 -0.1750  0.2776
  335TMC3     C 5029   3.669   1.595  17.646  0.6556 -0.2333 -0.3344
  335TMC3     O 5030   3.581   1.531   0.014 -0.0433  0.3868  0.3162
  335TMC3     H 5031   3.523   1.421  17.481 -1.4216  2.0933 -1.1433
  335TMC3    H1 5032   3.868   1.676  17.503 -0.5512 -3.1206  3.8049
  335TMC3    H2 5033   3.767   1.484  17.137  2.2462 -0.3273  0.6754
  335TMC3    C7 5034   3.966   1.585  17.275  0.2167 -0.2954 -0.7211
  335TMC3    C8 5035   3.545   1.350  17.250 -0.2486  0.4951 -0.1506
  335TMC3    O1 5036   4.000   1.499  17.200 -0.1808 -0.0620 -0.3136
  335TMC3    O2 5037   3.505   1.257  17.316  0.1635  0.6582  0.2541
  336MPD2     C 5038   3.756   3.950  16.274 -0.4077 -0.1549 -0.2422
  336MPD2    C1 5039   3.722   3.898  16.149 -0.1994  0.4234 -1.0854
  336MPD2    C2 5040   3.759   3.766  16.119  0.4913 -0.0613  0.4781
  336MPD2    C3 5041   3.816   3.681  16.206  0.1111 -0.2019 -0.1732
  336MPD2    C4 5042   3.835   3.729  16.331 -0.6490 -0.3020 -0.8139
  336MPD2    C5 5043   3.811   3.862  16.366  0.0370  0.3101 -0.8027
  336MPD2     H 5044   3.738   3.730  16.018  0.9153  1.4664 -0.1563
  336MPD2    H1 5045   3.874   3.658  16.404 -0.6777 -0.3251 -0.8208
  336MPD2    H2 5046   3.734   4.051  16.305  1.1716  0.6149 -1.6639
  336MPD2    H3 5047   3.832   3.898  16.466  0.0076  1.3070 -1.1552
  336MPD2     N 5048   3.836   3.545  16.175 -0.4296 -0.3073  0.0148
  336MPD2    H5 5049   3.866   3.482  16.249 -0.9329 -0.6449 -0.0734
  336MPD2    N1 5050   3.657   3.974  16.048 -0.3049 -0.2488  0.1725
  336MPD2    H7 5051   3.658   3.927  15.957  2.4596 -1.1837  0.6908
  337TMC3    C1 5052   3.555   4.168  15.967 -0.4440 -0.1270  0.0083
  337TMC3    C2 5053   3.474   4.099  15.888  0.4821 -0.0172 -1.2457
  337TMC3    C3 5054   3.372   4.159  15.820  0.4403 -0.2630 -0.1367
  337TMC3    C4 5055   3.532   4.294  15.993 -1.0503  0.7410  0.0746
  337TMC3    C5 5056   3.433   4.362  15.924  0.4696 -0.5018  0.1616
  337TMC3    C6 5057   3.362   4.293  15.828  1.2365  0.4976  0.3690
  337TMC3     C 5058   3.611   4.100  16.074 -0.0620  0.3338 -0.6192
  337TMC3     O 5059   3.576   4.152  16.178 -0.9181 -0.3004 -0.1180
  337TMC3     H 5060   3.488   3.991  15.889  1.2054  0.0851 -0.4207
  337TMC3    H1 5061   3.592   4.337  16.073  0.4082 -1.4840  0.1856
  337TMC3    H2 5062   3.277   4.348  15.790 -0.5592 -2.1089  0.6260
  337TMC3    C7 5063   3.389   4.503  15.960 -0.0437 -0.0812 -0.4992
  337TMC3    C8 5064   3.264   4.083  15.771 -0.1251 -0.7367 -0.1791
  337TMC3    O1 5065   3.315   4.555  15.885 -0.2742 -0.1194  1.1530
  337TMC3    O2 5066   3.257   3.967  15.812 -0.0075  0.0826  0.0887
  338MPD2     C 5067   4.596   3.217   0.746 -0.1509  0.1596  0.0380
  338MPD2    C1 5068   4.466   3.197   0.708 -0.4763  0.3700 -0.0774
  338MPD2    C2 5069   4.374   3.285   0.759 -0.1362 -0.0143 -0.4038
  338MPD2    C3 5070   4.407   3.378   0.857 -0.1368  0.5290 -0.0852
  338MPD2    C4 5071   4.534   3.378   0.902 -0.2429 -0.1194  0.0654
  338MPD2    C5 5072   4.634   3.307   0.841  0.0642 -0.6762  0.1012
  338MPD2     H 5073   4.276   3.284   0.712 -0.6891  0.1492  0.7572
  338MPD2    H1 5074   4.555   3.432   0.993 -3.7408 -0.9320  1.3520
  338MPD2    H2 5075   4.675   3.158   0.700  0.0837  0.5007 -0.0031
  338MPD2    H3 5076   0.015   3.310   0.873  0.5418  1.1805 -1.5943
  338MPD2     N 5077   4.306   3.463   0.910 -0.0617 -0.2528  0.1331
  338MPD2    H5 5078   4.222   3.467   0.853  0.4127 -0.7650 -0.6013
  338MPD2    N1 5079   4.425   3.103   0.618  0.7917 -0.1562 -0.4623
  338MPD2    H7 5080   4.326   3.097   0.600  0.6623  3.7272 -1.0585
  339TMC3    C1 5081   4.177   3.595   1.061 -0.3784 -0.4566 -0.2413
  339TMC3    C2 5082   4.158   3.618   1.193 -0.1186  0.5921  0.0151
  339TMC3    C3 5083   4.045   3.685   1.225 -0.9061  0.6333  0.2587
  339TMC3    C4 5084   4.085   3.626   0.958 -0.0505 -0.6521  0.0167
  339TMC3    C5 5085   3.965   3.672   1.005  0.3922  0.5664  0.4794
  339TMC3    C6 5086   3.940   3.704   1.135 -0.2652  0.9160  0.1056
  339TMC3     C 5087   4.309   3.529   1.029  0.1832  0.2729 -0.5985
  339TMC3     O 5088   4.392   3.519   1.115 -0.3750 -0.0959  0.0824
  339TMC3     H 5089   4.238   3.589   1.260  0.1794 -1.5571 -1.2534
  339TMC3    H1 5090   4.097   3.611   0.852  1.7519 -1.2260  0.2925
  339TMC3    H2 5091   3.847   3.751   1.165 -0.7290 -1.3722  2.2520
  339TMC3    C7 5092   3.873   3.729   0.902  0.5133 -0.7836 -0.2184
  339TMC3    C8 5093   4.017   3.682   1.364  0.5840 -0.2383  0.5130
  339TMC3    O1 5094   3.798   3.822   0.939 -0.4517  0.1007 -0.6578
  339TMC3    O2 5095   4.112   3.708   1.435 -0.4983 -0.2568 -0.2209
  340MPD2     C 5096   4.144   2.358  10.160 -0.2200 -0.0777  0.3642
  340MPD2    C1 5097   4.184   2.233  10.137 -0.0761  0.4496 -0.1876
  340MPD2    C2 5098   4.316   2.193  10.174 -0.1076  0.0869  0.2506
  340MPD2    C3 5099   4.397   2.280  10.243  0.4464 -0.8058 -0.0358
  340MPD2    C4 5100   4.349   2.405  10.274 -0.0127 -0.0189  0.6797
  340MPD2    C5 5101   4.223   2.446  10.230 -0.3672 -0.0366 -0.1148
  340MPD2     H 5102   4.349   2.094  10.145  0.3654  0.3210 -0.0135
  340MPD2    H1 5103   4.404   2.477  10.334  0.1247  0.5813 -0.1688
  340MPD2    H2 5104   4.047   2.398  10.133  0.7203  1.2416 -1.0784
  340MPD2    H3 5105   4.180   2.538  10.267 -0.3470 -1.0348  2.3707
  340MPD2     N 5106   4.526   2.257  10.282 -0.5139  0.1098  0.2044
  340MPD2    H5 5107   4.582   2.332  10.322  0.8553 -0.8714  0.1014
  340MPD2    N1 5108   4.119   2.151  10.038  0.1251 -0.1595  0.5097
  340MPD2    H7 5109   4.053   2.198   9.978  0.4255 -2.9145 -1.9540
  341TMC3    C1 5110   4.068   1.975   9.885  0.1266  0.0614 -0.4098
  341TMC3    C2 5111   4.068   1.840   9.861 -0.6361  0.2022  0.5972
  341TMC3    C3 5112   4.079   1.795   9.737 -0.1994 -0.3267 -0.0509
  341TMC3    C4 5113   4.106   2.060   9.779 -0.7215 -0.0111 -0.1600
  341TMC3    C5 5114   4.125   2.002   9.655 -0.1710  0.0711 -0.0245
  341TMC3    C6 5115   4.109   1.870   9.630  0.2938 -0.2422  0.0413
  341TMC3     C 5116   4.136   2.018  10.007  0.0425 -0.8191  0.3784
  341TMC3     O 5117   4.203   1.933  10.061 -0.1169  0.4324 -0.0343
  341TMC3     H 5118   4.049   1.766   9.938 -1.0309 -1.5283 -1.1731
  341TMC3    H1 5119   4.131   2.165   9.792  0.9427 -0.5691  1.1771
  341TMC3    H2 5120   4.133   1.813   9.541  0.7235  0.5893 -0.3823
  341TMC3    C7 5121   4.230   2.067   9.588  0.0936 -0.1215 -0.3001
  341TMC3    C8 5122   4.036   1.659   9.716 -0.7425  0.7359 -0.4015
  341TMC3    O1 5123   4.316   2.119   9.657 -0.0668 -0.7324 -0.3802
  341TMC3    O2 5124   4.054   1.577   9.807 -0.1657  0.5060 -0.3297
  342MPD2     C 5125   2.014   4.399  17.614 -0.1785  0.1578 -0.6053
  342MPD2    C1 5126   2.096   4.436  17.515  0.2364  0.0716  0.0121
  342MPD2    C2 5127   2.089   4.567  17.466  0.4102 -0.5491  0.4685
  342MPD2    C3 5128   1.994   4.658  17.519 -0.2291  0.6283  0.3836
  342MPD2    C4 5129   1.899   4.617  17.609  0.1580  0.1593 -0.5937
  342MPD2    C5 5130   1.912   4.488  17.657  0.4164 -0.1637 -0.3613
  342MPD2     H 5131   2.166   4.598  17.396 -0.9610  2.0492  0.1042
  342MPD2    H1 5132   1.820   4.683  17.642  2.6139  1.7414  2.2183
  342MPD2    H2 5133   2.000   4.300  17.655  2.3170 -1.0011 -2.6042
  342MPD2    H3 5134   1.839   4.441   0.028  1.3429  1.8744  2.1712
  342MPD2     N 5135   1.990   0.077  17.486  0.2251  0.1459  0.3760
  342MPD2    H5 5136   1.920   0.135  17.532 -0.0553 -0.6602  0.9526
  342MPD2    N1 5137   2.190   4.341  17.459  0.1483  0.2352  0.1723
  342MPD2    H7 5138   2.236   4.367  17.372 -1.7609 -0.8696 -1.1578
  343TMC3    C1 5139   2.268   4.121  17.424 -0.5080  0.1222 -0.5963
  343TMC3    C2 5140   2.339   4.156  17.310 -0.2811 -0.0617 -0.0897
  343TMC3    C3 5141   2.391   4.055  17.232 -0.4150 -0.6274 -0.0108
  343TMC3    C4 5142   2.247   3.993  17.470 -0.4041  0.1089 -0.3365
  343TMC3    C5 5143   2.294   3.899  17.385 -0.4878 -1.2134 -0.0682
  343TMC3    C6 5144   2.362   3.923  17.267 -0.0924 -0.1177 -0.2326
  343TMC3     C 5145   2.218   4.222  17.515 -0.0789  0.2808  0.0968
  343TMC3     O 5146   2.196   4.179  17.629 -0.4427  0.1933 -0.0593
  343TMC3     H 5147   2.368   4.254  17.275  0.1979 -0.4114 -0.6653
  343TMC3    H1 5148   2.180   3.974  17.553  1.0736 -2.2622  0.2906
  343TMC3    H2 5149   2.408   3.839  17.217  1.3213  0.8921 -0.6190
  343TMC3    C7 5150   2.287   3.764  17.428  0.0389 -0.5621  0.1270
  343TMC3    C8 5151   2.511   4.076  17.157 -0.1851 -0.1257  0.6698
  343TMC3    O1 5152   2.302   3.677  17.339  0.4485  0.0891  0.4151
  343TMC3    O2 5153   2.564   4.187  17.178  0.1525 -0.0404  0.0949
  344MPD2     C 5154   3.254   3.684  10.350 -0.5999  0.2981 -0.3773
  344MPD2    C1 5155   3.146   3.675  10.262  0.4477 -0.7663 -0.4656
  344MPD2    C2 5156   3.132   3.765  10.155  0.3206  0.1849 -0.2966
  344MPD2    C3 5157   3.231   3.863  10.134 -0.2978  0.3544  0.9349
  344MPD2    C4 5158   3.340   3.876  10.223  0.5772 -0.1390 -0.4532
  344MPD2    C5 5159   3.347   3.780  10.318 -0.4871 -0.2843 -0.6654
  344MPD2     H 5160   3.051   3.744  10.087 -0.8037  1.9955  0.4768
  344MPD2    H1 5161   3.408   3.960  10.219  2.1534 -1.4897 -1.8115
  344MPD2    H2 5162   3.275   3.616  10.432 -1.6525  2.1644  1.4504
  344MPD2    H3 5163   3.429   3.791  10.388 -1.8289  0.3561  0.8024
  344MPD2     N 5164   3.216   3.968  10.035 -0.0180  0.1702 -0.4983
  344MPD2    H5 5165   3.297   4.028  10.025 -0.2037  0.9856  2.9397
  344MPD2    N1 5166   3.050   3.573  10.267  0.2237 -0.4556  0.3660
  344MPD2    H7 5167   2.992   3.568  10.184  1.0533  0.9241 -0.2861
  345TMC3    C1 5168   3.104   4.120   9.888 -0.9877 -0.4325  0.1628
  345TMC3    C2 5169   3.201   4.214   9.922 -0.1192 -1.1895 -0.1936
  345TMC3    C3 5170   3.206   4.331   9.853  0.0809  0.2318  0.0333
  345TMC3    C4 5171   3.000   4.154   9.803  0.8240 -0.2494 -0.0544
  345TMC3    C5 5172   3.002   4.280   9.751 -0.5179 -0.4914  0.7189
  345TMC3    C6 5173   3.109   4.364   9.768  0.0759  0.0529  0.1943
  345TMC3     C 5174   3.103   3.991   9.955 -0.6702 -0.1939  0.1324
  345TMC3     O 5175   3.006   3.916   9.940 -0.0978 -0.1974  0.0035
  345TMC3     H 5176   3.263   4.206  10.011 -1.2991 -0.6740  0.6822
  345TMC3    H1 5177   2.919   4.088   9.774  0.9109 -0.5779  0.4434
  345TMC3    H2 5178   3.101   4.465   9.730  1.7571  0.0623 -0.1227
  345TMC3    C7 5179   2.904   4.340   9.672  0.0595 -0.3126  0.5793
  345TMC3    C8 5180   3.314   4.430   9.890 -0.1009  0.3970 -0.3579
  345TMC3    O1 5181   2.937   4.419   9.585  0.1091  0.5551 -0.2051
  345TMC3    O2 5182   3.376   4.402   9.991  0.0517 -0.1092 -0.0661
  346MPD2     C 5183   2.480   0.455  13.884 -0.4412  0.2829  0.0237
  346MPD2    C1 5184   2.618   0.459  13.872  0.6896 -0.2519 -0.1898
  346MPD2    C2 5185   2.695   0.521  13.963  0.5819 -0.0287  0.3171
  346MPD2    C3 5186   2.642   0.586  14.072  0.2157 -0.5655  0.0616
  346MPD2    C4 5187   2.510   0.584  14.078 -0.2909  0.5627  0.4523
  346MPD2    C5 5188   2.430   0.510  13.995  0.2167 -0.4102 -0.5741
  346MPD2     H 5189   2.800   0.533  13.939  0.6999 -0.3029  0.6941
  346MPD2    H1 5190   2.451   0.627  14.158 -1.7097 -0.0144 -0.2767
  346MPD2    H2 5191   2.414   0.409  13.811  0.5445  0.3318 -0.8956
  346MPD2    H3 5192   2.323   0.528  13.998  0.2817 -0.2004  0.3736
  346MPD2     N 5193   2.721   0.663  14.155  0.5268  0.6912  0.0412
  346MPD2    H5 5194   2.821   0.650  14.142 -0.0047 -1.7341 -1.7091
  346MPD2    N1 5195   2.684   0.424  13.752 -0.4421  0.0622 -0.1760
  346MPD2    H7 5196   2.781   0.455  13.746 -0.0849 -1.3742 -1.8900
  347TMC3    C1 5197   2.786   0.806  14.329  0.2324 -0.0828 -0.3427
  347TMC3    C2 5198   2.908   0.740  14.333 -0.3001  0.4215 -0.6873
  347TMC3    C3 5199   3.014   0.803  14.383 -0.0739 -0.1196 -0.7750
  347TMC3    C4 5200   2.776   0.935  14.377 -0.2983 -0.4205 -0.9420
  347TMC3    C5 5201   2.889   0.988  14.424  0.1161 -0.4411  0.0897
  347TMC3    C6 5202   3.007   0.924  14.446 -0.7690  0.5180 -0.9878
  347TMC3     C 5203   2.680   0.761  14.248 -0.9478 -0.5723  0.3734
  347TMC3     O 5204   2.567   0.796  14.269 -0.3836 -0.0242  0.3497
  347TMC3     H 5205   2.918   0.643  14.286  1.7133 -0.5128  1.6708
  347TMC3    H1 5206   2.684   0.992  14.370  0.7765  1.5260  0.9846
  347TMC3    H2 5207   3.091   0.961  14.502 -1.6596 -0.4541  0.9813
  347TMC3    C7 5208   2.868   1.103  14.506 -0.3044 -0.9372 -0.5479
  347TMC3    C8 5209   3.145   0.731  14.374  0.5130  0.2116  0.2266
  347TMC3    O1 5210   2.939   1.119  14.607 -0.1654 -0.0288 -0.0719
  347TMC3    O2 5211   3.144   0.612  14.350  0.5267  0.2602  0.1165
  348MPD2     C 5212   2.407   0.319  11.940  0.0191 -0.1048 -0.1526
  348MPD2    C1 5213   2.334   0.240  11.853  0.1108  0.2359  0.2792
  348MPD2    C2 5214   2.280   0.293  11.738  0.3201 -0.1048 -0.2818
  348MPD2    C3 5215   2.297   0.425  11.706 -0.3199  0.3831  0.0072
  348MPD2    C4 5216   2.367   0.501  11.797  0.2350  0.1992 -0.4765
  348MPD2    C5 5217   2.427   0.445  11.903  0.1987  1.0376 -0.2933
  348MPD2     H 5218   2.212   0.229  11.682  0.3085 -0.6111  0.3087
  348MPD2    H1 5219   2.403   0.600  11.773 -1.0854  0.2497 -2.2221
  348MPD2    H2 5220   2.462   0.283  12.027 -1.9981 -1.6153  0.4839
  348MPD2    H3 5221   2.483   0.510  11.969  0.0392  0.3176  0.5566
  348MPD2     N 5222   2.236   0.486  11.585 -0.2491  0.3684  0.0210
  348MPD2    H5 5223   2.193   0.416  11.525  0.9343 -1.6751  1.5371
  348MPD2    N1 5224   2.309   0.103  11.880  0.0070 -0.0569 -0.3781
  348MPD2    H7 5225   2.280   0.054  11.796 -0.7376 -0.4550  0.1171
  349TMC3    C1 5226   2.308   4.627  11.998  0.2506  0.3488 -0.0737
  349TMC3    C2 5227   2.386   4.542  12.074  0.4026 -0.2792 -0.2759
  349TMC3    C3 5228   2.392   4.413  12.044  0.4244 -0.3547 -0.6484
  349TMC3    C4 5229   2.230   4.581  11.894 -0.7001 -0.5747 -0.1952
  349TMC3    C5 5230   2.235   4.443  11.878 -0.3953 -0.2530  0.3036
  349TMC3    C6 5231   2.318   4.367  11.946 -0.1369  0.1817  0.7569
  349TMC3     C 5232   2.348   0.040  11.997 -0.1460  0.3055 -0.2726
  349TMC3     O 5233   2.386   0.079  12.108 -0.2398 -0.6873 -0.3944
  349TMC3     H 5234   2.458   4.576  12.149 -1.6443 -0.1844  1.6436
  349TMC3    H1 5235   2.164   4.642  11.833  2.1280  4.2966  1.5755
  349TMC3    H2 5236   2.326   4.260  11.928  0.5025  1.3078 -5.3746
  349TMC3    C7 5237   2.137   4.385  11.798 -0.6436  0.1550  0.6264
  349TMC3    C8 5238   2.408   4.321  12.159  0.5928  0.2547 -0.0496
  349TMC3    O1 5239   2.106   4.273  11.833 -0.1911 -0.0751 -0.3058
  349TMC3    O2 5240   2.328   4.327  12.252  0.0580  0.3121  0.1898
  350MPD2     C 5241   0.580   3.634  10.440  0.9627 -0.3317  0.5597
  350MPD2    C1 5242   0.704   3.572  10.448 -0.4633 -0.5955 -0.4772
  350MPD2    C2 5243   0.744   3.533  10.576 -0.0360  0.6368  0.0566
  350MPD2    C3 5244   0.667   3.560  10.691  0.2628 -0.0819 -0.1080
  350MPD2    C4 5245   0.547   3.626  10.675  0.7001 -0.2421  0.0183
  350MPD2    C5 5246   0.500   3.654  10.549 -0.3542  0.5830  0.0995
  350MPD2     H 5247   0.838   3.482  10.589  0.0371  1.0916  1.2651
  350MPD2    H1 5248   0.481   3.641  10.759 -1.0344  1.8469 -1.7396
  350MPD2    H2 5249   0.536   3.659  10.345  1.7994  1.1845  0.5863
  350MPD2    H3 5250   0.404   3.696  10.520 -0.4741  1.0310  1.1208
  350MPD2     N 5251   0.708   3.502  10.808  0.1231 -0.4090 -0.0217
  350MPD2    H5 5252   0.795   3.451  10.799 -1.3735 -3.1051  0.8154
  350MPD2    N1 5253   0.784   3.539  10.337  0.0827 -0.7774 -0.5232
  350MPD2    H7 5254   0.875   3.498  10.355 -0.1089 -0.4406  1.1699
  351TMC3    C1 5255   0.847   3.532  10.103 -0.5208  0.1859 -0.1706
  351TMC3    C2 5256   0.904   3.407  10.111  0.1731 -0.2830 -0.3128
  351TMC3    C3 5257   0.986   3.366  10.007  0.5096  0.6272  0.1652
  351TMC3    C4 5258   0.859   3.604   9.990 -0.2712 -0.3629 -0.3393
  351TMC3    C5 5259   0.932   3.558   9.887  0.3608  0.2728  0.3853
  351TMC3    C6 5260   0.995   3.435   9.895  0.1369  0.2248 -0.4881
  351TMC3     C 5261   0.753   3.576  10.205  0.4263 -0.0715  0.3833
  351TMC3     O 5262   0.672   3.654  10.162  0.2640 -0.1696 -0.2126
  351TMC3     H 5263   0.883   3.345  10.197  0.4959  1.3769  0.9550
  351TMC3    H1 5264   0.837   3.710   9.996 -4.0480 -1.1385 -0.5185
  351TMC3    H2 5265   1.061   3.401   9.815 -0.3135  0.2622 -0.8757
  351TMC3    C7 5266   0.925   3.620   9.753  0.7074 -0.9834 -0.0973
  351TMC3    C8 5267   1.043   3.234   9.999 -0.5226 -0.5016  0.3654
  351TMC3    O1 5268   0.940   3.740   9.742 -0.1601  0.1553  0.1144
  351TMC3    O2 5269   1.128   3.217   9.912  0.0344  0.1109 -0.1020
  352MPD2     C 5270   3.629   0.872   1.402  0.0276 -0.2048  0.0842
  352MPD2    C1 5271   3.527   0.817   1.342 -0.7079  0.2784  0.3474
  352MPD2    C2 5272   3.496   0.684   1.366 -0.2566 -0.1701  0.4187
  352MPD2    C3 5273   3.580   0.611   1.457 -1.2388 -0.5430  0.2245
  352MPD2    C4 5274   3.673   0.679   1.533 -0.0195  0.5621  0.1330
  352MPD2    C5 5275   3.694   0.806   1.508 -0.3050  0.5190  0.1381
  352MPD2     H 5276   3.421   0.631   1.308 -0.0503  1.1259 -1.0200
  352MPD2    H1 5277   3.720   0.639   1.622 -2.4697  0.5123  1.4082
  352MPD2    H2 5278   3.655   0.974   1.376  0.4231 -0.9216 -2.3056
  352MPD2    H3 5279   3.767   0.865   1.561 -0.7658  2.4670 -1.4115
  352MPD2     N 5280   3.569   0.474   1.482 -0.3960 -1.2843 -0.0981
  352MPD2    H5 5281   3.623   0.439   1.560  0.9091 -0.4789 -0.6519
  352MPD2    N1 5282   3.448   0.894   1.258 -0.1298  0.8343 -0.6906
  352MPD2    H7 5283   3.474   0.989   1.233 -4.3373  2.0668 -0.4701
  353TMC3    C1 5284   3.502   0.241   1.460 -0.2743  0.3230 -0.3984
  353TMC3    C2 5285   3.569   0.212   1.576 -0.2027 -0.6569  0.0979
  353TMC3    C3 5286   3.597   0.079   1.601 -0.4578  0.1405  0.1294
  353TMC3    C4 5287   3.467   0.148   1.367 -0.6739  0.0366 -1.0259
  353TMC3    C5 5288   3.492   0.017   1.395  0.2983  0.4733  0.0814
  353TMC3    C6 5289   3.566   4.703   1.512 -0.2243 -0.1879  0.0916
  353TMC3     C 5290   3.473   0.381   1.428 -0.6102  0.1191  0.1756
  353TMC3     O 5291   3.384   0.406   1.354 -0.3571 -0.1720  0.3753
  353TMC3     H 5292   3.586   0.284   1.655  2.1025 -0.5947 -0.4311
  353TMC3    H1 5293   3.409   0.178   1.281 -2.3269 -0.7276 -0.1759
  353TMC3    H2 5294   3.586   4.598   1.530 -0.1726 -0.3160 -0.6943
  353TMC3    C7 5295   3.493   4.654   1.280 -0.5204  0.5282 -0.6646
  353TMC3    C8 5296   3.681   0.053   1.715 -0.1297 -0.0558  0.1581
  353TMC3    O1 5297   3.540   4.702   1.175 -0.1300 -0.0795 -0.0288
  353TMC3    O2 5298   3.685   0.137   1.807 -0.3138  0.1895 -0.2628
  354TMC3    C1 5299   1.146   1.352  13.476 -0.5822 -0.1317 -0.1386
  354TMC3    C2 5300   1.227   1.461  13.480 -0.3103 -0.2410  0.1567
  354TMC3    C3 5301   1.313   1.475  13.375 -0.4409  0.1791 -0.2034
  354TMC3    C4 5302   1.146   1.251  13.374 -0.5764  0.7118  0.0856
  354TMC3    C5 5303   1.235   1.275  13.274  0.2246 -0.2249  0.3913
  354TMC3    C6 5304   1.309   1.387  13.272  0.0304  0.5051  0.0512
  354TMC3     C 5305   1.017   1.356  13.542  0.1740  0.4635 -0.7362
  354TMC3     O 5306   0.961   1.251  13.550  0.3794  0.3213  0.2344
  354TMC3     H 5307   1.229   1.529  13.564  2.5911 -0.6948  0.4735
  354TMC3    H1 5308   1.061   1.187  13.357 -1.4002  1.5621  0.9891
  354TMC3    H2 5309   1.370   1.397  13.183 -0.8770 -2.6977 -0.9524
  354TMC3    C7 5310   1.182   1.243  13.149  0.0988 -0.0813 -0.3126
  354TMC3    C8 5311   1.376   1.606  13.358  0.2975 -0.4604  0.6083
  354TMC3    O1 5312   1.085   1.309  13.112 -0.4756 -0.0026 -0.0990
  354TMC3    O2 5313   1.368   1.681  13.455  0.7789  0.2957 -0.2393
  355MPD2     C 5314   1.973   1.739  11.800 -0.0771 -0.0481  0.2538
  355MPD2    C1 5315   1.913   1.818  11.702 -0.2214  0.4736  0.7244
  355MPD2    C2 5316   1.975   1.825  11.576  0.1435 -0.4408  0.6040
  355MPD2    C3 5317   2.095   1.761  11.555 -0.1125 -0.4613 -0.4597
  355MPD2    C4 5318   2.147   1.673  11.652  0.1573 -0.0863 -0.0184
  355MPD2    C5 5319   2.078   1.652  11.771 -0.0341 -0.1021  0.2495
  355MPD2     H 5320   1.938   1.888  11.496 -0.2568  0.3940  1.4491
  355MPD2    H1 5321   2.248   1.636  11.637 -0.3378 -0.5009 -2.3782
  355MPD2    H2 5322   1.928   1.728  11.897 -1.1867 -1.8980 -0.4834
  355MPD2    H3 5323   2.105   1.579  11.846  2.1978 -0.5640 -1.0020
  355MPD2     N 5324   2.170   1.787  11.442  0.2908  0.2761 -0.6142
  355MPD2    H5 5325   2.241   1.719  11.418 -1.3118 -0.7109 -2.5800
  355MPD2    N1 5326   1.820   1.912  11.740  0.8624  0.6765  0.4942
  355MPD2    H7 5327   1.803   1.929  11.838  2.4132  0.0955  0.8523
  356TMC3    C1 5328   2.131   2.025  11.393  0.5110  0.4084  0.0004
  356TMC3    C2 5329   2.127   2.127  11.304  0.1842 -0.4829  0.1889
  356TMC3    C3 5330   2.113   2.258  11.348  0.3942  0.5838  0.1900
  356TMC3    C4 5331   2.155   2.063  11.522  0.5402 -0.3738 -0.0985
  356TMC3    C5 5332   2.146   2.196  11.560  0.2313  0.0422 -0.1771
  356TMC3    C6 5333   2.119   2.292  11.478  0.1319 -0.1240  0.1587
  356TMC3     C 5334   2.157   1.889  11.350 -0.2756  0.2107  0.4711
  356TMC3     O 5335   2.184   1.870  11.234  0.0090 -0.4344  0.4157
  356TMC3     H 5336   2.102   2.106  11.201 -1.1880  2.3943 -0.0456
  356TMC3    H1 5337   2.172   1.989  11.599 -0.4389  0.4281  0.8749
  356TMC3    H2 5338   2.079   2.389  11.507  1.1364 -0.4158  2.5171
  356TMC3    C7 5339   2.129   2.222  11.702  0.0826 -0.1596 -0.8241
  356TMC3    C8 5340   2.127   2.357  11.236  0.1843  0.8044  0.3423
  356TMC3    O1 5341   2.098   2.123  11.763 -0.3905  0.6305  0.8474
  356TMC3    O2 5342   2.083   2.328  11.126 -0.2051 -0.3084  0.3953
  357MPD2     C 5343   0.562   2.480   1.384  0.6206 -0.5251 -0.3966
  357MPD2    C1 5344   0.553   2.354   1.325  0.3618 -0.1644 -0.2140
  357MPD2    C2 5345   0.426   2.307   1.290 -0.2401  0.0372 -0.0820
  357MPD2    C3 5346   0.310   2.380   1.305  0.1532  0.1009 -0.2816
  357MPD2    C4 5347   0.317   2.504   1.360  0.3522 -0.0281  0.1040
  357MPD2    C5 5348   0.439   2.547   1.403  0.5485  0.0389 -0.8363
  357MPD2     H 5349   0.420   2.210   1.242 -0.3937  0.1150 -0.2173
  357MPD2    H1 5350   0.225   2.558   1.377 -0.3517 -0.8600 -0.9998
  357MPD2    H2 5351   0.663   2.514   1.400  0.2620 -0.1448  1.0792
  357MPD2    H3 5352   0.453   2.635   1.464  0.0234 -0.7264  0.4021
  357MPD2     N 5353   0.185   2.335   1.270  0.1261 -0.1975  0.5811
  357MPD2    H5 5354   0.112   2.405   1.284  1.7752  1.8689 -1.1072
  357MPD2    N1 5355   0.678   2.290   1.309  0.6489 -0.4552 -0.0684
  357MPD2    H7 5356   0.765   2.337   1.331 -0.1096  0.3178  1.2906
  358TMC3    C1 5357   0.833   2.143   1.237 -0.7792  0.0366  0.0783
  358TMC3    C2 5358   0.863   2.064   1.136 -0.5017 -0.0351 -0.0677
  358TMC3    C3 5359   0.988   2.010   1.119 -0.5833  0.9610  1.0769
  358TMC3    C4 5360   0.923   2.155   1.340 -0.1261  0.0691 -0.1232
  358TMC3    C5 5361   1.050   2.107   1.319 -0.6722  0.2040 -0.4991
  358TMC3    C6 5362   1.090   2.033   1.209  0.3259  0.2375  0.4080
  358TMC3     C 5363   0.695   2.161   1.267  0.7242  0.4136 -0.2894
  358TMC3     O 5364   0.612   2.080   1.229 -0.2711  0.1792 -0.3681
  358TMC3     H 5365   0.784   2.050   1.063 -0.2102 -0.3410 -0.3253
  358TMC3    H1 5366   0.882   2.205   1.427 -0.3197  0.7044 -0.5714
  358TMC3    H2 5367   1.194   2.009   1.191  0.0581 -1.1030  0.6543
  358TMC3    C7 5368   1.150   2.123   1.419 -0.2746  0.2327 -0.9711
  358TMC3    C8 5369   1.019   1.947   0.990 -0.6078  0.5261  0.0740
  358TMC3    O1 5370   1.250   2.057   1.403  0.3075  0.1769 -0.4487
  358TMC3    O2 5371   1.137   1.958   0.955  0.3500  0.1091  0.1335
  359MPD2     C 5372   1.802   0.941  12.822 -0.0155 -0.7580 -0.6032
  359MPD2    C1 5373   1.737   0.983  12.704 -0.5049 -0.4192 -0.6885
  359MPD2    C2 5374   1.609   0.958  12.689  0.5856  0.4022  0.0041
  359MPD2    C3 5375   1.533   0.896  12.786  0.8210 -0.4919  0.7603
  359MPD2    C4 5376   1.596   0.857  12.903 -0.3876  0.8116 -0.6074
  359MPD2    C5 5377   1.729   0.883  12.921 -0.0546  0.0185  0.3743
  359MPD2     H 5378   1.558   0.986  12.598 -2.1943  1.5336  1.8804
  359MPD2    H1 5379   1.532   0.819  12.982  0.8659  1.0751  0.5375
  359MPD2    H2 5380   1.907   0.955  12.841 -0.3754  1.0857  0.0110
  359MPD2    H3 5381   1.778   0.840  13.007 -0.8163  0.3336  0.9627
  359MPD2     N 5382   1.394   0.879  12.778 -0.1650  0.1204  0.0874
  359MPD2    H5 5383   1.343   0.853  12.862  0.7003  0.8881  0.8468
  359MPD2    N1 5384   1.803   1.035  12.593 -0.0513 -0.3818 -0.3263
  359MPD2    H7 5385   1.766   1.032  12.499 -0.2678  1.5669 -0.3073
  360TMC3    C1 5386   1.949   1.151  12.461  0.2520  0.7096  0.2382
  360TMC3    C2 5387   1.972   1.279  12.435 -0.1288  0.3261 -0.7308
  360TMC3    C3 5388   1.955   1.321  12.301  0.3539 -0.2294  0.1191
  360TMC3    C4 5389   1.911   1.060  12.370  0.7642 -0.4931 -0.5120
  360TMC3    C5 5390   1.898   1.102  12.242 -0.2675 -0.8486  0.0162
  360TMC3    C6 5391   1.921   1.235  12.208 -0.6655 -0.3662  0.5695
  360TMC3     C 5392   1.920   1.104  12.591  0.2500  0.4749 -0.4430
  360TMC3     O 5393   1.997   1.141  12.680 -0.4500  0.2839  0.2100
  360TMC3     H 5394   1.990   1.348  12.516  0.0598  0.1252 -0.6032
  360TMC3    H1 5395   1.889   0.957  12.397  0.4204 -0.5093 -0.8492
  360TMC3    H2 5396   1.897   1.274  12.109  1.7522  0.2588  0.2292
  360TMC3    C7 5397   1.897   1.011  12.132  0.4428 -0.0004 -0.5872
  360TMC3    C8 5398   2.019   1.435  12.252  0.0600 -0.0266 -0.4639
  360TMC3    O1 5399   1.852   1.044  12.024 -0.6026  0.6487  0.4136
  360TMC3    O2 5400   2.033   1.538  12.322 -0.3728  0.2926  0.5313
  361MPD2     C 5401   3.006   4.643  16.420 -0.3245  0.2976 -0.7384
  361MPD2    C1 5402   2.967   4.687  16.551 -0.1880  0.1223 -0.3389
  361MPD2    C2 5403   3.053   4.657  16.655  0.1225  0.1124 -0.3704
  361MPD2    C3 5404   3.172   4.585  16.634  0.1873  0.7541  0.6337
  361MPD2    C4 5405   3.206   4.540  16.513  0.2828  0.9459 -0.8808
  361MPD2    C5 5406   3.126   4.574  16.408  0.4482  0.3147  0.2073
  361MPD2     H 5407   3.028   4.690  16.755  0.9617 -0.8819  0.1700
  361MPD2    H1 5408   3.285   4.470  16.485  2.3663  2.2225  1.8458
  361MPD2    H2 5409   2.949   4.669  16.331  0.5683  2.7581 -0.6077
  361MPD2    H3 5410   3.152   4.538  16.309 -1.8760 -2.1151  0.5013
  361MPD2     N 5411   3.259   4.548  16.735  1.1238  0.2092  0.0098
  361MPD2    H5 5412   3.337   4.486  16.713  1.5802  0.3106  1.3404
  361MPD2    N1 5413   2.843   0.031  16.578  0.7619 -0.4619 -0.3262
  361MPD2    H7 5414   2.829   0.061  16.674 -1.8823 -1.5649 -0.3497
  362TMC3    C1 5415   2.631   0.117  16.520 -0.2120  0.4940 -0.7574
  362TMC3    C2 5416   2.590   0.134  16.645 -0.1421 -0.1131  0.6423
  362TMC3    C3 5417   2.492   0.211  16.687 -0.3187 -0.2192 -0.6212
  362TMC3    C4 5418   2.569   0.180  16.423 -0.7446  0.3219  0.2587
  362TMC3    C5 5419   2.478   0.270  16.463 -0.2795 -0.6036  0.5907
  362TMC3    C6 5420   2.437   0.288  16.592 -0.7329  0.7885 -0.4744
  362TMC3     C 5421   2.741   0.037  16.485  0.8979 -0.9154 -0.2261
  362TMC3     O 5422   2.731   4.708  16.373  0.4138 -0.2534  0.1141
  362TMC3     H 5423   2.624   0.052  16.707 -0.1405  0.3119  1.2027
  362TMC3    H1 5424   2.606   0.174  16.322 -0.3851 -0.1095  0.4164
  362TMC3    H2 5425   2.360   0.361  16.611  0.0936  1.8455 -1.1617
  362TMC3    C7 5426   2.430   0.369  16.370  0.1878  0.4407 -0.0065
  362TMC3    C8 5427   2.485   0.253  16.830 -0.1075 -0.8324  0.0445
  362TMC3    O1 5428   2.500   0.410  16.280  0.0968  0.2126  0.5131
  362TMC3    O2 5429   2.565   0.197  16.906  0.0511 -0.5828 -0.0630
  363TMC3    C1 5430   2.132   2.834   9.879  0.5313 -0.5420  1.0494
  363TMC3    C2 5431   2.081   2.716   9.918 -0.1950 -0.2543 -0.8964
  363TMC3    C3 5432   1.963   2.722   9.987  0.5704 -0.4346 -0.1820
  363TMC3    C4 5433   2.090   2.955   9.925 -0.0513  0.1199 -0.1813
  363TMC3    C5 5434   1.982   2.955  10.008 -0.0628 -0.7052  0.8842
  363TMC3    C6 5435   1.923   2.837  10.049 -0.0422  0.3917  0.3534
  363TMC3     C 5436   2.254   2.835   9.810 -0.3776 -0.0198  0.0260
  363TMC3     O 5437   2.310   2.723   9.807 -0.2877  0.0754  0.2963
  363TMC3     H 5438   2.116   2.629   9.864  0.4816 -0.7494  0.3329
  363TMC3    H1 5439   2.141   3.045   9.895  0.5562 -1.0580 -2.7076
  363TMC3    H2 5440   1.838   2.839  10.117 -0.2147  1.0447  0.1130
  363TMC3    C7 5441   1.907   3.074  10.050  1.0657  0.2079  0.5409
  363TMC3    C8 5442   1.883   2.599  10.011 -0.1443 -0.2861  0.5513
  363TMC3    O1 5443   1.797   3.049  10.107 -0.1309  0.4858  0.8020
  363TMC3    O2 5444   1.785   2.613  10.076 -0.4087  0.1034  0.5453
  364MPD2     C 5445   0.210   1.386  10.646  0.1530 -0.2530  0.2538
  364MPD2    C1 5446   0.309   1.448  10.583  0.0368  0.6443 -0.3464
  364MPD2    C2 5447   0.440   1.411  10.622  0.1463 -0.0773 -0.2261
  364MPD2    C3 5448   0.465   1.317  10.719  0.0329 -0.0714 -0.1302
  364MPD2    C4 5449   0.358   1.255  10.778 -1.1815 -0.2950 -0.1005
  364MPD2    C5 5450   0.233   1.288  10.742  0.6900 -0.1514  0.2474
  364MPD2     H 5451   0.523   1.447  10.562  0.7384  0.0095  0.6435
  364MPD2    H1 5452   0.359   1.186  10.862  1.8628  0.3356  0.3793
  364MPD2    H2 5453   0.109   1.403  10.612  0.4636  2.1165  0.4991
  364MPD2    H3 5454   0.149   1.242  10.794 -0.9356  0.4271 -1.8623
  364MPD2     N 5455   0.592   1.272  10.758 -0.3840  0.5741  0.0293
  364MPD2    H5 5456   0.600   1.200  10.829  2.4519  1.1008  0.2640
  364MPD2    N1 5457   0.282   1.544  10.486  1.0896 -0.4490  0.3310
  364MPD2    H7 5458   0.188   1.583  10.481  0.9417 -1.0961 -1.7123
  365TMC3    C1 5459   0.314   1.680  10.302 -0.3965  0.4553  0.3188
  365TMC3    C2 5460   0.388   1.668  10.188  0.1399 -0.0362 -0.4842
  365TMC3    C3 5461   0.442   1.784  10.138  0.0939 -0.5780 -1.2957
  365TMC3    C4 5462   0.289   1.802  10.361  0.2610  0.5626 -0.0909
  365TMC3    C5 5463   0.344   1.916  10.300 -0.8045  0.7830  0.4796
  365TMC3    C6 5464   0.413   1.910  10.186  0.2333 -0.4271 -0.4155
  365TMC3     C 5465   0.371   1.592  10.391  0.4915  0.3227 -0.2681
  365TMC3     O 5466   0.491   1.575  10.377  0.4982  0.0238 -0.0649
  365TMC3     H 5467   0.396   1.570  10.140 -1.8372 -0.0841 -0.7227
  365TMC3    H1 5468   0.245   1.801  10.460 -0.8081 -0.3560 -0.5744
  365TMC3    H2 5469   0.469   1.992  10.143 -0.1689 -0.6198 -1.3219
  365TMC3    C7 5470   0.330   2.052  10.366 -0.5044  0.0810  0.5810
  365TMC3    C8 5471   0.565   1.768  10.063  0.4957 -0.2465  0.0839
  365TMC3    O1 5472   0.383   2.135  10.294 -0.2451  0.1766  0.1143
  365TMC3    O2 5473   0.611   1.861   9.998  0.0708  0.0524 -0.5276
  366MPD2     C 5474   2.998   2.836  15.296 -0.7630 -0.2252 -0.1986
  366MPD2    C1 5475   3.092   2.914  15.244  0.4707  0.2268  0.7932
  366MPD2    C2 5476   3.214   2.857  15.205  0.0552 -0.6484  0.7206
  366MPD2    C3 5477   3.242   2.727  15.247  0.1280 -0.7121  0.4418
  366MPD2    C4 5478   3.144   2.646  15.307  0.6127 -0.0839  0.1132
  366MPD2    C5 5479   3.023   2.706  15.327  0.3516  0.3352 -0.1795
  366MPD2     H 5480   3.283   2.922  15.154  1.1517 -0.5739  2.2754
  366MPD2    H1 5481   3.159   2.548  15.350  6.4136  0.6826 -0.2044
  366MPD2    H2 5482   2.906   2.880  15.333  0.4499  1.5036  0.7445
  366MPD2    H3 5483   2.955   2.653  15.392  0.4464 -0.1202 -0.4533
  366MPD2     N 5484   3.363   2.666  15.209  0.4159  0.2951 -0.1414
  366MPD2    H5 5485   3.427   2.723  15.155 -1.0398  0.7293 -1.3993
  366MPD2    N1 5486   3.074   3.050  15.216 -0.1001 -0.0424 -0.4116
  366MPD2    H7 5487   3.142   3.093  15.155 -1.5835 -0.6479 -2.4951
  367TMC3    C1 5488   3.007   3.267  15.246  0.5642  0.1360  0.2234
  367TMC3    C2 5489   3.142   3.295  15.249 -0.0724  0.0582 -0.7689
  367TMC3    C3 5490   3.179   3.428  15.227 -0.5826  0.0967  0.1262
  367TMC3    C4 5491   2.903   3.359  15.221  0.8723  0.3960  0.3366
  367TMC3    C5 5492   2.953   3.489  15.201  0.3648  0.2431  0.3345
  367TMC3    C6 5493   3.085   3.528  15.201 -0.7113 -0.7185 -0.7444
  367TMC3     C 5494   2.972   3.129  15.264  0.8156 -0.2408 -0.4881
  367TMC3     O 5495   2.856   3.104  15.290 -0.7606  0.0929 -0.1977
  367TMC3     H 5496   3.211   3.220  15.285  1.4845  1.3372 -1.0338
  367TMC3    H1 5497   2.798   3.334  15.223  1.3571 -1.5228  1.4876
  367TMC3    H2 5498   3.113   3.628  15.169 -0.9969 -0.6881 -0.9002
  367TMC3    C7 5499   2.857   3.597  15.178  0.4347 -0.7460  0.4781
  367TMC3    C8 5500   3.281   3.478  15.318  0.7292 -0.0632  0.6591
  367TMC3    O1 5501   2.890   3.709  15.218  0.0980 -0.3164 -0.3807
  367TMC3    O2 5502   3.361   3.400  15.365  0.8624  0.4679 -0.7565
  368MPD2     C 5503   4.494   4.580  12.818 -0.8474 -0.2013  0.4943
  368MPD2    C1 5504   4.536   4.714  12.826  0.5300 -0.5998  0.2506
  368MPD2    C2 5505   4.671   0.007  12.864  0.0517 -0.0130 -0.3353
  368MPD2    C3 5506   0.033   4.618  12.878  0.2660  0.1419 -0.2695
  368MPD2    C4 5507   4.712   4.489  12.865 -0.1395 -0.3788 -0.0626
  368MPD2    C5 5508   4.583   4.473  12.825 -0.2058 -0.9056 -0.4360
  368MPD2     H 5509   4.706   0.109  12.872  0.2324 -0.0718 -0.3663
  368MPD2    H1 5510   0.045   4.397  12.875  1.0039  0.4992  1.4736
  368MPD2    H2 5511   4.390   4.556  12.802 -0.4305 -2.4159  1.1194
  368MPD2    H3 5512   4.539   4.374  12.833  1.9057 -1.8344 -0.2519
  368MPD2     N 5513   0.176   4.630  12.903  0.6401  0.3252 -0.6295
  368MPD2    H5 5514   0.234   4.547  12.894 -0.8090 -0.7480 -0.0862
  368MPD2    N1 5515   4.441   0.089  12.795  0.7985 -0.3787  0.5609
  368MPD2    H7 5516   4.354   0.063  12.748  0.2638 -0.4110  1.5727
  369TMC3    C1 5517   4.356   0.307  12.755  0.1431 -0.0727 -0.0753
  369TMC3    C2 5518   4.390   0.417  12.679  0.8569  0.2096 -0.7929
  369TMC3    C3 5519   4.284   0.473  12.605 -0.1981 -0.1414  0.0979
  369TMC3    C4 5520   4.228   0.260  12.763 -0.1002  0.8870  1.1875
  369TMC3    C5 5521   4.135   0.324  12.694  0.5980 -0.5119  0.5558
  369TMC3    C6 5522   4.152   0.432  12.617  0.3646 -0.0430 -0.6561
  369TMC3     C 5523   4.468   0.227  12.797 -0.1448 -0.0997 -0.1648
  369TMC3     O 5524   4.563   0.288  12.841  0.1854  0.2050  0.5514
  369TMC3     H 5525   4.494   0.438  12.657  1.2315 -0.2939  0.4734
  369TMC3    H1 5526   4.212   0.166  12.815  0.4617  0.8325  1.2579
  369TMC3    H2 5527   4.071   0.489  12.571  1.7784  0.7221 -2.1861
  369TMC3    C7 5528   4.001   0.288  12.731 -0.5658  0.3705 -0.3168
  369TMC3    C8 5529   4.310   0.572  12.510 -0.2309 -0.1523 -0.5531
  369TMC3    O1 5530   3.992   0.202  12.815  0.6337 -0.4007 -0.0426
  369TMC3    O2 5531   4.225   0.599  12.427 -0.1484 -0.1443 -0.6364
  370TMC3    C1 5532   3.993   1.050  16.168 -0.0775  0.6992  0.2917
  370TMC3    C2 5533   3.933   0.971  16.263  0.5090  0.3997  0.4471
  370TMC3    C3 5534   3.922   0.833  16.236 -0.3771  0.6333 -0.8867
  370TMC3    C4 5535   4.041   0.990  16.052  0.0787 -0.4439  0.1811
  370TMC3    C5 5536   4.008   0.858  16.028  0.4895  0.3013 -0.5020
  370TMC3    C6 5537   3.957   0.782  16.119 -0.3579  0.4781 -1.0548
  370TMC3     C 5538   4.036   1.181  16.209 -0.0441 -0.3765  0.0230
  370TMC3     O 5539   4.026   1.208  16.328  0.3517 -0.3577 -0.4363
  370TMC3     H 5540   3.893   1.025  16.348 -1.8990 -1.3749  0.4661
  370TMC3    H1 5541   4.110   1.036  15.983  0.0791  0.8564  1.0633
  370TMC3    H2 5542   3.918   0.682  16.106 -0.4609  0.2420  1.0361
  370TMC3    C7 5543   4.066   0.811  15.909  0.3631 -0.3807  0.0257
  370TMC3    C8 5544   3.882   0.735  16.341 -0.3489  0.1467  0.3436
  370TMC3    O1 5545   4.091   0.889  15.815 -0.2360  0.3740 -0.1677
  370TMC3    O2 5546   3.894   0.613  16.319 -0.2129  0.1271  0.1337
  371TMC3    C1 5547   0.711   3.905  15.642  0.2414  0.1555 -0.3200
  371TMC3    C2 5548   0.587   3.890  15.691 -0.1224  0.1909 -0.6832
  371TMC3    C3 5549   0.507   3.999  15.677 -0.9635  0.0792 -0.2947
  371TMC3    C4 5550   0.755   4.008  15.570  0.0905 -0.0053 -0.7296
  371TMC3    C5 5551   0.659   4.105  15.541  0.2889  0.0886  0.0353
  371TMC3    C6 5552   0.545   4.111  15.614 -0.2588  0.3196  0.7555
  371TMC3     C 5553   0.803   3.793  15.674 -0.2213  0.2148 -0.6503
  371TMC3     O 5554   0.916   3.830  15.705  0.2673  0.3592  0.4065
  371TMC3     H 5555   0.571   3.811  15.763 -2.3068 -0.1215 -1.5111
  371TMC3    H1 5556   0.854   4.007  15.526  0.3739 -1.0956 -0.0420
  371TMC3    H2 5557   0.507   4.212  15.625  0.2080  0.6524 -0.7176
  371TMC3    C7 5558   0.685   4.230  15.463 -0.2823  0.7730 -0.0188
  371TMC3    C8 5559   0.402   4.003  15.776  0.5636  0.3204  0.5107
  371TMC3    O1 5560   0.805   4.258  15.459  0.2186 -1.0555 -0.2704
  371TMC3    O2 5561   0.391   3.896  15.837  0.0195  0.1654 -0.8437
  372MPD2     C 5562   4.640   0.281  13.202  0.0034 -0.8278  0.4066
  372MPD2    C1 5563   4.686   0.293  13.332 -0.7593 -0.2493  0.6946
  372MPD2    C2 5564   4.680   0.180  13.411  0.2023 -0.5697  0.0967
  372MPD2    C3 5565   4.634   0.057  13.369 -0.0845  0.0454  0.4528
  372MPD2    C4 5566   4.571   0.051  13.243 -0.0057 -0.0946 -0.2040
  372MPD2    C5 5567   4.589   0.160  13.161 -1.2872  0.3233 -0.5862
  372MPD2     H 5568   4.720   0.188  13.512 -0.3064 -0.1061  0.2599
  372MPD2    H1 5569   4.540   4.679  13.202 -1.4667  0.1785  0.2806
  372MPD2    H2 5570   4.656   0.364  13.134  1.2595 -1.8620 -0.5362
  372MPD2    H3 5571   4.570   0.148  13.055 -0.5551  0.6854 -0.7597
  372MPD2     N 5572   4.644   4.664  13.449  0.1066 -0.7985 -0.7371
  372MPD2    H5 5573   4.671   4.673  13.546 -0.3561  1.0218 -0.7846
  372MPD2    N1 5574   0.030   0.411  13.382 -0.0208  0.5377  0.0507
  372MPD2    H7 5575   0.074   0.400  13.472  0.7095 -5.2697 -1.0500
  373TMC3    C1 5576   4.694   4.447  13.518  0.5018 -1.1904 -0.7064
  373TMC3    C2 5577   4.615   4.445  13.632  0.4296  0.2940  0.1298
  373TMC3    C3 5578   4.624   4.337  13.719 -0.6372 -0.1625  0.3121
  373TMC3    C4 5579   0.080   4.363  13.504 -0.1334  0.2249  0.0118
  373TMC3    C5 5580   0.102   4.264  13.598 -0.5941 -0.3221 -0.9403
  373TMC3    C6 5581   0.012   4.251  13.702  0.6202  0.3098 -0.4389
  373TMC3     C 5582   4.651   4.532  13.404  0.0690  0.4365  0.4380
  373TMC3     O 5583   4.673   4.484  13.290 -0.4290  0.0839 -0.2315
  373TMC3     H 5584   4.536   4.517  13.649  0.4479  0.3406  0.0191
  373TMC3    H1 5585   0.164   4.380  13.438 -1.2276  2.3067 -0.8391
  373TMC3    H2 5586   0.027   4.174  13.777 -0.1671  0.7204  0.1469
  373TMC3    C7 5587   0.231   4.203  13.601 -0.7009 -0.3608 -0.1890
  373TMC3    C8 5588   4.573   4.364  13.856  0.4531  0.5246 -0.4708
  373TMC3    O1 5589   0.291   4.204  13.495  0.0588  0.1465 -0.0762
  373TMC3    O2 5590   4.659   4.345  13.944 -0.2856  0.2289 -0.5795
  374TMC3    C1 5591   0.623   0.439  10.207  0.6096 -0.0699  0.5936
  374TMC3    C2 5592   0.737   0.507  10.161 -0.3191  0.3293 -0.0021
  374TMC3    C3 5593   0.723   0.571  10.039 -0.9921 -0.3524 -0.8330
  374TMC3    C4 5594   0.506   0.442  10.141  1.1123 -0.1804  0.3704
  374TMC3    C5 5595   0.497   0.514  10.029  0.2366 -0.9764 -0.3537
  374TMC3    C6 5596   0.605   0.574   9.968  0.4460  0.2526  0.3489
  374TMC3     C 5597   0.617   0.410  10.349  0.5576 -0.2237 -0.3656
  374TMC3     O 5598   0.506   0.420  10.402  0.2323 -0.0461  0.1567
  374TMC3     H 5599   0.828   0.519  10.220 -1.3875 -0.6766  1.8212
  374TMC3    H1 5600   0.418   0.393  10.182  1.0016  0.8488  1.3335
  374TMC3    H2 5601   0.601   0.640   9.882 -2.9820 -0.3184  0.0533
  374TMC3    C7 5602   0.362   0.528   9.976  0.1088 -0.1005 -0.2471
  374TMC3    C8 5603   0.824   0.664   9.998  0.3292  0.2897  0.0453
  374TMC3    O1 5604   0.280   0.437   9.994  0.0519 -0.2966 -0.2998
  374TMC3    O2 5605   0.789   0.751   9.916 -0.3501  0.1824 -0.0343
  375MPD2     C 5606   0.587   1.368  16.979  0.2946 -0.6128  0.1223
  375MPD2    C1 5607   0.510   1.346  16.868  0.4266  0.2173  0.4539
  375MPD2    C2 5608   0.575   1.292  16.762  0.1280  0.4745 -0.0572
  375MPD2    C3 5609   0.710   1.266  16.764 -0.1274 -0.4944  0.4591
  375MPD2    C4 5610   0.782   1.289  16.878 -0.5342  0.0774 -0.4663
  375MPD2    C5 5611   0.720   1.334  16.991 -0.3756  0.0643 -0.7792
  375MPD2     H 5612   0.517   1.281  16.671  1.4187  0.0622 -0.8320
  375MPD2    H1 5613   0.882   1.257  16.902  0.2644  2.9757  0.0984
  375MPD2    H2 5614   0.544   1.396  17.075  0.7675 -0.3916  0.2691
  375MPD2    H3 5615   0.761   1.328  17.091  0.2027 -0.0064 -1.0206
  375MPD2     N 5616   0.775   1.203  16.656 -0.1236 -0.1873  0.2212
  375MPD2    H5 5617   0.876   1.205  16.664 -0.0171 -0.7289 -0.9720
  375MPD2    N1 5618   0.367   1.370  16.872 -0.5408 -0.2804  0.5417
  375MPD2    H7 5619   0.327   1.318  16.794  2.3417 -0.7568 -0.6068
  376TMC3    C1 5620   0.823   1.101  16.452  0.1760  0.0911 -0.4190
  376TMC3    C2 5621   0.950   1.153  16.461  0.4315  0.4146 -0.0553
  376TMC3    C3 5622   1.041   1.103  16.375  0.3201  0.0865 -1.0748
  376TMC3    C4 5623   0.791   1.011  16.349  0.1076  0.0954  0.3011
  376TMC3    C5 5624   0.900   0.956  16.269 -0.1829  0.9198  0.6619
  376TMC3    C6 5625   1.030   0.999  16.291  0.0214  0.2656  0.4579
  376TMC3     C 5626   0.719   1.141  16.543  0.6807 -0.7458 -0.1983
  376TMC3     O 5627   0.603   1.124  16.509  0.1196 -0.2889  0.1144
  376TMC3     H 5628   0.966   1.250  16.508 -1.2035  0.1557  1.0214
  376TMC3    H1 5629   0.688   0.980  16.341  0.0034  0.7002 -0.7304
  376TMC3    H2 5630   1.114   0.964  16.232 -0.2744 -0.4524  0.4598
  376TMC3    C7 5631   0.865   0.905  16.140  1.5083 -0.9329  0.5132
  376TMC3    C8 5632   1.156   1.185  16.341  0.1014 -0.8122  0.2561
  376TMC3    O1 5633   0.948   0.923  16.057 -0.1076 -0.1024  0.4248
  376TMC3    O2 5634   1.197   1.167  16.229 -0.0210  0.1490 -0.7749
  377MPD2     C 5635   3.752   0.674  12.156  0.1241  0.3912  0.4672
  377MPD2    C1 5636   3.776   0.543  12.193 -0.0481  0.4236 -0.4068
  377MPD2    C2 5637   3.674   0.472  12.257  0.1916 -0.0982 -0.4194
  377MPD2    C3 5638   3.557   0.529  12.288  0.1321 -0.0338  0.8368
  377MPD2    C4 5639   3.531   0.658  12.241  0.0540  0.3767  0.9803
  377MPD2    C5 5640   3.625   0.725  12.177  0.9883 -0.1457  0.0612
  377MPD2     H 5641   3.696   0.373  12.294 -0.8731 -0.1816  0.0057
  377MPD2    H1 5642   3.436   0.708  12.260 -0.3060  0.1166 -0.1182
  377MPD2    H2 5643   3.825   0.737  12.106  0.0157  0.4621  0.3981
  377MPD2    H3 5644   3.615   0.832  12.164  0.5877 -0.3885 -1.6269
  377MPD2     N 5645   3.452   0.477  12.359 -0.4980  0.0997  0.2884
  377MPD2    H5 5646   3.364   0.528  12.352  0.5202  1.6113 -1.4424
  377MPD2    N1 5647   3.910   0.505  12.189 -0.1110  0.4085  0.1742
  377MPD2    H7 5648   3.974   0.567  12.141  2.4468 -1.4917  1.0993
  378TMC3    C1 5649   4.245   0.404  12.027  0.0457 -1.3798 -0.2323
  378TMC3    C2 5650   4.115   0.387  12.061  0.3641 -0.3285 -0.8151
  378TMC3    C3 5651   4.091   0.363  12.189 -0.2751  0.2938 -0.1524
  378TMC3    C4 5652   4.351   0.376  12.114  0.4943 -0.5534 -0.2749
  378TMC3    C5 5653   4.315   0.328  12.234 -0.4898 -0.1872 -0.0681
  378TMC3    C6 5654   4.187   0.336  12.277 -0.7638  0.1092  0.0713
  378TMC3     C 5655   4.270   0.466  11.896 -0.8881 -0.3830  1.1567
  378TMC3     O 5656   4.172   0.519  11.841 -0.2287 -0.6814  0.0039
  378TMC3     H 5657   4.032   0.418  11.997  1.5723  0.3328 -2.0591
  378TMC3    H1 5658   4.454   0.398  12.087  0.5502 -1.5908 -0.8788
  378TMC3    H2 5659   4.151   0.313  12.376  0.0672  2.4249  0.9227
  378TMC3    C7 5660   4.410   0.270  12.322 -0.0877  0.0810 -0.3628
  378TMC3    C8 5661   3.963   0.388  12.243  0.1038  0.0449  0.1066
  378TMC3    O1 5662   4.379   0.240  12.435 -0.7247 -0.3820 -0.8325
  378TMC3    O2 5663   3.927   0.311  12.327  0.1643  0.5160 -0.4371
  379MPD2     C 5664   4.524   3.887  15.940 -0.4250 -0.3792  0.1128
  379MPD2    C1 5665   4.417   3.819  15.991  0.3175  0.0649 -0.0484
  379MPD2    C2 5666   4.422   3.778  16.122 -0.1838 -0.2215  0.3640
  379MPD2    C3 5667   4.534   3.793  16.204  0.6828 -0.1200  0.7270
  379MPD2    C4 5668   4.645   3.855  16.150 -0.0614  0.2410  0.9217
  379MPD2    C5 5669   4.636   3.904  16.020 -0.4515 -0.3560 -0.1746
  379MPD2     H 5670   4.341   3.713  16.152  1.0247 -0.1602  3.6791
  379MPD2    H1 5671   0.007   3.876  16.214 -0.3945  2.4288  0.6727
  379MPD2    H2 5672   4.531   3.930  15.841 -2.0588 -0.7781 -0.1758
  379MPD2    H3 5673   0.001   3.950  15.975  0.6744 -1.0027  1.3808
  379MPD2     N 5674   4.549   3.742  16.336  0.3015  0.0314  0.3519
  379MPD2    H5 5675   4.645   3.743  16.368  0.1696 -2.8490  0.8048
  379MPD2    N1 5676   4.301   3.803  15.901  0.6106 -0.2423  0.0587
  379MPD2    H7 5677   4.320   3.819  15.802  1.0032 -1.7960 -0.1241
  380TMC3    C1 5678   4.099   3.730  15.815 -0.0538 -0.1370 -1.2030
  380TMC3    C2 5679   4.157   3.643  15.732  0.3106  0.1930 -0.3974
  380TMC3    C3 5680   4.071   3.573  15.652  0.1631  0.4317 -0.0963
  380TMC3    C4 5681   3.966   3.737  15.834 -0.0461 -0.1573  0.2672
  380TMC3    C5 5682   3.888   3.689  15.739  0.6052 -0.2024 -0.1179
  380TMC3    C6 5683   3.939   3.604  15.644 -0.2691 -0.2924  0.3411
  380TMC3     C 5684   4.173   3.773  15.932 -0.4276  0.7465 -0.0050
  380TMC3     O 5685   4.122   3.761  16.044 -0.0534 -0.1713  0.7943
  380TMC3     H 5686   4.263   3.622  15.737 -0.2084 -1.9252  1.8300
  380TMC3    H1 5687   3.931   3.806  15.911 -0.8771  1.6723 -1.7652
  380TMC3    H2 5688   3.884   3.566  15.558 -1.9039 -0.6060  1.5477
  380TMC3    C7 5689   3.757   3.753  15.721 -0.0488 -0.3656 -0.1426
  380TMC3    C8 5690   4.137   3.486  15.557 -0.4579 -0.2434 -0.7493
  380TMC3    O1 5691   3.732   3.862  15.773 -0.0307 -0.8770  0.4367
  380TMC3    O2 5692   4.257   3.487  15.544 -0.0121  0.0379  0.0847
  381TMC3    C1 5693   4.004   0.090  16.168  0.0736  0.2137 -0.9632
  381TMC3    C2 5694   4.106   0.185  16.165  0.2597  0.6338 -0.5688
  381TMC3    C3 5695   4.100   0.291  16.257 -0.0224 -0.0109  0.0992
  381TMC3    C4 5696   3.893   0.102  16.243  0.4474 -0.3370 -0.7548
  381TMC3    C5 5697   3.885   0.209  16.321  0.5573  0.3053 -0.0375
  381TMC3    C6 5698   3.989   0.302  16.340  0.2096  0.0688  0.2817
  381TMC3     C 5699   4.008   4.695  16.088 -0.0704  0.2374  0.1873
  381TMC3     O 5700   4.102   4.700  16.011  0.2521 -0.0538 -0.2283
  381TMC3     H 5701   4.187   0.171  16.094  0.3014  1.4942 -0.6875
  381TMC3    H1 5702   3.809   0.034  16.257  0.1073  0.7063  2.3099
  381TMC3    H2 5703   3.974   0.378  16.415 -1.8590  0.6916 -0.7811
  381TMC3    C7 5704   3.845   0.151  16.443 -0.1724 -0.3098 -0.2323
  381TMC3    C8 5705   4.210   0.383  16.236 -0.1826  0.4453  0.2299
  381TMC3    O1 5706   3.915   0.056  16.484  0.3755  0.1382  0.3870
  381TMC3    O2 5707   4.293   0.340  16.162  0.0419 -0.1824 -0.4072
  382MPD2     C 5708   3.397   2.415  17.324 -0.7901  0.9288 -0.3289
  382MPD2    C1 5709   3.313   2.411  17.431 -0.2840  1.3347 -0.7273
  382MPD2    C2 5710   3.259   2.292  17.469  0.1897  0.6890  0.4888
  382MPD2    C3 5711   3.274   2.176  17.393 -0.2747 -0.0732 -0.2799
  382MPD2    C4 5712   3.367   2.178  17.287  0.3777  0.7178 -0.2103
  382MPD2    C5 5713   3.431   2.300  17.260 -0.4163  0.1371 -0.1218
  382MPD2     H 5714   3.182   2.304  17.545  1.0210 -0.9222  1.5751
  382MPD2    H1 5715   3.391   2.091  17.228  1.5581 -1.2763  3.2060
  382MPD2    H2 5716   3.452   2.503  17.291  1.0835 -0.0725  0.1289
  382MPD2    H3 5717   3.507   2.309  17.182  0.8230  0.0141  1.0735
  382MPD2     N 5718   3.199   2.059  17.414 -0.3931 -0.4493  0.3629
  382MPD2    H5 5719   3.194   1.985  17.344  1.7591 -1.9228  1.7619
  382MPD2    N1 5720   3.270   2.527  17.507 -0.0845  1.0140 -0.1960
  382MPD2    H7 5721   3.214   2.501  17.588 -1.2039  0.9632 -0.9855
  383TMC3    C1 5722   3.027   1.925  17.510 -0.0951  0.2257 -1.2170
  383TMC3    C2 5723   3.016   1.870  17.388 -0.3336 -0.1379 -0.5436
  383TMC3    C3 5724   2.954   1.749  17.370 -0.5241 -0.3897  0.0117
  383TMC3    C4 5725   2.971   1.865  17.617 -0.7035  0.7240 -0.0980
  383TMC3    C5 5726   2.908   1.748  17.595  0.5308 -0.0555  0.0111
  383TMC3    C6 5727   2.890   1.683  17.475  0.2220  0.1421  0.4002
  383TMC3     C 5728   3.117   2.038  17.526 -0.2914  0.3684 -0.5081
  383TMC3     O 5729   3.117   2.088  17.637 -0.2106  0.2213  0.1905
  383TMC3     H 5730   3.043   1.931  17.303  3.2491 -0.0676  0.6236
  383TMC3    H1 5731   2.981   1.893   0.028 -0.3675 -2.3578  0.6824
  383TMC3    H2 5732   2.814   1.609  17.454 -0.1693  0.2880  1.3500
  383TMC3    C7 5733   2.836   1.689   0.024  0.3540 -0.7260 -0.9136
  383TMC3    C8 5734   2.934   1.695  17.241 -0.2677  0.2856  0.5276
  383TMC3    O1 5735   2.789   1.760   0.117 -0.6202  0.8120 -0.1134
  383TMC3    O2 5736   2.928   1.778  17.150  0.1592  0.2494  0.3616
  384MPD2     C 5737   0.556   3.133  11.835  0.4400 -0.5368 -0.6788
  384MPD2    C1 5738   0.638   3.101  11.945  1.0042 -0.2212 -0.3596
  384MPD2    C2 5739   0.755   3.029  11.925  0.4525  0.1990  0.3806
  384MPD2    C3 5740   0.783   2.972  11.802  0.0058  0.1194 -0.0786
  384MPD2    C4 5741   0.690   2.992  11.702 -0.5604 -0.9764  0.0498
  384MPD2    C5 5742   0.580   3.071  11.714 -0.5833  0.3349  0.7194
  384MPD2     H 5743   0.823   3.007  12.007 -0.6182 -3.6803  0.2555
  384MPD2    H1 5744   0.712   2.956  11.603  0.6016 -0.7970  0.2442
  384MPD2    H2 5745   0.465   3.189  11.849 -0.0971 -1.5135 -0.2269
  384MPD2    H3 5746   0.505   3.072  11.636 -2.6598  1.5794  2.7344
  384MPD2     N 5747   0.881   2.866  11.798  0.2106 -0.0397  0.2464
  384MPD2    H5 5748   0.932   2.833  11.879  1.0046  0.3874 -0.0892
  384MPD2    N1 5749   0.610   3.145  12.071  0.0158  0.5784  0.0164
  384MPD2    H7 5750   0.676   3.119  12.144  2.4614  1.6235 -1.8274
  385TMC3    C1 5751   0.970   2.668  11.730  0.0901  0.2629  0.3328
  385TMC3    C2 5752   0.896   2.552  11.720 -0.6409  0.2785  0.5445
  385TMC3    C3 5753   0.898   2.465  11.826 -0.4593 -0.4211 -0.6534
  385TMC3    C4 5754   1.055   2.693  11.837  0.0252 -0.2947 -0.3665
  385TMC3    C5 5755   1.055   2.603  11.944 -0.3994  0.1904  0.0187
  385TMC3    C6 5756   0.970   2.492  11.941  0.1538 -0.2147 -0.0407
  385TMC3     C 5757   0.895   2.781  11.686  0.2450  0.2283  1.1938
  385TMC3     O 5758   0.812   2.762  11.600  0.2916 -0.9052  0.0644
  385TMC3     H 5759   0.840   2.533  11.630 -0.3775 -0.5041  0.5485
  385TMC3    H1 5760   1.124   2.776  11.825  1.7327 -1.7428 -0.4862
  385TMC3    H2 5761   0.942   2.449  12.036 -1.7588  2.2974  0.5107
  385TMC3    C7 5762   1.039   2.685  12.057 -0.1019  0.7500  0.5545
  385TMC3    C8 5763   0.825   2.340  11.823 -0.1068  0.6008 -0.6223
  385TMC3    O1 5764   1.017   2.800  12.024  0.0216 -0.1132 -0.0822
  385TMC3    O2 5765   0.857   2.253  11.900 -0.2655  0.3713 -0.0284
  386TMC3    C1 5766   0.806   0.833  11.567  0.6165 -0.5330 -0.2950
  386TMC3    C2 5767   0.852   0.840  11.438  0.3810  0.3787 -0.4971
  386TMC3    C3 5768   0.771   0.870  11.338 -0.4525 -0.3738  0.6185
  386TMC3    C4 5769   0.698   0.899  11.608 -0.0467  0.0630  0.0885
  386TMC3    C5 5770   0.620   0.933  11.497  0.2972  0.3536  0.1672
  386TMC3    C6 5771   0.645   0.925  11.361  0.6078 -0.1890  0.2487
  386TMC3     C 5772   0.901   0.810  11.676 -0.0309 -0.5839  0.0035
  386TMC3     O 5773   0.880   0.875  11.777 -0.0497  0.6736 -0.4819
  386TMC3     H 5774   0.957   0.817  11.424  0.6495  2.3861 -1.6994
  386TMC3    H1 5775   0.660   0.913  11.709 -1.2593  0.5155 -0.4308
  386TMC3    H2 5776   0.567   0.917  11.287 -0.6427  0.6182  1.4804
  386TMC3    C7 5777   0.483   0.975  11.534 -0.1310  0.4218 -0.1404
  386TMC3    C8 5778   0.825   0.855  11.198  1.1326 -0.8049  0.1573
  386TMC3    O1 5779   0.436   0.914  11.630 -0.0215  0.7577 -0.2224
  386TMC3    O2 5780   0.945   0.828  11.184 -0.2332  0.2715  0.2617
  387MPD2     C 5781   2.352   1.121   9.580  0.6393 -0.1707 -0.1724
  387MPD2    C1 5782   2.492   1.103   9.592 -0.0564  0.4766 -0.5105
  387MPD2    C2 5783   2.545   0.982   9.549  0.6241 -0.3666 -0.5493
  387MPD2    C3 5784   2.463   0.873   9.526  0.0631  0.2781 -0.2372
  387MPD2    C4 5785   2.329   0.891   9.511  0.6072  0.9626  0.1039
  387MPD2    C5 5786   2.275   1.014   9.541 -0.4474 -0.7958 -0.2630
  387MPD2     H 5787   2.651   0.959   9.552  0.8377  0.5656 -1.2094
  387MPD2    H1 5788   2.263   0.806   9.499 -0.6805  2.0886 -0.7049
  387MPD2    H2 5789   2.304   1.210   9.618  3.6163  0.9409  1.0337
  387MPD2    H3 5790   2.166   1.009   9.541 -0.5470  1.5256 -0.6164
  387MPD2     N 5791   2.528   0.747   9.522 -0.0893 -0.5834  0.2786
  387MPD2    H5 5792   2.628   0.754   9.537  0.0160 -1.2634 -0.1308
  387MPD2    N1 5793   2.591   1.199   9.646 -0.6543  0.2993 -0.2212
  387MPD2    H7 5794   2.689   1.172   9.641 -0.3714  1.2259  0.3225
  388TMC3    C1 5795   2.673   1.353   9.796 -0.3015 -0.3068  0.2983
  388TMC3    C2 5796   2.707   1.479   9.806  0.4126  0.7131  0.3701
  388TMC3    C3 5797   2.810   1.505   9.893  0.4838 -0.2903 -0.4190
  388TMC3    C4 5798   2.735   1.240   9.848 -1.4339 -0.3020 -0.4884
  388TMC3    C5 5799   2.843   1.272   9.920 -0.7593 -0.1739 -0.2434
  388TMC3    C6 5800   2.889   1.399   9.933  0.4637  0.6504 -0.3503
  388TMC3     C 5801   2.559   1.321   9.708 -0.1574 -0.2721  0.8288
  388TMC3     O 5802   2.457   1.385   9.721  0.1149 -0.3180 -0.1331
  388TMC3     H 5803   2.640   1.553   9.766 -0.4129  0.2449  0.8700
  388TMC3    H1 5804   2.694   1.140   9.849  0.5031 -1.0813  1.6437
  388TMC3    H2 5805   2.969   1.416  10.005 -0.6600 -0.4305  1.1398
  388TMC3    C7 5806   2.929   1.168   9.973  0.3573 -0.6157 -0.1076
  388TMC3    C8 5807   2.861   1.632   9.926 -0.3574  0.2156 -0.5518
  388TMC3    O1 5808   2.993   1.180  10.075  0.1089 -0.4987 -0.2347
  388TMC3    O2 5809   2.905   1.650  10.039 -0.1930 -0.6492 -0.0690
  389MPD2     C 5810   2.348   3.770  11.626 -0.1079 -0.1893 -0.2909
  389MPD2    C1 5811   2.367   3.712  11.502 -0.2080  0.5892  0.0945
  389MPD2    C2 5812   2.323   3.581  11.472 -0.0410 -0.6808  0.2547
  389MPD2    C3 5813   2.266   3.507  11.574 -0.1459 -0.6333 -0.0842
  389MPD2    C4 5814   2.241   3.574  11.697 -0.5384  0.5678  0.8016
  389MPD2    C5 5815   2.282   3.700  11.726 -0.1316 -0.4920 -0.3758
  389MPD2     H 5816   2.364   3.527  11.388  0.7372 -1.0712  0.8939
  389MPD2    H1 5817   2.192   3.530  11.783 -0.6113  3.5155  2.2529
  389MPD2    H2 5818   2.390   3.869  11.639  0.9150 -1.0474  2.8465
  389MPD2    H3 5819   2.272   3.741  11.826 -0.6782  0.8453 -0.9824
  389MPD2     N 5820   2.219   3.373  11.556 -0.0616  0.1889 -0.0327
  389MPD2    H5 5821   2.166   3.331  11.632 -0.2805  1.3406  0.4551
  389MPD2    N1 5822   2.441   3.790  11.410 -0.5208 -0.2102 -0.5871
  389MPD2    H7 5823   2.465   3.882  11.447  1.3502 -0.0801 -2.1172
  390TMC3    C1 5824   2.170   3.176  11.426  0.0742  0.5146  0.4236
  390TMC3    C2 5825   2.185   3.096  11.531  0.4002  0.0554  0.3745
  390TMC3    C3 5826   2.148   2.965  11.512 -1.5613 -0.2831 -0.1798
  390TMC3    C4 5827   2.129   3.138  11.302 -0.3404  0.1298  0.0085
  390TMC3    C5 5828   2.083   3.011  11.286  0.0623  0.0326 -0.3451
  390TMC3    C6 5829   2.090   2.927  11.389  0.3589  0.4774  0.1012
  390TMC3     C 5830   2.219   3.309  11.431 -0.2869 -0.2501  0.1084
  390TMC3     O 5831   2.262   3.354  11.326  0.2427 -0.4734 -0.9077
  390TMC3     H 5832   2.229   3.130  11.624 -2.3252 -0.7360  1.9478
  390TMC3    H1 5833   2.128   3.198  11.212  0.7722  1.1301  0.6600
  390TMC3    H2 5834   2.084   2.819  11.381 -2.9750  0.6846 -0.0710
  390TMC3    C7 5835   2.007   2.973  11.169  0.0191 -1.3315 -0.9913
  390TMC3    C8 5836   2.149   2.862  11.617  0.2708  0.3133 -0.4245
  390TMC3    O1 5837   2.029   3.033  11.065  0.0681  0.2920 -0.3074
  390TMC3    O2 5838   2.167   2.745  11.580 -0.7376 -0.5780 -0.2369
  391MPD2     C 5839   1.897   0.224  11.056  0.9579  0.1762 -0.4106
  391MPD2    C1 5840   1.957   0.349  11.033  0.7474  0.1399 -0.9929
  391MPD2    C2 5841   1.921   0.409  10.913  0.1693  0.2152 -0.2070
  391MPD2    C3 5842   1.825   0.354  10.826  0.4777 -0.2443 -0.3364
  391MPD2    C4 5843   1.764   0.237  10.855 -0.4106 -0.5009  0.1098
  391MPD2    C5 5844   1.797   0.175  10.974  0.2911 -0.6788 -0.0070
  391MPD2     H 5845   1.955   0.509  10.886 -3.3046  1.2803 -0.5734
  391MPD2    H1 5846   1.682   0.184  10.807 -1.0676  1.4555 -0.9624
  391MPD2    H2 5847   1.931   0.172  11.145 -2.1713 -0.9372  0.1248
  391MPD2    H3 5848   1.738   0.088  11.000  0.5683 -0.5685  0.9737
  391MPD2     N 5849   1.788   0.430  10.714 -0.9575  0.0334  0.2718
  391MPD2    H5 5850   1.842   0.514  10.701  2.0944 -1.8322  0.9880
  391MPD2    N1 5851   2.046   0.411  11.121 -0.0555  0.2455  0.4984
  391MPD2    H7 5852   2.090   0.362  11.198  1.1226 -0.5879 -0.6920
  392TMC3    C1 5853   1.662   0.508  10.526 -0.7974  0.4565  0.1444
  392TMC3    C2 5854   1.539   0.526  10.467 -0.4799 -0.7565  0.5759
  392TMC3    C3 5855   1.520   0.631  10.382 -0.0200  0.5105  0.0256
  392TMC3    C4 5856   1.773   0.584  10.490  0.1888  0.0941  0.4724
  392TMC3    C5 5857   1.738   0.694  10.416  0.3680  0.8637 -0.0199
  392TMC3    C6 5858   1.617   0.723  10.363 -0.5282 -0.0479  0.4117
  392TMC3     C 5859   1.678   0.405  10.630  0.2251  0.3420 -0.1635
  392TMC3     O 5860   1.591   0.320  10.641  0.8135 -0.1688  1.3908
  392TMC3     H 5861   1.453   0.466  10.493 -0.2814 -0.7791  1.1815
  392TMC3    H1 5862   1.874   0.567  10.524  0.2844 -1.2905 -0.5018
  392TMC3    H2 5863   1.603   0.811  10.302  1.4761 -1.7372 -2.4857
  392TMC3    C7 5864   1.847   0.787  10.397  0.0015  0.2860 -0.7548
  392TMC3    C8 5865   1.379   0.648  10.319 -0.4397 -0.1761 -0.7201
  392TMC3    O1 5866   1.926   0.803  10.487  0.6308  0.1297 -0.2317
  392TMC3    O2 5867   1.300   0.558  10.350 -0.4423  0.6159  0.0877
  393TMC3    C1 5868   4.374   3.113  10.702  0.5451  0.2582 -0.1938
  393TMC3    C2 5869   4.311   3.127  10.826  0.4218 -0.1805  0.6908
  393TMC3    C3 5870   4.375   3.070  10.935 -0.2207 -0.0605 -0.3717
  393TMC3    C4 5871   4.479   3.028  10.679 -0.5881 -0.2773 -0.0992
  393TMC3    C5 5872   4.531   2.975  10.795 -0.1081 -0.1850 -0.3444
  393TMC3    C6 5873   4.484   2.998  10.919 -0.2474 -0.4404  0.6588
  393TMC3     C 5874   4.350   3.205  10.597 -1.0324 -0.2621 -0.4502
  393TMC3     O 5875   4.370   3.160  10.486 -0.1092  0.2427 -0.0736
  393TMC3     H 5876   4.220   3.185  10.842 -0.3270 -1.0520 -0.3927
  393TMC3    H1 5877   4.532   3.027  10.585  0.2636  3.8394  0.3121
  393TMC3    H2 5878   4.515   2.943  11.007 -1.0541 -1.6416  0.1884
  393TMC3    C7 5879   4.667   2.933  10.775 -0.6425 -0.1868 -0.2181
  393TMC3    C8 5880   4.313   3.090  11.064 -1.0058 -0.1035 -0.6140
  393TMC3    O1 5881   4.703   2.884  10.668 -0.0595 -0.1580  0.5176
  393TMC3    O2 5882   4.189   3.086  11.076 -0.7720  0.2716  0.2351
  394TMC3    C1 5883   2.538   3.864  11.214 -0.4297 -0.0194  0.6643
  394TMC3    C2 5884   2.498   3.992  11.229  0.5904 -0.1182  0.0569
  394TMC3    C3 5885   2.564   4.084  11.149  0.2730 -0.3724  0.9354
  394TMC3    C4 5886   2.625   3.825  11.123 -0.3693  0.1954 -0.5277
  394TMC3    C5 5887   2.696   3.922  11.055 -0.0467 -0.7093  0.8302
  394TMC3    C6 5888   2.677   4.053  11.078 -0.0369  0.8853  0.1475
  394TMC3     C 5889   2.459   3.762  11.277  0.4155 -0.2956 -0.2479
  394TMC3     O 5890   2.458   3.655  11.214 -0.1166  0.8042 -0.0402
  394TMC3     H 5891   2.413   4.023  11.289  2.4747  1.3236  1.9618
  394TMC3    H1 5892   2.630   3.718  11.107 -0.2978  0.1216 -0.0156
  394TMC3    H2 5893   2.731   4.125  11.018 -0.3050  1.3502  0.4706
  394TMC3    C7 5894   2.742   3.892  10.922  0.2467 -0.3573  0.1037
  394TMC3    C8 5895   2.480   4.183  11.087  0.5748 -0.1965 -0.0099
  394TMC3    O1 5896   2.802   3.988  10.872 -0.4716 -0.6986 -0.3351
  394TMC3    O2 5897   2.484   4.293  11.138  0.0282  0.4425  0.3112
  395TMC3    C1 5898   1.927   1.106  14.753 -0.2433  0.0578 -0.7200
  395TMC3    C2 5899   1.872   1.087  14.624  0.1731  0.3637  0.1006
  395TMC3    C3 5900   1.904   1.181  14.524 -0.0051  0.0643 -0.1171
  395TMC3    C4 5901   2.026   1.204  14.772  0.3677  0.5708 -0.2758
  395TMC3    C5 5902   2.049   1.299  14.673 -0.4158 -0.5790  0.4208
  395TMC3    C6 5903   1.988   1.291  14.550 -0.1336 -0.4426 -0.4872
  395TMC3     C 5904   1.836   1.107  14.860  0.0373  0.9011 -0.3559
  395TMC3     O 5905   1.821   1.217  14.916 -0.6517  0.0019 -0.0072
  395TMC3     H 5906   1.800   1.007  14.611  2.7368 -1.9402 -0.0039
  395TMC3    H1 5907   2.058   1.224  14.873 -2.9744  0.4036  0.8169
  395TMC3    H2 5908   2.007   1.365  14.472  2.3111  0.9944  1.4868
  395TMC3    C7 5909   2.148   1.401  14.704 -0.1781  0.5510 -1.5268
  395TMC3    C8 5910   1.829   1.183  14.398  0.1399  0.4909  0.3276
  395TMC3    O1 5911   2.133   1.513  14.655 -0.5051  0.1203 -0.7816
  395TMC3    O2 5912   1.830   1.282  14.326 -0.2414  0.0150  0.0131
  396MPD2     C 5913   1.744   2.019  17.403  1.0531 -0.7235  0.0790
  396MPD2    C1 5914   1.643   2.012  17.306 -0.2090 -0.1523 -0.3517
  396MPD2    C2 5915   1.647   2.080  17.187 -0.0471 -0.8934  0.0047
  396MPD2    C3 5916   1.733   2.187  17.175  0.4612 -0.2115 -0.1804
  396MPD2    C4 5917   1.827   2.206  17.277 -0.4617  0.3406  0.4833
  396MPD2    C5 5918   1.828   2.127  17.390  0.0046  0.0982 -0.2225
  396MPD2     H 5919   1.570   2.067  17.112  3.3744 -1.2575 -3.4593
  396MPD2    H1 5920   1.895   2.290  17.278  0.1089 -0.1584  2.6956
  396MPD2    H2 5921   1.742   1.961  17.494  1.4698  1.4936  1.5059
  396MPD2    H3 5922   1.902   2.150  17.465  1.4590 -1.1136 -1.2728
  396MPD2     N 5923   1.734   2.258  17.054  0.1612  0.8538  0.2489
  396MPD2    H5 5924   1.666   2.232  16.983  1.3453 -0.6863 -0.3459
  396MPD2    N1 5925   1.551   1.908  17.317  0.5170  0.0243  0.0700
  396MPD2    H7 5926   1.569   1.841  17.391 -1.1472 -1.5780 -0.9628
  397TMC3    C1 5927   1.389   1.759  17.238  0.1884 -0.5882  0.3454
  397TMC3    C2 5928   1.353   1.740  17.109 -0.2558 -0.0726  0.4731
  397TMC3    C3 5929   1.407   1.643  17.027 -0.0378 -0.5447  0.1911
  397TMC3    C4 5930   1.477   1.665  17.292  0.3422  0.7080  0.1440
  397TMC3    C5 5931   1.514   1.553  17.219 -0.6688 -0.0414  0.1361
  397TMC3    C6 5932   1.488   1.549  17.082  0.1813  0.2784 -1.1126
  397TMC3     C 5933   1.434   1.900  17.251 -0.0559  0.6024 -0.4060
  397TMC3     O 5934   1.376   1.995  17.196 -0.2102  0.1717 -0.1324
  397TMC3     H 5935   1.302   1.823  17.063  0.2750  0.1576  0.2936
  397TMC3    H1 5936   1.495   1.666  17.399 -0.2330  0.2309  0.2427
  397TMC3    H2 5937   1.532   1.473  17.019  1.0332 -0.3374  0.2169
  397TMC3    C7 5938   1.580   1.435  17.282 -1.1201  0.0688 -0.2217
  397TMC3    C8 5939   1.437   1.692  16.898  0.4343  0.2031 -0.4688
  397TMC3    O1 5940   1.592   1.340  17.203 -0.3471  0.1704  0.3184
  397TMC3    O2 5941   1.344   1.730  16.826 -0.0337  0.7791 -0.2716
  398MPD2     C 5942   4.419   2.794   0.108 -0.3129 -0.9645 -0.0030
  398MPD2    C1 5943   4.477   2.692   0.184  0.4147  0.5869  0.5988
  398MPD2    C2 5944   4.591   2.712   0.246  0.5734  0.5565  0.0055
  398MPD2    C3 5945   4.656   2.831   0.241 -0.1864  0.4895 -0.4164
  398MPD2    C4 5946   4.599   2.938   0.172  0.1757 -0.1023 -0.1453
  398MPD2    C5 5947   4.485   2.912   0.105 -0.5575  0.3685 -0.3734
  398MPD2     H 5948   4.641   2.635   0.305 -2.1073 -0.7103  0.6081
  398MPD2    H1 5949   4.654   3.031   0.159 -0.3309  0.4428  1.6272
  398MPD2    H2 5950   4.323   2.780   0.059  0.4283 -0.0982 -1.6909
  398MPD2    H3 5951   4.432   2.985   0.046  1.2352  0.9808 -1.2350
  398MPD2     N 5952   0.038   2.847   0.328  0.0164  0.3847 -0.1666
  398MPD2    H5 5953   0.078   2.771   0.381 -0.8449  0.8364  1.1385
  398MPD2    N1 5954   4.407   2.566   0.206 -0.7744 -0.7923 -0.2598
  398MPD2    H7 5955   4.459   2.508   0.271 -3.1964  0.0830  2.4698
  399TMC3    C1 5956   4.256   2.386   0.194  0.5085 -0.0498  0.4166
  399TMC3    C2 5957   4.363   2.303   0.207  0.2959  0.4041 -0.6226
  399TMC3    C3 5958   4.328   2.171   0.188  0.7537 -0.1163 -0.5875
  399TMC3    C4 5959   4.123   2.349   0.167  0.3932 -0.7442 -0.3132
  399TMC3    C5 5960   4.099   2.213   0.150  0.1913 -1.0034 -0.1627
  399TMC3    C6 5961   4.200   2.122   0.159  0.0242 -0.1489 -0.5024
  399TMC3     C 5962   4.280   2.527   0.168  0.8866  0.7431 -0.4671
  399TMC3     O 5963   4.194   2.606   0.124 -0.4730  0.3194 -0.2266
  399TMC3     H 5964   4.463   2.332   0.238  0.1621 -1.6720  1.7674
  399TMC3    H1 5965   4.052   2.431   0.155  0.0101 -1.1632 -0.9163
  399TMC3    H2 5966   4.182   2.018   0.132 -1.2935  0.1347 -0.7418
  399TMC3    C7 5967   3.962   2.181   0.096 -0.3055 -0.3343 -0.2827
  399TMC3    C8 5968   4.438   2.086   0.255 -0.4990  0.0625  0.4557
  399TMC3    O1 5969   3.949   2.076   0.032 -0.1158  0.0383 -0.7827
  399TMC3    O2 5970   4.536   2.143   0.305 -0.4494  0.1553  0.1104
  400TMC3    C1 5971   3.046   1.317  16.805 -0.4610 -0.4970  0.0124
  400TMC3    C2 5972   2.932   1.354  16.731  0.1477  0.2006  0.0241
  400TMC3    C3 5973   2.908   1.492  16.725  0.3795  0.3066 -0.1352
  400TMC3    C4 5974   3.130   1.406  16.859 -0.2124 -0.0055 -0.0684
  400TMC3    C5 5975   3.103   1.542  16.853 -0.6342  0.0623  0.3131
  400TMC3    C6 5976   2.988   1.591  16.788  0.2056  0.2331  0.0086
  400TMC3     C 5977   3.041   1.192  16.877  0.2047 -0.4015 -0.0796
  400TMC3     O 5978   2.991   1.096  16.820 -0.0102 -0.3334  0.5725
  400TMC3     H 5979   2.855   1.287  16.696  0.4337 -1.0622  1.8420
  400TMC3    H1 5980   3.226   1.369  16.892 -0.7270 -1.8894 -0.7059
  400TMC3    H2 5981   2.967   1.697  16.781 -0.2806  0.1057 -0.4351
  400TMC3    C7 5982   3.207   1.641  16.895  0.1381 -0.1995  0.1978
  400TMC3    C8 5983   2.805   1.543  16.633  0.0495  0.3844 -0.5410
  400TMC3    O1 5984   3.324   1.604  16.900 -0.4190  0.4781  0.0878
  400TMC3    O2 5985   2.808   1.662  16.606 -0.4038 -0.8611 -0.3880
  401MPD2     C 5986   0.638   0.352   1.278  0.4210 -0.3226 -0.4602
  401MPD2    C1 5987   0.660   0.239   1.200 -0.5413 -0.4052 -0.1510
  401MPD2    C2 5988   0.591   0.128   1.235 -0.2032 -0.1384  0.3772
  401MPD2    C3 5989   0.518   0.110   1.347 -0.0499 -0.0978  0.3660
  401MPD2    C4 5990   0.499   0.216   1.427  0.0744 -0.0724 -0.6855
  401MPD2    C5 5991   0.556   0.339   1.389 -0.0115  0.3442 -0.1914
  401MPD2     H 5992   0.598   0.045   1.166  0.1310  1.1263 -1.1174
  401MPD2    H1 5993   0.433   0.220   1.512  1.7637 -1.6937  0.7027
  401MPD2    H2 5994   0.676   0.450   1.250 -1.4637  0.3761 -0.5644
  401MPD2    H3 5995   0.522   0.423   1.448 -0.6402  0.4148 -0.6630
  401MPD2     N 5996   0.458   4.704   1.368  0.2861  0.0456 -0.1878
  401MPD2    H5 5997   0.489   4.638   1.298 -0.3275 -0.8569  0.3827
  401MPD2    N1 5998   0.736   0.251   1.082  0.8045 -0.6064 -0.0218
  401MPD2    H7 5999   0.755   0.167   1.029  0.5332  1.2643 -3.0770
  402TMC3    C1 6000   0.373   4.519   1.485 -0.6811 -0.3490 -0.6673
  402TMC3    C2 6001   0.405   4.462   1.604  0.0710 -0.8999 -0.0029
  402TMC3    C3 6002   0.455   4.330   1.594 -0.5505  0.5540 -0.0356
  402TMC3    C4 6003   0.368   4.451   1.369 -0.3255 -0.1539 -0.5899
  402TMC3    C5 6004   0.410   4.320   1.370  0.2380 -0.8196 -0.3769
  402TMC3    C6 6005   0.478   4.260   1.470  0.7699  0.5763  0.0041
  402TMC3     C 6006   0.383   4.667   1.482  0.4164 -0.3230  0.0210
  402TMC3     O 6007   0.355   4.721   1.586  0.2273  0.0113  0.1561
  402TMC3     H 6008   0.419   4.528   1.689  0.9463  1.0147 -1.6202
  402TMC3    H1 6009   0.328   4.490   1.276 -0.3166  1.1529 -0.0424
  402TMC3    H2 6010   0.525   4.162   1.473  0.6701  0.6192  3.8616
  402TMC3    C7 6011   0.389   4.254   1.248  0.1691 -0.1149  0.1303
  402TMC3    C8 6012   0.531   4.285   1.706  0.4119 -0.1109 -0.9736
  402TMC3    O1 6013   0.297   4.280   1.174 -0.2434  0.3508 -0.6383
  402TMC3    O2 6014   0.638   4.225   1.689  0.3956  0.4918 -0.1093
  403MPD2     C 6015   0.105   2.824  13.251  0.2734  0.3032  0.1676
  403MPD2    C1 6016   0.124   2.712  13.323 -0.0935 -0.0562 -0.0604
  403MPD2    C2 6017   0.217   2.718  13.428 -0.4295  0.2043 -0.2815
  403MPD2    C3 6018   0.282   2.837  13.460 -0.1446  0.0090 -0.0584
  403MPD2    C4 6019   0.250   2.949  13.390  0.8522  0.0167 -0.4466
  403MPD2    C5 6020   0.172   2.937  13.279  0.3543  0.1150  0.4788
  403MPD2     H 6021   0.224   2.630  13.491  2.1766 -1.0221 -2.2614
  403MPD2    H1 6022   0.305   3.042  13.402 -0.6259  0.9062 -0.5163
  403MPD2    H2 6023   0.052   2.813  13.157 -1.5499 -0.2607  1.2644
  403MPD2    H3 6024   0.161   3.030  13.224 -0.7279  0.0212  0.5375
  403MPD2     N 6025   0.384   2.835  13.556 -0.2074 -0.0864 -0.1458
  403MPD2    H5 6026   0.407   2.752  13.610  0.7710 -0.8061 -1.6761
  403MPD2    N1 6027   0.052   2.599  13.289  0.3093 -0.1837  0.5551
  403MPD2    H7 6028   0.006   2.610  13.199 -0.0535 -0.2642  0.7285
  404TMC3    C1 6029   4.636   2.425  13.314  0.0122  0.1707 -0.2575
  404TMC3    C2 6030   4.509   2.416  13.366 -0.3019 -0.0701 -0.0529
  404TMC3    C3 6031   4.405   2.365  13.283 -0.0958 -0.1992  0.2105
  404TMC3    C4 6032   4.664   2.391  13.188  0.0822 -0.5047  0.0772
  404TMC3    C5 6033   4.561   2.349  13.104 -0.8166  0.5055 -0.0958
  404TMC3    C6 6034   4.433   2.340  13.148  0.5768  0.4943  0.2437
  404TMC3     C 6035   0.001   2.514  13.381 -0.0252 -0.1009  0.2312
  404TMC3     O 6036   0.009   2.500  13.502 -0.0961 -0.0086  0.4803
  404TMC3     H 6037   4.488   2.464  13.462 -0.4053  2.2411 -1.2252
  404TMC3    H1 6038   0.043   2.390  13.150  0.0327  0.2871 -0.0620
  404TMC3    H2 6039   4.354   2.296  13.088  0.7580 -1.6011  1.5313
  404TMC3    C7 6040   4.596   2.343  12.961  0.5592 -0.3706  0.4599
  404TMC3    C8 6041   4.262   2.396  13.303  0.2781  0.7639 -0.2723
  404TMC3    O1 6042   4.717   2.348  12.936 -0.8564  0.4140  0.2878
  404TMC3    O2 6043   4.179   2.346  13.229  0.1699 -0.6042 -0.6273
  405MPD2     C 6044   4.633   3.397  14.216 -0.8384 -0.0164  0.0583
  405MPD2    C1 6045   4.595   3.397  14.084 -0.7160  0.0607  0.2031
  405MPD2    C2 6046   4.505   3.492  14.040  0.0712 -0.8369 -0.2240
  405MPD2    C3 6047   4.457   3.593  14.122  0.0804  0.6510 -0.3136
  405MPD2    C4 6048   4.515   3.602  14.244  0.2023 -0.0029  0.0599
  405MPD2    C5 6049   4.593   3.497  14.296  0.3391  0.6691  0.3696
  405MPD2     H 6050   4.457   3.494  13.943 -0.5518  1.2920  0.1302
  405MPD2    H1 6051   4.479   3.679  14.311 -0.8894 -1.9689  1.7461
  405MPD2    H2 6052   4.702   3.322  14.253  0.8189  1.0624 -0.7947
  405MPD2    H3 6053   4.634   3.494  14.396 -1.3045  0.9213  1.0574
  405MPD2     N 6054   4.361   3.682  14.077 -0.2425  0.1100  0.1172
  405MPD2    H5 6055   4.330   3.672  13.981  1.6244  0.7210 -0.5451
  405MPD2    N1 6056   4.640   3.288  14.005  0.5189  0.3929  0.3270
  405MPD2    H7 6057   4.670   3.216  14.071 -3.0258 -0.7958  0.6523
  406TMC3    C1 6058   4.005   3.947  14.029 -0.2378  0.4631  0.1015
  406TMC3    C2 6059   3.992   3.911  13.896  0.1393  0.4530  0.7603
  406TMC3    C3 6060   4.103   3.855  13.840  0.3829 -0.3942  0.3287
  406TMC3    C4 6061   4.112   3.917  14.105  0.0574 -0.3093 -0.3112
  406TMC3    C5 6062   4.222   3.866  14.050  0.5628  0.2648  0.8865
  406TMC3    C6 6063   4.218   3.835  13.917  0.9261 -0.1799  0.2067
  406TMC3     C 6064   3.896   4.020  14.084  0.1090  0.2216 -0.3513
  406TMC3     O 6065   3.827   4.090  14.009 -0.0394  0.3971  0.2489
  406TMC3     H 6066   3.910   3.929  13.827 -0.5182 -0.3448  1.3531
  406TMC3    H1 6067   4.119   3.963  14.203  4.1307 -1.8877  0.1429
  406TMC3    H2 6068   4.309   3.792  13.877 -0.8935 -3.2925 -0.6655
  406TMC3    C7 6069   4.303   3.784  14.141 -0.9063  0.3844 -0.2355
  406TMC3    C8 6070   4.108   3.799  13.711  0.2550 -0.7654 -0.2983
  406TMC3    O1 6071   4.296   3.803  14.261  0.1415 -0.1706  0.0894
  406TMC3    O2 6072   4.058   3.863  13.615  0.1087  0.1928 -0.0973
  407MPD2     C 6073   1.952   0.444   9.776  0.0285  0.1174  0.3209
  407MPD2    C1 6074   2.066   0.479   9.708  0.4284  0.0674 -0.0821
  407MPD2    C2 6075   2.174   0.538   9.775 -0.2172  0.1934 -0.0712
  407MPD2    C3 6076   2.162   0.573   9.909 -0.2366 -0.4053  0.5460
  407MPD2    C4 6077   2.043   0.547   9.976 -0.0814 -0.0227  0.9287
  407MPD2    C5 6078   1.942   0.477   9.911  0.0911 -0.0309 -0.1555
  407MPD2     H 6079   2.255   0.578   9.715  0.7205  0.8793  1.6762
  407MPD2    H1 6080   2.033   0.570  10.082  1.2359  0.5325  0.9299
  407MPD2    H2 6081   1.867   0.394   9.730  1.7012 -1.8437 -0.6328
  407MPD2    H3 6082   1.850   0.449   9.961  1.6731 -3.9188  0.5179
  407MPD2     N 6083   2.269   0.635   9.971 -0.4741 -0.5465 -0.9259
  407MPD2    H5 6084   2.242   0.687  10.053 -0.6867 -1.5642 -0.3538
  407MPD2    N1 6085   2.089   0.464   9.570 -0.0429 -0.0615 -0.3533
  407MPD2    H7 6086   2.177   0.503   9.537 -0.1374 -0.8600 -1.5469
  408TMC3    C1 6087   2.045   0.426   9.345 -0.3077 -0.5006 -0.6382
  408TMC3    C2 6088   2.154   0.349   9.323 -0.8878  0.6538 -0.0756
  408TMC3    C3 6089   2.230   0.378   9.213  0.5037  0.2799  0.7705
  408TMC3    C4 6090   2.027   0.541   9.274  0.3546  0.0400 -0.7975
  408TMC3    C5 6091   2.105   0.565   9.158  0.1081 -0.1117 -0.4702
  408TMC3    C6 6092   2.199   0.473   9.126  0.0503 -0.5317  0.0919
  408TMC3     C 6093   1.994   0.434   9.477 -0.1630 -0.2475 -0.7393
  408TMC3     O 6094   1.878   0.413   9.500  0.4183  0.0774 -0.0348
  408TMC3     H 6095   2.179   0.264   9.386  1.7990  0.4106 -1.4618
  408TMC3    H1 6096   1.940   0.598   9.307  0.0934 -1.1995  0.6195
  408TMC3    H2 6097   2.252   0.493   9.034 -0.1009  2.8507  0.7158
  408TMC3    C7 6098   2.157   0.695   9.136 -0.7209  0.3965  0.0002
  408TMC3    C8 6099   2.374   0.366   9.238 -0.0677  0.7271  1.0064
  408TMC3    O1 6100   2.273   0.712   9.097 -0.1978 -0.1794 -0.3299
  408TMC3    O2 6101   2.416   0.278   9.312  0.2794  0.5123  0.0913
  409MPD2     C 6102   1.788   1.155  16.638  0.5161 -0.3212 -1.0181
  409MPD2    C1 6103   1.873   1.183  16.736  0.3620  0.1013  0.6650
  409MPD2    C2 6104   1.946   1.300  16.731  0.3769 -0.1537 -0.1091
  409MPD2    C3 6105   1.942   1.389  16.631  0.0654  0.1648 -0.0296
  409MPD2    C4 6106   1.864   1.356  16.519  0.1748 -0.1795 -0.3087
  409MPD2    C5 6107   1.793   1.239  16.524  0.0749  0.0136 -0.4105
  409MPD2     H 6108   2.005   1.333  16.815  0.5953 -0.7431 -0.0332
  409MPD2    H1 6109   1.845   1.424  16.437 -0.7968 -0.4023 -0.2703
  409MPD2    H2 6110   1.729   1.064  16.637 -0.8532  0.5517  0.3666
  409MPD2    H3 6111   1.729   1.214  16.440  0.7502  0.9197 -1.1859
  409MPD2     N 6112   2.025   1.503  16.622  0.7107  0.2436  0.3542
  409MPD2    H5 6113   2.019   1.555  16.535 -1.6770  0.5853  0.7280
  409MPD2    N1 6114   1.892   1.096  16.850 -0.0768  0.1216 -0.1323
  409MPD2    H7 6115   1.953   1.136  16.920 -0.9097  0.6393  0.3013
  410TMC3    C1 6116   2.226   1.628  16.688 -0.1640  0.1587  0.4267
  410TMC3    C2 6117   2.331   1.622  16.774  0.4298  0.2153 -0.4102
  410TMC3    C3 6118   2.428   1.713  16.762  0.3864  0.5572 -0.0852
  410TMC3    C4 6119   2.216   1.720  16.586  1.0948 -0.4847 -0.0459
  410TMC3    C5 6120   2.315   1.813  16.582 -0.5789 -0.1928  0.8443
  410TMC3    C6 6121   2.418   1.815  16.673  0.2790  0.1476 -0.5529
  410TMC3     C 6122   2.110   1.547  16.730  0.4868 -0.1083 -0.0448
  410TMC3     O 6123   2.104   1.539  16.853 -0.3409 -0.1101  0.2054
  410TMC3     H 6124   2.328   1.538  16.842  1.5328 -0.0492 -0.6751
  410TMC3    H1 6125   2.135   1.728  16.514 -0.4535  1.2027  1.8956
  410TMC3    H2 6126   2.506   1.878  16.670  1.2398 -1.1784 -0.1240
  410TMC3    C7 6127   2.318   1.891  16.465  0.2281  0.0807 -0.0699
  410TMC3    C8 6128   2.552   1.691  16.833 -0.0196  0.0470  0.0676
  410TMC3    O1 6129   2.262   1.848  16.362 -0.2196  0.4262 -0.1468
  410TMC3    O2 6130   2.607   1.795  16.871  0.0033 -0.0200 -0.6245
  411MPD2     C 6131   2.616   2.584  14.383 -0.9393 -0.8528  0.3871
  411MPD2    C1 6132   2.514   2.567  14.467  0.1667  0.4672  0.4459
  411MPD2    C2 6133   2.499   2.444  14.532  0.0694  0.1104 -0.0098
  411MPD2    C3 6134   2.565   2.332  14.495 -0.9696 -0.1683 -0.3071
  411MPD2    C4 6135   2.674   2.363  14.421 -0.1521 -0.0340  0.5518
  411MPD2    C5 6136   2.704   2.484  14.361  0.6019 -1.2523 -0.1490
  411MPD2     H 6137   2.413   2.430  14.598  0.9804  0.0366  1.1606
  411MPD2    H1 6138   2.730   2.277  14.386 -0.8363  0.3692 -1.5540
  411MPD2    H2 6139   2.629   2.677  14.330 -0.1375 -1.4455 -0.4681
  411MPD2    H3 6140   2.767   2.479  14.273  0.6987  1.1186 -0.2004
  411MPD2     N 6141   2.523   2.197  14.514  0.0895  0.6218 -0.0443
  411MPD2    H5 6142   2.592   2.127  14.490 -1.4459 -0.2248 -1.9993
  411MPD2    N1 6143   2.421   2.671  14.476 -0.4512 -0.3855 -0.6192
  411MPD2    H7 6144   2.432   2.753  14.416  0.2952 -0.6755 -0.8723
  412TMC3    C1 6145   2.390   2.013  14.570  0.7101 -0.5394 -0.2138
  412TMC3    C2 6146   2.270   1.977  14.625  0.5941  0.4543 -0.1059
  412TMC3    C3 6147   2.227   1.853  14.606  0.3708  0.0498  0.0215
  412TMC3    C4 6148   2.455   1.934  14.485  0.1967 -0.9476  0.0497
  412TMC3    C5 6149   2.423   1.804  14.474 -0.0075  0.0994 -0.1028
  412TMC3    C6 6150   2.317   1.763  14.554  0.1935  0.1749  0.4240
  412TMC3     C 6151   2.406   2.155  14.569  0.3745 -0.4770 -0.0342
  412TMC3     O 6152   2.322   2.223  14.626  0.2888  0.3816 -0.7778
  412TMC3     H 6153   2.204   2.046  14.677  3.8090  1.4039  2.6928
  412TMC3    H1 6154   2.531   1.976  14.421 -0.0057  0.0164  0.4309
  412TMC3    H2 6155   2.281   1.661  14.539  0.8161  0.3073 -1.8935
  412TMC3    C7 6156   2.416   1.755  14.343  0.7760 -0.1611  1.0247
  412TMC3    C8 6157   2.094   1.852  14.540 -0.2784 -0.0808  0.0859
  412TMC3    O1 6158   2.415   1.845  14.260 -0.3055 -0.3492 -0.2881
  412TMC3    O2 6159   2.051   1.959  14.492 -0.6539  0.5742  0.0341
  413MPD2     C 6160   3.581   0.116  15.803  0.1347 -0.3758  0.3267
  413MPD2    C1 6161   3.542   0.100  15.672 -0.2486 -0.0374  0.6790
  413MPD2    C2 6162   3.631   0.032  15.586  0.4189 -0.6062  0.1793
  413MPD2    C3 6163   3.751   4.703  15.631 -0.0018 -0.3871  0.3872
  413MPD2    C4 6164   3.794   4.722  15.762 -0.5186  0.0262 -0.5679
  413MPD2    C5 6165   3.708   0.074  15.842  0.1861 -0.6310  0.4713
  413MPD2     H 6166   3.616   0.021  15.479 -2.1892  0.3485  0.4365
  413MPD2    H1 6167   3.884   4.687  15.811 -2.7198 -2.2698  1.8322
  413MPD2    H2 6168   3.511   0.157  15.875  0.2387 -0.6507  0.5888
  413MPD2    H3 6169   3.742   0.084  15.945 -0.1760  1.7446  0.3611
  413MPD2     N 6170   3.825   4.644  15.525  0.1103  0.5123 -0.1525
  413MPD2    H5 6171   3.782   4.628  15.435 -1.8433  0.6062  0.7591
  413MPD2    N1 6172   3.409   0.146  15.638  0.1857  0.5227 -0.3580
  413MPD2    H7 6173   3.361   0.209  15.701 -0.3290  0.7798 -1.0043
  414TMC3    C1 6174   3.993   4.539  15.410  0.3826 -0.0801 -0.3347
  414TMC3    C2 6175   4.049   4.416  15.424 -0.3086 -0.2974  0.4541
  414TMC3    C3 6176   4.009   4.318  15.328  0.3203  0.1220  0.2991
  414TMC3    C4 6177   3.899   4.573  15.312 -0.1471 -0.1846  0.5061
  414TMC3    C5 6178   3.877   4.475  15.217 -0.1286 -0.3962 -0.0833
  414TMC3    C6 6179   3.926   4.346  15.222 -0.0007 -0.7562  0.2810
  414TMC3     C 6180   3.950   4.597  15.537  0.2661  0.9110  0.1477
  414TMC3     O 6181   4.026   4.584  15.634  1.2002  0.1435  0.2102
  414TMC3     H 6182   4.107   4.385  15.510  0.2556 -1.5031 -0.3651
  414TMC3    H1 6183   3.878   4.678  15.301 -1.4974 -0.2579  2.5544
  414TMC3    H2 6184   3.903   4.266  15.152 -1.4101 -0.8553  0.8495
  414TMC3    C7 6185   3.785   4.517  15.110 -0.1057  0.4006 -0.6539
  414TMC3    C8 6186   4.091   4.197  15.319 -0.3020 -0.4670  0.1835
  414TMC3    O1 6187   3.678   4.557  15.149 -0.3946 -0.3677  0.0466
  414TMC3    O2 6188   4.036   4.089  15.292  0.4384  0.0945  0.2858
  415TMC3    C1 6189   4.720   2.637   9.764 -0.5456 -0.4928 -0.0615
  415TMC3    C2 6190   0.060   2.724   9.690 -0.2239 -0.0740  0.4377
  415TMC3    C3 6191   4.719   2.757   9.575 -0.0535  0.4450 -0.2774
  415TMC3    C4 6192   4.597   2.579   9.728 -0.7792  0.7538 -0.2960
  415TMC3    C5 6193   4.541   2.608   9.606  0.3551 -0.0884 -0.4506
  415TMC3    C6 6194   4.608   2.692   9.527 -0.0571 -0.0598  0.5182
  415TMC3     C 6195   0.008   2.642   9.916  0.3149 -0.4594 -0.3026
  415TMC3     O 6196   4.675   2.550   9.976  0.0097  0.6616  0.2802
  415TMC3     H 6197   0.162   2.756   9.708  0.0531 -0.0054 -1.3109
  415TMC3    H1 6198   4.543   2.525   9.805 -1.3544  2.6581  0.6300
  415TMC3    H2 6199   4.577   2.711   9.424  0.7021 -0.1273  0.2740
  415TMC3    C7 6200   4.415   2.546   9.563 -0.6536  0.0178 -0.2802
  415TMC3    C8 6201   0.077   2.815   9.472  0.0247  0.3066  0.2518
  415TMC3    O1 6202   4.403   2.544   9.443  0.3365 -0.1657  0.3173
  415TMC3    O2 6203   0.061   2.780   9.357 -0.2526 -0.7533  0.1405
  416MPD2     C 6204   1.926   1.358  11.031  0.5556  0.5877  0.8165
  416MPD2    C1 6205   1.921   1.335  11.168  0.2261 -0.8532 -0.3900
  416MPD2    C2 6206   1.912   1.202  11.208 -0.2801  0.1182 -0.2731
  416MPD2    C3 6207   1.908   1.094  11.119  0.3998 -0.0899 -0.5597
  416MPD2    C4 6208   1.915   1.128  10.987 -0.2950 -0.3154  0.6014
  416MPD2    C5 6209   1.907   1.256  10.941  0.0320 -0.5780  0.2376
  416MPD2     H 6210   1.897   1.184  11.313  1.5736  1.7207  0.2601
  416MPD2    H1 6211   1.888   1.056  10.910  2.6936 -0.3828 -0.3536
  416MPD2    H2 6212   1.922   1.456  10.985  2.3463  0.0335 -0.4934
  416MPD2    H3 6213   1.897   1.266  10.834 -0.1136  1.5533  0.4641
  416MPD2     N 6214   1.883   0.965  11.165 -0.1034 -0.9009 -0.1821
  416MPD2    H5 6215   1.835   0.907  11.097 -2.2144  0.3670  0.2153
  416MPD2    N1 6216   1.914   1.449  11.256 -0.7486 -0.6176 -0.4496
  416MPD2    H7 6217   1.920   1.541  11.214  1.3627 -0.4479  0.2258
  417TMC3    C1 6218   1.829   1.545  11.458 -0.0678  0.1090  0.3704
  417TMC3    C2 6219   1.777   1.516  11.580 -0.4996  0.4962  0.0650
  417TMC3    C3 6220   1.668   1.596  11.621 -0.1063  0.1225 -0.0203
  417TMC3    C4 6221   1.768   1.631  11.372 -0.6626 -0.6675 -0.0843
  417TMC3    C5 6222   1.650   1.688  11.406  0.5969 -0.2591  0.9001
  417TMC3    C6 6223   1.598   1.669  11.530 -0.0773  0.0947  0.1119
  417TMC3     C 6224   1.897   1.436  11.392  0.1118 -0.2616  0.0112
  417TMC3     O 6225   1.922   1.343  11.465 -0.0687  0.0953 -0.3899
  417TMC3     H 6226   1.828   1.444  11.642 -1.7429 -0.6883 -0.2972
  417TMC3    H1 6227   1.811   1.661  11.277 -0.0554 -1.9100 -0.1912
  417TMC3    H2 6228   1.501   1.706  11.561 -0.1203 -0.8737  1.0949
  417TMC3    C7 6229   1.592   1.796  11.327  0.2069  0.0687 -0.2794
  417TMC3    C8 6230   1.646   1.623  11.761  0.1445 -0.1801  0.1623
  417TMC3    O1 6231   1.630   1.806  11.211 -0.0486  0.1452  0.5716
  417TMC3    O2 6232   1.577   1.721  11.791 -0.0380  0.1676 -0.1721
  418TMC3    C1 6233   0.448   2.879   0.351  0.6924  0.7513  0.0430
  418TMC3    C2 6234   0.340   2.963   0.332  0.7474  0.1117  0.4851
  418TMC3    C3 6235   0.231   2.937   0.411 -1.9513  0.2779 -0.0780
  418TMC3    C4 6236   0.447   2.775   0.445  0.5535 -0.1127  0.0061
  418TMC3    C5 6237   0.342   2.768   0.528  0.3903 -0.1134 -0.4164
  418TMC3    C6 6238   0.231   2.839   0.513  0.0085  0.0973 -0.1390
  418TMC3     C 6239   0.545   2.880   0.245  1.2335 -0.3044 -0.0579
  418TMC3     O 6240   0.547   2.968   0.166  0.1959  0.2345 -0.1904
  418TMC3     H 6241   0.346   3.036   0.252  1.7495 -0.7360 -0.2171
  418TMC3    H1 6242   0.538   2.720   0.467  1.0660  0.1021 -1.5587
  418TMC3    H2 6243   0.154   2.820   0.587 -1.0797  1.1625 -1.0225
  418TMC3    C7 6244   0.334   2.680   0.635  0.4672 -0.2190 -0.4258
  418TMC3    C8 6245   0.098   2.963   0.356  0.1294 -0.1580  0.8934
  418TMC3    O1 6246   0.225   2.627   0.658  0.2775  0.1985  0.4598
  418TMC3    O2 6247   0.074   3.077   0.325 -0.0759  0.0698 -0.4291
  419MPD2     C 6248   3.871   1.131  12.950  1.0148  0.1489  0.6759
  419MPD2    C1 6249   3.907   1.220  12.858 -0.5112  0.1756 -0.8888
  419MPD2    C2 6250   3.877   1.349  12.883 -0.2224  0.0552  0.1668
  419MPD2    C3 6251   3.817   1.391  12.995  1.4216  0.6337  0.3072
  419MPD2    C4 6252   3.781   1.296  13.089 -0.0716  0.2208  0.3403
  419MPD2    C5 6253   3.810   1.167  13.062  0.2868  0.4896 -0.3812
  419MPD2     H 6254   3.893   1.421  12.803 -0.1362  0.0240  0.1557
  419MPD2    H1 6255   3.733   1.327  13.180 -0.0275  1.2142  0.0301
  419MPD2    H2 6256   3.882   1.023  12.938 -1.1262  0.0355 -0.2415
  419MPD2    H3 6257   3.808   1.089  13.137  1.6524 -0.1200 -0.9783
  419MPD2     N 6258   3.791   1.527  13.011 -0.4228  0.4307 -0.1601
  419MPD2    H5 6259   3.809   1.592  12.935 -2.5142  0.5130 -0.5884
  419MPD2    N1 6260   3.960   1.181  12.737 -0.0436  0.5866  0.0029
  419MPD2    H7 6261   3.965   1.250  12.663  0.5219 -0.4962 -0.9832
  420TMC3    C1 6262   3.733   1.727  13.126  0.0487 -0.3929  0.9498
  420TMC3    C2 6263   3.701   1.794  13.014 -0.4721  0.2689  0.1199
  420TMC3    C3 6264   3.646   1.916  13.036 -0.5062 -0.7717 -0.0968
  420TMC3    C4 6265   3.718   1.783  13.257 -0.4297 -0.1790  0.2254
  420TMC3    C5 6266   3.647   1.898  13.266 -0.6671 -0.3172 -1.0943
  420TMC3    C6 6267   3.611   1.964  13.154 -0.6661  0.5942 -0.3678
  420TMC3     C 6268   3.778   1.589  13.133  0.6898  0.0783  0.2798
  420TMC3     O 6269   3.789   1.537  13.248 -0.6989  0.7810  0.6993
  420TMC3     H 6270   3.696   1.755  12.913 -2.3178 -2.9489  1.4735
  420TMC3    H1 6271   3.755   1.737  13.347 -0.9313 -1.0661 -0.0269
  420TMC3    H2 6272   3.582   2.068  13.170 -0.7283  0.5158  0.0395
  420TMC3    C7 6273   3.578   1.918  13.389  0.2755 -0.8117 -0.4559
  420TMC3    C8 6274   3.583   1.991  12.926 -0.3785 -0.5868 -1.0051
  420TMC3    O1 6275   3.608   1.839  13.477 -0.9713 -0.2896  0.0471
  420TMC3    O2 6276   3.474   2.043  12.954  0.5926  0.7982  0.3233
  421TMC3    C1 6277   0.553   2.914  13.703  0.3608  0.7738  0.3335
  421TMC3    C2 6278   0.559   3.006  13.803  0.3662  0.2428 -0.1146
  421TMC3    C3 6279   0.664   3.001  13.889 -0.6591 -0.8402 -0.1484
  421TMC3    C4 6280   0.653   2.832  13.666  0.0862 -0.0274 -0.2694
  421TMC3    C5 6281   0.757   2.834  13.754 -1.1114  0.1531  0.5538
  421TMC3    C6 6282   0.760   2.910  13.866 -0.6409  0.2525 -0.1566
  421TMC3     C 6283   0.454   2.944  13.600 -0.8823  0.0816 -0.5736
  421TMC3     O 6284   0.432   3.066  13.591  0.3466 -0.4143  0.1448
  421TMC3     H 6285   0.483   3.083  13.814 -0.7064 -1.1599  2.1856
  421TMC3    H1 6286   0.651   2.768  13.578  0.2483  1.7572 -1.5788
  421TMC3    H2 6287   0.844   2.897  13.933 -1.0779  0.2457  0.3830
  421TMC3    C7 6288   0.895   2.787  13.716  0.2729  0.4234  0.5107
  421TMC3    C8 6289   0.709   3.122  13.956 -0.2268  0.0072 -0.2277
  421TMC3    O1 6290   0.985   2.858  13.758  1.1585  0.3872 -0.3553
  421TMC3    O2 6291   0.814   3.114  14.019  0.1201  0.1263 -0.3380
  422TMC3    C1 6292   2.537   4.523  12.439  0.5858 -0.3473 -0.2156
  422TMC3    C2 6293   2.480   4.639  12.393 -0.1155  0.0756  0.3924
  422TMC3    C3 6294   2.365   4.674  12.466 -1.1486 -0.0644 -0.5715
  422TMC3    C4 6295   2.483   4.450  12.538  0.3938  0.1121 -0.2937
  422TMC3    C5 6296   2.357   4.476  12.593 -0.0821 -0.6832  0.2024
  422TMC3    C6 6297   2.296   4.592  12.556  0.4006 -0.3048  0.0101
  422TMC3     C 6298   2.648   4.482  12.365 -0.0756 -0.2748 -0.0660
  422TMC3     O 6299   2.654   4.540  12.254  0.4034 -0.1611  0.7039
  422TMC3     H 6300   2.535   4.716  12.341 -0.4428  1.0203  1.4304
  422TMC3    H1 6301   2.531   4.355  12.560  0.3941  0.3555  0.7864
  422TMC3    H2 6302   2.213   4.630  12.614 -1.4599 -1.2819 -2.0603
  422TMC3    C7 6303   2.275   4.364  12.632 -1.1768 -0.6188  0.1342
  422TMC3    C8 6304   2.345   0.094  12.483  0.4001 -0.4458  0.3899
  422TMC3    O1 6305   2.327   4.253  12.628 -0.0904  0.5273 -0.3986
  422TMC3    O2 6306   2.323   0.119  12.603 -0.1694 -0.4265  0.0204
  423MPD2     C 6307   3.601   1.130   0.577  0.3673  0.1504 -0.2989
  423MPD2    C1 6308   3.481   1.051   0.568  0.0199  0.7367  0.3292
  423MPD2    C2 6309   3.463   0.976   0.455 -0.3022  0.2550  0.6502
  423MPD2    C3 6310   3.555   0.974   0.350 -0.0773  0.1192  0.8007
  423MPD2    C4 6311   3.668   1.056   0.361 -0.9349 -0.1443 -0.7292
  423MPD2    C5 6312   3.683   1.132   0.473  0.0963 -0.3218 -1.0557
  423MPD2     H 6313   3.374   0.915   0.448  0.1950 -0.4044  0.0048
  423MPD2    H1 6314   3.747   1.052   0.286  1.1145  1.3090  1.3324
  423MPD2    H2 6315   3.624   1.191   0.664 -0.2444  0.5640 -0.4312
  423MPD2    H3 6316   3.778   1.184   0.479 -0.3927  0.2871  1.6901
  423MPD2     N 6317   3.541   0.891   0.240  0.4097  0.3983  0.0263
  423MPD2    H5 6318   3.612   0.898   0.168  1.2688 -1.0812  0.7262
  423MPD2    N1 6319   3.383   1.045   0.670  0.7532  0.0392  0.0495
  423MPD2    H7 6320   3.302   0.985   0.660  2.0579 -1.9242  1.3422
  424TMC3    C1 6321   3.311   1.037   0.893  0.1639  0.0818 -0.3446
  424TMC3    C2 6322   3.358   0.999   1.018 -0.3570 -0.1642  0.5734
  424TMC3    C3 6323   3.273   0.950   1.110  0.3781 -0.5899 -0.3482
  424TMC3    C4 6324   3.178   1.028   0.859  0.7639  0.0044  0.0642
  424TMC3    C5 6325   3.096   0.981   0.953  0.8453  0.1054 -0.8137
  424TMC3    C6 6326   3.137   0.940   1.077  0.0740  0.2430 -0.6812
  424TMC3     C 6327   3.403   1.092   0.798 -0.7094  0.0824 -0.3653
  424TMC3     O 6328   3.506   1.142   0.842  0.2475  0.7558  0.5353
  424TMC3     H 6329   3.465   1.005   1.031 -0.1622  0.4773 -1.3498
  424TMC3    H1 6330   3.143   1.066   0.764  2.1272 -0.3794 -0.5928
  424TMC3    H2 6331   3.070   0.886   1.143  0.5914  0.3680 -0.0644
  424TMC3    C7 6332   2.956   0.971   0.925 -0.5072  0.0231  0.1412
  424TMC3    C8 6333   3.327   0.862   1.204 -0.4937 -0.0625  0.5718
  424TMC3    O1 6334   2.884   0.951   1.018  0.2053 -0.1984 -0.1886
  424TMC3    O2 6335   3.263   0.760   1.215 -0.2970 -0.2531 -0.3450
  425MPD2     C 6336   2.825   0.351  17.622 -0.2998 -0.1532 -0.8334
  425MPD2    C1 6337   2.769   0.265  17.534  0.7668  0.5572  0.7041
  425MPD2    C2 6338   2.633   0.276  17.509 -0.1317  0.3025 -0.1760
  425MPD2    C3 6339   2.547   0.362  17.574 -0.1149 -0.3155 -0.7026
  425MPD2    C4 6340   2.608   0.441  17.671 -0.1436 -0.0236  0.9857
  425MPD2    C5 6341   2.744   0.443  17.689 -0.0487 -0.5333 -0.4270
  425MPD2     H 6342   2.593   0.228  17.420 -3.7154  0.3588  1.4220
  425MPD2    H1 6343   2.542   0.505   0.035 -0.4918  1.3210 -0.9352
  425MPD2    H2 6344   2.932   0.359  17.632 -0.2802 -0.1137 -1.0808
  425MPD2    H3 6345   2.787   0.503   0.075  1.7158  1.3654 -2.8397
  425MPD2     N 6346   2.413   0.367  17.537 -0.6445 -0.0316  0.5820
  425MPD2    H5 6347   2.378   0.283  17.492 -1.8925 -0.7494  2.9459
  425MPD2    N1 6348   2.856   0.163  17.476 -0.2616 -0.0050  0.1289
  425MPD2    H7 6349   2.954   0.160  17.502  0.0427 -1.0271 -1.1493
  426TMC3    C1 6350   2.925   4.700  17.333 -0.1997 -0.2069  0.1861
  426TMC3    C2 6351   2.906   4.650  17.204  0.4283  0.0986 -0.5733
  426TMC3    C3 6352   2.960   4.522  17.180 -0.3961  0.1823 -0.0777
  426TMC3    C4 6353   2.989   4.626  17.439  0.1589  0.5310  0.7036
  426TMC3    C5 6354   3.045   4.506  17.400  0.1414 -0.4545  0.3706
  426TMC3    C6 6355   3.042   4.459  17.273 -0.5796 -0.5340  0.0139
  426TMC3     C 6356   2.818   0.073  17.382 -0.2354 -0.0420 -0.1228
  426TMC3     O 6357   2.715   0.066  17.318 -0.1137 -0.0932 -0.2179
  426TMC3     H 6358   2.862   4.720  17.135  1.4585  1.9682  0.6648
  426TMC3    H1 6359   3.002   4.657  17.542 -2.1008  0.8274  0.9124
  426TMC3    H2 6360   3.079   4.359  17.254  2.3308  0.9944 -2.3548
  426TMC3    C7 6361   3.096   4.408  17.500  0.5712 -0.2710 -0.3820
  426TMC3    C8 6362   2.948   4.455  17.053  0.0115  0.1482  0.1974
  426TMC3    O1 6363   3.176   4.321  17.463 -0.0281 -0.0249  0.3687
  426TMC3    O2 6364   3.026   4.356  17.035  0.1375 -0.6987  0.6588
  427MPD2     C 6365   1.378   2.154  14.573  0.1682 -0.6005  0.9783
  427MPD2    C1 6366   1.345   2.137  14.702 -0.1501 -0.1258 -0.0865
  427MPD2    C2 6367   1.214   2.121  14.742  0.2133 -0.8001 -0.4567
  427MPD2    C3 6368   1.118   2.125  14.648  0.3567 -0.1573  0.4295
  427MPD2    C4 6369   1.154   2.143  14.514 -0.1423  0.0822 -0.2900
  427MPD2    C5 6370   1.288   2.157  14.473 -0.0558 -0.1848 -0.0026
  427MPD2     H 6371   1.195   2.079  14.841 -0.7370 -1.5343 -0.9518
  427MPD2    H1 6372   1.089   2.146  14.428 -0.8298  0.0873  0.2310
  427MPD2    H2 6373   1.482   2.165  14.544 -0.0107  0.9742  0.9412
  427MPD2    H3 6374   1.318   2.172  14.371  3.3797  0.4058  1.0951
  427MPD2     N 6375   0.981   2.093  14.668  0.3043 -0.0447  0.2483
  427MPD2    H5 6376   0.917   2.086  14.590  0.2924  0.4449  0.2174
  427MPD2    N1 6377   1.440   2.145  14.809  0.1294 -0.2036 -0.0517
  427MPD2    H7 6378   1.398   2.154  14.901  1.8745  0.8074  0.6535
  428TMC3    C1 6379   1.625   2.183  14.941  0.0588 -0.0473 -0.8524
  428TMC3    C2 6380   1.579   2.097  15.033 -0.5555 -0.2542  1.0859
  428TMC3    C3 6381   1.633   2.105  15.158 -0.4787  0.4257  1.2951
  428TMC3    C4 6382   1.724   2.275  14.954 -0.3230 -0.2538  0.2276
  428TMC3    C5 6383   1.776   2.282  15.083  0.1716  1.1207  0.3454
  428TMC3    C6 6384   1.730   2.198  15.182 -0.5735 -0.1245 -0.2542
  428TMC3     C 6385   1.579   2.154  14.803  0.3590  0.9675  0.1064
  428TMC3     O 6386   1.650   2.182  14.706  0.4916 -0.2240 -0.4710
  428TMC3     H 6387   1.517   2.011  15.012  0.0063 -0.0060 -1.7041
  428TMC3    H1 6388   1.746   2.345  14.875  0.3479 -2.5237 -1.5780
  428TMC3    H2 6389   1.765   2.206  15.284 -2.6909 -0.0783  0.4624
  428TMC3    C7 6390   1.883   2.363  15.124 -0.4294  0.1437  0.2208
  428TMC3    C8 6391   1.563   2.029  15.264  0.4186  0.2271 -0.0970
  428TMC3    O1 6392   1.897   2.379  15.243  0.3158  0.1373  0.3390
  428TMC3    O2 6393   1.477   1.953  15.229  0.4796  0.0087 -0.1840
  429MPD2     C 6394   2.346   2.333  17.496  0.1244 -0.1390  0.3706
  429MPD2    C1 6395   2.401   2.265  17.384  0.0576 -0.2379 -0.3056
  429MPD2    C2 6396   2.523   2.307  17.335 -0.0200 -0.1143 -0.6385
  429MPD2    C3 6397   2.598   2.406  17.395  0.3383 -0.1262 -0.0962
  429MPD2    C4 6398   2.549   2.465  17.510 -0.2122 -0.0924 -0.1795
  429MPD2    C5 6399   2.419   2.430  17.560 -0.4080 -0.2615 -1.0812
  429MPD2     H 6400   2.569   2.268  17.245 -2.3767 -0.3863 -1.7316
  429MPD2    H1 6401   2.612   2.542  17.554  0.9214 -2.2548  1.9978
  429MPD2    H2 6402   2.241   2.314  17.516  0.0062 -0.0512 -0.1718
  429MPD2    H3 6403   2.383   2.481  17.648 -0.4210 -0.6874 -0.8417
  429MPD2     N 6404   2.721   2.429  17.337  0.4779 -0.2682  0.5154
  429MPD2    H5 6405   2.742   2.377  17.252  0.3853  0.7114 -0.1017
  429MPD2    N1 6406   2.343   2.166  17.313  0.0023  0.0364 -0.3903
  429MPD2    H7 6407   2.371   2.151  17.217 -0.0864  1.6670 -0.6541
  430TMC3    C1 6408   2.934   2.519  17.279 -0.5961  0.5782 -0.1857
  430TMC3    C2 6409   2.961   2.634  17.212  0.2659 -0.1934  0.1197
  430TMC3    C3 6410   3.028   2.611  17.094  0.0899 -0.2926  0.0602
  430TMC3    C4 6411   2.993   2.399  17.261 -0.6735  0.1314  0.2236
  430TMC3    C5 6412   3.055   2.381  17.144  0.7429  0.2341  0.6955
  430TMC3    C6 6413   3.067   2.482  17.052 -0.2997  0.2634 -0.2235
  430TMC3     C 6414   2.812   2.528  17.362 -0.2423 -0.1115  0.3724
  430TMC3     O 6415   2.808   2.622  17.443 -0.1842 -0.2800 -0.0471
  430TMC3     H 6416   2.940   2.734  17.248 -2.4920 -1.2781  1.5269
  430TMC3    H1 6417   2.973   2.317  17.328 -0.1796  1.3055  1.8026
  430TMC3    H2 6418   3.096   2.452  16.953 -0.4368 -0.3873 -0.0655
  430TMC3    C7 6419   3.079   2.249  17.091  0.4088  0.2755 -0.5286
  430TMC3    C8 6420   2.981   2.685  16.985 -0.4501 -0.2390  0.0392
  430TMC3    O1 6421   3.008   2.170  17.146 -0.1617  0.2635 -0.2349
  430TMC3    O2 6422   2.973   2.630  16.880 -0.0886  0.5225 -0.1162
  431MPD2     C 6423   3.900   1.664  12.041 -0.2914  0.6055  0.3152
  431MPD2    C1 6424   3.900   1.676  12.172  0.4565 -0.3492  0.4910
  431MPD2    C2 6425   3.925   1.578  12.263 -0.3857  0.0312 -0.3515
  431MPD2    C3 6426   3.963   1.457  12.211 -0.4852 -0.9917  0.5477
  431MPD2    C4 6427   3.962   1.438  12.072  0.2035 -0.2050  0.0207
  431MPD2    C5 6428   3.930   1.539  11.988 -0.1939 -0.0379 -0.4223
  431MPD2     H 6429   3.937   1.595  12.369 -0.8384  2.1028 -0.6301
  431MPD2    H1 6430   3.976   1.336  12.040  0.0571 -0.7698  1.7316
  431MPD2    H2 6431   3.873   1.750  11.980  0.8527  0.1952 -0.7702
  431MPD2    H3 6432   3.915   1.510  11.884  1.7922  0.1256 -0.7582
  431MPD2     N 6433   4.027   1.363  12.301 -0.0228  0.2980  0.3114
  431MPD2    H5 6434   4.024   1.382  12.400 -2.9927 -1.7814  0.6142
  431MPD2    N1 6435   3.879   1.811  12.223  0.5549 -0.0412 -0.2320
  431MPD2    H7 6436   3.880   1.887  12.155 -3.6498 -1.7144 -2.1796
  432TMC3    C1 6437   4.151   1.185  12.379 -0.4126  0.1209 -0.2905
  432TMC3    C2 6438   4.274   1.123  12.368  0.0578  0.3704 -0.7293
  432TMC3    C3 6439   4.310   1.030  12.462  0.3994 -0.2360 -0.2014
  432TMC3    C4 6440   4.065   1.158  12.489 -0.5070  0.1122 -0.4353
  432TMC3    C5 6441   4.111   1.075  12.585  0.1083  0.2001  0.0152
  432TMC3    C6 6442   4.226   1.006  12.567 -0.3945  0.0963  0.3829
  432TMC3     C 6443   4.101   1.255  12.263  0.1477 -0.1375  0.6852
  432TMC3     O 6444   4.147   1.223  12.154 -0.1550 -0.3760  0.3515
  432TMC3     H 6445   4.327   1.134  12.274  0.2923 -3.3355 -1.0535
  432TMC3    H1 6446   3.966   1.203  12.491 -1.4971 -2.1077  1.7382
  432TMC3    H2 6447   4.262   0.960  12.659  0.0329 -0.0844  0.1288
  432TMC3    C7 6448   4.036   1.067  12.714 -0.6612 -0.2118 -0.3709
  432TMC3    C8 6449   4.447   0.998  12.485  0.1790 -0.4985  0.1484
  432TMC3    O1 6450   4.062   0.965  12.779 -0.6147  0.0612 -0.0380
  432TMC3    O2 6451   4.467   0.944  12.591 -0.3421  0.0397  0.1298
  433MPD2     C 6452   2.622   1.251  10.841  0.5558  0.3708 -0.5568
  433MPD2    C1 6453   2.618   1.132  10.906  0.8152 -0.2287  0.4600
  433MPD2    C2 6454   2.621   1.136  11.039 -0.4844 -0.4621  0.3020
  433MPD2    C3 6455   2.613   1.252  11.112  0.9613  0.2745  0.0038
  433MPD2    C4 6456   2.614   1.371  11.047  0.2108  0.0265 -0.1179
  433MPD2    C5 6457   2.614   1.371  10.912 -0.3323  0.0684  0.7604
  433MPD2     H 6458   2.607   1.037  11.082 -0.3648 -0.7781 -0.3845
  433MPD2    H1 6459   2.597   1.466  11.098 -1.4109 -0.3845  0.1033
  433MPD2    H2 6460   2.633   1.250  10.733  0.5153 -0.8328 -0.5430
  433MPD2    H3 6461   2.608   1.469  10.866  1.1040 -0.5808 -0.8029
  433MPD2     N 6462   2.614   1.229  11.252  0.6196 -0.5792  0.2671
  433MPD2    H5 6463   2.611   1.133  11.285 -2.2094 -0.3242  0.7550
  433MPD2    N1 6464   2.625   1.006  10.845 -0.0752  0.4965 -0.1123
  433MPD2    H7 6465   2.630   0.927  10.908  1.4241 -0.4506 -1.4282
  434TMC3    C1 6466   2.634   0.831  10.677 -0.3639  0.1742 -0.1512
  434TMC3    C2 6467   2.715   0.752  10.753  0.0944 -0.5754  0.2267
  434TMC3    C3 6468   2.744   0.624  10.701  0.1622 -0.5621 -0.2542
  434TMC3    C4 6469   2.583   0.792  10.551  0.1880 -0.2344 -0.1304
  434TMC3    C5 6470   2.603   0.661  10.512  0.4154  0.5026 -0.2795
  434TMC3    C6 6471   2.677   0.575  10.585  0.0177  0.2348  1.2251
  434TMC3     C 6472   2.625   0.974  10.713 -0.2370  0.7115  0.8076
  434TMC3     O 6473   2.620   1.049  10.616 -0.1151 -0.1895  0.3969
  434TMC3     H 6474   2.747   0.787  10.850 -1.3199  1.3028  0.0131
  434TMC3    H1 6475   2.508   0.845  10.493 -1.7273 -1.4295  1.2595
  434TMC3    H2 6476   2.691   0.469  10.564 -1.0494  0.7685 -2.1737
  434TMC3    C7 6477   2.511   0.602  10.422 -0.2283 -0.5243  0.4072
  434TMC3    C8 6478   2.800   0.529  10.802 -0.5259 -0.0995  0.0345
  434TMC3    O1 6479   2.439   0.670  10.348  0.5879 -0.0477  0.2230
  434TMC3    O2 6480   2.807   0.577  10.914  0.6939  0.0532 -0.7412
  435MPD2     C 6481   4.206   0.942  15.319  0.0669 -0.3719  0.4837
  435MPD2    C1 6482   4.187   0.950  15.459 -0.1519 -0.7029 -0.2588
  435MPD2    C2 6483   4.297   0.946  15.542 -0.1381  0.1642  0.3125
  435MPD2    C3 6484   4.425   0.934  15.493 -0.4520 -0.4741 -0.4691
  435MPD2    C4 6485   4.446   0.916  15.362  0.2442  0.8870  0.3330
  435MPD2    C5 6486   4.337   0.923  15.278  0.2674 -0.0858  0.9964
  435MPD2     H 6487   4.272   0.935  15.647 -2.2455 -0.1943 -0.2135
  435MPD2    H1 6488   4.540   0.903  15.308 -0.6179  1.7346 -1.3651
  435MPD2    H2 6489   4.124   0.937  15.248 -1.4876 -1.3412  2.3345
  435MPD2    H3 6490   4.350   0.907  15.172 -0.7329  0.6490  0.7655
  435MPD2     N 6491   4.534   0.921  15.586  0.5379 -0.2957 -0.6711
  435MPD2    H5 6492   4.512   0.929  15.685  1.2645 -1.2757 -0.4294
  435MPD2    N1 6493   4.059   0.953  15.531 -0.5645 -0.0043  0.0331
  435MPD2    H7 6494   4.057   0.972  15.631  0.5532  4.3740 -0.7930
  436TMC3    C1 6495   3.740   1.063  15.763 -0.6682 -0.2170  0.6836
  436TMC3    C2 6496   3.837   1.068  15.662  0.3406  0.2172 -0.2840
  436TMC3    C3 6497   3.824   0.980  15.558  0.1121  0.8230  0.4221
  436TMC3    C4 6498   3.632   0.979  15.755 -0.2834 -0.2104 -0.4108
  436TMC3    C5 6499   3.623   0.903  15.640  0.1592  0.0660 -0.0934
  436TMC3    C6 6500   3.709   0.903  15.531  0.2238  0.4056  0.3765
  436TMC3     C 6501   3.750   1.158  15.869  0.5730  0.5204  0.5988
  436TMC3     O 6502   3.865   1.194  15.891 -0.2197 -0.0711 -0.1340
  436TMC3     H 6503   3.928   1.126  15.675  2.9550 -3.9842  0.1799
  436TMC3    H1 6504   3.545   0.992  15.818  0.6978 -0.4862  0.9994
  436TMC3    H2 6505   3.713   0.821  15.461 -1.5169 -0.4895  1.3230
  436TMC3    C7 6506   3.492   0.840  15.623 -0.0174 -0.2093 -0.1812
  436TMC3    C8 6507   3.933   0.946  15.474  0.9697 -0.4364  0.7272
  436TMC3    O1 6508   3.422   0.838  15.722  0.0239  0.6487  0.2418
  436TMC3    O2 6509   3.905   0.912  15.359 -0.3532 -0.1661  0.5875
  437TMC3    C1 6510   3.425   3.020  12.019 -0.2353 -0.0898  0.3763
  437TMC3    C2 6511   3.357   3.069  11.910  0.0641  0.3889  1.0126
  437TMC3    C3 6512   3.432   3.117  11.812 -0.4377 -0.5555  0.9298
  437TMC3    C4 6513   3.564   2.998  12.018 -0.2057 -0.0525 -0.2610
  437TMC3    C5 6514   3.631   3.049  11.916  0.8260 -0.2297 -0.3644
  437TMC3    C6 6515   3.567   3.114  11.813  0.0809 -0.3206  0.3087
  437TMC3     C 6516   3.354   2.953  12.128 -0.1120  0.0614  0.5747
  437TMC3     O 6517   3.425   2.878  12.192 -0.5880 -0.0745  0.0512
  437TMC3     H 6518   3.251   3.090  11.911 -0.1359 -0.5294 -1.9573
  437TMC3    H1 6519   3.619   2.962  12.104 -2.0829  0.8351  1.3205
  437TMC3    H2 6520   3.633   3.148  11.734 -0.0573  0.9441  0.7506
  437TMC3    C7 6521   3.771   3.061  11.934 -0.3681 -0.0236  0.2786
  437TMC3    C8 6522   3.375   3.187  11.700  0.1039  0.1221  0.3938
  437TMC3    O1 6523   3.820   3.152  11.870  0.4559 -0.2913  0.4799
  437TMC3    O2 6524   3.438   3.279  11.658 -0.4436 -0.1158 -0.0721
  438MPD2     C 6525   0.722   3.310  17.400 -0.2524  0.2593  0.1790
  438MPD2    C1 6526   0.784   3.209  17.324  0.8882 -0.0329  0.7614
  438MPD2    C2 6527   0.738   3.080  17.343  0.5921 -0.4440 -0.9332
  438MPD2    C3 6528   0.627   3.067  17.419 -0.0346  0.3229  0.5112
  438MPD2    C4 6529   0.571   3.166  17.495 -0.0163  0.0610  0.6386
  438MPD2    C5 6530   0.628   3.291  17.493 -0.2593 -0.3038 -0.0936
  438MPD2     H 6531   0.782   2.997  17.290  0.1334 -1.0861 -0.3182
  438MPD2    H1 6532   0.488   3.158  17.563 -0.6573 -1.0837 -0.2624
  438MPD2    H2 6533   0.759   3.411  17.389  0.5296 -0.0130  0.2715
  438MPD2    H3 6534   0.587   3.378  17.543  0.5657 -0.4381  0.8168
  438MPD2     N 6535   0.556   2.944  17.424 -0.3702 -0.4185 -0.7087
  438MPD2    H5 6536   0.468   2.938  17.475  0.2045  1.4395  0.5018
  438MPD2    N1 6537   0.883   3.230  17.230 -0.0507  0.3162  0.3409
  438MPD2    H7 6538   0.926   3.152  17.181 -0.1904  0.3150  0.2211
  439TMC3    C1 6539   1.018   3.337  17.079 -0.1384  0.6164 -0.0141
  439TMC3    C2 6540   0.968   3.345  16.954 -0.7662  1.3698  0.3540
  439TMC3    C3 6541   1.036   3.270  16.860  0.0891 -0.3159  0.6661
  439TMC3    C4 6542   1.139   3.285  17.111 -0.3483 -0.2180 -0.6379
  439TMC3    C5 6543   1.206   3.217  17.013  0.1632 -0.8844  0.0314
  439TMC3    C6 6544   1.157   3.214  16.884 -0.1718 -0.0609  0.2383
  439TMC3     C 6545   0.905   3.355  17.172  0.5387  0.2453 -0.3979
  439TMC3     O 6546   0.833   3.455  17.181  0.3488  0.1162  0.7735
  439TMC3     H 6547   0.882   3.409  16.935 -0.8350  1.2897  0.3920
  439TMC3    H1 6548   1.163   3.264  17.215 -1.5103 -1.2278 -0.5731
  439TMC3    H2 6549   1.221   3.181  16.803 -1.7265  1.0243 -1.4223
  439TMC3    C7 6550   1.326   3.139  17.054 -0.0936  0.5525  0.4193
  439TMC3    C8 6551   0.975   3.249  16.730 -0.3835  0.3153  0.2571
  439TMC3    O1 6552   1.370   3.169  17.162 -0.1320  0.3770 -0.1455
  439TMC3    O2 6553   1.017   3.152  16.672 -0.4485  0.2721 -0.5806
  440MPD2     C 6554   3.980   4.103  14.507  0.2978 -1.0084 -0.1543
  440MPD2    C1 6555   3.956   4.044  14.624 -0.2368  0.0716 -0.2540
  440MPD2    C2 6556   4.036   3.940  14.675 -0.6419 -0.4845 -0.6381
  440MPD2    C3 6557   4.156   3.921  14.612 -0.0747  0.1770  0.1359
  440MPD2    C4 6558   4.193   3.999  14.500 -0.2521 -0.4185  0.2601
  440MPD2    C5 6559   4.104   4.089  14.450  0.2314 -0.1600  0.0422
  440MPD2     H 6560   4.020   3.907  14.778 -0.0448 -2.6571 -1.2475
  440MPD2    H1 6561   4.287   3.984  14.449 -0.7426  0.4838 -0.8906
  440MPD2    H2 6562   3.905   4.170  14.466  0.7833  0.0598  0.6970
  440MPD2    H3 6563   4.128   4.124  14.350 -1.5585 -2.0521 -1.0528
  440MPD2     N 6564   4.250   3.826  14.659  0.2843 -0.1650  0.1656
  440MPD2    H5 6565   4.343   3.826  14.619  0.7004 -0.5669  1.1357
  440MPD2    N1 6566   3.834   4.078  14.689 -0.0661 -0.1612 -0.7927
  440MPD2    H7 6567   3.784   4.158  14.652  1.3182  1.5445  1.0794
  441TMC3    C1 6568   4.339   3.672  14.816  0.1111  0.2575  0.3696
  441TMC3    C2 6569   4.444   3.758  14.846 -0.3316  0.2012 -0.1791
  441TMC3    C3 6570   4.531   3.726  14.952  0.1556  0.4152 -0.1440
  441TMC3    C4 6571   4.324   3.561  14.891  0.4273  0.2702 -0.4074
  441TMC3    C5 6572   4.423   3.524  14.981 -0.3763 -0.6581 -0.9947
  441TMC3    C6 6573   4.534   3.598  15.001  0.2335 -0.6100  0.3054
  441TMC3     C 6574   4.216   3.738  14.762 -0.4038 -0.2678 -0.3396
  441TMC3     O 6575   4.112   3.704  14.810  0.9826 -0.4217 -0.0073
  441TMC3     H 6576   4.454   3.856  14.801  1.8810  0.3636  0.6764
  441TMC3    H1 6577   4.236   3.499  14.876 -0.8698  2.2061 -0.8523
  441TMC3    H2 6578   4.598   3.570  15.083  1.5755  1.1766 -0.1319
  441TMC3    C7 6579   4.383   3.458  15.104 -0.4583  0.0956 -0.3434
  441TMC3    C8 6580   4.575   3.827  15.042 -0.0214  0.3268  0.4041
  441TMC3    O1 6581   4.432   3.495  15.213  0.1355 -0.2961  0.7423
  441TMC3    O2 6582   4.692   3.823  15.080  1.4472  0.6148 -0.0910
  442MPD2     C 6583   2.282   4.611  16.647  0.2514  0.0239  1.3810
  442MPD2    C1 6584   2.223   4.502  16.703 -0.4460 -0.1567 -0.3465
  442MPD2    C2 6585   2.219   4.381  16.640 -0.4298  0.3611  0.0416
  442MPD2    C3 6586   2.280   4.370  16.516 -0.7903  0.1552 -0.8071
  442MPD2    C4 6587   2.329   4.487  16.460  0.2976  0.0825  0.4588
  442MPD2    C5 6588   2.337   4.603  16.522  0.2562 -0.2622  0.4888
  442MPD2     H 6589   2.189   4.291  16.694  0.3080 -0.9976 -1.7972
  442MPD2    H1 6590   2.375   4.487  16.361 -1.2115  1.6054 -0.2400
  442MPD2    H2 6591   2.295   4.705  16.700 -1.6169  0.6154  0.8016
  442MPD2    H3 6592   2.368   4.693  16.470  0.0383 -0.9972 -0.9289
  442MPD2     N 6593   2.288   4.242  16.447 -0.5707 -0.2011  0.1133
  442MPD2    H5 6594   2.351   4.240  16.367 -0.3817 -1.5906  0.2880
  442MPD2    N1 6595   2.168   4.502  16.833  0.3921 -0.7018  0.6134
  442MPD2    H7 6596   2.133   4.416  16.873 -1.3919 -0.3993 -0.2960
  443TMC3    C1 6597   2.060   4.591  17.017  0.3781 -0.2479 -0.5481
  443TMC3    C2 6598   1.965   4.687  17.044 -0.9933 -0.1835  0.5435
  443TMC3    C3 6599   1.872   4.653  17.136  0.5658  0.0721  0.4562
  443TMC3    C4 6600   2.072   4.473  17.078 -1.0475 -0.3551  0.7082
  443TMC3    C5 6601   1.971   4.438  17.167 -0.0462 -0.1026  0.3807
  443TMC3    C6 6602   1.869   4.529  17.191 -0.5152 -0.5382 -0.7374
  443TMC3     C 6603   2.141   4.613  16.907  0.0241  0.0144  0.5267
  443TMC3     O 6604   2.162   0.005  16.884 -0.4496 -0.0217 -0.1734
  443TMC3     H 6605   1.971   0.060  16.995 -0.6552 -1.2882 -1.5526
  443TMC3    H1 6606   2.157   4.407  17.063 -0.8544 -0.0857  0.6275
  443TMC3    H2 6607   1.792   4.520  17.267  1.4272 -0.5342  1.2324
  443TMC3    C7 6608   1.961   4.296  17.221 -1.0433 -0.3498  0.7371
  443TMC3    C8 6609   1.756   0.009  17.134  0.1604  0.4198  0.2416
  443TMC3    O1 6610   2.047   4.218  17.182 -0.4813  0.1800 -0.0705
  443TMC3    O2 6611   1.788   0.123  17.168  0.5248  0.0133  0.2367
  444MPD2     C 6612   2.740   4.049  16.959  0.3678  0.3246  0.4541
  444MPD2    C1 6613   2.632   3.964  16.967  0.5314 -0.4954 -0.3936
  444MPD2    C2 6614   2.637   3.855  16.871  0.3686 -1.0383 -0.3804
  444MPD2    C3 6615   2.757   3.835  16.796  0.1744  0.0699 -1.0406
  444MPD2    C4 6616   2.857   3.929  16.795  0.3722  0.2688  0.4205
  444MPD2    C5 6617   2.847   4.035  16.880 -0.1093 -0.8030 -0.3777
  444MPD2     H 6618   2.558   3.781  16.864 -0.5316 -0.3103  2.0090
  444MPD2    H1 6619   2.939   3.926  16.724  0.2917 -1.2159  0.3938
  444MPD2    H2 6620   2.741   4.131  17.030  1.7887 -0.0181  0.8394
  444MPD2    H3 6621   2.932   4.099  16.900 -0.4101 -0.5895  0.2413
  444MPD2     N 6622   2.755   3.716  16.726 -0.1305  0.8064 -0.0444
  444MPD2    H5 6623   2.668   3.665  16.736 -0.8842  1.3324 -4.1210
  444MPD2    N1 6624   2.526   3.982  17.058 -0.4025  0.4771 -0.0209
  444MPD2    H7 6625   2.455   3.909  17.062 -0.2394  0.3983  1.6712
  445TMC3    C1 6626   2.825   3.535  16.594  0.6125  0.0441  0.1229
  445TMC3    C2 6627   2.707   3.514  16.532  0.7902  0.1190 -0.3873
  445TMC3    C3 6628   2.700   3.426  16.433  0.7373 -0.6325  0.2224
  445TMC3    C4 6629   2.928   3.462  16.553  0.4357 -0.0687  0.7074
  445TMC3    C5 6630   2.924   3.379  16.442  0.3411 -0.2034  0.1502
  445TMC3    C6 6631   2.807   3.350  16.381  0.4288 -0.4032 -0.7303
  445TMC3     C 6632   2.860   3.661  16.656  0.1049  0.6325  0.1265
  445TMC3     O 6633   2.975   3.703  16.659 -0.5977  0.2600 -0.2068
  445TMC3     H 6634   2.627   3.581  16.559  0.8110 -0.2262  0.5135
  445TMC3    H1 6635   3.025   3.479  16.599  1.4044  2.3023 -2.1997
  445TMC3    H2 6636   2.813   3.292  16.289 -1.6885 -1.1880 -0.3602
  445TMC3    C7 6637   3.051   3.321  16.398 -0.6817 -0.6804  0.1490
  445TMC3    C8 6638   2.579   3.431  16.349 -0.3855  0.8363  0.8669
  445TMC3    O1 6639   3.157   3.371  16.432  0.5842 -0.0598  0.4474
  445TMC3    O2 6640   2.496   3.506  16.398  0.2958 -0.3574 -0.5251
  446MPD2     C 6641   2.491   0.446  11.350  0.2931  0.5940 -0.1698
  446MPD2    C1 6642   2.525   0.417  11.221 -0.4614 -0.1705  0.4110
  446MPD2    C2 6643   2.638   0.477  11.164 -0.2623  0.1911 -0.1973
  446MPD2    C3 6644   2.717   0.566  11.244  0.4002 -0.1090  0.4137
  446MPD2    C4 6645   2.679   0.600  11.374  0.0815 -0.6594 -0.3229
  446MPD2    C5 6646   2.568   0.539  11.423 -0.2556  0.2800 -0.1732
  446MPD2     H 6647   2.673   0.444  11.067 -1.0616  1.0660 -0.7909
  446MPD2    H1 6648   2.730   0.663  11.446  0.2235 -0.0893 -0.9233
  446MPD2    H2 6649   2.404   0.403  11.399  0.4628  0.2069 -0.2133
  446MPD2    H3 6650   2.531   0.570  11.520 -1.4485  1.1945 -0.9119
  446MPD2     N 6651   2.829   0.629  11.179 -0.5536  0.5478 -0.1611
  446MPD2    H5 6652   2.827   0.633  11.077  3.0184 -1.2059 -0.2981
  446MPD2    N1 6653   2.466   0.316  11.146 -0.5840  0.8837 -0.3681
  446MPD2    H7 6654   2.516   0.292  11.061  0.4410 -0.2796  0.5620
  447TMC3    C1 6655   3.051   0.707  11.166  0.0999 -0.1695  0.5158
  447TMC3    C2 6656   3.020   0.722  11.030  0.2770  0.3960  0.2726
  447TMC3    C3 6657   3.118   0.709  10.939  0.0609  0.0183 -0.2664
  447TMC3    C4 6658   3.175   0.663  11.204 -0.2098  0.3362 -0.6074
  447TMC3    C5 6659   3.268   0.638  11.107 -0.4925  0.1385  0.3595
  447TMC3    C6 6660   3.246   0.668  10.975  0.3877  0.3197 -0.4954
  447TMC3     C 6661   2.945   0.654  11.248  0.1220 -0.6786 -0.1705
  447TMC3     O 6662   2.963   0.624  11.367  0.0823  0.5517  0.6851
  447TMC3     H 6663   2.936   0.776  10.988  0.3159 -0.0256 -0.3430
  447TMC3    H1 6664   3.190   0.639  11.309 -2.0906 -1.6862 -0.8115
  447TMC3    H2 6665   3.325   0.650  10.903  0.6833 -1.1148  0.1864
  447TMC3    C7 6666   3.396   0.563  11.140  0.0929  0.7772  0.1271
  447TMC3    C8 6667   3.086   0.742  10.795 -0.9055 -0.0700  0.8551
  447TMC3    O1 6668   3.465   0.526  11.046 -0.2598 -0.5586  0.3633
  447TMC3    O2 6669   2.994   0.820  10.782  0.2277  0.3611 -0.1956
  448TMC3    C1 6670   4.679   4.232  17.651  0.9543  0.6962  0.1529
  448TMC3    C2 6671   4.684   4.209  17.518 -0.6234 -0.5302 -0.9512
  448TMC3    C3 6672   4.670   4.091  17.463  0.5637  0.4446  0.3029
  448TMC3    C4 6673   4.664   4.120   0.040 -0.1321 -0.3444  0.2120
  448TMC3    C5 6674   4.660   3.995  17.674  0.2731 -0.6449 -0.3168
  448TMC3    C6 6675   4.659   3.980  17.539  0.5032  0.1163  0.0672
  448TMC3     C 6676   4.711   4.362   0.004 -0.1132  0.0083 -0.6117
  448TMC3     O 6677   4.693   4.461  17.621 -0.5636  0.3902  0.5977
  448TMC3     H 6678   4.716   4.284  17.446 -0.7402 -0.4989 -0.9708
  448TMC3    H1 6679   4.643   4.135   0.146  0.7669 -0.9680  0.4814
  448TMC3    H2 6680   4.679   3.882  17.499 -0.2868 -0.2140  0.4867
  448TMC3    C7 6681   4.641   3.880   0.062  0.9679 -0.4138 -0.0321
  448TMC3    C8 6682   0.002   4.073  17.335 -0.4378 -0.2346  0.1378
  448TMC3    O1 6683   4.626   3.772   0.009 -0.3129 -0.1351 -0.1812
  448TMC3    O2 6684   0.069   3.974  17.321 -0.1420 -0.0317  0.2123
  449MPD2     C 6685   1.873   3.061  13.304 -0.3131 -0.3056 -0.2651
  449MPD2    C1 6686   1.915   3.167  13.384 -0.4880 -0.5953 -0.1931
  449MPD2    C2 6687   1.820   3.252  13.447  0.3890  0.2034  0.4815
  449MPD2    C3 6688   1.687   3.224  13.447  0.0667  0.2398 -0.0063
  449MPD2    C4 6689   1.641   3.110  13.380 -0.0172  0.0979  0.1280
  449MPD2    C5 6690   1.736   3.036  13.303  0.2760 -0.5717  0.6187
  449MPD2     H 6691   1.857   3.336  13.505  0.2284  1.0778 -0.6925
  449MPD2    H1 6692   1.535   3.091  13.369  0.0881  0.1527 -0.9808
  449MPD2    H2 6693   1.941   2.991  13.258  0.0405  0.0932 -0.3580
  449MPD2    H3 6694   1.707   2.951  13.242 -2.3400  0.2842  0.6818
  449MPD2     N 6695   1.603   3.318  13.515  0.7503  0.4355  0.1120
  449MPD2    H5 6696   1.651   3.394  13.563  2.6287  1.0457 -2.7033
  449MPD2    N1 6697   2.045   3.205  13.410 -0.0828 -0.0050 -0.0249
  449MPD2    H7 6698   2.068   3.293  13.456  4.3212  0.1446 -2.5690
  450TMC3    C1 6699   2.274   3.228  13.395 -0.4306  0.1128 -0.1496
  450TMC3    C2 6700   2.335   3.271  13.281 -0.0413 -0.3123 -0.3257
  450TMC3    C3 6701   2.399   3.398  13.282 -0.1640  0.2326 -0.5812
  450TMC3    C4 6702   2.249   3.310  13.496 -0.6829 -0.1450 -0.3639
  450TMC3    C5 6703   2.285   3.437  13.483  0.0745 -0.6162  0.0978
  450TMC3    C6 6704   2.369   3.487  13.388 -0.0127  0.0851  0.4774
  450TMC3     C 6705   2.155   3.146  13.369 -0.4660 -1.0012 -0.9615
  450TMC3     O 6706   2.170   3.066  13.278  0.6145 -0.0983  0.2122
  450TMC3     H 6707   2.337   3.205  13.195 -1.3967 -0.3435 -0.3440
  450TMC3    H1 6708   2.201   3.264  13.581 -0.3455  0.6590  0.2611
  450TMC3    H2 6709   2.398   3.591  13.374  0.1252 -0.1052 -0.6382
  450TMC3    C7 6710   2.173   3.518  13.518 -0.2278  0.6432  0.2593
  450TMC3    C8 6711   2.444   3.450  13.158 -0.9635  1.2574  0.1631
  450TMC3    O1 6712   2.074   3.452  13.542 -0.0260 -0.8473 -0.3639
  450TMC3    O2 6713   2.422   3.570  13.146 -0.3050  0.1275  0.0162
  451MPD2     C 6714   3.235   2.696   0.883  0.1855 -0.1889  0.4345
  451MPD2    C1 6715   3.108   2.682   0.936  0.9514 -0.2218  0.0375
  451MPD2    C2 6716   3.039   2.563   0.920 -0.1659 -0.7649  0.1208
  451MPD2    C3 6717   3.103   2.459   0.847  0.0342 -0.0653  0.1338
  451MPD2    C4 6718   3.225   2.476   0.783  0.5503 -0.1501 -0.2707
  451MPD2    C5 6719   3.294   2.592   0.816  0.0277 -0.8680  0.0166
  451MPD2     H 6720   2.945   2.555   0.974  0.6591 -2.5052  1.2725
  451MPD2    H1 6721   3.264   2.407   0.709 -0.7064 -0.4025 -0.6951
  451MPD2    H2 6722   3.290   2.787   0.902 -0.1889  0.0529  0.3575
  451MPD2    H3 6723   3.394   2.601   0.775  0.5005 -3.2072  0.6766
  451MPD2     N 6724   3.047   2.328   0.842 -0.3802  0.1763  0.0179
  451MPD2    H5 6725   3.105   2.262   0.790 -1.1025 -0.8508  0.5011
  451MPD2    N1 6726   3.058   2.783   1.030  0.4045 -0.4630  0.0176
  451MPD2    H7 6727   3.124   2.855   1.056  3.7478 -2.3188 -3.2550
  452TMC3    C1 6728   2.909   2.141   0.898  0.8310  0.2248 -0.0309
  452TMC3    C2 6729   2.834   2.087   0.997 -0.0561  0.3258  0.0585
  452TMC3    C3 6730   2.806   1.954   0.982 -0.4295  0.0390  0.1590
  452TMC3    C4 6731   2.955   2.067   0.794 -0.2584  0.0217  0.1431
  452TMC3    C5 6732   2.936   1.931   0.798 -0.2256 -0.8868  0.3205
  452TMC3    C6 6733   2.868   1.864   0.895 -0.2308  0.1707  0.6235
  452TMC3     C 6734   2.925   2.290   0.898  0.6213 -0.0019 -0.1646
  452TMC3     O 6735   2.852   2.355   0.968  0.0082  0.1094  1.0562
  452TMC3     H 6736   2.803   2.157   1.073  2.2646  2.0439 -0.5893
  452TMC3    H1 6737   3.006   2.112   0.709 -0.5077  0.0659  0.0178
  452TMC3    H2 6738   2.883   1.759   0.917  4.9588  0.7134 -0.1189
  452TMC3    C7 6739   2.998   1.849   0.691  0.6344  1.1742  0.8281
  452TMC3    C8 6740   2.707   1.907   1.071  0.2191 -0.8261  0.3193
  452TMC3    O1 6741   3.099   1.891   0.637  0.2820 -0.2881 -0.3324
  452TMC3    O2 6742   2.709   1.965   1.181 -0.4222  0.5992  0.1656
  453TMC3    C1 6743   0.264   4.016  11.496  0.3209  0.0235 -0.4107
  453TMC3    C2 6744   0.152   3.940  11.541 -0.0202 -0.7913  0.2287
  453TMC3    C3 6745   0.037   3.953  11.463 -0.3305  0.2191 -0.0351
  453TMC3    C4 6746   0.265   4.093  11.380  0.0022 -0.1591 -0.2291
  453TMC3    C5 6747   0.143   4.101  11.316  0.5004 -0.1060 -0.1938
  453TMC3    C6 6748   0.023   4.049  11.362 -0.3370  0.4393 -0.3810
  453TMC3     C 6749   0.377   4.033  11.575  0.4946 -0.4428 -0.2477
  453TMC3     O 6750   0.466   4.105  11.533  0.3980  0.3363  0.1714
  453TMC3     H 6751   0.150   3.885  11.634  1.3804 -1.5871 -0.2211
  453TMC3    H1 6752   0.357   4.139  11.345 -1.0594 -0.2360 -3.1577
  453TMC3    H2 6753   4.648   4.062  11.316 -1.5394 -0.8460  1.8450
  453TMC3    C7 6754   0.141   4.177  11.189  0.0172  0.1698  0.4765
  453TMC3    C8 6755   4.638   3.893  11.504  0.5440 -0.2906 -0.0600
  453TMC3    O1 6756   0.034   4.209  11.142  0.6949  0.0342  0.5532
  453TMC3    O2 6757   4.539   3.931  11.451 -0.7935 -0.0248  0.7931
  454MPD2     C 6758   3.469   3.591  16.116 -0.3916  0.1837 -0.7234
  454MPD2    C1 6759   3.409   3.705  16.064 -0.5012 -0.5274  0.5356
  454MPD2    C2 6760   3.370   3.811  16.148 -0.0777 -0.7951  0.0300
  454MPD2    C3 6761   3.380   3.794  16.284 -0.5176  0.6449 -0.0957
  454MPD2    C4 6762   3.447   3.684  16.333 -0.7736 -0.4950 -0.4636
  454MPD2    C5 6763   3.486   3.579  16.250 -0.3127  0.0590 -0.9816
  454MPD2     H 6764   3.328   3.899  16.101  0.5982 -0.9735 -0.9080
  454MPD2    H1 6765   3.452   3.675  16.441 -2.1029  0.9032 -0.2923
  454MPD2    H2 6766   3.494   3.511  16.047 -0.3020 -0.1725 -0.2747
  454MPD2    H3 6767   3.535   3.496  16.299 -0.1347  1.2122  0.8242
  454MPD2     N 6768   3.311   3.876  16.383 -0.0321  0.0890  0.1346
  454MPD2    H5 6769   3.315   3.845  16.479  1.6718 -3.5359 -1.0879
  454MPD2    N1 6770   3.363   3.714  15.934  0.4830  0.4103  0.4775
  454MPD2    H7 6771   3.324   3.803  15.906 -1.0406 -0.6908 -0.9163
  455TMC3    C1 6772   3.115   3.973  16.422  0.7072  0.2045 -0.5696
  455TMC3    C2 6773   3.037   4.090  16.409 -0.2788 -0.3084  0.0677
  455TMC3    C3 6774   2.908   4.088  16.389 -0.8820  0.3334  0.1327
  455TMC3    C4 6775   3.055   3.854  16.387 -0.5828  0.0113 -0.2663
  455TMC3    C5 6776   2.923   3.857  16.353  0.3287  0.7242  0.1078
  455TMC3    C6 6777   2.844   3.968  16.356 -0.6060  0.1065  0.0326
  455TMC3     C 6778   3.242   3.984  16.352  0.0118 -0.7744  0.3360
  455TMC3     O 6779   3.242   4.056  16.254  0.4027  0.2056 -0.1710
  455TMC3     H 6780   3.085   4.185  16.431 -1.9578  0.6403 -0.3746
  455TMC3    H1 6781   3.103   3.759  16.402 -1.2448 -0.0769  1.2432
  455TMC3    H2 6782   2.739   3.967  16.329 -0.4003  1.4518 -0.8247
  455TMC3    C7 6783   2.872   3.744  16.272  0.1860 -0.0454 -0.4288
  455TMC3    C8 6784   2.827   4.184  16.458  0.4892  0.3568 -0.6403
  455TMC3    O1 6785   2.762   3.751  16.217 -0.5591 -0.4674 -0.7477
  455TMC3    O2 6786   2.706   4.180  16.440 -0.9251  0.2079 -0.4269
  456MPD2     C 6787   0.730   3.976  15.999 -0.9027  0.6900 -0.5139
  456MPD2    C1 6788   0.817   3.898  16.068  0.5033  0.0311  0.3287
  456MPD2    C2 6789   0.771   3.870  16.201 -0.5152  0.4030 -0.1439
  456MPD2    C3 6790   0.661   3.938  16.258  0.5729 -0.0105 -0.6323
  456MPD2    C4 6791   0.582   4.012  16.178 -0.4704  0.6342 -0.3711
  456MPD2    C5 6792   0.625   4.034  16.054  0.0570  0.2786 -0.5474
  456MPD2     H 6793   0.827   3.799  16.261 -0.0748  1.4661  0.6916
  456MPD2    H1 6794   0.499   4.068  16.220  0.8890  1.9385  0.5998
  456MPD2    H2 6795   0.745   3.999  15.894  2.1825  1.0608  0.0022
  456MPD2    H3 6796   0.575   4.107  15.991 -0.2890  0.3425 -0.2013
  456MPD2     N 6797   0.651   3.931  16.400 -0.2757 -0.2892 -0.2145
  456MPD2    H5 6798   0.734   3.889  16.440  1.1406 -0.1568 -3.0639
  456MPD2    N1 6799   0.925   3.836  16.007 -0.1149  0.1706  0.7707
  456MPD2    H7 6800   0.949   3.844  15.908 -1.3467  1.4839  0.5839
  457TMC3    C1 6801   0.552   3.948  16.613  0.3510  0.5129 -0.2780
  457TMC3    C2 6802   0.435   3.968  16.683 -0.1306 -0.2323  0.2017
  457TMC3    C3 6803   0.438   3.945  16.822 -0.1195  0.2166  0.4456
  457TMC3    C4 6804   0.669   3.907  16.677 -0.2394  0.5478  0.0097
  457TMC3    C5 6805   0.663   3.887  16.812  0.5309  0.0401  0.0972
  457TMC3    C6 6806   0.550   3.905  16.880 -0.5087 -0.7679 -0.2158
  457TMC3     C 6807   0.546   3.980  16.474 -0.0290 -0.1936  0.2749
  457TMC3     O 6808   0.446   4.034  16.436 -0.7510  0.2328  0.4642
  457TMC3     H 6809   0.347   4.003  16.628  0.3320 -0.7874 -0.8939
  457TMC3    H1 6810   0.771   3.923  16.643  0.3640  0.6046  1.8594
  457TMC3    H2 6811   0.574   3.902  16.986 -1.1568 -1.3967 -0.0853
  457TMC3    C7 6812   0.782   3.886  16.894  0.7983  0.3780 -0.0688
  457TMC3    C8 6813   0.332   4.003  16.902 -0.2044 -0.2137  0.0129
  457TMC3    O1 6814   0.772   3.818  16.996  0.0439  0.7548 -0.5454
  457TMC3    O2 6815   0.358   3.993  17.020 -0.1725  0.4485  0.8671
  458MPD2     C 6816   4.193   3.033  12.224  0.0489 -0.2126 -1.0731
  458MPD2    C1 6817   4.125   2.913  12.228 -0.5946 -0.5114  0.8619
  458MPD2    C2 6818   3.996   2.899  12.169 -0.2423 -0.9273  0.2503
  458MPD2    C3 6819   3.950   2.993  12.082  0.1122  0.1309  0.1817
  458MPD2    C4 6820   4.023   3.108  12.072  0.0021  0.0680  0.3859
  458MPD2    C5 6821   4.135   3.133  12.152 -0.1061  0.8062 -0.2261
  458MPD2     H 6822   3.942   2.805  12.178  0.2806 -1.2593 -0.0836
  458MPD2    H1 6823   3.998   3.182  11.997  2.5818  0.4717 -0.0834
  458MPD2    H2 6824   4.287   3.048  12.277 -1.4220 -0.1158  1.5281
  458MPD2    H3 6825   4.183   3.229  12.162 -1.7011  1.4292  1.1968
  458MPD2     N 6826   3.830   2.968  12.017  0.7518 -0.2489  0.7426
  458MPD2    H5 6827   3.779   2.889  12.055  0.3251 -0.4800 -0.3150
  458MPD2    N1 6828   4.187   2.820  12.312 -0.2065 -0.0753 -0.3875
  458MPD2    H7 6829   4.271   2.853  12.358 -2.8318  2.7677  2.3516
  459TMC3    C1 6830   4.213   2.619  12.449 -0.7686  0.8467 -0.1106
  459TMC3    C2 6831   4.344   2.654  12.461 -0.9562  0.0591 -0.4578
  459TMC3    C3 6832   4.414   2.646  12.577 -0.1480  0.7298 -0.2509
  459TMC3    C4 6833   4.146   2.564  12.555 -0.3773 -0.1994  0.7633
  459TMC3    C5 6834   4.214   2.554  12.668 -0.0437 -0.3933  0.0681
  459TMC3    C6 6835   4.346   2.598  12.686  0.1245 -0.5105  0.0362
  459TMC3     C 6836   4.130   2.697  12.360  0.3504  0.0616  0.2034
  459TMC3     O 6837   4.014   2.656  12.359 -0.0990  0.3367 -0.2177
  459TMC3     H 6838   4.380   2.715  12.378  0.9977 -0.1363  0.2516
  459TMC3    H1 6839   4.043   2.534  12.542 -1.2989  3.4172 -0.5144
  459TMC3    H2 6840   4.393   2.599  12.783  1.0575 -2.3799 -0.4056
  459TMC3    C7 6841   4.146   2.510  12.794 -0.9367 -0.5707  0.5196
  459TMC3    C8 6842   4.553   2.701  12.577 -0.9601  0.5078 -0.3658
  459TMC3    O1 6843   4.220   2.499  12.892 -0.5921 -0.3627 -0.1363
  459TMC3    O2 6844   4.596   2.756  12.476  0.1150  0.1959  0.6994
  460MPD2     C 6845   3.183   0.542  10.512  0.2300  0.1905  0.1402
  460MPD2    C1 6846   3.113   0.641  10.575  0.3227  0.0993 -0.3422
  460MPD2    C2 6847   3.015   0.702  10.499  0.5620  0.0334  0.1215
  460MPD2    C3 6848   2.970   0.650  10.380 -0.5305 -0.4217  0.1431
  460MPD2    C4 6849   3.047   0.552  10.318 -0.6499 -1.2235  0.5853
  460MPD2    C5 6850   3.149   0.496  10.386  0.0608 -0.1379  0.1086
  460MPD2     H 6851   2.955   0.780  10.545  0.4033 -0.0180 -0.0006
  460MPD2    H1 6852   3.036   0.519  10.216 -0.8763 -0.3465  0.3273
  460MPD2    H2 6853   3.256   0.481  10.564 -0.2870 -1.1710 -0.7285
  460MPD2    H3 6854   3.217   0.425  10.339  1.1056  0.3026  0.9527
  460MPD2     N 6855   2.867   0.713  10.306 -0.5395 -0.2673  0.3168
  460MPD2    H5 6856   2.837   0.806  10.334  0.0707 -0.4538  1.5733
  460MPD2    N1 6857   3.154   0.665  10.705  0.2037  1.0291  0.1389
  460MPD2    H7 6858   3.228   0.609  10.746  0.3772 -0.0715 -1.6747
  461TMC3    C1 6859   2.690   0.716  10.143  0.1321 -0.7813  0.2425
  461TMC3    C2 6860   2.597   0.643  10.075  0.2101 -0.2290 -0.3836
  461TMC3    C3 6861   2.483   0.697  10.018 -0.1532 -0.1350 -1.1220
  461TMC3    C4 6862   2.668   0.850  10.154  1.3574 -0.3545  0.8374
  461TMC3    C5 6863   2.554   0.903  10.111  0.2459  0.2595  0.5360
  461TMC3    C6 6864   2.459   0.830  10.038  0.5453  0.0851 -0.1298
  461TMC3     C 6865   2.795   0.651  10.214 -0.8330  1.0267 -0.7192
  461TMC3     O 6866   2.795   0.533  10.185  0.6194  0.0386  0.3721
  461TMC3     H 6867   2.617   0.541  10.046 -0.6174 -0.4210 -0.2716
  461TMC3    H1 6868   2.752   0.897  10.204  1.8741  0.9950 -1.3383
  461TMC3    H2 6869   2.368   0.883  10.012 -0.6494 -1.8660  0.1553
  461TMC3    C7 6870   2.521   1.046  10.112 -0.3973 -0.3853  0.3924
  461TMC3    C8 6871   2.404   0.610   9.944  0.1821 -0.2594  0.1506
  461TMC3    O1 6872   2.432   1.088  10.040 -0.1656  0.7815  0.1346
  461TMC3    O2 6873   2.460   0.516   9.888  0.0360 -0.2114 -0.0698
  462TMC3    C1 6874   2.362   1.558  17.443  0.4123  0.1496  0.3583
  462TMC3    C2 6875   2.329   1.456  17.362 -0.5779 -0.4454 -0.2288
  462TMC3    C3 6876   2.302   1.333  17.414  0.3791 -0.6666  0.7534
  462TMC3    C4 6877   2.355   1.539  17.584 -0.7900  0.2066  0.2944
  462TMC3    C5 6878   2.308   1.417  17.630  0.7569 -0.2854  0.2463
  462TMC3    C6 6879   2.277   1.314  17.549  0.5093 -0.3732 -0.0293
  462TMC3     C 6880   2.434   1.670  17.381  0.0831 -0.2881  0.5590
  462TMC3     O 6881   2.431   1.672  17.256 -0.6552  0.5144 -0.1527
  462TMC3     H 6882   2.351   1.466  17.256  0.7305 -2.1223 -0.1159
  462TMC3    H1 6883   2.379   1.614  17.658 -0.8483 -0.7842  1.3250
  462TMC3    H2 6884   2.262   1.209  17.574  0.9626 -0.3239  0.4352
  462TMC3    C7 6885   2.257   1.403   0.073 -1.2689 -0.2939 -0.0120
  462TMC3    C8 6886   2.300   1.211  17.332  0.6759 -0.2227  0.4282
  462TMC3    O1 6887   2.243   1.282   0.098 -0.1067 -0.0249 -0.1002
  462TMC3    O2 6888   2.317   1.100  17.383 -0.5321  0.4794 -0.1719
  463MPD2     C 6889   2.483   1.182   1.861  0.4426 -0.5635  0.1036
  463MPD2    C1 6890   2.477   1.134   1.729  0.1720 -0.0938 -0.2533
  463MPD2    C2 6891   2.539   1.216   1.634  0.0184 -0.2223  0.3054
  463MPD2    C3 6892   2.611   1.326   1.668 -0.2505 -0.2833 -0.5693
  463MPD2    C4 6893   2.621   1.364   1.795  0.7966  0.0749  0.0645
  463MPD2    C5 6894   2.560   1.290   1.890 -0.2587  0.0651 -0.5903
  463MPD2     H 6895   2.532   1.166   1.538  0.6092 -0.2955  0.3006
  463MPD2    H1 6896   2.691   1.442   1.824  0.3713  0.2498  0.6157
  463MPD2    H2 6897   2.453   1.127   1.950 -1.4221 -1.6275 -1.1837
  463MPD2    H3 6898   2.584   1.308   1.994  1.2971  3.1236 -1.4438
  463MPD2     N 6899   2.691   1.401   1.572  0.4886  0.3044 -0.3098
  463MPD2    H5 6900   2.758   1.466   1.613  1.4988 -0.7765 -0.2428
  463MPD2    N1 6901   2.418   1.007   1.697  0.3950 -0.4404  0.4129
  463MPD2    H7 6902   2.424   0.975   1.601 -2.2866  2.4071 -0.7282
  464TMC3    C1 6903   2.312   0.797   1.725 -0.2044 -0.1606 -0.3111
  464TMC3    C2 6904   2.244   0.791   1.604  0.1506  0.1351 -0.3250
  464TMC3    C3 6905   2.179   0.675   1.568 -0.3547  0.6015  0.0932
  464TMC3    C4 6906   2.315   0.688   1.811  0.3246 -0.2405  0.1174
  464TMC3    C5 6907   2.242   0.578   1.770 -0.3982  0.6524 -0.5824
  464TMC3    C6 6908   2.183   0.566   1.645 -0.2149 -0.2152 -0.2592
  464TMC3     C 6909   2.360   0.916   1.787  0.1879 -0.3003  0.8320
  464TMC3     O 6910   2.366   0.914   1.909  0.2543  0.7801  0.1104
  464TMC3     H 6911   2.235   0.881   1.544  0.4800  0.2078 -0.2678
  464TMC3    H1 6912   2.373   0.688   1.902 -1.9560  0.5017  1.5641
  464TMC3    H2 6913   2.128   0.478   1.615  0.5112 -1.3366  1.7027
  464TMC3    C7 6914   2.238   0.466   1.855 -0.5056  0.3235  0.0068
  464TMC3    C8 6915   2.108   0.662   1.442 -0.1487  0.9505 -0.4407
  464TMC3    O1 6916   2.217   0.364   1.794 -0.2194  0.2408 -0.3703
  464TMC3    O2 6917   2.064   0.759   1.380 -0.3943 -0.3808 -1.6506
  465MPD2     C 6918   0.359   3.453  16.602 -0.4331 -0.0106 -0.5326
  465MPD2    C1 6919   0.255   3.416  16.690  0.3192 -0.1543 -0.6294
  465MPD2    C2 6920   0.163   3.511  16.714 -0.3370 -0.8901 -0.7283
  465MPD2    C3 6921   0.172   3.642  16.670 -0.4953  0.0315 -0.3162
  465MPD2    C4 6922   0.280   3.678  16.595 -0.1014  0.1464 -0.2645
  465MPD2    C5 6923   0.375   3.582  16.562 -0.5355 -1.2205  0.2671
  465MPD2     H 6924   0.081   3.481  16.779  0.7569 -0.2809  0.9190
  465MPD2    H1 6925   0.292   3.780  16.561  0.0364 -0.1550 -1.1240
  465MPD2    H2 6926   0.435   3.390  16.559  0.7272  0.8617  0.2441
  465MPD2    H3 6927   0.446   3.614  16.486 -1.3945 -0.2351 -0.1213
  465MPD2     N 6928   0.055   3.719  16.678  0.9651 -0.2332  0.1377
  465MPD2    H5 6929   4.704   3.682  16.738  1.1586 -1.8522 -0.6344
  465MPD2    N1 6930   0.244   3.288  16.742  0.3769  0.1460 -0.1866
  465MPD2    H7 6931   0.161   3.266  16.796  1.6143  2.4732  2.6966
  466TMC3    C1 6932   4.407   3.921  16.734 -0.0920 -0.1044 -0.3388
  466TMC3    C2 6933   4.369   4.017  16.650  0.1370  0.1060  0.1167
  466TMC3    C3 6934   4.464   4.052  16.550  0.0604  0.5749  0.0008
  466TMC3    C4 6935   4.526   3.855  16.722 -0.7715  1.2328 -0.7080
  466TMC3    C5 6936   4.619   3.897  16.628  0.2869 -0.3749 -0.0182
  466TMC3    C6 6937   4.586   3.991  16.534  0.4657 -0.3395 -0.2379
  466TMC3     C 6938   4.322   3.898  16.841 -0.0694  0.1081 -0.4466
  466TMC3     O 6939   4.377   3.874  16.948 -0.1324  0.0982 -0.0637
  466TMC3     H 6940   4.279   4.073  16.674  0.0727  0.3469 -0.6693
  466TMC3    H1 6941   4.548   3.779  16.796 -1.0833 -1.0987 -3.0215
  466TMC3    H2 6942   4.660   4.017  16.460  1.9509 -1.6610  0.7837
  466TMC3    C7 6943   0.037   3.851  16.626  0.0744  0.3650  0.2338
  466TMC3    C8 6944   4.437   4.176  16.483  0.0099 -0.4836  0.5814
  466TMC3    O1 6945   0.118   3.913  16.560 -0.3206  0.3244 -0.7405
  466TMC3    O2 6946   4.495   4.191  16.381  0.6222  0.0087  0.0911
  467TMC3    C1 6947   1.126   2.000  13.577  0.7176 -0.8822  0.7958
  467TMC3    C2 6948   1.129   2.010  13.441 -0.1548  0.3584 -0.7802
  467TMC3    C3 6949   1.009   2.044  13.379 -0.9390  0.4484  0.1941
  467TMC3    C4 6950   1.019   2.017  13.655  0.4261  0.0704 -0.4555
  467TMC3    C5 6951   0.900   2.044  13.591  0.7101  0.3230 -0.2828
  467TMC3    C6 6952   0.900   2.054  13.453  0.3903  0.0247  0.0535
  467TMC3     C 6953   1.240   2.063  13.627  0.2355  0.1313  0.1089
  467TMC3     O 6954   1.220   2.163  13.692  0.0652 -0.6156  0.2740
  467TMC3     H 6955   1.224   2.012  13.389 -0.1047  2.3917 -0.6094
  467TMC3    H1 6956   1.027   2.024  13.763 -1.8714  2.0511 -0.4246
  467TMC3    H2 6957   0.805   2.066  13.401  0.1567  1.5300  0.8297
  467TMC3    C7 6958   0.791   2.088  13.673 -0.5306  0.0703 -0.5890
  467TMC3    C8 6959   1.021   2.125  13.257  0.1783 -0.4939 -0.0188
  467TMC3    O1 6960   0.801   2.070  13.797 -0.0041 -0.0540  0.3664
  467TMC3    O2 6961   0.945   2.220  13.253  0.0398 -0.3041 -0.1532
  468MPD2     C 6962   4.709   0.499  10.495 -0.2930 -0.7408 -0.1670
  468MPD2    C1 6963   0.108   0.519  10.550 -0.1062  0.0610  0.0890
  468MPD2    C2 6964   0.168   0.417  10.621 -0.3453  0.7334  0.2459
  468MPD2    C3 6965   0.103   0.294  10.640 -0.4933 -0.3334  0.5421
  468MPD2    C4 6966   4.697   0.281  10.600  0.2103 -0.0891  0.2783
  468MPD2    C5 6967   4.644   0.380  10.522  0.6818  0.6537 -0.5011
  468MPD2     H 6968   0.267   0.441  10.657  0.4870  0.4377 -1.8942
  468MPD2    H1 6969   4.639   0.191  10.616  0.6328 -0.1661  1.3322
  468MPD2    H2 6970   4.656   0.567  10.430 -1.9064 -1.7207  0.1374
  468MPD2    H3 6971   4.545   0.364  10.480  0.8096  0.3125 -0.6696
  468MPD2     N 6972   0.150   0.184  10.710 -0.7141  0.0855 -0.1221
  468MPD2    H5 6973   0.078   0.117  10.734 -0.6200  0.4943  1.3040
  468MPD2    N1 6974   0.172   0.648  10.532 -0.3837 -0.4238 -0.4467
  468MPD2    H7 6975   0.260   0.654  10.582  0.6359 -0.0931 -2.2804
  469TMC3    C1 6976   0.196   0.881  10.481 -0.0025  0.6812 -0.4806
  469TMC3    C2 6977   0.318   0.883  10.540  0.5789 -1.1602 -0.1809
  469TMC3    C3 6978   0.399   0.995  10.519 -0.0775  0.7462 -0.8444
  469TMC3    C4 6979   0.163   0.971  10.386  0.5489  0.3204  0.9498
  469TMC3    C5 6980   0.247   1.083  10.367 -0.3733  0.3709  0.8990
  469TMC3    C6 6981   0.366   1.099  10.434 -0.9852 -0.2851 -0.6140
  469TMC3     C 6982   0.113   0.760  10.476  0.3836 -0.3138 -0.4757
  469TMC3     O 6983   0.003   0.765  10.417  0.3647 -0.0152 -0.6345
  469TMC3     H 6984   0.351   0.802  10.603 -0.1957  0.8736  2.8637
  469TMC3    H1 6985   0.075   0.962  10.324  1.0670 -1.1698  0.4103
  469TMC3    H2 6986   0.429   1.188  10.433 -0.1284 -0.8682  0.6815
  469TMC3    C7 6987   0.202   1.195  10.290  0.0042  0.3413 -0.9397
  469TMC3    C8 6988   0.542   0.986  10.548 -0.9872 -0.3983  0.0859
  469TMC3    O1 6989   0.295   1.251  10.230 -0.3654  0.8027  0.1833
  469TMC3    O2 6990   0.628   1.045  10.491 -0.4936  0.7599  0.3021
  470TMC3    C1 6991   2.075   1.453   0.991 -0.3681 -0.4790 -0.0934
  470TMC3    C2 6992   2.076   1.587   0.979 -0.4009  0.4704 -0.2854
  470TMC3    C3 6993   1.988   1.663   1.051  0.5854  0.8305 -0.1466
  470TMC3    C4 6994   1.986   1.391   1.077  1.2846 -0.0242  0.7393
  470TMC3    C5 6995   1.905   1.473   1.150  0.0376  0.5492 -0.0380
  470TMC3    C6 6996   1.902   1.607   1.142  0.3711 -0.4300  0.0970
  470TMC3     C 6997   2.139   1.376   0.885 -0.0831  0.7061  0.1448
  470TMC3     O 6998   2.220   1.440   0.816  0.3001  0.6123  0.0412
  470TMC3     H 6999   2.151   1.630   0.914  0.8704  1.6315  1.9291
  470TMC3    H1 7000   1.982   1.283   1.080 -1.2322  0.0080 -1.5561
  470TMC3    H2 7001   1.837   1.665   1.208  0.6731 -0.5786  0.5266
  470TMC3    C7 7002   1.824   1.401   1.247 -0.7632  0.6150 -0.3407
  470TMC3    C8 7003   2.005   1.810   1.069  0.3853 -0.3014 -0.5442
  470TMC3    O1 7004   1.831   1.275   1.244 -0.7869  0.1583  0.4828
  470TMC3    O2 7005   1.931   1.865   1.152 -0.1583  0.3349  0.1312
  471MPD2     C 7006   2.699   3.092  16.866  0.3375 -0.2610 -0.8253
  471MPD2    C1 7007   2.700   2.963  16.807 -0.2431 -0.1994 -0.3693
  471MPD2    C2 7008   2.781   2.866  16.868  0.3382 -0.0635  0.5020
  471MPD2    C3 7009   2.860   2.904  16.970 -0.1585 -0.5092 -0.1066
  471MPD2    C4 7010   2.859   3.027  17.024 -0.7203 -0.3726 -0.0635
  471MPD2    C5 7011   2.777   3.121  16.972  0.0029 -0.9257 -0.7771
  471MPD2     H 7012   2.796   2.764  16.835 -0.9727  0.1332 -0.6896
  471MPD2    H1 7013   2.925   3.056  17.105 -0.9180  0.9972 -0.4077
  471MPD2    H2 7014   2.635   3.169  16.826  1.3125 -0.0456 -1.9688
  471MPD2    H3 7015   2.789   3.220  17.015  1.7974 -0.6687 -1.8860
  471MPD2     N 7016   2.948   2.814  17.028 -0.5611  0.2758  0.5343
  471MPD2    H5 7017   2.975   2.835  17.123  1.9990 -1.0965  0.1106
  471MPD2    N1 7018   2.613   2.918  16.707  0.0271 -0.1932  0.0240
  471MPD2    H7 7019   2.613   2.820  16.681 -2.3930  0.1531 -1.2906
  472TMC3    C1 7020   2.419   2.902  16.569 -0.3832  0.4544  0.0342
  472TMC3    C2 7021   2.301   2.959  16.525 -0.4863 -0.9231  0.6916
  472TMC3    C3 7022   2.215   2.875  16.468  0.2431 -0.1997  0.3075
  472TMC3    C4 7023   2.433   2.763  16.578  0.1320 -0.4451 -0.2440
  472TMC3    C5 7024   2.328   2.686  16.536 -0.8024  0.1559  0.1433
  472TMC3    C6 7025   2.227   2.737  16.464  0.1606  0.4866  0.2868
  472TMC3     C 7026   2.511   2.988  16.654 -0.5993  0.2172 -0.8231
  472TMC3     O 7027   2.470   3.101  16.674  0.0193 -0.2280  0.0311
  472TMC3     H 7028   2.281   3.064  16.544 -1.2848 -0.5566 -2.1526
  472TMC3    H1 7029   2.513   2.706  16.625 -1.1862 -2.0635  0.0189
  472TMC3    H2 7030   2.157   2.673  16.411  0.8651  0.7107 -0.9091
  472TMC3    C7 7031   2.351   2.538  16.528  0.7989 -0.0349  0.2116
  472TMC3    C8 7032   2.087   2.930  16.412  0.6777 -0.5681  0.4346
  472TMC3    O1 7033   2.397   2.473  16.621  0.1944 -0.4729  0.4576
  472TMC3    O2 7034   2.084   3.049  16.384 -0.1392  0.2659 -0.0044
  473MPD2     C 7035   2.258   4.522  14.032 -0.0060  0.4484  0.3305
  473MPD2    C1 7036   2.193   4.640  13.994  0.7047  0.0438 -0.0191
  473MPD2    C2 7037   2.211   0.033  14.067  0.0919  0.0488  0.0892
  473MPD2    C3 7038   2.302   0.039  14.170 -0.2168 -0.2923 -0.4031
  473MPD2    C4 7039   2.381   4.650  14.197  0.5379  0.4401  0.3434
  473MPD2    C5 7040   2.355   4.536  14.121  0.8981 -0.4873 -0.3811
  473MPD2     H 7041   2.143   0.113  14.040  0.9292  0.6514 -0.2148
  473MPD2    H1 7042   2.457   4.640  14.273  2.1975  0.2132 -1.3679
  473MPD2    H2 7043   2.242   4.432  13.974  1.3111  0.5220 -0.1399
  473MPD2    H3 7044   2.409   4.443  14.137  3.2977  0.6999 -1.4975
  473MPD2     N 7045   2.310   0.154  14.253 -0.5542 -0.1789  0.3747
  473MPD2    H5 7046   2.366   0.150  14.337 -0.5729 -0.0732  0.3924
  473MPD2    N1 7047   2.090   4.644  13.894  0.1460 -0.4234  0.6274
  473MPD2    H7 7048   2.034   0.005  13.883  0.4637 -0.1373  1.1730
  474TMC3    C1 7049   2.296   0.380  14.323 -0.0153 -0.6160 -0.2168
  474TMC3    C2 7050   2.219   0.491  14.341 -0.2120  0.4612 -0.4894
  474TMC3    C3 7051   2.268   0.608  14.383  0.6494  0.3111 -0.2027
  474TMC3    C4 7052   2.431   0.380  14.356  0.6439 -0.7591 -0.0045
  474TMC3    C5 7053   2.474   0.501  14.395  0.8850  0.2156  0.3431
  474TMC3    C6 7054   2.397   0.616  14.408 -0.5259  0.1730 -0.7943
  474TMC3     C 7055   2.241   0.274  14.236 -0.4960  0.3321 -0.3530
  474TMC3     O 7056   2.147   0.304  14.167  0.6515 -0.5214  0.1861
  474TMC3     H 7057   2.113   0.475  14.323 -0.2593 -1.0169  1.0256
  474TMC3    H1 7058   2.493   0.292  14.341 -0.6606 -1.0249 -3.9173
  474TMC3    H2 7059   2.450   0.705  14.442  1.4828 -1.5224  0.4803
  474TMC3    C7 7060   2.610   0.502  14.439  0.5169 -0.2166 -0.1625
  474TMC3    C8 7061   2.193   0.719  14.315  0.6032 -0.8159 -0.4583
  474TMC3    O1 7062   2.690   0.428  14.380 -0.2833  0.0186  0.5773
  474TMC3    O2 7063   2.069   0.697  14.307 -0.1766  0.4968  0.1393
  475MPD2     C 7064   0.423   2.823  10.908 -0.6783  0.7410 -0.0564
  475MPD2    C1 7065   0.389   2.943  10.968 -0.1020 -0.4043  0.5579
  475MPD2    C2 7066   0.253   2.976  10.965 -0.8239 -0.0825 -0.7470
  475MPD2    C3 7067   0.158   2.907  10.892  0.7562 -0.0545 -0.7887
  475MPD2    C4 7068   0.198   2.797  10.825  0.2904 -0.3473 -0.2809
  475MPD2    C5 7069   0.325   2.748  10.844 -0.4946 -0.6698  0.1832
  475MPD2     H 7070   0.222   3.067  11.016  1.0031  1.2053 -1.9460
  475MPD2    H1 7071   0.126   2.727  10.782  0.2799 -0.6284  0.1885
  475MPD2    H2 7072   0.523   2.782  10.909 -0.9137  0.1037 -1.6523
  475MPD2    H3 7073   0.354   2.649  10.810  3.0033  0.4329  0.0664
  475MPD2     N 7074   0.025   2.950  10.887 -0.2446  0.0185  0.5905
  475MPD2    H5 7075   0.005   3.023  10.955 -1.1956 -0.9492  1.3475
  475MPD2    N1 7076   0.474   3.046  11.018  0.6426  0.1557 -0.2648
  475MPD2    H7 7077   0.433   3.133  11.049  1.5043  0.4233  0.1239
  476TMC3    C1 7078   0.668   3.163  11.062  0.1451  0.0154 -0.4600
  476TMC3    C2 7079   0.605   3.285  11.029 -0.7433 -0.4427 -0.0501
  476TMC3    C3 7080   0.695   3.381  11.006  0.6507 -0.0005  0.0868
  476TMC3    C4 7081   0.798   3.152  11.088  0.2607 -0.0526  0.6330
  476TMC3    C5 7082   0.880   3.254  11.052  0.0366 -0.4230  0.2203
  476TMC3    C6 7083   0.830   3.372  11.016 -0.3754  0.4191  0.1692
  476TMC3     C 7084   0.609   3.033  11.026 -0.5370  0.2635  0.1796
  476TMC3     O 7085   0.664   2.925  11.027 -0.0245 -0.3988 -0.4441
  476TMC3     H 7086   0.500   3.289  11.000 -0.9673  0.1765  0.8696
  476TMC3    H1 7087   0.840   3.059  11.126 -0.6913 -0.7169  0.0473
  476TMC3    H2 7088   0.892   3.449  10.970  0.1007 -0.5455 -0.8071
  476TMC3    C7 7089   1.014   3.248  11.101  0.6526 -0.4813  0.4336
  476TMC3    C8 7090   0.635   3.488  10.925  0.1116  1.2297 -0.1796
  476TMC3    O1 7091   1.073   3.137  11.103  0.1532 -0.3129 -0.3288
  476TMC3    O2 7092   0.524   3.526  10.959  0.0894  0.2355 -0.7653
  477MPD2     C 7093   3.755   0.026  11.452  0.6875 -0.2560  0.0541
  477MPD2    C1 7094   3.669   0.068  11.555  0.2219  0.2114  0.4662
  477MPD2    C2 7095   3.690   0.016  11.679  0.3025  0.3861  0.2338
  477MPD2    C3 7096   3.789   4.651  11.703  0.5101 -0.2584 -0.4666
  477MPD2    C4 7097   3.874   4.613  11.607 -0.4120  0.4090  0.3035
  477MPD2    C5 7098   3.852   4.662  11.480 -0.4535 -0.3280  0.8397
  477MPD2     H 7099   3.625   0.040  11.762  2.3066  1.5724  1.4502
  477MPD2    H1 7100   3.956   4.544  11.622 -2.2792 -1.7313  0.6755
  477MPD2    H2 7101   3.741   0.073  11.355  0.5435  0.3320  0.3570
  477MPD2    H3 7102   3.912   4.630  11.395 -0.8282  1.2066  0.0090
  477MPD2     N 7103   3.795   4.594  11.837 -0.0470 -0.0910 -0.2417
  477MPD2    H5 7104   3.708   4.600  11.890 -0.2709 -0.1591 -0.6011
  477MPD2    N1 7105   3.569   0.162  11.524 -0.2115 -0.3060  0.4700
  477MPD2    H7 7106   3.565   0.193  11.427  2.1385  1.1074  0.8476
  478TMC3    C1 7107   3.362   0.269  11.547 -0.1966  0.6521  0.0077
  478TMC3    C2 7108   3.255   0.293  11.629  0.1115  0.2515 -0.1289
  478TMC3    C3 7109   3.133   0.326  11.579  0.2022  0.1486  0.6599
  478TMC3    C4 7110   3.356   0.276  11.408  0.0168 -0.4131 -0.0944
  478TMC3    C5 7111   3.232   0.305  11.364  0.3311 -0.2614 -0.5435
  478TMC3    C6 7112   3.120   0.341  11.447  0.2712  0.1553  0.8681
  478TMC3     C 7113   3.483   0.220  11.617  0.1166  1.1479  0.3053
  478TMC3     O 7114   3.489   0.229  11.737  0.0078 -0.2902  0.1042
  478TMC3     H 7115   3.261   0.261  11.733  0.0771  2.4834  0.5675
  478TMC3    H1 7116   3.436   0.264  11.336  0.0938  1.1368 -0.2518
  478TMC3    H2 7117   3.024   0.363  11.400 -0.3475 -4.1701  0.1732
  478TMC3    C7 7118   3.205   0.268  11.225  0.0311 -0.3371  0.2638
  478TMC3    C8 7119   3.031   0.364  11.679 -0.1528  0.4561  0.5242
  478TMC3    O1 7120   3.303   0.208  11.180  0.1976  0.5223 -0.3462
  478TMC3    O2 7121   3.044   0.306  11.782 -0.2602 -0.4177 -0.1549
  479MPD2     C 7122   2.074   2.606  14.929  0.4180  0.0262  0.0390
  479MPD2    C1 7123   2.013   2.553  15.037 -0.5850 -0.0052 -0.1638
  479MPD2    C2 7124   2.015   2.626  15.158  0.0484 -0.6109  0.4243
  479MPD2    C3 7125   2.058   2.757  15.166 -0.4298  1.1958 -0.4190
  479MPD2    C4 7126   2.120   2.806  15.056  0.7216 -0.5864 -0.4078
  479MPD2    C5 7127   2.126   2.734  14.943 -0.2998  0.7028  0.3054
  479MPD2     H 7128   1.979   2.578  15.249 -1.7539  0.6455  0.3889
  479MPD2    H1 7129   2.153   2.909  15.053 -1.6525  0.2264  0.7485
  479MPD2    H2 7130   2.072   2.545  14.839  1.0997  0.1243 -0.0398
  479MPD2    H3 7131   2.180   2.782  14.862  1.0564 -0.5757  0.4469
  479MPD2     N 7132   2.046   2.836  15.277 -0.3960  0.1847 -0.1568
  479MPD2    H5 7133   2.111   2.914  15.269  0.0280 -0.2090 -0.5340
  479MPD2    N1 7134   1.948   2.426  15.022 -0.1971  0.3231  0.1865
  479MPD2    H7 7135   1.954   2.377  14.933 -1.0700 -0.7313  0.7239
  480TMC3    C1 7136   1.769   2.537  15.494 -0.0264  1.0650 -0.2621
  480TMC3    C2 7137   1.678   2.535  15.386  0.2940  1.0004  0.6361
  480TMC3    C3 7138   1.685   2.627  15.283 -0.0651 -0.1196 -0.3569
  480TMC3    C4 7139   1.856   2.650  15.493  0.3257 -0.2601  0.3434
  480TMC3    C5 7140   1.863   2.740  15.395 -0.0391 -0.1334 -0.4133
  480TMC3    C6 7141   1.775   2.735  15.286  0.0377 -0.0537  0.5435
  480TMC3     C 7142   1.807   2.411  15.558 -0.2353 -0.1350  0.6859
  480TMC3     O 7143   1.747   2.308  15.519  0.3464 -0.6609 -0.2752
  480TMC3     H 7144   1.612   2.449  15.383 -0.9811  2.0777 -1.9998
  480TMC3    H1 7145   1.928   2.666  15.573  0.1023 -1.1508  0.7238
  480TMC3    H2 7146   1.789   2.813  15.211 -0.7209  0.1556  0.6229
  480TMC3    C7 7147   1.982   2.818  15.394 -0.0056  0.3943  0.0408
  480TMC3    C8 7148   1.615   2.584  15.165 -0.8629 -0.1444  0.3283
  480TMC3    O1 7149   2.009   2.873  15.500  0.3471 -0.7061  0.4239
  480TMC3    O2 7150   1.539   2.490  15.171 -0.7917 -0.0434  0.1917
  481MPD2     C 7151   3.657   1.480  13.916 -0.1107  0.5055  0.6029
  481MPD2    C1 7152   3.552   1.409  13.971  0.3229  0.8182 -0.8877
  481MPD2    C2 7153   3.568   1.355  14.099 -0.4202 -0.4351  0.5625
  481MPD2    C3 7154   3.675   1.393  14.173  0.6608  0.1827 -0.2810
  481MPD2    C4 7155   3.776   1.468  14.123 -0.2021 -0.3722  0.7897
  481MPD2    C5 7156   3.774   1.501  13.990  0.4695  0.3736 -0.3728
  481MPD2     H 7157   3.489   1.291  14.137 -1.6261  0.7083 -0.0039
  481MPD2    H1 7158   3.863   1.494  14.182  0.5946 -0.3480 -0.4034
  481MPD2    H2 7159   3.663   1.504  13.811  0.3671  0.9807  0.7379
  481MPD2    H3 7160   3.860   1.553  13.951  1.1013  1.0619  1.9424
  481MPD2     N 7161   3.694   1.353  14.305 -0.0615 -0.5957 -0.4079
  481MPD2    H5 7162   3.781   1.386  14.345 -1.2365  0.9741  0.8284
  481MPD2    N1 7163   3.442   1.398  13.887  0.3247 -0.1164 -0.1888
  481MPD2    H7 7164   3.424   1.474  13.822  1.2449  1.3425  1.2458
  482TMC3    C1 7165   3.219   1.337  13.817 -0.3217 -0.0793 -0.4635
  482TMC3    C2 7166   3.151   1.230  13.766 -0.7165 -0.4084  0.9325
  482TMC3    C3 7167   3.056   1.253  13.667  0.0649  0.4482 -0.7156
  482TMC3    C4 7168   3.187   1.469  13.787  0.0977  0.0375 -0.1817
  482TMC3    C5 7169   3.075   1.484  13.701 -0.6332 -0.0623  0.7065
  482TMC3    C6 7170   3.015   1.377  13.636 -0.8187  0.1283 -0.5200
  482TMC3     C 7171   3.337   1.307  13.905 -0.4363  0.2330 -1.2189
  482TMC3     O 7172   3.355   1.194  13.950  0.2193  0.8895 -0.1856
  482TMC3     H 7173   3.178   1.131  13.799 -0.7508 -0.9146 -0.5394
  482TMC3    H1 7174   3.225   1.553  13.845 -0.0765  0.9779 -1.4378
  482TMC3    H2 7175   2.944   1.397  13.556  0.2038 -1.6899 -1.8906
  482TMC3    C7 7176   3.056   1.614  13.637  0.4323  0.1636  0.1962
  482TMC3    C8 7177   3.018   1.133  13.600  0.3098 -0.2082  0.2079
  482TMC3    O1 7178   2.940   1.624  13.592 -0.4523 -0.3394 -0.0052
  482TMC3    O2 7179   3.060   1.031  13.648  0.2021  0.0791  0.4718
  483TMC3    C1 7180   0.884   0.355   0.927  0.0189  0.8386  0.0904
  483TMC3    C2 7181   0.910   0.467   0.860 -0.3510 -0.0048 -0.1530
  483TMC3    C3 7182   1.024   0.465   0.774 -0.0269  0.3259  0.3112
  483TMC3    C4 7183   0.965   0.241   0.918  0.2007  0.2374  0.3375
  483TMC3    C5 7184   1.070   0.247   0.833  0.5148  0.7576 -0.3479
  483TMC3    C6 7185   1.099   0.353   0.753  0.8029  0.1119  0.3434
  483TMC3     C 7186   0.773   0.371   1.026 -0.5429  0.5060 -0.2276
  483TMC3     O 7187   0.723   0.480   1.037  0.3453  0.1792 -0.1718
  483TMC3     H 7188   0.852   0.556   0.878  2.4913  1.8271  0.0154
  483TMC3    H1 7189   0.946   0.148   0.972 -1.6315  1.2583  1.4566
  483TMC3    H2 7190   1.162   0.352   0.664 -3.0975 -1.4966 -2.4121
  483TMC3    C7 7191   1.177   0.151   0.849  0.1459 -0.0293 -0.5003
  483TMC3    C8 7192   1.091   0.591   0.746  0.8064 -0.2803  0.6021
  483TMC3    O1 7193   1.178   0.081   0.952  0.3382 -0.2764 -0.9926
  483TMC3    O2 7194   1.179   0.583   0.664  0.1319  0.0649  0.8744
  484MPD2     C 7195   0.061   2.710  12.865  0.9421  0.3569 -0.4711
  484MPD2    C1 7196   0.018   2.729  12.733 -0.7628  0.4076  0.4692
  484MPD2    C2 7197   0.109   2.783  12.642  0.3389  0.6702 -0.0673
  484MPD2    C3 7198   0.232   2.837  12.681  0.0564 -0.2584  0.0601
  484MPD2    C4 7199   0.263   2.826  12.814  0.1055  0.6069 -0.3899
  484MPD2    C5 7200   0.184   2.761  12.901  0.2809 -0.4239  0.2092
  484MPD2     H 7201   0.072   2.806  12.542 -1.6185 -0.9123  0.2993
  484MPD2    H1 7202   0.342   2.887  12.857  1.3093 -0.6980 -0.7366
  484MPD2    H2 7203   0.003   2.658  12.940  2.0016  0.4961  0.4347
  484MPD2    H3 7204   0.216   2.754  13.004  0.1169  3.9062  0.5477
  484MPD2     N 7205   0.324   2.905  12.587  0.6759 -0.6626  0.0850
  484MPD2    H5 7206   0.409   2.935  12.634 -1.7498  4.0717  1.4189
  484MPD2    N1 7207   4.611   2.691  12.699 -0.3790 -0.3730 -0.1855
  484MPD2    H7 7208   4.552   2.661  12.775  2.5268 -1.0929  1.7808
  485TMC3    C1 7209   0.420   3.014  12.406 -0.0531  0.2579 -0.5313
  485TMC3    C2 7210   0.544   3.006  12.463 -0.3935 -0.2840 -0.2510
  485TMC3    C3 7211   0.640   3.088  12.420 -0.8546 -0.0986  0.1741
  485TMC3    C4 7212   0.389   3.099  12.307  0.2983  1.1178 -0.6172
  485TMC3    C5 7213   0.490   3.184  12.264 -0.5280  0.5821 -0.5261
  485TMC3    C6 7214   0.614   3.182  12.330 -0.0216  0.8991  0.3981
  485TMC3     C 7215   0.306   2.943  12.461  0.1419  1.2186 -0.3460
  485TMC3     O 7216   0.218   2.921  12.375  0.0577 -0.0504 -0.1975
  485TMC3     H 7217   0.570   2.932  12.538 -2.1013 -0.2296  0.3967
  485TMC3    H1 7218   0.289   3.102  12.266 -0.2213 -0.2756  0.5744
  485TMC3    H2 7219   0.687   3.247  12.281  0.2861  0.1836 -0.0963
  485TMC3    C7 7220   0.489   3.194  12.119  0.8881 -0.1402  0.9128
  485TMC3    C8 7221   0.759   3.022  12.380  0.9234  0.1816 -0.1551
  485TMC3    O1 7222   0.380   3.225  12.068  0.3475 -0.5427 -0.3506
  485TMC3    O2 7223   0.785   3.024  12.260 -0.1145 -0.3785 -0.2546
  486MPD2     C 7224   2.086   2.084  12.727  0.0314  0.6901  0.7726
  486MPD2    C1 7225   2.006   2.006  12.649  0.0797  0.0375 -0.2382
  486MPD2    C2 7226   1.946   2.066  12.546 -0.0070 -0.1073  0.0455
  486MPD2    C3 7227   1.952   2.205  12.528  0.4326 -0.0269 -0.6772
  486MPD2    C4 7228   2.035   2.282  12.610 -0.8657 -0.4707 -0.0960
  486MPD2    C5 7229   2.098   2.213  12.707  0.0278  0.3183  0.1661
  486MPD2     H 7230   1.879   2.006  12.486  1.2904 -1.6590  0.1644
  486MPD2    H1 7231   2.041   2.390  12.608  0.6451 -0.5202  2.3577
  486MPD2    H2 7232   2.149   2.041  12.804  1.0346  0.5430 -0.1412
  486MPD2    H3 7233   2.172   2.263  12.768 -0.4850  1.6118 -0.2892
  486MPD2     N 7234   1.872   2.268  12.426  0.1769  0.4777  0.5534
  486MPD2    H5 7235   1.830   2.203  12.360 -0.4026  0.6877  0.7195
  486MPD2    N1 7236   1.991   1.871  12.683  0.0227 -0.8161 -0.3951
  486MPD2    H7 7237   2.042   1.847  12.767 -1.4210  0.0280  0.7145
  487TMC3    C1 7238   1.896   1.650  12.695  0.0865 -0.3895  0.1213
  487TMC3    C2 7239   1.818   1.554  12.637 -0.2731  0.1987 -0.2658
  487TMC3    C3 7240   1.727   1.490  12.712 -0.1395 -0.1381 -0.5272
  487TMC3    C4 7241   1.900   1.666  12.828 -0.0150  0.1390  0.2437
  487TMC3    C5 7242   1.805   1.605  12.903  0.8243 -0.0921  0.7562
  487TMC3    C6 7243   1.718   1.512  12.847  0.4767  0.1127  0.3360
  487TMC3     C 7244   1.915   1.774  12.618 -0.9144 -0.2197 -0.6970
  487TMC3     O 7245   1.847   1.777  12.514  0.8172  0.5531 -0.2757
  487TMC3     H 7246   1.822   1.534  12.531  0.3225 -2.1465  0.2010
  487TMC3    H1 7247   1.947   1.752  12.875 -0.0271 -0.0014  0.5130
  487TMC3    H2 7248   1.624   1.484  12.894  0.3652 -0.4681 -0.2366
  487TMC3    C7 7249   1.810   1.605  13.044  0.4762  0.5717  0.1032
  487TMC3    C8 7250   1.627   1.402  12.649 -0.3400  0.0993 -0.0297
  487TMC3    O1 7251   1.863   1.701  13.099  0.2708 -0.2968 -0.6918
  487TMC3    O2 7252   1.565   1.448  12.551 -0.0315 -0.4054 -1.1129
  488MPD2     C 7253   1.700   3.728  16.541  0.1879 -0.3922 -0.0117
  488MPD2    C1 7254   1.784   3.801  16.619 -0.0418  0.5909 -0.9941
  488MPD2    C2 7255   1.827   3.741  16.739 -0.3662  0.0411 -0.3786
  488MPD2    C3 7256   1.782   3.622  16.781 -0.1990  0.9712  0.3644
  488MPD2    C4 7257   1.703   3.545  16.704  0.3719 -0.4207  0.3351
  488MPD2    C5 7258   1.657   3.607  16.591 -0.1407 -0.3120  0.7683
  488MPD2     H 7259   1.909   3.789  16.792 -0.8400  0.0512  0.3372
  488MPD2    H1 7260   1.670   3.443  16.721 -0.3912 -0.6870 -2.6921
  488MPD2    H2 7261   1.662   3.758  16.444 -0.6758  0.2884  0.5372
  488MPD2    H3 7262   1.586   3.544  16.538 -0.1495  0.7857 -0.5379
  488MPD2     N 7263   1.830   3.569  16.904  0.9664 -0.0409 -0.7350
  488MPD2    H5 7264   1.869   3.637  16.969  0.3166  0.7205 -1.1385
  488MPD2    N1 7265   1.835   3.926  16.580 -0.5019 -0.1440  0.0080
  488MPD2    H7 7266   1.891   3.980  16.644  0.6459 -0.3694 -0.8146
  489TMC3    C1 7267   1.829   3.455  17.112  0.5071  0.0011  0.4375
  489TMC3    C2 7268   1.910   3.558  17.156 -0.1886 -0.3598  0.6480
  489TMC3    C3 7269   1.902   3.601  17.283  0.4507  0.5691 -0.0241
  489TMC3    C4 7270   1.740   3.392  17.197 -0.5609 -0.1097 -0.0115
  489TMC3    C5 7271   1.725   3.442  17.326  0.2233  0.0441 -0.7153
  489TMC3    C6 7272   1.808   3.542  17.372 -0.0163 -0.1942 -0.3506
  489TMC3     C 7273   1.802   3.450  16.967 -0.2302 -0.1389  0.1030
  489TMC3     O 7274   1.740   3.351  16.934 -0.1702  0.3584  0.5543
  489TMC3     H 7275   1.977   3.610  17.089  1.4931 -0.3328  2.3511
  489TMC3    H1 7276   1.668   3.321  17.157 -0.2793 -0.8174  0.7338
  489TMC3    H2 7277   1.821   3.554  17.479 -1.3312  0.9214 -0.2987
  489TMC3    C7 7278   1.654   3.372  17.434 -0.3304  0.5523 -0.4303
  489TMC3    C8 7279   1.933   3.742  17.302  0.2420 -0.2838  0.2382
  489TMC3    O1 7280   1.628   3.436  17.536  0.4723 -0.0784  0.5377
  489TMC3    O2 7281   1.975   3.805  17.207 -0.1497 -0.1398 -0.1642
  490MPD2     C 7282   2.747   3.675  17.143 -0.3057  0.0559 -0.3121
  490MPD2    C1 7283   2.658   3.641  17.246  0.1284 -0.3505 -0.2383
  490MPD2    C2 7284   2.649   3.712  17.358 -0.1888  0.4653  0.1657
  490MPD2    C3 7285   2.736   3.819  17.388  0.3452  0.0984  0.4104
  490MPD2    C4 7286   2.816   3.865  17.285 -0.1342  0.5428 -0.6038
  490MPD2    C5 7287   2.818   3.790  17.171  0.4343  0.3652 -0.2418
  490MPD2     H 7288   2.575   3.669  17.425 -0.0618 -0.8265 -0.5164
  490MPD2    H1 7289   2.882   3.951  17.277  1.4021 -0.7720 -1.8883
  490MPD2    H2 7290   2.748   3.633  17.043  1.4835 -1.4740  0.3462
  490MPD2    H3 7291   2.875   3.818  17.083  1.5233 -0.2016  0.2844
  490MPD2     N 7292   2.739   3.887  17.513  0.3511  0.4044 -0.0163
  490MPD2    H5 7293   2.805   3.964  17.521  2.7234 -1.6012 -0.2745
  490MPD2    N1 7294   2.567   3.527  17.236  0.6331 -0.6037  0.2747
  490MPD2    H7 7295   2.503   3.504  17.311 -0.3123  1.0128 -0.0245
  491TMC3    C1 7296   2.492   3.317  17.163 -0.1010 -0.5347  0.5868
  491TMC3    C2 7297   2.528   3.252  17.273 -0.2963 -0.4641  0.1621
  491TMC3    C3 7298   2.495   3.123  17.302  0.3551 -0.3070  0.2130
  491TMC3    C4 7299   2.425   3.260  17.061  0.2988  0.1780  0.7429
  491TMC3    C5 7300   2.370   3.137  17.096  0.7129  0.0802  0.0262
  491TMC3    C6 7301   2.401   3.072  17.216 -0.1830  0.1850 -0.0300
  491TMC3     C 7302   2.568   3.441  17.135  0.5092 -0.5190  0.5217
  491TMC3     O 7303   2.614   3.452  17.019  0.1578 -0.1045 -0.1576
  491TMC3     H 7304   2.590   3.305  17.345  0.5063 -1.6739  0.3634
  491TMC3    H1 7305   2.403   3.328  16.979 -0.1232 -1.2568 -0.3486
  491TMC3    H2 7306   2.351   2.980  17.244  0.6012 -0.0471  0.6270
  491TMC3    C7 7307   2.264   3.076  17.012  0.6089 -0.8216 -0.0156
  491TMC3    C8 7308   2.467   3.100  17.440 -0.2958  0.1230  0.2427
  491TMC3    O1 7309   2.231   2.961  17.039 -0.0447  0.1740 -0.1133
  491TMC3    O2 7310   2.418   3.192  17.505 -0.2124 -0.0248 -0.3202
  492MPD2     C 7311   3.111   3.234  10.867  0.8334  0.4239  0.3565
  492MPD2    C1 7312   3.022   3.157  10.807 -0.4803  0.1619 -0.1954
  492MPD2    C2 7313   2.960   3.066  10.889  0.4012 -0.3222  0.6687
  492MPD2    C3 7314   3.002   3.039  11.025  1.3938  0.1311  0.3152
  492MPD2    C4 7315   3.113   3.100  11.063  0.4247  0.2459 -0.2892
  492MPD2    C5 7316   3.167   3.201  10.992 -0.9361  0.2104  0.0074
  492MPD2     H 7317   2.869   3.015  10.861  1.5048 -1.2361 -1.2657
  492MPD2    H1 7318   3.148   3.094  11.166 -1.4087  0.0956  0.3278
  492MPD2    H2 7319   3.166   3.315  10.819  1.1039 -0.0954 -0.2160
  492MPD2    H3 7320   3.245   3.261  11.039 -2.2722  2.1847 -0.3066
  492MPD2     N 7321   2.926   2.962  11.116  0.6168  0.4431  0.2781
  492MPD2    H5 7322   2.969   2.937  11.205  0.4682 -1.6476 -0.2193
  492MPD2    N1 7323   2.989   3.183  10.672 -0.0282 -0.4956 -0.0463
  492MPD2    H7 7324   3.032   3.267  10.636 -1.9296 -0.1200 -1.4708
  493TMC3    C1 7325   2.878   3.200  10.469  0.4282 -0.1277  0.7482
  493TMC3    C2 7326   2.983   3.278  10.426  0.5152  0.2028  0.1101
  493TMC3    C3 7327   2.944   3.385  10.352 -0.1806 -0.0508  0.1387
  493TMC3    C4 7328   2.750   3.217  10.427  0.3130  0.8824 -0.0604
  493TMC3    C5 7329   2.719   3.320  10.335 -0.3774 -0.4304 -0.3850
  493TMC3    C6 7330   2.815   3.415  10.307 -0.1910 -0.2856  0.3282
  493TMC3     C 7331   2.891   3.128  10.594  0.1994 -0.0956  0.4753
  493TMC3     O 7332   2.830   3.021  10.604 -0.4813  0.1655  0.3647
  493TMC3     H 7333   3.084   3.262  10.461 -0.0706 -1.3863  1.0753
  493TMC3    H1 7334   2.677   3.145  10.460  0.4439  0.6775 -0.2206
  493TMC3    H2 7335   2.789   3.505  10.252  1.8974 -0.0876 -0.3263
  493TMC3    C7 7336   2.584   3.361  10.330  0.6211 -0.2200  0.1874
  493TMC3    C8 7337   3.034   3.495  10.376  0.2067 -0.4115  0.1205
  493TMC3    O1 7338   2.571   3.482  10.316  0.4808  0.9462 -0.3122
  493TMC3    O2 7339   3.081   3.510  10.493 -0.1780  0.0204  0.0685
  494TMC3    C1 7340   3.028   0.204   0.543  0.1371  0.0468  0.3867
  494TMC3    C2 7341   3.153   0.153   0.558 -0.3275  0.0133 -0.2196
  494TMC3    C3 7342   3.252   0.187   0.469 -0.2098  0.1241 -0.4505
  494TMC3    C4 7343   3.002   0.289   0.448  0.3524 -0.0861  0.5136
  494TMC3    C5 7344   3.099   0.318   0.351 -0.9147 -0.1147  0.2823
  494TMC3    C6 7345   3.227   0.277   0.371 -0.9273 -0.1171 -0.0398
  494TMC3     C 7346   2.925   0.150   0.627  0.5676 -0.7370 -0.1283
  494TMC3     O 7347   2.810   0.165   0.575  0.1135  0.0536  0.3760
  494TMC3     H 7348   3.174   0.074   0.629 -1.3176  0.0487  0.1188
  494TMC3    H1 7349   2.904   0.335   0.440  0.2503 -0.7427 -1.9971
  494TMC3    H2 7350   3.303   0.319   0.306 -0.8811  0.0970  0.1502
  494TMC3    C7 7351   3.078   0.437   0.282  0.6813  0.1923  0.1240
  494TMC3    C8 7352   3.379   0.122   0.479  1.0060 -0.2251  0.5721
  494TMC3    O1 7353   3.023   0.524   0.351  0.6402  0.3470 -1.1437
  494TMC3    O2 7354   3.396   0.068   0.585  0.2006 -0.5845 -0.4290
  495TMC3    C1 7355   2.197   2.751  14.499 -0.6811  0.3512 -0.3125
  495TMC3    C2 7356   2.155   2.709  14.386 -0.2277  0.0491 -0.1488
  495TMC3    C3 7357   2.029   2.744  14.345 -0.3554 -0.4095 -0.0924
  495TMC3    C4 7358   2.126   2.825  14.587  0.1955 -0.4905  0.2889
  495TMC3    C5 7359   1.999   2.850  14.552  0.1803  0.4046  0.5133
  495TMC3    C6 7360   1.947   2.819  14.428  0.4002 -0.0893 -0.0904
  495TMC3     C 7361   2.310   2.675  14.555  0.2153 -0.1415  0.0351
  495TMC3     O 7362   2.287   2.616  14.658 -0.2925  0.0216 -0.1101
  495TMC3     H 7363   2.218   2.641  14.329 -1.6075 -1.7587  0.5026
  495TMC3    H1 7364   2.174   2.864  14.676 -0.5947 -0.7092  0.8076
  495TMC3    H2 7365   1.843   2.841  14.404 -0.0770 -2.0468  0.1416
  495TMC3    C7 7366   1.906   2.831  14.662  0.3887  0.4717  0.9361
  495TMC3    C8 7367   1.954   2.631  14.289 -0.2981 -0.1661 -0.0268
  495TMC3    O1 7368   1.941   2.872  14.773 -0.4185  0.1877  0.0117
  495TMC3    O2 7369   1.852   2.603  14.354  0.1772  0.0354 -0.2411
  496MPD2     C 7370   4.113   1.848  14.936 -0.1711  0.5904 -0.6586
  496MPD2    C1 7371   4.133   1.813  15.074 -0.6700 -0.1293  0.4296
  496MPD2    C2 7372   4.022   1.831  15.156 -0.4577  0.8988 -0.2856
  496MPD2    C3 7373   3.901   1.865  15.104  0.7397 -0.0253  0.5589
  496MPD2    C4 7374   3.879   1.883  14.968 -0.0570 -0.0473  0.5343
  496MPD2    C5 7375   3.989   1.884  14.886 -0.0862 -0.4725 -0.0847
  496MPD2     H 7376   4.036   1.797  15.258  1.6362  2.5400 -0.0090
  496MPD2    H1 7377   3.781   1.910  14.931 -0.4788 -0.1262  1.5985
  496MPD2    H2 7378   4.193   1.830  14.866  0.6428  1.1209  0.1376
  496MPD2    H3 7379   3.968   1.902  14.781 -1.8187 -3.0782 -0.1771
  496MPD2     N 7380   3.787   1.888  15.186 -0.1626  0.5261 -0.0730
  496MPD2    H5 7381   3.694   1.888  15.146 -1.0078 -2.5074  1.9017
  496MPD2    N1 7382   4.255   1.756  15.106  0.5453  0.2171  0.0283
  496MPD2    H7 7383   4.329   1.755  15.036  0.5279  1.6160 -0.0151
  497TMC3    C1 7384   3.658   1.891  15.378  1.0553 -0.2258 -0.4349
  497TMC3    C2 7385   3.568   1.808  15.312  0.3946  0.0464  0.4951
  497TMC3    C3 7386   3.470   1.764  15.397 -0.3997 -0.1783  0.4499
  497TMC3    C4 7387   3.638   1.928  15.510  0.4993  0.3838 -0.4442
  497TMC3    C5 7388   3.525   1.904  15.575  0.0656  0.1022 -0.2967
  497TMC3    C6 7389   3.441   1.810  15.518 -0.2027  0.0045 -0.0915
  497TMC3     C 7390   3.797   1.899  15.318  0.4526  0.2876 -0.5818
  497TMC3     O 7391   3.890   1.926  15.390 -0.0194 -0.0927  0.1473
  497TMC3     H 7392   3.598   1.746  15.228 -1.1318  0.7691 -0.5775
  497TMC3    H1 7393   3.721   1.979  15.558  0.5516 -0.4157  0.3137
  497TMC3    H2 7394   3.366   1.756  15.576  0.8179 -2.5351 -1.1055
  497TMC3    C7 7395   3.498   1.954  15.703 -0.6529 -1.0439  0.1086
  497TMC3    C8 7396   3.375   1.664  15.343  0.4286  0.3845 -0.3386
  497TMC3    O1 7397   3.407   1.889  15.753 -0.4055  0.3340 -0.0890
  497TMC3    O2 7398   3.316   1.603  15.430  0.1873  0.0871 -0.0387
  498MPD2     C 7399   0.376   3.186   9.303  0.5659  0.3728  0.6687
  498MPD2    C1 7400   0.368   3.195   9.442  0.0491 -0.4471  0.1168
  498MPD2    C2 7401   0.299   3.101   9.510  0.0770 -0.4180 -0.2917
  498MPD2    C3 7402   0.242   2.997   9.445 -0.0720 -0.2968 -0.6731
  498MPD2    C4 7403   0.266   2.975   9.310  0.2175 -0.3276  0.0191
  498MPD2    C5 7404   0.330   3.072   9.243 -0.2497  0.0988  0.1634
  498MPD2     H 7405   0.278   3.123   9.614 -1.1957  1.6668 -0.9945
  498MPD2    H1 7406   0.237   2.893   9.244 -0.0838  0.5837 -0.9950
  498MPD2    H2 7407   0.421   3.263   9.242  1.4150 -1.6588 -1.2831
  498MPD2    H3 7408   0.340   3.066   9.135 -1.6950 -0.9895  0.0982
  498MPD2     N 7409   0.153   2.914   9.521  0.3727  0.6326 -0.4906
  498MPD2    H5 7410   0.141   2.944   9.618 -1.0661 -1.9927  0.1513
  498MPD2    N1 7411   0.411   3.302   9.514  0.3626 -0.4150 -0.1099
  498MPD2    H7 7412   0.411   3.286   9.615  0.2587  1.8640  0.2733
  499TMC3    C1 7413   0.535   3.486   9.580 -0.0045 -0.0795 -0.2337
  499TMC3    C2 7414   0.552   3.420   9.695  0.1302 -0.6339  0.4136
  499TMC3    C3 7415   0.547   3.492   9.806  0.9482  0.6557 -0.1173
  499TMC3    C4 7416   0.533   3.623   9.572  0.4058  0.2146  0.5295
  499TMC3    C5 7417   0.540   3.692   9.686  0.3808 -0.2169  0.0825
  499TMC3    C6 7418   0.540   3.630   9.810  0.1754  0.1587  0.2984
  499TMC3     C 7419   0.469   3.413   9.466  0.1740 -0.0331 -0.2930
  499TMC3     O 7420   0.445   3.477   9.364 -0.1424 -0.2279 -0.3100
  499TMC3     H 7421   0.563   3.312   9.704 -2.3611 -1.1113 -2.0355
  499TMC3    H1 7422   0.532   3.670   9.474  0.9298  2.2717  1.5102
  499TMC3    H2 7423   0.548   3.690   9.900 -0.1600 -1.2974  1.3005
  499TMC3    C7 7424   0.553   3.833   9.669 -0.1658  0.3249  0.4714
  499TMC3    C8 7425   0.520   3.426   9.932 -0.1513  0.6127 -0.0163
  499TMC3    O1 7426   0.592   3.881   9.564 -1.1310 -0.1577 -0.1985
  499TMC3    O2 7427   0.553   3.310   9.939 -0.2183  0.0156  0.2557
  500MPD2     C 7428   2.337   4.016  10.009  0.6439 -0.1805  0.5455
  500MPD2    C1 7429   2.272   4.105  10.100  0.4473  1.0323  0.1492
  500MPD2    C2 7430   2.129   4.102  10.108 -0.7204 -0.5673 -0.2317
  500MPD2    C3 7431   2.056   4.035  10.012 -0.1153 -0.5622  0.9356
  500MPD2    C4 7432   2.128   3.953   9.926  0.7758 -0.4267 -0.4349
  500MPD2    C5 7433   2.260   3.942   9.921  0.1163 -0.0793 -0.0668
  500MPD2     H 7434   2.074   4.163  10.178 -1.8778 -0.4465 -1.2398
  500MPD2    H1 7435   2.074   3.897   9.850 -1.2014 -0.7432  1.2170
  500MPD2    H2 7436   2.443   4.002  10.027  0.7663  0.1087  0.0394
  500MPD2    H3 7437   2.289   3.871   9.844  1.9663 -2.5443  2.9239
  500MPD2     N 7438   1.909   4.034  10.003  0.4039  0.0019 -0.0977
  500MPD2    H5 7439   1.870   3.975   9.931  0.0639 -0.4816  0.4801
  500MPD2    N1 7440   2.352   4.178  10.191  0.3757 -0.1966  0.1142
  500MPD2    H7 7441   2.453   4.171  10.185  0.6140  0.7266  2.7681
  501TMC3    C1 7442   2.396   4.342  10.354 -0.3474  0.3672  0.0586
  501TMC3    C2 7443   2.365   4.471  10.385  0.3352  0.2031  0.0747
  501TMC3    C3 7444   2.466   4.546  10.438 -0.1729 -0.0646 -0.6332
  501TMC3    C4 7445   2.516   4.283  10.385  0.6467  0.5676  0.6779
  501TMC3    C5 7446   2.612   4.363  10.444  0.5198  0.1758  0.7953
  501TMC3    C6 7447   2.588   4.495  10.468  0.3052 -0.0492  0.8700
  501TMC3     C 7448   2.299   4.275  10.270  0.4613 -0.5466  0.2936
  501TMC3     O 7449   2.188   4.327  10.268 -0.5386  0.4139 -0.2943
  501TMC3     H 7450   2.268   4.513  10.361 -0.1860  0.2488  2.1768
  501TMC3    H1 7451   2.534   4.184  10.345  1.2369  1.8389 -2.1928
  501TMC3    H2 7452   2.663   4.551  10.522 -2.5970  0.5950  4.2152
  501TMC3    C7 7453   2.736   4.299  10.473 -0.6407 -0.1458  0.8338
  501TMC3    C8 7454   2.450   4.687  10.455  1.2427 -0.3367  0.6650
  501TMC3    O1 7455   2.729   4.181  10.502 -0.3087 -0.0909 -0.3059
  501TMC3    O2 7456   2.529   0.014  10.533 -0.1985  0.3122  0.4380
  502TMC3    C1 7457   1.320   3.461  15.445 -0.7650  0.3984 -0.1496
  502TMC3    C2 7458   1.248   3.575  15.428  0.0341 -0.1861  0.3219
  502TMC3    C3 7459   1.126   3.573  15.374  0.2279  0.4969 -0.6121
  502TMC3    C4 7460   1.267   3.340  15.417 -0.1523  0.0745  0.2837
  502TMC3    C5 7461   1.130   3.338  15.381 -0.5081 -0.4066 -0.3933
  502TMC3    C6 7462   1.064   3.458  15.339  0.5062 -0.7847 -0.2769
  502TMC3     C 7463   1.390   3.460  15.566  0.7212 -0.2065 -0.1659
  502TMC3     O 7464   1.480   3.538  15.595 -0.2633 -1.0448  0.2135
  502TMC3     H 7465   1.286   3.666  15.474 -2.1426  2.0004 -2.2471
  502TMC3    H1 7466   1.329   3.253  15.433  0.0147  0.0134 -0.6547
  502TMC3    H2 7467   0.962   3.449  15.302  0.2325  1.3739 -0.0720
  502TMC3    C7 7468   1.079   3.202  15.368 -0.3824  0.2258  0.2291
  502TMC3    C8 7469   1.051   3.700  15.356  0.0458 -0.2084  0.1720
  502TMC3    O1 7470   1.149   3.110  15.401  0.5352 -0.4192 -0.9569
  502TMC3    O2 7471   1.118   3.802  15.344 -0.3251  0.2780 -0.1193
  503MPD2     C 7472   3.260   3.861  16.989  0.8124 -0.0526 -0.4119
  503MPD2    C1 7473   3.371   3.913  17.040  0.2287 -0.2348 -0.1442
  503MPD2    C2 7474   3.458   3.829  17.113  0.2904 -0.5763  0.4440
  503MPD2    C3 7475   3.430   3.692  17.124  0.2810 -1.0409 -0.5078
  503MPD2    C4 7476   3.310   3.644  17.067 -0.4397  0.8417 -1.0337
  503MPD2    C5 7477   3.223   3.731  17.015 -0.3347 -0.6018  0.5381
  503MPD2     H 7478   3.545   3.879  17.155  0.4407 -1.5794  1.3164
  503MPD2    H1 7479   3.273   3.543  17.082 -0.8787  0.9049 -1.6558
  503MPD2    H2 7480   3.178   3.917  16.944  0.7022  1.4183  1.6132
  503MPD2    H3 7481   3.125   3.692  16.989 -0.7151  0.3317  0.6065
  503MPD2     N 7482   3.531   3.604  17.176  0.8883  0.3520  0.1227
  503MPD2    H5 7483   3.615   3.652  17.205  0.3508  1.9271 -0.9134
  503MPD2    N1 7484   3.395   4.049  17.046 -0.1593 -0.3511 -0.6107
  503MPD2    H7 7485   3.487   4.081  17.075 -0.2484 -0.7319  0.1018
  504TMC3    C1 7486   3.625   3.408  17.269 -0.3864  0.3864 -0.1641
  504TMC3    C2 7487   3.603   3.291  17.342 -0.1258 -0.0186 -0.4260
  504TMC3    C3 7488   3.687   3.262  17.441  0.7616  0.5842  0.3823
  504TMC3    C4 7489   3.745   3.477  17.283 -0.2756 -0.1598 -0.3677
  504TMC3    C5 7490   3.822   3.441  17.384  0.3424  0.3345  0.3634
  504TMC3    C6 7491   3.796   3.338  17.467  0.3966  0.5720  0.8531
  504TMC3     C 7492   3.513   3.469  17.202 -0.1701 -0.0508 -0.2639
  504TMC3     O 7493   3.428   3.386  17.174 -0.0025  0.2414  0.3030
  504TMC3     H 7494   3.510   3.237  17.325  0.7736 -0.5310 -3.5942
  504TMC3    H1 7495   3.781   3.558  17.221  0.1851  0.7769  1.1080
  504TMC3    H2 7496   3.877   3.298  17.525  0.6258  0.1181  0.2241
  504TMC3    C7 7497   3.966   3.469  17.372  0.8159 -0.2896  0.0936
  504TMC3    C8 7498   3.680   3.126  17.500 -0.6430 -0.3216 -0.1490
  504TMC3    O1 7499   4.031   3.464  17.478  0.2632 -0.8798 -0.2731
  504TMC3    O2 7500   3.604   3.046  17.443 -0.7697 -0.4152 -0.8915
  505MPD2     C 7501   3.915   2.841  10.330 -0.1605 -0.5861  0.5595
  505MPD2    C1 7502   3.928   2.710  10.360 -0.0186  0.0576  0.2474
  505MPD2    C2 7503   4.024   2.669  10.445  0.0592  0.5885  0.3491
  505MPD2    C3 7504   4.106   2.764  10.497  0.7015  0.4533 -0.0079
  505MPD2    C4 7505   4.088   2.903  10.477 -0.0178 -0.4782  0.4934
  505MPD2    C5 7506   3.992   2.934  10.381 -0.3234  0.1531 -0.3411
  505MPD2     H 7507   4.052   2.566  10.464 -2.0950 -0.7379 -3.8725
  505MPD2    H1 7508   4.156   2.968  10.532 -0.5314 -0.4000  1.0328
  505MPD2    H2 7509   3.835   2.874  10.264 -0.0444  0.1404  0.7904
  505MPD2    H3 7510   3.977   3.039  10.362  1.5061  0.8017  1.6888
  505MPD2     N 7511   4.229   2.730  10.567  0.4668  0.3603 -0.6160
  505MPD2    H5 7512   4.299   2.800  10.590  0.7255 -0.5456  1.3553
  505MPD2    N1 7513   3.846   2.624  10.282 -0.0221  0.7174 -0.2937
  505MPD2    H7 7514   3.795   2.671  10.208  0.3668  2.6123  0.6236
  506TMC3    C1 7515   3.757   2.409  10.215  0.1035  0.2988 -0.0796
  506TMC3    C2 7516   3.778   2.414  10.078  0.3727 -0.4323 -0.0100
  506TMC3    C3 7517   3.773   2.289  10.017  0.0014  0.9804  0.3624
  506TMC3    C4 7518   3.734   2.295  10.277  1.4490 -0.4629 -0.3317
  506TMC3    C5 7519   3.738   2.175  10.215 -0.2669 -0.7835  0.4948
  506TMC3    C6 7520   3.749   2.175  10.078  0.5302 -0.1973 -0.3727
  506TMC3     C 7521   3.838   2.492  10.303  0.0405 -0.5873  0.5398
  506TMC3     O 7522   3.888   2.425  10.392 -0.5228  0.3316  0.3924
  506TMC3     H 7523   3.796   2.507  10.026 -2.5743  0.5042  0.6312
  506TMC3    H1 7524   3.702   2.292  10.381 -0.7748  0.5614 -1.0033
  506TMC3    H2 7525   3.775   2.078  10.036  1.5888 -1.0674  2.2681
  506TMC3    C7 7526   3.840   2.088  10.271  0.2969 -0.5572 -0.2987
  506TMC3    C8 7527   3.821   2.281   9.880 -0.3806 -0.0989  0.6527
  506TMC3    O1 7528   3.851   1.970  10.226  0.5979 -0.4327  0.1108
  506TMC3    O2 7529   3.800   2.177   9.821 -0.0919  0.1364 -0.2122
  507TMC3    C1 7530   4.510   2.995  13.942 -0.2410  0.5667  0.6246
  507TMC3    C2 7531   4.409   3.011  13.854  0.7153 -0.4868  0.1408
  507TMC3    C3 7532   4.426   3.081  13.744 -0.0268  0.5024  1.1984
  507TMC3    C4 7533   4.634   3.054  13.919 -0.8409  0.0202  0.3098
  507TMC3    C5 7534   4.637   3.141  13.821 -0.5446 -0.0280  0.2831
  507TMC3    C6 7535   4.551   3.135  13.718 -0.1237  0.2547  0.9415
  507TMC3     C 7536   4.477   2.982  14.084 -0.5461 -0.1403 -0.7026
  507TMC3     O 7537   4.564   2.953  14.166  0.0715 -0.5913  0.0166
  507TMC3     H 7538   4.316   2.959  13.873  0.0888 -0.0491 -1.7242
  507TMC3    H1 7539   4.705   3.037  13.999  0.5563  1.1661 -0.7026
  507TMC3    H2 7540   4.562   3.200  13.632 -0.3992  1.3921  1.7619
  507TMC3    C7 7541   4.636   3.276  13.869  0.6847 -0.3371 -0.4380
  507TMC3    C8 7542   4.311   3.175  13.712 -0.1874 -0.4222 -0.1547
  507TMC3    O1 7543   4.613   3.367  13.789 -0.0939  0.0823 -0.0867
  507TMC3    O2 7544   4.238   3.197  13.807 -1.2134 -0.0185  0.3826
  508MPD2     C 7545   0.553   0.730  16.030 -0.1329 -0.0340 -0.0531
  508MPD2    C1 7546   0.662   0.811  16.020 -0.3005  0.6718  0.4385
  508MPD2    C2 7547   0.699   0.864  15.896  0.2318  0.3020  0.7191
  508MPD2    C3 7548   0.620   0.842  15.785 -0.9679  0.3617 -0.3210
  508MPD2    C4 7549   0.498   0.773  15.799  0.4202  0.5572  0.3312
  508MPD2    C5 7550   0.464   0.715  15.922 -0.7659 -0.6432  0.3817
  508MPD2     H 7551   0.786   0.926  15.881 -0.3792  1.1544  0.7380
  508MPD2    H1 7552   0.425   0.768  15.718  0.8259 -2.4666  0.1823
  508MPD2    H2 7553   0.526   0.695  16.129  0.9985 -0.0441  0.2609
  508MPD2    H3 7554   0.378   0.651  15.935 -1.0206  0.2381  3.1847
  508MPD2     N 7555   0.667   0.900  15.667 -0.2286 -0.2610  0.2879
  508MPD2    H5 7556   0.753   0.952  15.675  0.2498 -0.9869 -0.1716
  508MPD2    N1 7557   0.741   0.841  16.137  0.2971  0.1673 -0.0714
  508MPD2    H7 7558   0.697   0.824  16.227  1.3869  0.6834  0.5508
  509TMC3    C1 7559   0.681   1.076  15.235  0.7651  0.3923  0.1173
  509TMC3    C2 7560   0.765   1.174  15.274  0.3566 -0.0087 -0.9916
  509TMC3    C3 7561   0.804   1.180  15.407  0.0101  0.5195 -0.2238
  509TMC3    C4 7562   0.648   0.977  15.321  0.4869 -0.2933  0.3042
  509TMC3    C5 7563   0.690   0.975  15.449 -0.1204  0.2744  0.0365
  509TMC3    C6 7564   0.770   1.081  15.493  0.6713  0.0494 -0.3084
  509TMC3     C 7565   0.600   1.093  15.112  0.1943  0.1450  0.2424
  509TMC3     O 7566   0.571   0.990  15.053 -0.0593 -0.1003 -0.8994
  509TMC3     H 7567   0.786   1.260  15.211 -2.2763  1.1445 -0.2704
  509TMC3    H1 7568   0.568   0.908  15.297  1.9226 -0.8786 -2.7863
  509TMC3    H2 7569   0.787   1.099  15.598  1.1593 -1.1824 -0.1818
  509TMC3    C7 7570   0.613   0.890  15.543  0.9344 -0.6348  0.1397
  509TMC3    C8 7571   0.879   1.295  15.449  0.0151 -0.2509 -0.8552
  509TMC3    O1 7572   0.516   0.825  15.509 -0.4346  0.0674  0.0830
  509TMC3    O2 7573   0.856   1.341  15.559 -0.6693  0.3589 -0.1723
  510MPD2     C 7574   3.239   2.892  14.541 -0.7498  0.4151  0.6496
  510MPD2    C1 7575   3.305   2.791  14.602  0.7969 -0.6658  0.1656
  510MPD2    C2 7576   3.403   2.724  14.526  0.2420  0.3001 -0.3135
  510MPD2    C3 7577   3.443   2.762  14.398  0.9494  1.1473  0.3097
  510MPD2    C4 7578   3.357   2.853  14.338 -0.0551 -0.0221 -0.0339
  510MPD2    C5 7579   3.258   2.917  14.408 -0.1879 -0.0331 -0.4947
  510MPD2     H 7580   3.463   2.658  14.588 -1.4454  0.0588  1.0799
  510MPD2    H1 7581   3.368   2.873  14.232 -2.4972  0.4058 -0.2136
  510MPD2    H2 7582   3.148   2.935  14.581 -1.0548 -1.7893  2.3530
  510MPD2    H3 7583   3.185   2.977  14.355 -1.6317 -0.3033  1.1967
  510MPD2     N 7584   3.554   2.700  14.330 -0.1437 -0.3164 -0.0488
  510MPD2    H5 7585   3.622   2.642  14.376  0.1297 -1.5942 -2.0566
  510MPD2    N1 7586   3.251   2.755  14.730 -0.3472  0.2261 -0.3982
  510MPD2    H7 7587   3.180   2.816  14.769 -1.8048 -1.0319 -1.1047
  511TMC3    C1 7588   3.191   2.604  14.899  0.2080 -0.4094  0.1770
  511TMC3    C2 7589   3.072   2.670  14.912 -0.4279  0.0092  0.2769
  511TMC3    C3 7590   2.975   2.617  14.990 -0.7680  0.1853  0.5907
  511TMC3    C4 7591   3.195   2.473  14.929 -0.1774 -0.3252  0.1446
  511TMC3    C5 7592   3.092   2.415  14.991  0.0379  0.0433  0.3012
  511TMC3    C6 7593   2.981   2.487  15.037 -0.3038  0.3304 -0.2641
  511TMC3     C 7594   3.287   2.640  14.796  0.3812 -0.1968 -0.4135
  511TMC3     O 7595   3.381   2.564  14.776  0.8823  0.1162  0.0362
  511TMC3     H 7596   3.057   2.777  14.899 -0.1681 -0.3373 -2.7731
  511TMC3    H1 7597   3.286   2.417  14.916  0.3424  0.4949  0.2735
  511TMC3    H2 7598   2.908   2.445  15.105  1.6252 -0.0275  1.5861
  511TMC3    C7 7599   3.121   2.295  15.070  0.5327  0.4835 -0.1620
  511TMC3    C8 7600   2.862   2.702  15.027 -0.1967 -0.3312 -0.2283
  511TMC3    O1 7601   3.238   2.277  15.105  0.1734 -0.8972  0.4241
  511TMC3    O2 7602   2.857   2.822  15.000  0.1247 -0.0464  0.0575
  512TMC3    C1 7603   2.179   1.945  13.235  0.4580  0.2319 -0.1247
  512TMC3    C2 7604   2.256   1.888  13.339  0.5079  0.0576  0.6768
  512TMC3    C3 7605   2.349   1.790  13.314  0.0176 -0.5941 -0.0691
  512TMC3    C4 7606   2.184   1.898  13.109 -0.0767  0.0231  0.6425
  512TMC3    C5 7607   2.275   1.802  13.083  0.6863  0.1553 -0.6145
  512TMC3    C6 7608   2.357   1.748  13.184 -0.5146  0.0089 -0.0613
  512TMC3     C 7609   2.065   2.023  13.267 -0.3358 -0.0927 -0.0284
  512TMC3     O 7610   2.024   2.007  13.382 -0.5609  0.1272 -0.7589
  512TMC3     H 7611   2.247   1.906  13.445 -2.2838 -0.8071  0.5902
  512TMC3    H1 7612   2.111   1.939  13.040  0.4508 -0.5452 -0.2536
  512TMC3    H2 7613   2.438   1.677  13.169 -0.4865  0.3965 -1.6816
  512TMC3    C7 7614   2.263   1.729  12.960 -0.9272  0.0281 -0.4118
  512TMC3    C8 7615   2.478   1.792  13.375  0.8334 -0.1710 -0.5109
  512TMC3    O1 7616   2.192   1.789  12.881  0.2353 -0.5987 -0.5261
  512TMC3    O2 7617   2.546   1.687  13.368 -0.3501 -0.3114  0.3099
  513MPD2     C 7618   4.361   1.839  12.859 -0.2743  0.2838  0.4324
  513MPD2    C1 7619   4.445   1.730  12.893 -0.7661  0.1786  0.0251
  513MPD2    C2 7620   4.572   1.723  12.846  0.1243 -0.4840 -0.3894
  513MPD2    C3 7621   4.627   1.828  12.779 -0.1938 -0.3435 -0.0842
  513MPD2    C4 7622   4.552   1.934  12.741 -0.0836 -1.3306 -0.5591
  513MPD2    C5 7623   4.414   1.936  12.771 -0.7590  0.1938  0.5805
  513MPD2     H 7624   4.628   1.635  12.875 -1.2221 -1.2847 -0.2092
  513MPD2    H1 7625   4.593   2.016  12.685  0.3777 -1.2184 -0.0624
  513MPD2    H2 7626   4.261   1.849  12.900 -0.7460 -0.6521 -0.4818
  513MPD2    H3 7627   4.358   2.026  12.748 -0.8678 -0.2985 -1.0940
  513MPD2     N 7628   0.034   1.805  12.733 -0.2009 -0.1718 -0.9552
  513MPD2    H5 7629   0.064   1.708  12.737 -1.0160 -0.3056  2.0549
  513MPD2    N1 7630   4.387   1.632  12.981 -0.6532 -0.6906 -0.8001
  513MPD2    H7 7631   4.287   1.643  12.988 -0.3985  1.0802 -0.1495
  514TMC3    C1 7632   4.363   1.417  13.064 -0.3263  0.2238  0.1009
  514TMC3    C2 7633   4.236   1.441  13.007 -0.1509  1.0458  0.5248
  514TMC3    C3 7634   4.202   1.396  12.886 -0.4357 -0.4853  0.2286
  514TMC3    C4 7635   4.419   1.302  13.019  0.2983  0.1767 -0.3250
  514TMC3    C5 7636   4.388   1.242  12.900  0.2631 -0.7112  0.5311
  514TMC3    C6 7637   4.276   1.289  12.837 -0.1797  0.0026 -0.2526
  514TMC3     C 7638   4.456   1.526  13.033  0.3185  0.1742  0.0764
  514TMC3     O 7639   4.577   1.504  13.034  0.7900 -0.0750 -0.6651
  514TMC3     H 7640   4.170   1.518  13.046 -1.4473  1.1783 -1.8907
  514TMC3    H1 7641   4.519   1.280  13.056  0.4125  0.5065 -0.4352
  514TMC3    H2 7642   4.253   1.251  12.738  1.5452 -0.1086 -0.6189
  514TMC3    C7 7643   4.500   1.222  12.806  0.8550  0.1819 -0.2767
  514TMC3    C8 7644   4.185   1.501  12.787 -0.0086 -0.2310  0.0512
  514TMC3    O1 7645   4.501   1.303  12.712  0.0452  0.5785  0.0432
  514TMC3    O2 7646   4.099   1.584  12.805  0.4469  0.4004  0.1115
  515MPD2     C 7647   2.015   4.112  15.687  0.0056 -0.5513  0.6151
  515MPD2    C1 7648   2.069   4.039  15.588 -0.4762  0.8932  0.0380
  515MPD2    C2 7649   2.161   4.099  15.503  0.1352  0.5205 -0.4732
  515MPD2    C3 7650   2.200   4.233  15.523  0.5472 -0.0175 -0.5393
  515MPD2    C4 7651   2.130   4.300  15.614 -0.2626 -0.2404  1.0369
  515MPD2    C5 7652   2.039   4.246  15.698  0.6994 -0.1769 -0.0565
  515MPD2     H 7653   2.189   4.045  15.413  0.2643  0.8376 -0.6233
  515MPD2    H1 7654   2.155   4.404  15.636 -1.6174  0.3354 -0.1528
  515MPD2    H2 7655   1.937   4.078  15.754  2.9044  1.0164  4.7618
  515MPD2    H3 7656   2.002   4.306  15.781 -0.1009 -0.1553 -0.4330
  515MPD2     N 7657   2.280   4.305  15.437 -0.1946 -0.2943 -0.4404
  515MPD2    H5 7658   2.326   4.385  15.478 -2.5252  0.7759  0.0856
  515MPD2    N1 7659   2.031   3.907  15.558 -0.6009 -0.9510  0.1622
  515MPD2    H7 7660   2.083   3.850  15.491 -0.6768 -1.1271  0.2531
  516TMC3    C1 7661   1.904   3.720  15.538  0.6353  0.5189  0.0144
  516TMC3    C2 7662   1.900   3.725  15.405  0.0070  0.3651  0.2376
  516TMC3    C3 7663   1.882   3.609  15.334 -0.2586  0.2206 -0.1561
  516TMC3    C4 7664   1.849   3.614  15.606  0.3034 -1.0936  0.2198
  516TMC3    C5 7665   1.827   3.500  15.539 -0.1125  0.6947  0.0870
  516TMC3    C6 7666   1.849   3.498  15.406 -0.5810  0.1934 -0.2283
  516TMC3     C 7667   1.930   3.833  15.617  0.1395 -0.5361 -0.2630
  516TMC3     O 7668   1.879   3.851  15.725 -0.2479  0.0873  0.4176
  516TMC3     H 7669   1.930   3.818  15.358 -0.6635 -0.4618 -1.8486
  516TMC3    H1 7670   1.842   3.606  15.714 -2.8907 -0.9320  0.0105
  516TMC3    H2 7671   1.842   3.406  15.349  2.4172 -2.6219  3.8892
  516TMC3    C7 7672   1.787   3.386  15.618 -0.4871 -0.8477 -0.1244
  516TMC3    C8 7673   1.809   3.631  15.205  0.8356  0.0259  0.4589
  516TMC3    O1 7674   1.824   3.375  15.733 -0.5758 -0.1035 -0.5782
  516TMC3    O2 7675   1.724   3.544  15.178 -0.3068 -0.5398  0.1954
  517MPD2     C 7676   1.619   0.656   0.003  0.2587  0.4094 -0.4797
  517MPD2    C1 7677   1.743   0.659   0.058  0.6328  0.1290  0.3142
  517MPD2    C2 7678   1.768   0.722   0.179 -0.7749  0.1293  1.0030
  517MPD2    C3 7679   1.661   0.784   0.249  0.2125 -0.6033 -0.1282
  517MPD2    C4 7680   1.538   0.772   0.198  0.0522 -0.3317 -0.2888
  517MPD2    C5 7681   1.519   0.714   0.073  0.4202 -0.5454  0.3566
  517MPD2     H 7682   1.869   0.736   0.215 -0.7321 -0.5981  1.1549
  517MPD2    H1 7683   1.455   0.824   0.246  1.1582  0.8143  0.3893
  517MPD2    H2 7684   1.607   0.624  17.593 -0.7099 -1.5028  0.2261
  517MPD2    H3 7685   1.421   0.730   0.031  0.7103  0.6499  0.1263
  517MPD2     N 7686   1.667   0.864   0.368  0.0611 -0.8760 -0.5911
  517MPD2    H5 7687   1.583   0.896   0.415  0.0142  0.5351 -1.6160
  517MPD2    N1 7688   1.855   0.595  17.691 -0.2979  0.7257 -0.9401
  517MPD2    H7 7689   1.946   0.598   0.043  0.8059  1.1404 -3.1779
  518TMC3    C1 7690   1.962   0.446  17.546 -1.1037 -0.1167  0.0002
  518TMC3    C2 7691   1.940   0.336  17.460  0.1637 -0.3268  0.4877
  518TMC3    C3 7692   2.055   0.287  17.406  0.3920  0.1417 -0.1270
  518TMC3    C4 7693   2.088   0.496  17.566  0.2996 -0.4940 -0.6277
  518TMC3    C5 7694   2.193   0.452  17.499 -0.0268  0.4992 -0.3109
  518TMC3    C6 7695   2.181   0.345  17.419  0.7207 -0.0648  0.8641
  518TMC3     C 7696   1.841   0.506  17.590 -0.2871  0.1371 -0.0767
  518TMC3     O 7697   1.740   0.442  17.562  0.1491 -0.0408  0.0427
  518TMC3     H 7698   1.841   0.293  17.447 -0.0896  0.6040 -0.7159
  518TMC3    H1 7699   2.097   0.597  17.605  0.6970 -0.3547 -1.0800
  518TMC3    H2 7700   2.259   0.302  17.357  0.4080  0.1921  0.2949
  518TMC3    C7 7701   2.324   0.472  17.560  0.0948 -0.4586  0.0965
  518TMC3    C8 7702   2.071   0.144  17.397 -0.1706 -0.0514 -0.0253
  518TMC3    O1 7703   2.340   0.571  17.632  0.5535 -0.0023  0.1716
  518TMC3    O2 7704   2.155   0.104  17.316  0.0420  0.9134  0.2321
  519MPD2     C 7705   3.761   3.634  14.115 -0.2323  0.7344  1.0392
  519MPD2    C1 7706   3.736   3.673  13.985 -0.4092 -0.3939  0.5004
  519MPD2    C2 7707   3.767   3.582  13.885  0.4099  0.2351 -0.0546
  519MPD2    C3 7708   3.822   3.457  13.910 -0.3997 -0.6396  0.4861
  519MPD2    C4 7709   3.829   3.419  14.041  0.9537 -0.0385  0.8948
  519MPD2    C5 7710   3.804   3.508  14.144  0.4616  0.0922  0.4581
  519MPD2     H 7711   3.739   3.610  13.785 -0.3421  0.4145  0.2053
  519MPD2    H1 7712   3.858   3.316  14.057 -0.3892 -0.1475  2.5535
  519MPD2    H2 7713   3.748   3.702  14.198 -1.3943 -1.6151  2.7823
  519MPD2    H3 7714   3.807   3.472  14.246 -0.3782  0.0968  0.4893
  519MPD2     N 7715   3.850   3.362  13.813 -0.3732 -0.7328  0.3475
  519MPD2    H5 7716   3.910   3.286  13.844  0.7796  0.2338  0.4560
  519MPD2    N1 7717   3.673   3.798  13.966  0.1375  0.3379 -0.0255
  519MPD2    H7 7718   3.661   3.858  14.047 -1.4991  2.1443 -1.6046
  520TMC3    C1 7719   3.832   3.240  13.615  0.5560  0.4431 -0.9564
  520TMC3    C2 7720   3.728   3.194  13.545  0.5127 -0.0612 -0.0376
  520TMC3    C3 7721   3.731   3.058  13.520  0.3889 -0.2725 -0.3745
  520TMC3    C4 7722   3.938   3.163  13.656 -0.1747  0.9175  0.1137
  520TMC3    C5 7723   3.947   3.033  13.601 -0.0402 -0.3917  0.2531
  520TMC3    C6 7724   3.839   2.975  13.542  0.3438 -0.2526 -0.3450
  520TMC3     C 7725   3.805   3.367  13.686 -0.0212  0.7654  0.0468
  520TMC3     O 7726   3.714   3.432  13.636  0.4569  0.4229 -0.0478
  520TMC3     H 7727   3.640   3.254  13.526  0.4152  0.8809  3.2827
  520TMC3    H1 7728   4.022   3.194  13.717 -1.6257  0.3172  2.4340
  520TMC3    H2 7729   3.830   2.867  13.533 -1.5931  0.0261 -1.7402
  520TMC3    C7 7730   4.049   2.940  13.647 -0.1307  0.3220  0.5526
  520TMC3    C8 7731   3.608   3.005  13.473  0.0071  0.5016  0.5355
  520TMC3    O1 7732   4.075   2.951  13.766  0.1093 -0.1985  0.0406
  520TMC3    O2 7733   3.618   2.896  13.423 -0.1187  0.6311  0.0071
  521MPD2     C 7734   4.214   1.844  17.311  0.2637 -0.2068  0.3388
  521MPD2    C1 7735   4.167   1.724  17.273  0.1497 -0.3974  0.0790
  521MPD2    C2 7736   4.250   1.644  17.190 -0.5532 -0.5909  0.5506
  521MPD2    C3 7737   4.378   1.682  17.163  0.2911  0.2036  0.0084
  521MPD2    C4 7738   4.418   1.811  17.196  0.5706  0.2687  0.1251
  521MPD2    C5 7739   4.332   1.891  17.267 -0.1118  0.0033  0.3375
  521MPD2     H 7740   4.217   1.550  17.147  0.3309 -1.0506  0.8788
  521MPD2    H1 7741   4.513   1.857  17.170 -0.1587  1.1772 -0.9509
  521MPD2    H2 7742   4.152   1.914  17.367  0.8903  0.8195 -0.2574
  521MPD2    H3 7743   4.354   1.994  17.294  0.2490 -0.1314  0.5614
  521MPD2     N 7744   4.462   1.593  17.096  0.5649 -0.2668 -0.2904
  521MPD2    H5 7745   4.420   1.507  17.060  0.9938 -0.3867 -0.4972
  521MPD2    N1 7746   4.036   1.691  17.313 -0.1998  0.1833  0.3405
  521MPD2    H7 7747   3.986   1.766  17.360 -1.7348 -0.7175  0.1657
  522TMC3    C1 7748   4.658   1.508  16.998  0.5107  0.2095  0.5837
  522TMC3    C2 7749   0.058   1.460  17.034 -0.2607  0.2799 -0.1647
  522TMC3    C3 7750   0.142   1.406  16.940  0.8295  0.3259 -0.3832
  522TMC3    C4 7751   4.614   1.500  16.868 -0.6368 -0.1798 -0.0632
  522TMC3    C5 7752   4.707   1.458  16.778 -0.6820 -0.1855 -0.6658
  522TMC3    C6 7753   0.107   1.416  16.809 -0.3194  0.3251  0.2463
  522TMC3     C 7754   4.596   1.591  17.098 -0.3654 -0.2086  0.2195
  522TMC3     O 7755   4.672   1.641  17.176 -0.2750 -0.4208  0.3442
  522TMC3     H 7756   0.108   1.486  17.127 -1.3701  1.1578  0.1893
  522TMC3    H1 7757   4.515   1.535  16.842  0.0671  1.4415 -0.5943
  522TMC3    H2 7758   0.177   1.419  16.726  0.7379  3.0157  1.2209
  522TMC3    C7 7759   4.696   1.516  16.640 -0.4157  0.0426  0.0355
  522TMC3    C8 7760   0.282   1.427  16.969  0.2308 -0.3983 -0.5489
  522TMC3    O1 7761   0.031   1.451  16.555 -0.0609 -0.0713  0.0649
  522TMC3    O2 7762   0.326   1.492  17.064 -0.3449 -0.4184 -0.2927
  523MPD2     C 7763   2.734   1.319  10.228 -0.1014 -0.1685 -0.1294
  523MPD2    C1 7764   2.614   1.261  10.186 -0.0649  0.5144  0.3688
  523MPD2    C2 7765   2.517   1.352  10.142  0.6091  0.1728 -0.2306
  523MPD2    C3 7766   2.534   1.492  10.151  0.1658  0.0594 -0.1667
  523MPD2    C4 7767   2.656   1.542  10.185  0.1440 -0.7835  0.8454
  523MPD2    C5 7768   2.758   1.456  10.223 -0.5063  0.5835 -0.0800
  523MPD2     H 7769   2.420   1.316  10.110 -0.1120  2.9139 -1.1432
  523MPD2    H1 7770   2.676   1.648  10.181  2.5183 -1.1237  3.0885
  523MPD2    H2 7771   2.821   1.267  10.266 -0.6396 -0.6080  0.5041
  523MPD2    H3 7772   2.853   1.492  10.260 -0.3348 -2.0798  2.0872
  523MPD2     N 7773   2.443   1.575  10.088 -0.0032  0.8527 -0.2752
  523MPD2    H5 7774   2.478   1.663  10.053  1.5187  1.2878  2.3476
  523MPD2    N1 7775   2.608   1.118  10.191 -0.4844  0.4855  0.1113
  523MPD2    H7 7776   2.676   1.077  10.254  1.2121  1.9225 -0.8012
  524TMC3    C1 7777   2.249   1.625   9.954  0.3448 -1.3245  0.1373
  524TMC3    C2 7778   2.328   1.673   9.852  0.5528  0.3178  0.3489
  524TMC3    C3 7779   2.293   1.792   9.795  0.4143  0.3578 -0.4336
  524TMC3    C4 7780   2.132   1.687   9.993 -0.2926  0.0410 -0.3571
  524TMC3    C5 7781   2.097   1.801   9.927  0.5458 -0.0689 -0.6420
  524TMC3    C6 7782   2.177   1.851   9.823 -0.6180 -0.3862  0.8428
  524TMC3     C 7783   2.310   1.548  10.064 -0.5550 -0.5352  0.1550
  524TMC3     O 7784   2.246   1.467  10.123 -0.0987  0.1765  0.0478
  524TMC3     H 7785   2.415   1.619   9.818  1.3426  0.3864  2.2245
  524TMC3    H1 7786   2.068   1.644  10.069 -1.0386  2.5099  0.4285
  524TMC3    H2 7787   2.141   1.933   9.763 -0.2668 -1.1561 -0.4189
  524TMC3    C7 7788   1.999   1.883   9.996  0.5319  0.1024 -0.5614
  524TMC3    C8 7789   2.377   1.839   9.685 -0.1481  0.3598  0.0128
  524TMC3    O1 7790   1.913   1.825  10.062  0.8587  0.1367  0.1190
  524TMC3    O2 7791   2.464   1.769   9.641 -0.6770  0.7258  0.7700
  525MPD2     C 7792   0.202   2.745  14.159 -0.4895 -0.1739 -0.4751
  525MPD2    C1 7793   0.304   2.778  14.247  0.5781  0.0563 -0.7422
  525MPD2    C2 7794   0.369   2.902  14.231 -0.1697 -0.4680  0.3830
  525MPD2    C3 7795   0.330   2.992  14.131 -0.2133 -1.0603  0.1396
  525MPD2    C4 7796   0.237   2.947  14.038  0.1675  0.0931  0.3269
  525MPD2    C5 7797   0.168   2.827  14.053  0.3414  0.3100  0.1287
  525MPD2     H 7798   0.434   2.930  14.313  2.6043 -2.3423 -1.2035
  525MPD2    H1 7799   0.197   3.011  13.960  1.6019  1.8740  1.0445
  525MPD2    H2 7800   0.148   2.652  14.175  1.2811 -0.9062  1.2077
  525MPD2    H3 7801   0.093   2.804  13.978  0.7239 -1.8726  0.4253
  525MPD2     N 7802   0.377   3.125  14.124 -0.3591  0.1952  0.3910
  525MPD2    H5 7803   0.341   3.181  14.047  1.1653 -0.9558 -1.1420
  525MPD2    N1 7804   0.333   2.701  14.361 -0.8602 -0.3235 -0.0519
  525MPD2    H7 7805   0.422   2.720  14.407 -1.0685  1.2602 -0.2916
  526TMC3    C1 7806   0.301   2.546  14.532 -0.2989 -0.6710 -0.2084
  526TMC3    C2 7807   0.214   2.504  14.626 -0.6840 -0.0899 -0.1484
  526TMC3    C3 7808   0.263   2.439  14.739 -0.2829 -0.0337 -0.0121
  526TMC3    C4 7809   0.425   2.507  14.526  0.1037 -0.1183  0.0994
  526TMC3    C5 7810   0.473   2.431  14.628 -0.4396  0.0804 -0.5828
  526TMC3    C6 7811   0.397   2.400  14.737 -0.3156 -0.5701 -0.2410
  526TMC3     C 7812   0.243   2.627  14.431 -0.4730  0.8079  0.7105
  526TMC3     O 7813   0.124   2.619  14.410  0.5976  0.7681  0.3594
  526TMC3     H 7814   0.118   2.554  14.631 -0.3220  0.4995  0.8531
  526TMC3    H1 7815   0.489   2.540  14.445 -0.3259  1.0694  0.2480
  526TMC3    H2 7816   0.425   2.327  14.812 -1.5807  0.7804  1.5473
  526TMC3    C7 7817   0.612   2.412  14.645 -0.6311 -0.1374 -0.2262
  526TMC3    C8 7818   0.227   2.477  14.881 -0.2230  0.5172 -0.0453
  526TMC3    O1 7819   0.651   2.408  14.759  0.4156  0.0181  0.8345
  526TMC3    O2 7820   0.306   2.448  14.972  0.0323 -0.6803  0.1360
  527MPD2     C 7821   2.575   0.870   0.603 -0.2489 -0.3480  0.3835
  527MPD2    C1 7822   2.576   0.941   0.721  0.0943  0.0179  0.4357
  527MPD2    C2 7823   2.693   0.972   0.780 -0.3307  0.0143  0.6078
  527MPD2    C3 7824   2.814   0.933   0.728  0.1440 -0.8785  0.2980
  527MPD2    C4 7825   2.819   0.874   0.605  0.9676 -0.4784 -0.0443
  527MPD2    C5 7826   2.696   0.839   0.544 -0.1918  0.6314 -0.4086
  527MPD2     H 7827   2.696   1.005   0.883 -4.5469 -0.1847  0.7950
  527MPD2    H1 7828   2.903   0.830   0.553  1.8194  3.5052 -2.0568
  527MPD2    H2 7829   2.481   0.833   0.563  1.5800 -3.5055 -1.0089
  527MPD2    H3 7830   2.703   0.784   0.451  0.9212  0.3735 -0.1679
  527MPD2     N 7831   2.937   0.938   0.797 -0.7132  0.7593 -0.2390
  527MPD2    H5 7832   3.021   0.942   0.740 -1.0388 -0.8485 -0.8290
  527MPD2    N1 7833   2.454   0.955   0.792 -0.0488  0.1145  0.3398
  527MPD2    H7 7834   2.372   0.917   0.745 -0.1001  1.9376 -1.0353
  528TMC3    C1 7835   2.324   0.992   0.994  0.1243 -0.1018  0.1203
  528TMC3    C2 7836   2.285   1.086   1.088 -0.2673  0.3159  0.4613
  528TMC3    C3 7837   2.168   1.059   1.164  0.2349 -0.5745  0.3104
  528TMC3    C4 7838   2.250   0.887   0.969  0.4652 -0.5580  0.2441
  528TMC3    C5 7839   2.133   0.864   1.040  0.8622 -0.0050 -0.3605
  528TMC3    C6 7840   2.092   0.947   1.142  0.3416  0.2573  0.3835
  528TMC3     C 7841   2.436   1.024   0.911 -0.4969  0.2914 -0.2890
  528TMC3     O 7842   2.504   1.119   0.951  0.0871 -0.1682 -0.4223
  528TMC3     H 7843   2.341   1.177   1.109  0.5170 -0.6281  2.4204
  528TMC3    H1 7844   2.279   0.819   0.890  0.3281 -0.6895  0.3069
  528TMC3    H2 7845   1.997   0.938   1.193 -0.2634 -0.1540 -0.8059
  528TMC3    C7 7846   2.029   0.783   0.974 -0.7927  1.0092  0.0150
  528TMC3    C8 7847   2.148   1.145   1.282  0.2409 -0.3781 -0.2374
  528TMC3    O1 7848   2.068   0.690   0.904 -0.6702  0.0838  0.3648
  528TMC3    O2 7849   2.207   1.251   1.280  0.4931 -0.4289  0.2236
  529MPD2     C 7850   0.299   3.956   1.708  0.5810 -0.0557  0.0967
  529MPD2    C1 7851   0.351   3.884   1.602  0.3332 -0.0681 -0.8836
  529MPD2    C2 7852   0.300   3.899   1.478 -0.6229  0.1962 -0.3512
  529MPD2    C3 7853   0.198   3.982   1.454  0.6401 -0.6521  0.0503
  529MPD2    C4 7854   0.142   4.057   1.561  1.1965 -0.0986  0.7044
  529MPD2    C5 7855   0.199   4.042   1.688  0.4208  0.2087 -0.8031
  529MPD2     H 7856   0.331   3.831   1.400 -3.1384 -1.1497 -0.1817
  529MPD2    H1 7857   0.064   4.132   1.552  1.2383 -0.0819  0.4889
  529MPD2    H2 7858   0.345   3.944   1.805 -1.4466 -3.1238  0.6788
  529MPD2    H3 7859   0.170   4.101   1.773  1.0054 -0.5930 -0.0438
  529MPD2     N 7860   0.129   3.998   1.331 -0.3607 -0.2199 -0.1481
  529MPD2    H5 7861   0.050   4.061   1.325  0.5405  0.7922 -1.4274
  529MPD2    N1 7862   0.432   3.769   1.628  0.1848 -0.6327  0.2834
  529MPD2    H7 7863   0.469   3.721   1.547 -1.3835  1.0797 -1.4528
  530TMC3    C1 7864   0.515   3.570   1.726 -0.1439 -0.1544  0.5721
  530TMC3    C2 7865   0.600   3.550   1.622  0.5809 -0.2730  0.2204
  530TMC3    C3 7866   0.606   3.426   1.567  0.4993 -0.1917  0.1986
  530TMC3    C4 7867   0.427   3.468   1.774  0.4779 -1.1682  0.2826
  530TMC3    C5 7868   0.433   3.349   1.706 -0.4744  0.4990 -0.1182
  530TMC3    C6 7869   0.523   3.323   1.603  0.5535 -0.2872  0.1429
  530TMC3     C 7870   0.448   3.699   1.745 -0.0565  0.1657  0.6003
  530TMC3     O 7871   0.401   3.725   1.861  0.0745  0.0677 -0.0273
  530TMC3     H 7872   0.659   3.633   1.584 -0.6974  0.6596  0.2624
  530TMC3    H1 7873   0.359   3.486   1.856 -1.5548 -1.9072 -1.2534
  530TMC3    H2 7874   0.528   3.222   1.565  0.1154  0.2638 -1.4250
  530TMC3    C7 7875   0.330   3.247   1.729 -0.5453 -0.4151  0.1832
  530TMC3    C8 7876   0.714   3.405   1.487  0.2456 -0.3081 -0.2544
  530TMC3    O1 7877   0.314   3.163   1.642 -0.4528 -0.0990 -0.5156
  530TMC3    O2 7878   0.702   3.319   1.404 -0.3421  0.7057  0.0686
  531MPD2     C 7879   0.295   1.191  12.832  0.3306 -0.1966 -0.0569
  531MPD2    C1 7880   0.218   1.293  12.786  0.1202 -0.0392  1.4667
  531MPD2    C2 7881   0.076   1.278  12.788 -0.6189 -0.0094 -0.3142
  531MPD2    C3 7882   0.020   1.173  12.854 -0.4026 -0.3359 -0.7107
  531MPD2    C4 7883   0.102   1.084  12.923 -0.4020  0.0272 -0.0850
  531MPD2    C5 7884   0.239   1.097  12.908  0.9287 -0.3985  0.7218
  531MPD2     H 7885   0.005   1.333  12.728 -0.7025  0.7817  0.5045
  531MPD2    H1 7886   0.074   0.994  12.978 -0.5387  1.5309  2.3004
  531MPD2    H2 7887   0.403   1.200  12.821 -0.0001 -1.3179 -4.1320
  531MPD2    H3 7888   0.309   1.025  12.950  0.2160 -1.5951 -0.1331
  531MPD2     N 7889   4.602   1.150  12.864 -0.2479  0.1761  0.1781
  531MPD2    H5 7890   4.568   1.087  12.936 -3.8741 -1.7221 -3.1710
  531MPD2    N1 7891   0.289   1.405  12.727  0.2308 -0.0860  0.4974
  531MPD2    H7 7892   0.389   1.396  12.717  0.5713  0.9849  2.8718
  532TMC3    C1 7893   0.318   1.635  12.667 -0.6030 -0.9810  0.3195
  532TMC3    C2 7894   0.239   1.724  12.603  0.0209 -0.0600  0.4249
  532TMC3    C3 7895   0.246   1.852  12.644  0.0467 -0.5807 -0.1177
  532TMC3    C4 7896   0.405   1.665  12.770  0.1507  0.1947  0.8038
  532TMC3    C5 7897   0.427   1.804  12.791 -0.6973  0.6011 -0.0199
  532TMC3    C6 7898   0.342   1.894  12.736 -0.8469  0.1762  0.1516
  532TMC3     C 7899   0.228   1.524  12.703 -0.0590  0.7601 -0.2287
  532TMC3     O 7900   0.108   1.546  12.692  0.5325 -0.4828  0.0507
  532TMC3     H 7901   0.165   1.693  12.531 -1.0627  0.8846  1.1262
  532TMC3    H1 7902   0.454   1.584  12.821  2.1922 -0.5418 -2.2843
  532TMC3    H2 7903   0.337   1.997  12.770 -0.2586  0.5565 -0.9012
  532TMC3    C7 7904   0.475   1.843  12.924 -0.1429 -0.3973 -0.8414
  532TMC3    C8 7905   0.116   1.901  12.681 -0.3656 -0.0215 -0.1540
  532TMC3    O1 7906   0.536   1.944  12.934  0.0516 -0.0680  0.5916
  532TMC3    O2 7907   0.105   2.022  12.677 -0.5130 -0.3310  0.1397
  533TMC3    C1 7908   0.452   3.329  14.210  0.6798 -0.7460 -0.3916
  533TMC3    C2 7909   0.552   3.410  14.250 -0.0585  0.5354  0.1829
  533TMC3    C3 7910   0.526   3.534  14.289 -0.4923 -0.1527 -0.4652
  533TMC3    C4 7911   0.319   3.362  14.219 -0.7972  0.2537  0.5153
  533TMC3    C5 7912   0.298   3.491  14.264  0.8834 -0.3823 -0.6717
  533TMC3    C6 7913   0.398   3.585  14.290  0.2294  0.1652  0.4366
  533TMC3     C 7914   0.456   3.185  14.218 -0.0635  0.3882  0.5297
  533TMC3     O 7915   0.539   3.138  14.303  0.4127  0.0667 -0.0448
  533TMC3     H 7916   0.651   3.366  14.253  0.4101  1.4992 -1.2745
  533TMC3    H1 7917   0.239   3.295  14.189  0.4833 -0.6739 -0.8539
  533TMC3    H2 7918   0.370   3.683  14.329  1.1882  0.2753  0.8481
  533TMC3    C7 7919   0.212   3.473  14.376  0.1717 -0.4259  0.6618
  533TMC3    C8 7920   0.612   3.614  14.366  0.2148  0.3579  0.2225
  533TMC3    O1 7921   0.177   3.358  14.397  0.0643  0.3479 -0.1081
  533TMC3    O2 7922   0.578   3.731  14.360 -0.3503 -0.4648 -0.0732
  534MPD2     C 7923   2.201   0.448   2.219 -0.2560 -0.4926 -0.7564
  534MPD2    C1 7924   2.223   0.396   2.092  0.0105 -0.1953 -0.7014
  534MPD2    C2 7925   2.224   0.265   2.080 -0.4513 -0.3724  1.3800
  534MPD2    C3 7926   2.191   0.180   2.182 -0.8214  0.7152  0.5164
  534MPD2    C4 7927   2.147   0.230   2.301  0.1329 -0.5473  0.0825
  534MPD2    C5 7928   2.166   0.361   2.319 -0.1115 -0.4747  0.2292
  534MPD2     H 7929   2.251   0.224   1.983 -2.1287  0.7955  0.4087
  534MPD2    H1 7930   2.100   0.175   2.381  1.1618  0.3585  1.2975
  534MPD2    H2 7931   2.200   0.555   2.241  0.2311 -0.9500  1.5536
  534MPD2    H3 7932   2.138   0.415   2.409  2.1577 -1.1064  1.3027
  534MPD2     N 7933   2.175   0.045   2.166  0.2314 -0.3697  0.1637
  534MPD2    H5 7934   2.145   4.720   2.250  0.0629 -1.3197 -0.4317
  534MPD2    N1 7935   2.250   0.492   1.991  0.0135  0.1447 -0.3272
  534MPD2    H7 7936   2.259   0.589   2.019 -1.4004 -0.2026  1.3333
  535TMC3    C1 7937   2.142   4.557   2.063  0.2264  0.6886  0.3938
  535TMC3    C2 7938   2.026   4.533   2.132  0.1819  0.0414 -1.0295
  535TMC3    C3 7939   1.953   4.427   2.083  0.5890  0.0830 -0.5104
  535TMC3    C4 7940   2.180   4.491   1.950 -0.7765  0.1286  0.5980
  535TMC3    C5 7941   2.095   4.390   1.906  0.2510  0.0278 -0.3214
  535TMC3    C6 7942   1.983   4.359   1.971  0.5156  0.7170 -0.0072
  535TMC3     C 7943   2.183   4.699   2.045 -0.3632 -0.2595  0.4805
  535TMC3     O 7944   2.201   0.013   1.928 -0.1343  0.2236 -0.2504
  535TMC3     H 7945   1.985   4.603   2.204  2.2751  3.5414 -3.2174
  535TMC3    H1 7946   2.266   4.517   1.890 -1.6741 -0.3395 -0.8683
  535TMC3    H2 7947   1.922   4.281   1.927  1.4724  0.4328 -0.8115
  535TMC3    C7 7948   2.109   4.360   1.765 -0.5859  0.0699  0.2073
  535TMC3    C8 7949   1.827   4.403   2.135  0.0135  0.0534 -0.4729
  535TMC3    O1 7950   2.226   4.362   1.728  0.2822 -0.1088  0.6335
  535TMC3    O2 7951   1.747   4.335   2.068 -0.5019  0.2318  0.4836
  536MPD2     C 7952   1.199   2.335  16.688  0.4363  0.2463  0.1574
  536MPD2    C1 7953   1.286   2.434  16.652  0.0894  0.7367  0.0522
  536MPD2    C2 7954   1.240   2.517  16.550 -0.4483 -0.4457  0.1977
  536MPD2    C3 7955   1.119   2.496  16.482 -0.0426 -0.8906  0.7017
  536MPD2    C4 7956   1.032   2.403  16.526 -0.6668 -0.1773 -0.4085
  536MPD2    C5 7957   1.077   2.317  16.623 -0.0553 -0.2021 -0.6999
  536MPD2     H 7958   1.303   2.598  16.515  0.2155 -0.6460  0.9538
  536MPD2    H1 7959   0.934   2.388  16.482 -0.7437 -0.6903 -0.0624
  536MPD2    H2 7960   1.220   2.261  16.764 -1.3230 -2.0849 -1.6502
  536MPD2    H3 7961   1.014   2.236  16.658 -0.6306  0.5991  0.1083
  536MPD2     N 7962   1.073   2.575  16.377 -0.4649 -0.1690  0.5326
  536MPD2    H5 7963   0.978   2.559  16.344 -0.7464 -0.5391  1.5040
  536MPD2    N1 7964   1.410   2.452  16.725 -0.4890 -0.2968 -0.2982
  536MPD2    H7 7965   1.428   2.381  16.795  3.1300 -0.5438 -1.4517
  537TMC3    C1 7966   1.636   2.548  16.771 -0.4890 -0.6535  0.2950
  537TMC3    C2 7967   1.721   2.650  16.746 -0.3536 -0.1089  0.3309
  537TMC3    C3 7968   1.845   2.641  16.798 -0.2187 -0.5517  0.3537
  537TMC3    C4 7969   1.666   2.450  16.865  0.4986  0.0898  0.1965
  537TMC3    C5 7970   1.798   2.436  16.907  0.2484  0.3803 -0.2542
  537TMC3    C6 7971   1.883   2.536  16.875  0.3221 -0.5931 -0.2447
  537TMC3     C 7972   1.496   2.562  16.714  0.3918  0.5689 -0.0709
  537TMC3     O 7973   1.475   2.667  16.650  0.6072  0.3649  0.3842
  537TMC3     H 7974   1.704   2.723  16.668  0.3521 -0.6722 -0.3457
  537TMC3    H1 7975   1.595   2.376  16.900  1.2958 -0.4104  0.7762
  537TMC3    H2 7976   1.988   2.520  16.900  0.2809  0.6897  0.7637
  537TMC3    C7 7977   1.827   2.357  17.022 -0.8704  0.9198  0.2976
  537TMC3    C8 7978   1.935   2.757  16.788  0.1574 -0.6186  0.4826
  537TMC3    O1 7979   1.933   2.388  17.078 -0.0134  0.1118 -0.2438
  537TMC3    O2 7980   2.049   2.732  16.820  0.0313  0.2151 -0.0256
  538TMC3    C1 7981   3.296   1.070  10.736  0.4127  0.7710  0.5153
  538TMC3    C2 7982   3.333   0.971  10.647  0.0687 -0.0346 -0.2094
  538TMC3    C3 7983   3.258   0.946  10.537 -0.2617 -0.0464 -0.2926
  538TMC3    C4 7984   3.173   1.137  10.720  0.5688 -0.8403  0.6969
  538TMC3    C5 7985   3.109   1.118  10.604 -0.2476  0.0353 -0.5029
  538TMC3    C6 7986   3.149   1.021  10.511 -0.1183 -1.0042 -0.0987
  538TMC3     C 7987   3.328   1.037  10.870 -0.6280 -0.0607  0.0768
  538TMC3     O 7988   3.234   1.044  10.949 -0.2188  0.4327 -0.3620
  538TMC3     H 7989   3.421   0.913  10.670  0.2399 -0.0975 -1.0304
  538TMC3    H1 7990   3.140   1.198  10.803 -0.4269 -1.5835  0.8503
  538TMC3    H2 7991   3.089   0.996  10.424 -0.9020  2.1632 -0.4650
  538TMC3    C7 7992   3.022   1.226  10.566 -0.3831  0.1638 -0.2356
  538TMC3    C8 7993   3.331   0.886  10.424  0.0728 -0.2507  0.5373
  538TMC3    O1 7994   2.948   1.198  10.471 -0.1017 -0.1309 -0.1175
  538TMC3    O2 7995   3.407   0.791  10.439  0.6019 -0.0572  0.1828
  539MPD2     C 7996   2.832   0.495  11.850 -0.3109  0.2581  0.2497
  539MPD2    C1 7997   2.875   0.546  11.731  0.2544  0.3443 -0.1167
  539MPD2    C2 7998   2.832   0.674  11.695  0.4088 -0.5342  0.2013
  539MPD2    C3 7999   2.750   0.748  11.780 -0.8793 -0.0380 -0.2224
  539MPD2    C4 8000   2.706   0.691  11.897  0.6539  0.1888  0.4968
  539MPD2    C5 8001   2.749   0.569  11.933 -0.1160  0.5240 -0.3748
  539MPD2     H 8002   2.873   0.705  11.600 -2.5586  1.8844 -0.2842
  539MPD2    H1 8003   2.628   0.740  11.955  1.1959  0.4778  0.9850
  539MPD2    H2 8004   2.856   0.393  11.878 -2.3405 -0.3372 -0.1854
  539MPD2    H3 8005   2.703   0.528  12.022  3.7358 -1.5207  0.6781
  539MPD2     N 8006   2.707   0.882  11.743 -0.4410  0.2115  0.5660
  539MPD2    H5 8007   2.656   0.939  11.809  0.4205  1.7491 -0.0853
  539MPD2    N1 8008   2.956   0.474  11.642 -0.3111 -0.5481  1.3348
  539MPD2    H7 8009   2.971   0.521  11.554 -1.8555  1.7409  2.2960
  540TMC3    C1 8010   2.668   1.072  11.621 -0.2605 -0.5158 -0.3219
  540TMC3    C2 8011   2.682   1.145  11.502  0.0379 -0.4937 -0.8016
  540TMC3    C3 8012   2.630   1.269  11.485 -0.2661  0.0532 -0.3870
  540TMC3    C4 8013   2.600   1.137  11.722  0.7882  0.4088  0.4795
  540TMC3    C5 8014   2.560   1.262  11.702  0.3122  0.2021 -0.2347
  540TMC3    C6 8015   2.568   1.336  11.588  0.4811  0.2909  0.7726
  540TMC3     C 8016   2.736   0.942  11.625 -0.2300  0.2213  0.0112
  540TMC3     O 8017   2.802   0.911  11.529 -0.7743  0.0902 -0.7075
  540TMC3     H 8018   2.745   1.107  11.422  0.8751 -1.6830  0.4337
  540TMC3    H1 8019   2.603   1.106  11.826  1.0447 -0.9796  0.0663
  540TMC3    H2 8020   2.524   1.434  11.570 -1.2062 -1.1254 -2.8392
  540TMC3    C7 8021   2.465   1.296  11.805  0.6454 -0.6990 -0.1633
  540TMC3    C8 8022   2.621   1.324  11.350  0.5747  0.0680 -0.1636
  540TMC3    O1 8023   2.401   1.210  11.863 -0.3299  0.3186 -0.8140
  540TMC3    O2 8024   2.608   1.445  11.344 -0.1927 -0.4753 -0.1894
  541MPD2     C 8025   1.526   1.844  13.275  0.2754  0.0640 -0.7024
  541MPD2    C1 8026   1.481   1.750  13.189 -0.0947 -0.6206  0.3001
  541MPD2    C2 8027   1.505   1.761  13.052  0.1917  0.5051  0.8268
  541MPD2    C3 8028   1.575   1.865  13.000  0.1365  0.1534  0.8064
  541MPD2    C4 8029   1.614   1.964  13.089  0.1739  0.2386 -0.1254
  541MPD2    C5 8030   1.594   1.952  13.220  0.2914  0.3366 -0.4281
  541MPD2     H 8031   1.464   1.682  12.989 -0.4342 -0.7374  2.7716
  541MPD2    H1 8032   1.673   2.044  13.046 -0.9885 -0.1562 -2.4372
  541MPD2    H2 8033   1.495   1.839  13.378 -0.4819  0.3420 -0.9179
  541MPD2    H3 8034   1.622   2.020  13.300  0.9561  0.6807 -0.9552
  541MPD2     N 8035   1.574   1.898  12.858 -1.0428 -0.2708 -0.1787
  541MPD2    H5 8036   1.613   1.989  12.835  2.2793 -1.4791  0.5691
  541MPD2    N1 8037   1.406   1.631  13.231  0.2694  0.4450  0.2232
  541MPD2    H7 8038   1.387   1.555  13.166 -0.2064  0.3447  0.4816
  542TMC3    C1 8039   1.556   1.878  12.626 -0.1554  0.0770  0.2173
  542TMC3    C2 8040   1.564   1.803  12.514 -0.3982  0.8940  0.1713
  542TMC3    C3 8041   1.551   1.858  12.384  0.0811  0.6707  0.6553
  542TMC3    C4 8042   1.522   2.004  12.620 -0.0784  0.0922 -0.3824
  542TMC3    C5 8043   1.496   2.054  12.498  0.2243 -0.7593 -0.2924
  542TMC3    C6 8044   1.511   1.990  12.376 -0.4231 -0.7923  0.1592
  542TMC3     C 8045   1.529   1.813  12.754 -0.5206  0.5608  0.3623
  542TMC3     O 8046   1.467   1.707  12.762 -0.1427  0.5548 -0.4870
  542TMC3     H 8047   1.596   1.701  12.535 -0.6403  0.4061 -1.8019
  542TMC3    H1 8048   1.475   2.054  12.705 -0.2482  1.0398 -1.0381
  542TMC3    H2 8049   1.483   2.034  12.281  0.3921 -1.5724 -0.4482
  542TMC3    C7 8050   1.438   2.182  12.496 -0.3285 -0.0952  0.8678
  542TMC3    C8 8051   1.540   1.780  12.268 -0.2514 -0.3339  0.1147
  542TMC3    O1 8052   1.357   2.199  12.407  0.0968 -0.8599 -0.1375
  542TMC3    O2 8053   1.522   1.837  12.159 -0.1511  0.1712  0.5628
  543TMC3    C1 8054   0.482   2.736  17.332 -0.6050 -0.0181  0.1600
  543TMC3    C2 8055   0.505   2.602  17.310 -0.3457 -0.2516  0.7135
  543TMC3    C3 8056   0.398   2.521  17.274  0.9136  0.2001 -0.5716
  543TMC3    C4 8057   0.360   2.796  17.317  0.0380  0.0559 -0.6904
  543TMC3    C5 8058   0.255   2.712  17.271 -0.4211 -0.0410  0.6741
  543TMC3    C6 8059   0.269   2.572  17.264 -0.3546  0.4239  0.1799
  543TMC3     C 8060   0.593   2.823  17.367 -0.2320 -0.4609  0.5905
  543TMC3     O 8061   0.703   2.791  17.322  0.5845  0.3133  0.2352
  543TMC3     H 8062   0.605   2.561  17.309 -0.6569 -0.9112 -2.9639
  543TMC3    H1 8063   0.348   2.904  17.321 -2.9016 -0.2961 -0.5472
  543TMC3    H2 8064   0.190   2.520  17.212  1.4485 -2.0153 -0.1674
  543TMC3    C7 8065   0.135   2.775  17.227 -0.1112  1.2342 -0.7392
  543TMC3    C8 8066   0.428   2.386  17.234  1.3360  0.2714 -0.3656
  543TMC3    O1 8067   0.038   2.704  17.214 -0.5700  0.2910  0.0288
  543TMC3    O2 8068   0.546   2.360  17.216 -0.2849 -0.1444  0.4188
  544MPD2     C 8069   0.282   1.907  17.135  0.8114 -0.6785 -0.2541
  544MPD2    C1 8070   0.406   1.958  17.144 -0.1139 -0.6538 -0.1118
  544MPD2    C2 8071   0.417   2.090  17.185 -0.3658  0.6183 -0.1915
  544MPD2    C3 8072   0.311   2.173  17.222  0.1309 -0.8587 -0.2081
  544MPD2    C4 8073   0.189   2.116  17.218  0.8211 -0.0789  0.4474
  544MPD2    C5 8074   0.180   1.991  17.166  0.0792 -0.3613  0.6222
  544MPD2     H 8075   0.516   2.134  17.188  0.8673 -2.0977 -1.1382
  544MPD2    H1 8076   0.097   2.165  17.248 -0.4141 -2.6245  0.8400
  544MPD2    H2 8077   0.254   1.808  17.100  0.4996 -0.7369  0.1643
  544MPD2    H3 8078   0.085   1.941  17.154  0.3759 -0.7000 -0.2697
  544MPD2     N 8079   0.319   2.309  17.247  0.6496 -0.2484  0.2761
  544MPD2    H5 8080   0.229   2.356  17.255  0.3124 -0.8925  0.3350
  544MPD2    N1 8081   0.513   1.868  17.118 -0.0221 -0.4975 -0.5379
  544MPD2    H7 8082   0.489   1.777  17.080 -0.3532 -0.5496 -0.1976
  545TMC3    C1 8083   0.722   1.794  17.057  0.6189 -0.1848  0.2062
  545TMC3    C2 8084   0.681   1.740  16.935  0.8106  0.2020  0.1684
  545TMC3    C3 8085   0.767   1.665  16.858  0.3958 -0.5495 -0.0373
  545TMC3    C4 8086   0.845   1.758  17.113 -0.2772 -0.9112 -0.3328
  545TMC3    C5 8087   0.929   1.680  17.040 -0.6626 -0.3478  0.0012
  545TMC3    C6 8088   0.891   1.636  16.915 -0.1791 -0.2575  0.1143
  545TMC3     C 8089   0.647   1.901  17.119  0.6890 -0.3961 -0.3447
  545TMC3     O 8090   0.712   1.986  17.175 -0.3629  0.3723  0.1907
  545TMC3     H 8091   0.584   1.769  16.896  0.5788 -2.6238 -1.3385
  545TMC3    H1 8092   0.858   1.780  17.218  0.5205 -1.1260 -0.3799
  545TMC3    H2 8093   0.957   1.577  16.852 -1.2769 -1.4657  0.0885
  545TMC3    C7 8094   1.012   1.586  17.116  0.5750 -0.3876  0.1651
  545TMC3    C8 8095   0.719   1.623  16.728  0.5277 -0.8801 -0.6826
  545TMC3    O1 8096   1.048   1.479  17.064  0.2497  0.2737  0.0922
  545TMC3    O2 8097   0.598   1.627  16.715 -0.5168 -0.2383 -0.1479
  546MPD2     C 8098   2.073   3.438   0.066 -0.6557 -0.1087 -0.0914
  546MPD2    C1 8099   2.103   3.425  17.628 -0.1843 -0.4566  0.7123
  546MPD2    C2 8100   2.173   3.525  17.559  0.3475 -0.4243 -0.3059
  546MPD2    C3 8101   2.206   3.641  17.627  0.1010  0.8731 -0.0848
  546MPD2    C4 8102   2.175   3.652   0.070 -0.3264 -0.1778  0.0157
  546MPD2    C5 8103   2.110   3.546   0.134 -0.1549  0.3775 -0.5184
  546MPD2     H 8104   2.192   3.523  17.453  1.3393  0.5408 -0.1458
  546MPD2    H1 8105   2.214   3.737   0.126 -2.4911  1.2274 -0.5944
  546MPD2    H2 8106   2.022   3.358   0.118  0.6344 -0.7535  0.1713
  546MPD2    H3 8107   2.076   3.546   0.237  0.2984  0.7108 -0.3710
  546MPD2     N 8108   2.259   3.754  17.563  0.0748  0.6274  0.3643
  546MPD2    H5 8109   2.273   3.835  17.622  1.1824 -0.3358  1.4372
  546MPD2    N1 8110   2.071   3.307  17.565 -0.0241  0.2218  0.1273
  546MPD2    H7 8111   2.014   3.237  17.611  0.9103 -0.5417  0.1276
  547TMC3    C1 8112   2.052   3.136  17.412  0.1758 -0.3200  0.0743
  547TMC3    C2 8113   1.984   3.109  17.293 -0.4227 -0.3147  0.0490
  547TMC3    C3 8114   1.930   2.988  17.279 -0.3183  0.2925 -0.3365
  547TMC3    C4 8115   2.062   3.053  17.517 -0.4482 -0.0414 -0.7301
  547TMC3    C5 8116   2.000   2.939  17.501 -0.5309  0.3355  0.4008
  547TMC3    C6 8117   1.930   2.902  17.390 -0.4993  0.4446  0.0678
  547TMC3     C 8118   2.109   3.269  17.434 -0.5234  0.3525  0.1720
  547TMC3     O 8119   2.147   3.339  17.342 -0.0617 -0.0787  0.1543
  547TMC3     H 8120   2.000   3.175  17.209 -0.1772 -0.8100 -0.2947
  547TMC3    H1 8121   2.114   3.079  17.608  2.9001 -1.6329 -2.1688
  547TMC3    H2 8122   1.876   2.808  17.387 -1.6803  1.2085 -2.4899
  547TMC3    C7 8123   1.973   2.869  17.624 -0.0141 -0.5226 -0.1425
  547TMC3    C8 8124   1.816   2.990  17.189  0.0550 -0.3767 -0.4915
  547TMC3    O1 8125   1.929   2.943   0.020  0.5772 -0.7979 -0.1984
  547TMC3    O2 8126   1.766   3.101  17.184 -0.4443  0.3346 -0.4157
  548MPD2     C 8127   2.272   3.626  12.400  0.3314 -0.0283  0.5305
  548MPD2    C1 8128   2.184   3.534  12.359 -0.4608 -0.0946  0.2560
  548MPD2    C2 8129   2.240   3.415  12.302 -0.8635 -0.0410 -0.4605
  548MPD2    C3 8130   2.376   3.396  12.284 -0.0478 -0.4390  0.7110
  548MPD2    C4 8131   2.463   3.494  12.337 -0.7107 -0.2342 -0.0537
  548MPD2    C5 8132   2.404   3.606  12.383  0.4370  0.0114 -0.4335
  548MPD2     H 8133   2.173   3.342  12.259 -1.2849 -0.7187  1.3301
  548MPD2    H1 8134   2.570   3.479  12.344 -0.4470  1.4078 -0.5683
  548MPD2    H2 8135   2.235   3.718  12.443 -1.5110 -1.1803  1.4099
  548MPD2    H3 8136   2.474   3.679  12.424 -0.5560  1.0973 -0.6730
  548MPD2     N 8137   2.427   3.284  12.224 -0.0917  0.3884 -0.5592
  548MPD2    H5 8138   2.527   3.273  12.214 -0.1905 -0.4626 -0.6138
  548MPD2    N1 8139   2.045   3.564  12.366  0.5352  0.3798  0.2914
  548MPD2    H7 8140   2.021   3.660  12.388  2.2648  0.4794  1.7302
  549TMC3    C1 8141   1.820   3.528  12.378 -0.3198 -0.4537  0.0857
  549TMC3    C2 8142   1.793   3.650  12.321  0.2904  0.2049 -0.1970
  549TMC3    C3 8143   1.661   3.682  12.300  0.4390 -0.9950  0.8317
  549TMC3    C4 8144   1.721   3.442  12.415 -0.5162 -0.6082  0.0657
  549TMC3    C5 8145   1.592   3.479  12.388  0.1502  0.1427 -0.4424
  549TMC3    C6 8146   1.556   3.601  12.338  0.1595  0.1003  0.0974
  549TMC3     C 8147   1.950   3.471  12.379 -0.4709  0.1095 -0.1143
  549TMC3     O 8148   1.964   3.350  12.391 -0.4014 -0.2164  0.6802
  549TMC3     H 8149   1.870   3.703  12.267  1.3667 -0.3336  0.8010
  549TMC3    H1 8150   1.740   3.353  12.475  0.8623 -0.5624 -0.3058
  549TMC3    H2 8151   1.455   3.618  12.304  0.1667 -1.0383 -0.4847
  549TMC3    C7 8152   1.484   3.385  12.393 -0.3487  0.1088 -0.3847
  549TMC3    C8 8153   1.630   3.759  12.187  0.1805 -0.2591 -0.0552
  549TMC3    O1 8154   1.371   3.424  12.401 -0.3496 -0.0149  0.1462
  549TMC3    O2 8155   1.519   3.750  12.139 -0.6160 -0.0070 -0.1850
  550TMC3    C1 8156   1.159   1.383  12.237 -0.3936  0.1519  0.7249
  550TMC3    C2 8157   1.167   1.455  12.353 -0.3850  0.2128 -0.8711
  550TMC3    C3 8158   1.188   1.589  12.350 -0.1996  0.3445 -0.2308
  550TMC3    C4 8159   1.145   1.445  12.111  0.1996  0.2991  0.0626
  550TMC3    C5 8160   1.151   1.580  12.113  0.1241  0.3127 -0.1137
  550TMC3    C6 8161   1.194   1.640  12.224  0.7850 -0.6219  0.8207
  550TMC3     C 8162   1.074   1.272  12.253 -0.3639 -0.0526 -0.0057
  550TMC3     O 8163   1.091   1.203  12.352  0.0499 -0.0393 -0.1363
  550TMC3     H 8164   1.162   1.405  12.448  2.1178  0.9615 -0.3401
  550TMC3    H1 8165   1.116   1.394  12.020 -1.1446  1.3179 -0.0853
  550TMC3    H2 8166   1.202   1.748  12.223  0.1854 -0.6022 -2.7828
  550TMC3    C7 8167   1.025   1.637  12.063 -0.1596  0.5427 -0.0553
  550TMC3    C8 8168   1.116   1.673  12.438 -0.1914 -0.2775  0.1408
  550TMC3    O1 8169   0.930   1.556  12.049 -0.3061  0.2256 -0.0507
  550TMC3    O2 8170   1.166   1.787  12.456 -0.6161  0.1207 -0.1588
  551TMC3    C1 8171   2.702   4.492  13.412  0.4576 -0.0299 -0.0753
  551TMC3    C2 8172   2.809   4.528  13.331 -0.0384  0.1879  0.0062
  551TMC3    C3 8173   2.934   4.549  13.380  0.3578  0.4225  0.2441
  551TMC3    C4 8174   2.725   4.450  13.539 -0.4265 -0.5416 -0.5238
  551TMC3    C5 8175   2.854   4.460  13.590  0.4368  0.1540  0.8525
  551TMC3    C6 8176   2.956   4.505  13.506  0.1943 -0.5357  0.7993
  551TMC3     C 8177   2.587   4.446  13.347 -0.1617  0.7023 -0.6159
  551TMC3     O 8178   2.587   4.438  13.221 -0.0659  0.0651 -0.1214
  551TMC3     H 8179   2.798   4.541  13.224 -3.1945  2.3289  0.5887
  551TMC3    H1 8180   2.646   4.414  13.603 -0.5503 -0.1652 -0.4705
  551TMC3    H2 8181   3.058   4.519  13.540  0.0683 -0.1505  1.0279
  551TMC3    C7 8182   2.857   4.504  13.726  0.5690  0.2637 -0.4559
  551TMC3    C8 8183   3.055   4.525  13.298 -0.0366 -0.3012  0.2491
  551TMC3    O1 8184   2.755   4.465  13.781 -0.0057  0.3049 -0.3822
  551TMC3    O2 8185   3.135   4.440  13.340  0.4326  0.4869  0.5399
  552MPD2     C 8186   4.703   1.927  13.726 -0.1972 -0.2786  0.8924
  552MPD2    C1 8187   4.656   1.809  13.785  0.3083  0.3250  0.3527
  552MPD2    C2 8188   0.028   1.730  13.855 -0.6183 -0.0448  0.0647
  552MPD2    C3 8189   0.163   1.765  13.873  0.3893 -0.6822  0.6303
  552MPD2    C4 8190   0.201   1.874  13.792 -0.3396  0.3230 -0.6623
  552MPD2    C5 8191   0.109   1.954  13.738 -0.2879  0.7526  0.0903
  552MPD2     H 8192   4.718   1.642  13.909 -0.6008 -0.0459  0.0736
  552MPD2    H1 8193   0.303   1.913  13.789  0.9204 -2.9018  0.1131
  552MPD2    H2 8194   4.636   1.994  13.673  0.7346 -0.7847 -0.9429
  552MPD2    H3 8195   0.146   2.049  13.698  1.3035 -0.6675 -1.8405
  552MPD2     N 8196   0.263   1.707  13.960 -0.0571 -1.0516 -0.2152
  552MPD2    H5 8197   0.350   1.759  13.956 -1.0843  0.5990 -0.8861
  552MPD2    N1 8198   4.525   1.755  13.787 -0.3458  0.0416 -0.6270
  552MPD2    H7 8199   4.514   1.663  13.828  3.0634  0.2139  0.6368
  553TMC3    C1 8200   4.318   1.706  13.694  0.4271  0.1659 -0.0570
  553TMC3    C2 8201   4.253   1.704  13.574 -0.3538 -0.2798  0.7271
  553TMC3    C3 8202   4.152   1.617  13.560 -0.3356  0.4034  0.4109
  553TMC3    C4 8203   4.304   1.608  13.787  0.0112 -0.0636 -0.0049
  553TMC3    C5 8204   4.213   1.510  13.757  0.0354  0.1889 -0.0129
  553TMC3    C6 8205   4.129   1.520  13.646 -0.0331 -0.3915  0.1530
  553TMC3     C 8206   4.424   1.803  13.708  0.1257  0.5263 -0.5479
  553TMC3     O 8207   4.428   1.897  13.634 -0.0163 -0.0339 -0.1121
  553TMC3     H 8208   4.280   1.782  13.503 -1.7479  2.2188  2.9166
  553TMC3    H1 8209   4.324   1.618  13.893 -3.0986  1.2423  0.4490
  553TMC3    H2 8210   4.041   1.457  13.646  0.2311 -0.7462 -4.0620
  553TMC3    C7 8211   4.229   1.374  13.814  0.3386  0.7985 -0.9287
  553TMC3    C8 8212   4.104   1.616  13.423 -0.8100 -0.4570  0.5793
  553TMC3    O1 8213   4.152   1.286  13.780  0.3307  0.0672 -0.0998
  553TMC3    O2 8214   4.067   1.721  13.379 -0.1080  0.5775  0.4707
  554TMC3    C1 8215   2.237   0.649  11.417 -0.0947 -0.0548 -0.3541
  554TMC3    C2 8216   2.186   0.563  11.325  0.0891  0.6511 -0.1508
  554TMC3    C3 8217   2.198   0.581  11.192  0.5611 -0.0373  0.7233
  554TMC3    C4 8218   2.303   0.762  11.370  0.2038  0.2398 -0.0024
  554TMC3    C5 8219   2.320   0.778  11.232  0.5062  0.7686 -1.0973
  554TMC3    C6 8220   2.270   0.691  11.144  0.4964  0.4513 -0.7304
  554TMC3     C 8221   2.242   0.624  11.554  0.3429 -0.2907 -0.3528
  554TMC3     O 8222   2.240   0.724  11.627  0.4042  0.5863 -0.3540
  554TMC3     H 8223   2.114   0.490  11.361  0.3085 -0.4209 -1.8258
  554TMC3    H1 8224   2.353   0.833  11.436 -2.1957  0.8041  1.2001
  554TMC3    H2 8225   2.266   0.705  11.036 -0.1263 -0.0273 -0.7709
  554TMC3    C7 8226   2.323   0.905  11.179 -0.1424 -0.1574  0.1164
  554TMC3    C8 8227   2.082   0.541  11.112 -0.9588 -0.1706 -0.3264
  554TMC3    O1 8228   2.343   0.901  11.058 -0.4970 -0.0075  0.2880
  554TMC3    O2 8229   2.038   0.633  11.042  0.2409  0.0332  0.4849
  555TMC3    C1 8230   0.948   0.294  15.148  0.9130  0.5738  0.0992
  555TMC3    C2 8231   1.027   0.356  15.241  0.6603 -0.0311 -0.5797
  555TMC3    C3 8232   1.043   0.293  15.361  0.3537  0.0137  0.0446
  555TMC3    C4 8233   0.887   0.172  15.163 -0.7000 -1.2791  0.7463
  555TMC3    C5 8234   0.924   0.109  15.274 -0.3496 -0.3572  0.3247
  555TMC3    C6 8235   1.005   0.161  15.371 -0.2906  0.0448 -0.7638
  555TMC3     C 8236   0.957   0.352  15.017  0.0541 -0.3614  0.3532
  555TMC3     O 8237   1.048   0.430  14.984  0.1841 -0.3587 -0.2847
  555TMC3     H 8238   1.058   0.459  15.232 -1.1491  0.4461 -1.1556
  555TMC3    H1 8239   0.833   0.116  15.087  0.2861 -0.4203 -0.5946
  555TMC3    H2 8240   1.027   0.099  15.456 -0.9156  2.2675  1.0288
  555TMC3    C7 8241   0.869   4.701  15.291 -0.2547 -0.5950 -1.0076
  555TMC3    C8 8242   1.147   0.343  15.455  0.3290 -0.3857 -0.9336
  555TMC3    O1 8243   0.937   4.608  15.336 -1.0478 -0.6736 -0.1438
  555TMC3    O2 8244   1.228   0.427  15.419 -0.3835 -0.0697 -0.2505
  556MPD2     C 8245   3.474   2.078  10.448  0.1560  0.2260 -0.1691
  556MPD2    C1 8246   3.571   1.978  10.454 -0.1907  0.3929 -0.6185
  556MPD2    C2 8247   3.583   1.881  10.355 -1.2935  0.3992 -0.5044
  556MPD2    C3 8248   3.507   1.889  10.243  0.9478  0.1298  1.3106
  556MPD2    C4 8249   3.416   1.991  10.235 -0.0505  0.5359 -0.5098
  556MPD2    C5 8250   3.405   2.088  10.337  0.4840 -1.0352  0.4692
  556MPD2     H 8251   3.650   1.800  10.383 -0.9589  1.3467  1.4788
  556MPD2    H1 8252   3.349   2.000  10.151  1.7034  1.8266 -1.7681
  556MPD2    H2 8253   3.453   2.148  10.527 -0.4081 -1.3788  1.1082
  556MPD2    H3 8254   3.344   2.178  10.338 -0.9099 -1.9401 -2.2335
  556MPD2     N 8255   3.518   1.783  10.147 -0.7631 -0.3289 -0.3711
  556MPD2    H5 8256   3.580   1.707  10.174  0.2692  0.0512 -1.6804
  556MPD2    N1 8257   3.664   1.972  10.567 -0.2770  0.0613 -0.1033
  556MPD2    H7 8258   3.720   1.888  10.576 -0.0781  0.0635 -1.2933
  557TMC3    C1 8259   3.491   1.667   9.947  0.4914  0.4315  0.2110
  557TMC3    C2 8260   3.494   1.680   9.814 -0.6688 -0.0898  0.7778
  557TMC3    C3 8261   3.518   1.566   9.736  0.1782 -0.3863  0.3786
  557TMC3    C4 8262   3.497   1.544  10.012 -0.2707  0.3858 -0.1716
  557TMC3    C5 8263   3.511   1.432   9.930  0.5543 -0.9026  0.0281
  557TMC3    C6 8264   3.526   1.438   9.791  0.5267 -0.0919  0.0951
  557TMC3     C 8265   3.457   1.785  10.022 -0.0733  0.5816  0.1038
  557TMC3     O 8266   3.374   1.856   9.965 -0.4637  0.5361 -0.2792
  557TMC3     H 8267   3.457   1.763   9.754 -1.1760  1.6672  3.5363
  557TMC3    H1 8268   3.478   1.544  10.119 -2.5908  0.7892 -0.5850
  557TMC3    H2 8269   3.531   1.350   9.728  0.4312  0.4929 -0.7224
  557TMC3    C7 8270   3.496   1.308  10.001  0.4613  0.2732  1.0543
  557TMC3    C8 8271   3.500   1.586   9.594  0.1778 -0.0411 -0.5454
  557TMC3    O1 8272   3.513   1.322  10.121  0.5269  0.6329 -0.4983
  557TMC3    O2 8273   3.521   1.698   9.551 -0.7033 -0.1687  0.2438
  558TMC3    C1 8274   1.688   4.106  10.028  0.3434 -0.1757 -0.4271
  558TMC3    C2 8275   1.595   4.141  10.119  0.0194  0.3721  0.1934
  558TMC3    C3 8276   1.468   4.160  10.069 -1.2851  0.2234  0.6628
  558TMC3    C4 8277   1.657   4.105   9.891 -0.5540 -0.5267  0.1089
  558TMC3    C5 8278   1.532   4.133   9.845  0.1744 -0.1943 -0.1919
  558TMC3    C6 8279   1.433   4.153   9.941 -0.6169 -0.4539  0.6543
  558TMC3     C 8280   1.825   4.110  10.076 -0.0168 -0.5484 -0.2653
  558TMC3     O 8281   1.847   4.191  10.170  0.3701  0.0857  0.4924
  558TMC3     H 8282   1.615   4.159  10.224  0.5097 -2.1744  0.5233
  558TMC3    H1 8283   1.746   4.104   9.829 -1.2612 -1.8872 -0.8835
  558TMC3    H2 8284   1.328   4.151   9.914 -0.0925  0.9648 -1.5161
  558TMC3    C7 8285   1.522   4.174   9.708  0.3395  0.5710  0.5322
  558TMC3    C8 8286   1.362   4.180  10.167 -0.2614 -0.1432 -0.2808
  558TMC3    O1 8287   1.618   4.159   9.632  0.3005 -0.0441  0.3095
  558TMC3    O2 8288   1.253   4.225  10.131  0.3838 -0.8153 -0.3558
  559MPD2     C 8289   1.842   0.283  10.359 -0.7787 -0.0876  0.4300
  559MPD2    C1 8290   1.808   0.163  10.422 -0.0713 -0.3400 -0.0244
  559MPD2    C2 8291   1.884   0.126  10.534 -0.3944 -0.4694  0.0880
  559MPD2    C3 8292   2.003   0.188  10.566 -0.1401 -0.2929  0.1119
  559MPD2    C4 8293   2.050   0.292  10.489 -0.3121 -0.0893 -0.2445
  559MPD2    C5 8294   1.966   0.340  10.391  0.1469 -0.1328 -0.5389
  559MPD2     H 8295   1.848   0.042  10.592  1.3911 -2.3156 -1.4531
  559MPD2    H1 8296   2.139   0.344  10.523  1.0399 -1.5036 -1.6284
  559MPD2    H2 8297   1.779   0.331  10.285  0.7418 -0.1894 -0.9153
  559MPD2    H3 8298   2.002   0.435  10.353  0.2063 -0.3876 -1.1161
  559MPD2     N 8299   2.067   0.136  10.681 -0.0391  0.4183 -0.1777
  559MPD2    H5 8300   2.016   0.061  10.726  0.3992 -0.6622 -1.4946
  559MPD2    N1 8301   1.688   0.094  10.385 -0.4919 -0.1294 -0.4169
  559MPD2    H7 8302   1.633   0.146  10.318 -0.4299 -1.6164 -1.6293
  560TMC3    C1 8303   2.211   0.124  10.867  0.1408  0.2326 -0.4393
  560TMC3    C2 8304   2.145   0.015  10.917 -0.6915  0.0690 -0.8583
  560TMC3    C3 8305   2.164   4.700  11.045 -0.2469  0.4301 -0.7337
  560TMC3    C4 8306   2.294   0.191  10.948  0.5177  0.5613  0.5439
  560TMC3    C5 8307   2.300   0.156  11.080  0.0213 -0.4447  0.4634
  560TMC3    C6 8308   2.241   0.046  11.136 -0.6911 -0.9297 -0.6721
  560TMC3     C 8309   2.183   0.183  10.739  0.1407  0.1786 -0.2348
  560TMC3     O 8310   2.270   0.256  10.693  0.4290  0.2545  0.3609
  560TMC3     H 8311   2.074   4.673  10.866 -1.2614 -0.6220  0.8084
  560TMC3    H1 8312   2.339   0.281  10.908  0.7788  0.6925  1.1187
  560TMC3    H2 8313   2.242   0.024  11.242 -0.0990  1.2959 -0.2351
  560TMC3    C7 8314   2.342   0.256  11.176  0.0707  0.0082 -0.0939
  560TMC3    C8 8315   2.094   4.580  11.085 -0.4938  0.2192 -0.0053
  560TMC3    O1 8316   2.269   0.276  11.271 -0.0017  0.2906 -0.3958
  560TMC3    O2 8317   1.989   4.553  11.022  0.0925 -0.3409  0.1936
  561TMC3    C1 8318   4.442   3.907  11.155  0.2467  0.4025 -0.1272
  561TMC3    C2 8319   4.358   3.842  11.240  0.1232  0.3320  0.2559
  561TMC3    C3 8320   4.265   3.916  11.297 -0.0455  0.2594  0.0033
  561TMC3    C4 8321   4.437   4.042  11.140  0.4612  0.1733  0.6670
  561TMC3    C5 8322   4.342   4.119  11.212  0.1927  0.6799  0.1162
  561TMC3    C6 8323   4.253   4.050  11.285  0.2814  0.0319 -0.1669
  561TMC3     C 8324   4.570   3.855  11.106 -0.6599  0.3080  0.3122
  561TMC3     O 8325   4.607   3.891  10.996 -0.1357  0.1493 -0.0764
  561TMC3     H 8326   4.377   3.737  11.262  1.2754  0.2571 -1.1147
  561TMC3    H1 8327   4.507   4.099  11.082 -0.4630 -1.2556 -1.8516
  561TMC3    H2 8328   4.162   4.097  11.321 -0.4185 -2.1518  0.9409
  561TMC3    C7 8329   4.343   4.263  11.239  0.0907  0.0431  0.0386
  561TMC3    C8 8330   4.156   3.859  11.377 -0.6996 -0.5912  0.9302
  561TMC3    O1 8331   4.251   4.305  11.307 -0.5673  0.2013 -0.0383
  561TMC3    O2 8332   4.118   3.746  11.354  0.2830 -0.0967  0.2914
  562TMC3    C1 8333   0.959   0.573  15.971  0.4699 -0.1428  0.2814
  562TMC3    C2 8334   1.014   0.603  15.849  0.0111 -0.1676 -0.1684
  562TMC3    C3 8335   0.935   0.585  15.738 -0.1028 -0.7164 -0.0397
  562TMC3    C4 8336   0.834   0.524  15.988  1.1873 -0.5839 -0.0304
  562TMC3    C5 8337   0.761   0.512  15.876  0.0369 -0.9598  0.3525
  562TMC3    C6 8338   0.811   0.541  15.749 -0.0271  0.7066  0.3053
  562TMC3     C 8339   1.052   0.555  16.086 -0.1510  0.2466 -0.4129
  562TMC3     O 8340   1.015   0.479  16.177 -0.0738 -0.3262 -0.4451
  562TMC3     H 8341   1.118   0.622  15.826  0.2450 -0.0579  0.9622
  562TMC3    H1 8342   0.804   0.481  16.083  1.0942  0.6368  0.5041
  562TMC3    H2 8343   0.756   0.504  15.663  0.8199 -0.0171  0.0750
  562TMC3    C7 8344   0.633   0.437  15.874 -0.1566  0.7178 -0.2433
  562TMC3    C8 8345   0.972   0.646  15.613 -0.3591 -0.2051 -0.2482
  562TMC3    O1 8346   0.582   0.413  15.763 -0.5226 -0.0479  0.2912
  562TMC3    O2 8347   1.076   0.711  15.614 -0.1258  0.3323 -0.0765
  563MPD2     C 8348   2.586   1.734  15.546  0.2811  0.1235 -0.7018
  563MPD2    C1 8349   2.676   1.833  15.560  0.2753  1.0347 -0.3029
  563MPD2    C2 8350   2.806   1.810  15.585 -0.5892 -0.0907  0.6681
  563MPD2    C3 8351   2.853   1.684  15.581 -0.5831 -0.4714 -0.8910
  563MPD2    C4 8352   2.770   1.577  15.563 -0.2948  0.5575  0.1426
  563MPD2    C5 8353   2.634   1.602  15.545  0.0387  0.2671  0.6326
  563MPD2     H 8354   2.876   1.893  15.589  0.5375 -1.0448  0.4866
  563MPD2    H1 8355   2.800   1.476  15.587  0.5681  0.9176  0.6014
  563MPD2    H2 8356   2.480   1.745  15.526  0.5409  4.5508  0.3129
  563MPD2    H3 8357   2.568   1.516  15.540 -0.7590  0.9690 -0.6383
  563MPD2     N 8358   2.988   1.665  15.615 -0.2469 -0.2124  0.1315
  563MPD2    H5 8359   3.034   1.743  15.662  2.4076 -1.6484 -0.0997
  563MPD2    N1 8360   2.629   1.963  15.565 -0.1412 -0.0276 -0.0140
  563MPD2    H7 8361   2.683   2.032  15.616  1.9767 -2.2280  0.6845
  564TMC3    C1 8362   2.452   2.100  15.634 -0.9643  0.3254  0.9682
  564TMC3    C2 8363   2.317   2.072  15.649  0.1815  0.6305 -0.2703
  564TMC3    C3 8364   2.277   2.009  15.763 -0.7328  0.3143  0.2964
  564TMC3    C4 8365   2.534   2.097  15.746  0.0681 -0.2846  0.6020
  564TMC3    C5 8366   2.481   2.058  15.866  0.3491 -0.1091 -0.4133
  564TMC3    C6 8367   2.358   2.008  15.873  0.5770 -0.0320 -0.5282
  564TMC3     C 8368   2.500   2.001  15.540 -0.1963  0.0842  0.6351
  564TMC3     O 8369   2.420   1.953  15.462 -0.3954  0.2125  0.2332
  564TMC3     H 8370   2.252   2.093  15.565 -0.6420  0.9201  0.4505
  564TMC3    H1 8371   2.639   2.120  15.757 -0.1103 -0.2149  2.1437
  564TMC3    H2 8372   2.316   1.974  15.967  1.4063  0.2667 -0.0518
  564TMC3    C7 8373   2.562   1.965  15.938 -0.3569 -0.7083 -0.9136
  564TMC3    C8 8374   2.215   1.877  15.746 -0.1185 -0.3407 -0.4650
  564TMC3    O1 8375   2.661   1.997  16.004 -0.1852  0.3427  0.2232
  564TMC3    O2 8376   2.226   1.815  15.851 -0.3957 -0.6212 -0.5956
  565TMC3    C1 8377   3.610   3.595   9.680 -0.0373  0.2529  0.1073
  565TMC3    C2 8378   3.591   3.499   9.771  0.0174  0.3254 -0.1649
  565TMC3    C3 8379   3.553   3.373   9.737 -0.1484 -0.1067 -0.2532
  565TMC3    C4 8380   3.584   3.568   9.550  0.1417 -0.4432  0.4459
  565TMC3    C5 8381   3.536   3.444   9.518  0.0806  0.4343  0.1441
  565TMC3    C6 8382   3.523   3.341   9.611 -0.4550  0.4112 -0.2833
  565TMC3     C 8383   3.667   3.725   9.709 -0.1886 -0.2855  0.7147
  565TMC3     O 8384   3.703   3.787   9.611  0.5281 -0.2452 -0.4715
  565TMC3     H 8385   3.615   3.530   9.872  0.7927  2.3277 -0.9691
  565TMC3    H1 8386   3.601   3.648   9.480 -0.0795 -1.4306 -0.7356
  565TMC3    H2 8387   3.508   3.239   9.576 -0.8539  0.4397 -0.1954
  565TMC3    C7 8388   3.484   3.419   9.386  0.7992  0.1592  0.1245
  565TMC3    C8 8389   3.520   3.287   9.853  0.1066  0.1161 -0.7939
  565TMC3    O1 8390   3.438   3.307   9.376 -0.4928 -0.5471 -0.5800
  565TMC3    O2 8391   3.575   3.311   9.957 -0.5099 -0.2496 -0.5091
  566MPD2     C 8392   4.363   0.051  14.104 -0.0965 -0.8674 -0.0541
  566MPD2    C1 8393   4.478   4.705  14.124  0.1498  0.2078  0.0744
  566MPD2    C2 8394   4.507   4.585  14.056  0.0630  0.2201 -0.1387
  566MPD2    C3 8395   4.427   4.538  13.956 -0.0725  0.6251  0.1761
  566MPD2    C4 8396   4.316   4.613  13.931 -0.6518 -0.0748  0.3717
  566MPD2    C5 8397   4.284   0.002  14.004  0.8611 -0.3815  0.0242
  566MPD2     H 8398   4.593   4.527  14.087 -1.1692 -1.3353  0.3437
  566MPD2    H1 8399   4.251   4.590  13.847  0.4546 -0.6854 -0.3212
  566MPD2    H2 8400   4.335   0.140  14.159  0.8736  0.0925 -1.1397
  566MPD2    H3 8401   4.184   0.041  13.986  1.1293  0.7895  1.1354
  566MPD2     N 8402   4.458   4.444  13.854  0.0105  0.0818 -0.1284
  566MPD2    H5 8403   4.395   4.424  13.777  1.3088  1.3538 -1.5340
  566MPD2    N1 8404   4.571   0.033  14.221 -0.5929 -0.0595  0.6031
  566MPD2    H7 8405   4.560   0.126  14.259 -1.0057  0.5393 -0.9550
  567TMC3    C1 8406   0.066   0.034  14.306  0.1193 -0.1998 -0.1106
  567TMC3    C2 8407   0.093   0.160  14.254  0.3774 -0.5866 -0.0623
  567TMC3    C3 8408   0.214   0.213  14.275  0.2390  0.1555 -0.0384
  567TMC3    C4 8409   0.156   4.689  14.383  0.1528 -0.6332 -0.8648
  567TMC3    C5 8410   0.277   0.018  14.402 -0.2497  0.2201 -0.4059
  567TMC3    C6 8411   0.311   0.146  14.357 -0.3640 -0.4351 -0.3016
  567TMC3     C 8412   4.671   4.678  14.275 -0.4101 -0.4188  0.2256
  567TMC3     O 8413   4.664   4.559  14.299  0.3982  0.2851  0.6924
  567TMC3     H 8414   0.027   0.215  14.188 -3.1517 -0.4693  3.5878
  567TMC3    H1 8415   0.133   4.596  14.433 -1.6098  1.4356  2.1775
  567TMC3    H2 8416   0.410   0.190  14.367 -0.8583 -0.0343  2.8489
  567TMC3    C7 8417   0.365   4.691  14.510 -0.3685 -0.3955 -0.7271
  567TMC3    C8 8418   0.253   0.318  14.184  0.0526 -0.3255  0.0151
  567TMC3    O1 8419   0.486   4.698  14.502  0.5832  0.8520  0.4839
  567TMC3    O2 8420   0.160   0.393  14.141 -0.1397  0.4895  0.2620
  568MPD2     C 8421   2.079   0.442  16.300 -0.1345 -0.4103  0.2152
  568MPD2    C1 8422   2.215   0.467  16.299 -0.3039 -0.4056  0.5855
  568MPD2    C2 8423   2.271   0.570  16.224 -0.0634 -0.1184  0.0161
  568MPD2    C3 8424   2.187   0.656  16.156  0.8104 -0.7045  0.3691
  568MPD2    C4 8425   2.054   0.630  16.156  0.2415  0.0916 -0.1089
  568MPD2    C5 8426   2.002   0.524  16.224  0.1765  0.1564 -0.3829
  568MPD2     H 8427   2.376   0.596  16.237 -0.2319  0.2825  0.6024
  568MPD2    H1 8428   1.985   0.697  16.106  0.9238  1.4766  0.8076
  568MPD2    H2 8429   2.034   0.349  16.334 -1.2268 -0.7871 -2.2584
  568MPD2    H3 8430   1.896   0.500  16.217  0.0047  1.1030 -1.1158
  568MPD2     N 8431   2.250   0.765  16.097 -0.3698  0.0080  0.1666
  568MPD2    H5 8432   2.350   0.752  16.085 -0.3544  0.1604  0.1248
  568MPD2    N1 8433   2.295   0.378  16.371  0.2561 -0.0976 -0.5925
  568MPD2    H7 8434   2.250   0.310  16.430  2.1802  0.9621  2.1177
  569TMC3    C1 8435   2.268   0.968  15.979 -0.9091 -0.7296 -0.2542
  569TMC3    C2 8436   2.363   1.013  16.061  0.0023 -0.0054 -0.5229
  569TMC3    C3 8437   2.413   1.138  16.036 -0.5381 -0.0808 -0.1385
  569TMC3    C4 8438   2.209   1.042  15.882  0.7553 -0.0736 -0.5681
  569TMC3    C5 8439   2.263   1.167  15.851 -0.6875 -0.3312  0.8421
  569TMC3    C6 8440   2.366   1.219  15.933 -0.2071  0.2800  0.4233
  569TMC3     C 8441   2.179   0.865  16.027 -0.2016  0.5633  0.5295
  569TMC3     O 8442   2.066   0.875  15.986 -0.9766 -0.2227 -0.0703
  569TMC3     H 8443   2.391   0.963  16.153 -0.4343 -0.5292 -0.6754
  569TMC3    H1 8444   2.138   1.007  15.807  0.8591  1.1700 -1.2557
  569TMC3    H2 8445   2.411   1.316  15.913 -1.5213  0.7263 -0.3539
  569TMC3    C7 8446   2.206   1.238  15.733 -0.0612  0.1837 -0.0181
  569TMC3    C8 8447   2.492   1.205  16.138 -0.4758  0.8366  0.4820
  569TMC3    O1 8448   2.178   1.169  15.637 -0.2561  0.5914  0.3977
  569TMC3    O2 8449   2.567   1.140  16.206 -0.3502  0.6385  0.2065
  570TMC3    C1 8450   1.842   4.138  16.467  0.2916  0.1495 -0.1392
  570TMC3    C2 8451   1.891   4.199  16.350 -0.1976  0.1580 -0.3537
  570TMC3    C3 8452   1.929   4.332  16.366  0.0132  0.4253  0.4848
  570TMC3    C4 8453   1.837   4.193  16.588 -0.2704 -0.0583 -0.3775
  570TMC3    C5 8454   1.876   4.321  16.601  0.4714 -0.0743 -0.4681
  570TMC3    C6 8455   1.924   4.388  16.489  0.5698 -0.9151  0.3271
  570TMC3     C 8456   1.815   3.992  16.456  0.5803 -0.8270 -0.2727
  570TMC3     O 8457   1.762   3.960  16.349  0.3274  0.1258  0.0267
  570TMC3     H 8458   1.883   4.152  16.253  0.3227 -1.8472  0.5861
  570TMC3    H1 8459   1.793   4.146  16.675  0.3206  0.0029 -0.0449
  570TMC3    H2 8460   1.965   4.489  16.493  0.7608 -0.9657 -0.3283
  570TMC3    C7 8461   1.819   4.406  16.705 -0.2477 -0.2707  0.2184
  570TMC3    C8 8462   2.026   4.379  16.272 -0.0124  0.2877  0.4063
  570TMC3    O1 8463   1.881   4.502  16.731 -1.2465  0.4038  0.0584
  570TMC3    O2 8464   2.057   4.499  16.287 -0.6361 -0.5376 -0.0634
  571MPD2     C 8465   0.428   1.236  17.329 -0.4410 -0.1936  0.3820
  571MPD2    C1 8466   0.328   1.192  17.242  0.4216 -0.0091 -0.0839
  571MPD2    C2 8467   0.200   1.240  17.256 -0.0063 -0.0418  0.4241
  571MPD2    C3 8468   0.165   1.312  17.373 -0.3857  0.2326  0.4467
  571MPD2    C4 8469   0.269   1.345  17.460 -0.7053 -0.3019  0.4763
  571MPD2    C5 8470   0.400   1.313  17.439 -0.3437  0.4648 -0.2677
  571MPD2     H 8471   0.125   1.214  17.183 -1.4711  0.0803  1.8806
  571MPD2    H1 8472   0.253   1.403  17.550  2.5054  1.6997 -0.2251
  571MPD2    H2 8473   0.534   1.226  17.305 -0.0177 -0.7548  2.5299
  571MPD2    H3 8474   0.482   1.344  17.503 -1.2511  0.4521  0.8905
  571MPD2     N 8475   0.035   1.359  17.398 -0.4514 -0.0846  0.1827
  571MPD2    H5 8476   0.013   1.403  17.487  1.1633 -0.5184  0.7990
  571MPD2    N1 8477   0.367   1.115  17.129 -0.1721 -0.2899 -0.2641
  571MPD2    H7 8478   0.466   1.096  17.124 -0.5589 -2.5406  0.8384
  572TMC3    C1 8479   4.523   1.384  17.391  0.0243 -0.6210 -0.0483
  572TMC3    C2 8480   4.405   1.314  17.387 -0.2710 -0.5198 -0.5475
  572TMC3    C3 8481   4.299   1.358  17.455  0.3980 -0.2685  0.4947
  572TMC3    C4 8482   4.537   1.508  17.451 -0.1318  0.1966  0.4992
  572TMC3    C5 8483   4.427   1.553  17.517 -0.3994 -0.3951 -0.5909
  572TMC3    C6 8484   4.307   1.478  17.512  0.2097  0.0145  0.3296
  572TMC3     C 8485   4.644   1.320  17.331 -0.4894 -0.6890 -0.7088
  572TMC3     O 8486   4.628   1.222  17.259 -0.8016  0.1443 -0.2331
  572TMC3     H 8487   4.403   1.216  17.340 -1.8117 -2.3517  3.2977
  572TMC3    H1 8488   4.623   1.570  17.430  0.5691 -0.2474  2.0582
  572TMC3    H2 8489   4.218   1.519  17.557  1.7440  1.0169  2.4449
  572TMC3    C7 8490   4.415   1.689  17.559  0.9628  0.3543 -0.0473
  572TMC3    C8 8491   4.174   1.286  17.439 -0.4634  0.1171 -0.5190
  572TMC3    O1 8492   4.309   1.715  17.616 -0.4966  0.0701  0.0643
  572TMC3    O2 8493   4.158   1.208  17.344 -0.7366 -0.2573 -0.5187
  573MPD2     C 8494   0.816   1.714   0.784 -0.5544  0.3869 -0.0617
  573MPD2    C1 8495   0.925   1.789   0.822 -0.1941  0.5663  0.3864
  573MPD2    C2 8496   1.022   1.795   0.725 -0.1143 -0.0295  0.0973
  573MPD2    C3 8497   1.015   1.731   0.600  0.1643 -1.2665 -0.9337
  573MPD2    C4 8498   0.899   1.669   0.568  0.1617  0.0059  0.6767
  573MPD2    C5 8499   0.802   1.659   0.664 -0.2723  0.7052  0.2802
  573MPD2     H 8500   1.118   1.832   0.759 -0.1401  0.1797 -0.0578
  573MPD2    H1 8501   0.876   1.620   0.473 -0.5493 -0.8489  1.2844
  573MPD2    H2 8502   0.740   1.701   0.859  0.7320 -0.0316  1.1689
  573MPD2    H3 8503   0.706   1.615   0.642 -1.4983  3.6179 -0.1133
  573MPD2     N 8504   1.116   1.757   0.502  0.2068 -0.5333  0.0998
  573MPD2    H5 8505   1.101   1.703   0.417 -0.5258 -0.5588  0.2490
  573MPD2    N1 8506   0.915   1.861   0.946 -0.3355  0.3924 -0.3078
  573MPD2    H7 8507   0.827   1.862   0.997 -0.1349 -0.4732  0.0535
  574TMC3    C1 8508   1.319   1.827   0.403 -0.1557  0.3183 -0.4437
  574TMC3    C2 8509   1.296   1.721   0.322  0.5112  0.3031  0.2647
  574TMC3    C3 8510   1.325   1.741   0.188 -0.4698 -0.5261  0.1175
  574TMC3    C4 8511   1.372   1.950   0.360  0.1426 -0.5115  0.0894
  574TMC3    C5 8512   1.409   1.959   0.231  0.4258  0.2854 -0.7632
  574TMC3    C6 8513   1.393   1.851   0.147 -0.0903  0.3772 -0.6513
  574TMC3     C 8514   1.222   1.839   0.516  0.1664  0.1426  0.2710
  574TMC3     O 8515   1.252   1.919   0.607 -0.4619 -0.3596 -0.0446
  574TMC3     H 8516   1.251   1.629   0.358 -0.0423  0.8087  0.8803
  574TMC3    H1 8517   1.368   2.033   0.430 -0.7035  0.8468 -1.5620
  574TMC3    H2 8518   1.428   1.859   0.045  2.3341  2.3802  0.3369
  574TMC3    C7 8519   1.444   2.095   0.184  0.2288 -0.5117 -0.1562
  574TMC3    C8 8520   1.306   1.634   0.098  0.7570 -0.4105 -0.6876
  574TMC3    O1 8521   1.456   2.176   0.274  0.5211  0.0616 -0.2619
  574TMC3    O2 8522   1.316   1.520   0.140 -0.0500 -0.3586 -0.5102
  575TMC3    C1 8523   3.726   2.922  10.614 -0.3987 -0.2445  0.4974
  575TMC3    C2 8524   3.689   2.791  10.649  0.9753  0.7005  0.7347
  575TMC3    C3 8525   3.629   2.715  10.552 -0.0653 -0.2535 -0.8716
  575TMC3    C4 8526   3.679   2.974  10.492  0.6670  0.4596 -0.5348
  575TMC3    C5 8527   3.598   2.898  10.410 -0.7126  0.3377 -0.0107
  575TMC3    C6 8528   3.587   2.763  10.431  0.2857  0.2885 -0.1049
  575TMC3     C 8529   3.780   3.005  10.721 -0.8181 -0.8266 -0.4309
  575TMC3     O 8530   3.806   2.956  10.828  0.5731 -0.1047 -0.3505
  575TMC3     H 8531   3.702   2.745  10.746 -0.7024 -1.4333 -0.0518
  575TMC3    H1 8532   3.677   3.081  10.478  0.8085  0.5874  0.4242
  575TMC3    H2 8533   3.545   2.701  10.352  0.6692  0.0652 -0.1390
  575TMC3    C7 8534   3.573   2.952  10.283  0.6214  0.0285 -0.2261
  575TMC3    C8 8535   3.534   2.615  10.602 -0.5903 -0.7374  0.5417
  575TMC3    O1 8536   3.648   3.041  10.242 -0.6024 -0.1287 -0.5526
  575TMC3    O2 8537   3.435   2.594  10.537 -0.0055  0.2806  0.4629
  576MPD2     C 8538   3.377   4.278  12.468  0.0470  0.4042  0.5191
  576MPD2    C1 8539   3.400   4.369  12.379 -0.5594  0.0401 -0.2765
  576MPD2    C2 8540   3.320   4.476  12.365  0.2730  0.1620 -0.3970
  576MPD2    C3 8541   3.218   4.500  12.459 -0.5790 -0.1344 -0.2173
  576MPD2    C4 8542   3.215   4.416  12.567  0.5079 -0.0072 -0.4272
  576MPD2    C5 8543   3.290   4.298  12.562  0.3004 -0.0163  0.5180
  576MPD2     H 8544   3.329   4.524  12.268 -1.3065 -1.0955 -1.1763
  576MPD2    H1 8545   3.156   4.418  12.658  1.4290 -0.4933  0.1747
  576MPD2    H2 8546   3.439   4.189  12.465 -1.0712 -0.3738  0.4068
  576MPD2    H3 8547   3.286   4.229  12.645  2.4533 -2.6385 -1.5750
  576MPD2     N 8548   3.108   4.592  12.433 -0.4375  0.2231 -0.0379
  576MPD2    H5 8549   3.115   4.656  12.355 -0.3362  1.8701  1.3176
  576MPD2    N1 8550   3.511   4.348  12.295  0.0371 -0.5173  0.4289
  576MPD2    H7 8551   3.557   4.258  12.306 -0.0410 -0.3770  1.9559
  577TMC3    C1 8552   3.675   4.393  12.124  0.2848 -0.0327 -0.5202
  577TMC3    C2 8553   3.703   4.256  12.118 -0.1244 -0.1227  0.3603
  577TMC3    C3 8554   3.814   4.219  12.044  0.1232 -0.1925 -0.6467
  577TMC3    C4 8555   3.758   4.487  12.071 -0.3554 -0.0909 -0.0729
  577TMC3    C5 8556   3.863   4.446  11.994  0.5024 -0.9304 -0.2511
  577TMC3    C6 8557   3.891   4.313  11.983  0.7304 -0.2857  0.0237
  577TMC3     C 8558   3.571   4.446  12.210  0.9556  0.1365  0.3115
  577TMC3     O 8559   3.549   4.566  12.208  0.0550  0.0718 -0.1257
  577TMC3     H 8560   3.634   4.181  12.154  0.9886 -1.8040 -1.0073
  577TMC3    H1 8561   3.721   4.589  12.078  0.5308  0.2461 -0.3782
  577TMC3    H2 8562   3.987   4.298  11.935  0.7845 -0.8102  0.3027
  577TMC3    C7 8563   3.900   4.514  11.875  0.0688 -0.5560 -0.0391
  577TMC3    C8 8564   3.822   4.072  12.003 -0.0251 -0.2565 -0.2242
  577TMC3    O1 8565   4.014   4.509  11.839 -0.5761 -0.5935 -0.2624
  577TMC3    O2 8566   3.746   3.991  12.049 -0.0916  0.3360  0.1135
  578MPD2     C 8567   0.391   4.267   2.052  0.0425  0.7522 -0.8054
  578MPD2    C1 8568   0.487   4.256   1.954 -0.2576  0.2079  0.8507
  578MPD2    C2 8569   0.610   4.219   1.997 -0.3319 -0.3753  0.2498
  578MPD2    C3 8570   0.639   4.189   2.122 -0.0328  0.1574  0.0156
  578MPD2    C4 8571   0.545   4.205   2.219  0.1303 -0.3673  0.4743
  578MPD2    C5 8572   0.419   4.244   2.184  0.4314  0.0892 -0.2406
  578MPD2     H 8573   0.690   4.194   1.928 -1.1133 -2.2814  0.0358
  578MPD2    H1 8574   0.550   4.182   2.325 -2.2796  0.1680  0.7089
  578MPD2    H2 8575   0.290   4.301   2.035 -0.5295 -1.1706 -1.1889
  578MPD2    H3 8576   0.352   4.261   2.268 -0.7660  3.5079 -1.9191
  578MPD2     N 8577   0.780   4.164   2.142 -0.0254  0.0635  0.0546
  578MPD2    H5 8578   0.829   4.137   2.057  1.0558 -0.1057  0.7356
  578MPD2    N1 8579   0.452   4.289   1.822  0.3421 -0.4272  0.0832
  578MPD2    H7 8580   0.361   4.333   1.820  0.1951 -0.6804  1.2508
  579TMC3    C1 8581   0.965   4.100   2.275  0.1497  0.2799 -0.5272
  579TMC3    C2 8582   1.050   4.165   2.370  0.2710  0.1199 -0.5518
  579TMC3    C3 8583   1.186   4.147   2.349  0.3442  1.0427 -0.1427
  579TMC3    C4 8584   1.010   4.014   2.179 -0.2510 -0.2106  0.6746
  579TMC3    C5 8585   1.150   3.986   2.170 -0.0557 -0.4872  0.2668
  579TMC3    C6 8586   1.230   4.048   2.264 -0.1176 -0.5386 -1.0431
  579TMC3     C 8587   0.830   4.147   2.271 -0.0470 -0.0549  0.2362
  579TMC3     O 8588   0.786   4.181   2.380  0.4715 -0.5168  0.6495
  579TMC3     H 8589   1.026   4.236   2.448  0.3468  2.1041 -2.3199
  579TMC3    H1 8590   0.941   3.965   2.111  1.4018  0.6599 -1.6376
  579TMC3    H2 8591   1.335   4.022   2.263 -0.0642 -0.3088 -1.3707
  579TMC3    C7 8592   1.218   3.945   2.048  0.1973  0.0602 -0.0547
  579TMC3    C8 8593   1.279   4.213   2.439 -0.7954  0.1163 -0.5542
  579TMC3    O1 8594   1.340   3.946   2.055 -0.3683  0.9703  1.0936
  579TMC3    O2 8595   1.256   4.239   2.557 -0.3264 -0.6294  0.0662
  580TMC3    C1 8596   1.127   2.751  11.268 -0.0828  0.4795  0.1766
  580TMC3    C2 8597   1.216   2.706  11.173  0.3587 -0.3418 -0.3097
  580TMC3    C3 8598   1.279   2.590  11.195 -0.3098 -0.6040 -0.2822
  580TMC3    C4 8599   1.100   2.671  11.372 -0.3024 -0.0872  0.2324
  580TMC3    C5 8600   1.174   2.557  11.399 -0.3178 -0.3907 -0.1596
  580TMC3    C6 8601   1.267   2.510  11.308  0.3555  0.9121  0.0196
  580TMC3     C 8602   1.156   2.895  11.299  0.0469  0.1894  0.3579
  580TMC3     O 8603   1.273   2.921  11.326  0.5979 -0.1424 -0.8040
  580TMC3     H 8604   1.250   2.772  11.093  2.8069 -1.7369 -0.4383
  580TMC3    H1 8605   1.053   2.707  11.463  1.3800  1.9498  0.2974
  580TMC3    H2 8606   1.332   2.426  11.329 -0.2522  0.9651  2.1207
  580TMC3    C7 8607   1.213   2.536  11.538  0.7232 -0.3261  0.0427
  580TMC3    C8 8608   1.393   2.589  11.106 -0.4625 -0.2734  0.6062
  580TMC3    O1 8609   1.250   2.630  11.605  0.0411 -0.0224  0.1687
  580TMC3    O2 8610   1.369   2.567  10.986 -0.0095  0.1355 -0.0927
  581MPD2     C 8611   3.961   2.729  14.685  0.3360  1.7135  0.1214
  581MPD2    C1 8612   3.848   2.771  14.753  0.3154  0.3024 -0.1551
  581MPD2    C2 8613   3.766   2.860  14.693  0.1548 -0.6348  0.3133
  581MPD2    C3 8614   3.775   2.898  14.557  0.4827  0.2233 -0.1898
  581MPD2    C4 8615   3.875   2.841  14.479 -0.2025  0.2099  0.0039
  581MPD2    C5 8616   3.967   2.768  14.548 -0.2822  0.1599 -0.8716
  581MPD2     H 8617   3.676   2.893  14.744  1.4394  3.2713  0.0988
  581MPD2    H1 8618   3.906   2.868  14.379 -1.8184  0.8553 -0.3345
  581MPD2    H2 8619   4.022   2.652  14.730 -1.1365 -0.5572 -1.7832
  581MPD2    H3 8620   4.055   2.729  14.497 -0.5163 -2.0310  0.3690
  581MPD2     N 8621   3.676   2.997  14.510  0.0404 -0.4694 -0.1333
  581MPD2    H5 8622   3.615   3.046  14.574 -0.0568 -3.5934  2.1391
  581MPD2    N1 8623   3.823   2.708  14.880  0.4540 -0.1883  0.0439
  581MPD2    H7 8624   3.902   2.649  14.904  0.5203 -0.6115 -1.2157
  582TMC3    C1 8625   3.705   2.629  15.067 -0.4403  0.0346  0.2896
  582TMC3    C2 8626   3.801   2.643  15.163  0.2064  0.4030 -0.0877
  582TMC3    C3 8627   3.773   2.590  15.290  0.7368 -0.2675 -0.4011
  582TMC3    C4 8628   3.577   2.581  15.092 -0.1031  0.3555  0.9802
  582TMC3    C5 8629   3.551   2.537  15.217  0.1674  0.1113  0.2717
  582TMC3    C6 8630   3.646   2.538  15.319 -0.3097 -0.8963  0.8523
  582TMC3     C 8631   3.710   2.724  14.963  0.2565  0.3389 -1.1059
  582TMC3     O 8632   3.614   2.802  14.943 -0.5475 -0.0559  0.0472
  582TMC3     H 8633   3.875   2.720  15.145 -0.7339  1.5816  1.0619
  582TMC3    H1 8634   3.504   2.567  15.013 -1.1602  2.1968  1.6487
  582TMC3    H2 8635   3.628   2.496  15.417 -2.3388 -0.8566  0.5070
  582TMC3    C7 8636   3.411   2.536  15.249 -0.0028  0.7258 -0.7946
  582TMC3    C8 8637   3.816   2.679  15.391  0.1904 -0.6800 -0.1362
  582TMC3    O1 8638   3.369   2.471  15.342  0.5634  0.4124 -0.3288
  582TMC3    O2 8639   3.726   2.735  15.456 -0.0219 -0.1934  0.1169
  583MPD2     C 8640   3.688   0.050  16.676  0.1163 -0.1464 -0.0374
  583MPD2    C1 8641   3.665   0.172  16.618 -0.5506 -0.3387  0.4346
  583MPD2    C2 8642   3.579   0.259  16.681 -1.0711 -0.2329  0.7102
  583MPD2    C3 8643   3.529   0.235  16.802 -0.5641 -0.8606 -0.2990
  583MPD2    C4 8644   3.547   0.117  16.862 -0.2705  0.0584  0.4778
  583MPD2    C5 8645   3.622   0.028  16.793  0.0358  0.1687  0.6299
  583MPD2     H 8646   3.572   0.353  16.628  0.3274 -0.3214  0.3655
  583MPD2    H1 8647   3.514   0.090  16.962 -4.5274 -0.7964 -1.1787
  583MPD2    H2 8648   3.738   4.690  16.628  0.0864  0.2598 -0.7842
  583MPD2    H3 8649   3.631   4.647  16.824  1.2863  0.1198  0.1030
  583MPD2     N 8650   3.446   0.339  16.853  0.1218 -0.2554  0.3995
  583MPD2    H5 8651   3.408   0.414  16.797  0.0806 -0.3490  0.3008
  583MPD2    N1 8652   3.736   0.208  16.499  0.4408 -0.0098 -0.0101
  583MPD2    H7 8653   3.695   0.293  16.461 -2.4256 -2.1160 -1.5915
  584TMC3    C1 8654   3.330   0.457  17.028  0.6314 -0.1969 -0.1475
  584TMC3    C2 8655   3.346   0.585  16.966  0.7137  0.0780  0.2151
  584TMC3    C3 8656   3.284   0.694  17.019  0.9637  0.0004  0.3646
  584TMC3    C4 8657   3.287   0.449  17.157 -0.6422 -0.5291 -0.2208
  584TMC3    C5 8658   3.240   0.564  17.211  0.1986 -0.1515 -0.3449
  584TMC3    C6 8659   3.236   0.682  17.148 -0.2648  0.4432 -0.2566
  584TMC3     C 8660   3.413   0.349  16.992  1.1142 -0.4325  0.6112
  584TMC3     O 8661   3.460   0.288  17.090  0.1939 -0.3986 -0.2400
  584TMC3     H 8662   3.407   0.594  16.877  1.2712 -0.7814  0.5024
  584TMC3    H1 8663   3.279   0.353  17.205 -1.7105  1.0152  2.6830
  584TMC3    H2 8664   3.204   0.774  17.196  0.4988  0.3508  0.4265
  584TMC3    C7 8665   3.199   0.547  17.352 -0.4147  0.4065 -0.4428
  584TMC3    C8 8666   3.297   0.820  16.947 -0.4606  0.3709 -0.2046
  584TMC3    O1 8667   3.189   0.431  17.390  0.0701 -0.5719  0.0975
  584TMC3    O2 8668   3.287   0.806  16.828  0.5266  0.3788 -0.0932
  585MPD2     C 8669   2.202   3.688   0.643  0.0856  0.2979  0.2658
  585MPD2    C1 8670   2.319   3.746   0.681  0.0827  0.8494 -0.0418
  585MPD2    C2 8671   2.422   3.751   0.588 -0.5105 -0.2686 -0.5371
  585MPD2    C3 8672   2.401   3.699   0.466 -0.1109  0.2000  0.0871
  585MPD2    C4 8673   2.287   3.633   0.430  0.6548 -0.2085  0.3107
  585MPD2    C5 8674   2.182   3.631   0.518  0.0554 -0.0484 -0.3666
  585MPD2     H 8675   2.515   3.803   0.611  0.8272 -2.0471 -1.9686
  585MPD2    H1 8676   2.275   3.596   0.329 -0.3781  1.3747 -0.1450
  585MPD2    H2 8677   2.123   3.680   0.717  1.0305  1.0929  1.3491
  585MPD2    H3 8678   2.085   3.592   0.488 -0.1334  0.5948 -0.5953
  585MPD2     N 8679   2.501   3.712   0.366  0.3658 -0.0869  0.1287
  585MPD2    H5 8680   2.488   3.676   0.271 -1.6825  0.9960  0.0056
  585MPD2    N1 8681   2.328   3.789   0.814  0.8768  0.1978 -0.0437
  585MPD2    H7 8682   2.239   3.797   0.862  1.4186 -0.8790  1.1368
  586TMC3    C1 8683   2.704   3.782   0.265 -0.1390  1.0097 -0.2689
  586TMC3    C2 8684   2.838   3.758   0.271  0.0886  0.7908 -0.3077
  586TMC3    C3 8685   2.917   3.786   0.161 -0.1996 -0.7968  0.1611
  586TMC3    C4 8686   2.649   3.843   0.157 -0.0873  0.1231  0.3287
  586TMC3    C5 8687   2.731   3.869   0.054 -0.3307  1.3116  0.0083
  586TMC3    C6 8688   2.865   3.865   0.056  0.2405 -0.1509 -0.1255
  586TMC3     C 8689   2.631   3.755   0.387 -0.3661  0.2282  0.2152
  586TMC3     O 8690   2.701   3.765   0.490  0.1525  0.3505  0.0221
  586TMC3     H 8691   2.886   3.713   0.357 -0.0542  2.0465  0.4310
  586TMC3    H1 8692   2.543   3.835   0.137 -0.1131  1.3499  0.0164
  586TMC3    H2 8693   2.923   3.879  17.659  2.7201  0.7143  1.6205
  586TMC3    C7 8694   2.668   3.840  17.617 -0.1885 -0.2289  0.2576
  586TMC3    C8 8695   3.000   3.670   0.130 -0.3215  0.4356  0.4594
  586TMC3    O1 8696   2.570   3.763  17.625 -0.7712 -0.0338 -0.4871
  586TMC3    O2 8697   2.998   3.572   0.206  0.1610 -0.4788 -0.5999
  587TMC3    C1 8698   0.341   2.576  16.565 -0.6726 -0.0331 -0.9973
  587TMC3    C2 8699   0.328   2.688  16.493  0.5048 -0.6307  0.2435
  587TMC3    C3 8700   0.438   2.732  16.421  0.2418 -0.3975 -0.2194
  587TMC3    C4 8701   0.460   2.507  16.577 -0.0306 -0.5634 -0.1820
  587TMC3    C5 8702   0.555   2.546  16.491 -1.3399  0.4526 -0.9011
  587TMC3    C6 8703   0.543   2.652  16.405 -0.8610 -0.0724  0.1453
  587TMC3     C 8704   0.221   2.510  16.597 -0.4091 -0.4473  0.2429
  587TMC3     O 8705   0.245   2.402  16.650 -0.0433 -0.2512 -0.1622
  587TMC3     H 8706   0.244   2.757  16.494  1.1758  0.2141 -0.4785
  587TMC3    H1 8707   0.472   2.418  16.638  0.4872 -0.1831  0.2751
  587TMC3    H2 8708   0.616   2.667  16.327 -0.6294 -0.8110  0.2162
  587TMC3    C7 8709   0.648   2.432  16.454 -0.3602  0.1203 -0.5711
  587TMC3    C8 8710   0.422   2.848  16.332  0.2639  0.0589  0.3100
  587TMC3    O1 8711   0.721   2.462  16.359  0.6147 -0.2276  0.2806
  587TMC3    O2 8712   0.487   2.851  16.228 -1.0740  0.2672  0.4069
  588TMC3    C1 8713   2.559   0.510   9.563 -0.4932  0.1175 -0.4391
  588TMC3    C2 8714   2.503   0.387   9.578  1.0536  1.0571 -0.3964
  588TMC3    C3 8715   2.568   0.293   9.657 -0.0097 -0.0028 -0.3386
  588TMC3    C4 8716   2.681   0.542   9.621 -0.6755  0.4569 -0.5790
  588TMC3    C5 8717   2.751   0.440   9.683 -0.0318 -0.0682  0.1722
  588TMC3    C6 8718   2.697   0.309   9.701 -0.6973  0.6555 -0.5003
  588TMC3     C 8719   2.469   0.621   9.527 -0.7014  0.0350 -0.0229
  588TMC3     O 8720   2.355   0.593   9.507  0.0094 -0.0920 -0.0148
  588TMC3     H 8721   2.400   0.368   9.552  1.9071 -1.3797 -1.9907
  588TMC3    H1 8722   2.717   0.644   9.614 -0.1420  0.3862  1.3165
  588TMC3    H2 8723   2.741   0.238   9.770  1.5942 -0.1767 -2.8309
  588TMC3    C7 8724   2.853   0.471   9.787  0.4663  0.2823 -0.3698
  588TMC3    C8 8725   2.518   0.154   9.644  0.2666  0.0603  0.4393
  588TMC3    O1 8726   2.908   0.382   9.851  0.4678  0.6531  0.0851
  588TMC3    O2 8727   2.400   0.144   9.621  0.7694 -0.3524 -0.5284
  589TMC3    C1 8728   1.699   2.613   1.118  0.1612 -0.3814  0.1587
  589TMC3    C2 8729   1.773   2.715   1.173 -0.3848 -0.4831 -0.1297
  589TMC3    C3 8730   1.902   2.688   1.205 -0.1900  0.2083  0.8638
  589TMC3    C4 8731   1.744   2.486   1.097  0.2715 -0.2841  0.5411
  589TMC3    C5 8732   1.878   2.472   1.126  0.1037 -0.2821  0.0124
  589TMC3    C6 8733   1.961   2.565   1.194 -0.2976  0.6440  0.0959
  589TMC3     C 8734   1.561   2.634   1.089  0.0772 -0.1059 -0.1171
  589TMC3     O 8735   1.505   2.566   1.008 -0.1769  0.1720 -0.4108
  589TMC3     H 8736   1.743   2.817   1.192  0.8586 -0.2294  0.4557
  589TMC3    H1 8737   1.684   2.404   1.061  0.4314  0.3548 -1.1804
  589TMC3    H2 8738   2.052   2.535   1.244 -0.8656 -3.4293 -1.2808
  589TMC3    C7 8739   1.928   2.338   1.096 -0.5278  0.4394 -0.4424
  589TMC3    C8 8740   1.969   2.768   1.306 -0.1675  0.2410  0.3670
  589TMC3    O1 8741   1.846   2.256   1.056 -0.0119  0.1697  0.2525
  589TMC3    O2 8742   1.889   2.832   1.377  0.1195  0.1370 -0.0651
  590MPD2     C 8743   1.321   1.429  16.546 -0.7668 -0.0443 -0.7291
  590MPD2    C1 8744   1.304   1.354  16.431  0.8702  1.2190  0.7319
  590MPD2    C2 8745   1.377   1.379  16.318  0.3706  0.1162 -0.3623
  590MPD2    C3 8746   1.462   1.493  16.320 -0.8364 -0.7615  0.0944
  590MPD2    C4 8747   1.482   1.572  16.437 -0.6700  0.0561  0.4172
  590MPD2    C5 8748   1.410   1.539  16.549 -0.6105 -0.5456 -1.1241
  590MPD2     H 8749   1.373   1.318  16.228  0.3294 -1.7611  0.9180
  590MPD2    H1 8750   1.533   1.668  16.445 -2.1331  0.9706 -1.1035
  590MPD2    H2 8751   1.262   1.401  16.633 -0.3093 -1.0983 -0.7509
  590MPD2    H3 8752   1.422   1.593  16.642 -0.4572 -1.8588 -0.3787
  590MPD2     N 8753   1.537   1.527  16.201 -0.5656 -0.6614  0.0885
  590MPD2    H5 8754   1.509   1.474  16.119 -0.0358  1.0289 -1.2106
  590MPD2    N1 8755   1.209   1.254  16.446  0.2779  0.0344 -0.3415
  590MPD2    H7 8756   1.151   1.245  16.529 -1.9589  2.5817 -1.6136
  591TMC3    C1 8757   1.708   1.634  16.067 -0.3474  0.4798 -0.3219
  591TMC3    C2 8758   1.679   1.559  15.958  0.3047  0.1346 -0.6284
  591TMC3    C3 8759   1.733   1.595  15.840  0.0631 -0.1382  0.0762
  591TMC3    C4 8760   1.795   1.743  16.065 -0.1683  1.0447 -0.2504
  591TMC3    C5 8761   1.861   1.766  15.948 -0.3188 -1.6394  0.0206
  591TMC3    C6 8762   1.832   1.696  15.832  0.9527 -1.0872  0.1646
  591TMC3     C 8763   1.650   1.612  16.196 -0.4321 -0.4925 -0.1854
  591TMC3     O 8764   1.706   1.661  16.295  0.8806  0.3147 -0.4715
  591TMC3     H 8765   1.620   1.469  15.972 -0.1821  0.6785  0.8182
  591TMC3    H1 8766   1.813   1.800  16.155  1.3414  0.8564 -0.4296
  591TMC3    H2 8767   1.896   1.710  15.745 -2.7337 -3.7038 -2.9705
  591TMC3    C7 8768   1.938   1.883  15.951 -0.0374  0.2979  0.4085
  591TMC3    C8 8769   1.734   1.492  15.736 -0.5903 -0.4956 -0.0229
  591TMC3    O1 8770   1.988   1.904  16.059 -0.2614 -0.2920 -0.3027
  591TMC3    O2 8771   1.691   1.384  15.766  0.0397 -0.5499 -0.1446
  592MPD2     C 8772   2.258   2.823  11.054 -0.2203  0.6026  0.6490
  592MPD2    C1 8773   2.333   2.800  11.174  0.1538 -1.1397 -0.2394
  592MPD2    C2 8774   2.308   2.687  11.254  0.2588  0.3742  0.4128
  592MPD2    C3 8775   2.212   2.594  11.207 -0.5420 -0.3369 -0.1062
  592MPD2    C4 8776   2.149   2.612  11.085 -0.3329  0.3237  0.2255
  592MPD2    C5 8777   2.171   2.725  11.007  0.3994  0.5904 -0.3624
  592MPD2     H 8778   2.361   2.666  11.347  1.7228 -1.3123 -0.7873
  592MPD2    H1 8779   2.073   2.538  11.060 -0.1333  0.5298 -0.9935
  592MPD2    H2 8780   2.258   2.912  10.991  0.5027  1.3606  1.7255
  592MPD2    H3 8781   2.117   2.738  10.914 -0.1525 -0.6094 -0.2025
  592MPD2     N 8782   2.192   2.471  11.280 -0.2547  0.2860 -0.5479
  592MPD2    H5 8783   2.237   2.468  11.370 -2.0182  1.3263  0.3627
  592MPD2    N1 8784   2.427   2.905  11.220  0.3166 -0.2461 -0.0260
  592MPD2    H7 8785   2.449   2.979  11.154  2.7098  0.6095  1.7086
  593TMC3    C1 8786   2.537   3.045  11.375 -0.4774 -0.5948  0.0277
  593TMC3    C2 8787   2.535   3.101  11.498  0.2735 -0.1037  0.1165
  593TMC3    C3 8788   2.559   3.235  11.513 -0.0436  0.0136  0.0919
  593TMC3    C4 8789   2.577   3.126  11.266  0.0942  0.5939  0.1212
  593TMC3    C5 8790   2.605   3.256  11.283  0.0495  0.3658 -0.3937
  593TMC3    C6 8791   2.580   3.317  11.407 -1.4240 -0.0345  0.2440
  593TMC3     C 8792   2.474   2.918  11.347  0.3525 -0.0094 -0.2015
  593TMC3     O 8793   2.462   2.843  11.442 -0.7169  0.2265  0.0079
  593TMC3     H 8794   2.498   3.048  11.585 -0.0131 -1.2141 -0.6823
  593TMC3    H1 8795   2.600   3.078  11.171 -1.6275  0.0585 -0.0217
  593TMC3    H2 8796   2.579   3.425  11.418  2.1848  0.0242 -0.0307
  593TMC3    C7 8797   2.673   3.325  11.170 -0.0273 -0.3932 -0.1172
  593TMC3    C8 8798   2.555   3.289  11.644  0.3454  0.3557 -0.2665
  593TMC3    O1 8799   2.741   3.422  11.203  0.1001  0.0041  0.0556
  593TMC3    O2 8800   2.471   3.251  11.721  0.2038  0.3672 -0.9406
  594MPD2     C 8801   1.044   1.512  13.922  0.3658 -0.1955 -0.0651
  594MPD2    C1 8802   0.967   1.595  13.998 -0.1131 -0.2061 -0.2493
  594MPD2    C2 8803   1.010   1.725  14.025  0.1663 -0.2847 -0.3852
  594MPD2    C3 8804   1.123   1.770  13.965 -0.2226  0.3484 -0.0974
  594MPD2    C4 8805   1.192   1.686  13.876 -0.3161 -0.2173  0.2444
  594MPD2    C5 8806   1.158   1.557  13.861  0.0373 -0.7396 -0.1456
  594MPD2     H 8807   0.959   1.802  14.080 -1.5433  0.3949 -2.9353
  594MPD2    H1 8808   1.269   1.727  13.812 -0.3800 -0.3940  0.0532
  594MPD2    H2 8809   1.006   1.413  13.896  1.7822 -0.5292 -0.8586
  594MPD2    H3 8810   1.208   1.499  13.784  0.8401 -0.2291 -0.0146
  594MPD2     N 8811   1.173   1.897  13.995  0.4497  0.6547  0.2681
  594MPD2    H5 8812   1.108   1.948  14.054  0.3677 -1.0597  1.6591
  594MPD2    N1 8813   0.841   1.545  14.039  0.7196  0.7552 -0.5312
  594MPD2    H7 8814   0.821   1.447  14.022  0.4055  0.3080  2.3349
  595TMC3    C1 8815   1.413   2.271  14.075 -0.6843 -0.6789 -0.6911
  595TMC3    C2 8816   1.410   2.151  14.012 -0.4065 -0.7009 -0.2700
  595TMC3    C3 8817   1.286   2.097  13.990 -0.1935 -0.6307 -0.5754
  595TMC3    C4 8818   1.301   2.346  14.096  0.2248  0.0963 -0.2040
  595TMC3    C5 8819   1.178   2.287  14.076 -0.5082 -0.3640 -0.5462
  595TMC3    C6 8820   1.167   2.161  14.010 -0.0818  0.1512  0.0375
  595TMC3     C 8821   1.540   2.338  14.109 -0.4338 -0.2427  0.3915
  595TMC3     O 8822   1.542   2.438  14.182  0.0069  0.3132 -0.6194
  595TMC3     H 8823   1.500   2.089  14.010 -0.3153 -0.6204  0.9780
  595TMC3    H1 8824   1.319   2.447  14.129 -0.4391 -1.0193  3.6492
  595TMC3    H2 8825   1.070   2.111  14.008  0.3139 -0.5879 -0.4913
  595TMC3    C7 8826   1.061   2.334  14.148  0.6742 -0.1362  0.1676
  595TMC3    C8 8827   1.285   1.960  13.946  0.0011  0.0686  0.4672
  595TMC3    O1 8828   0.949   2.299  14.116  0.5636  0.2804  0.6631
  595TMC3    O2 8829   1.381   1.908  13.894 -0.1563 -0.4821 -0.0187
  596MPD2     C 8830   4.472   0.000  16.746 -0.1086  0.4843  0.0960
  596MPD2    C1 8831   4.438   0.114  16.674 -0.2312  0.1324  0.7075
  596MPD2    C2 8832   4.471   0.111  16.540 -0.6081  0.0541  0.2569
  596MPD2    C3 8833   4.528   0.003  16.475  0.1474 -0.4464  0.1084
  596MPD2    C4 8834   4.550   4.613  16.552 -1.0616 -0.4269 -0.0488
  596MPD2    C5 8835   4.524   4.614  16.685 -0.5483  0.0942 -0.0553
  596MPD2     H 8836   4.453   0.201  16.483  1.6808  0.5193  0.2989
  596MPD2    H1 8837   4.596   4.525  16.509 -0.4400 -0.6814  1.1408
  596MPD2    H2 8838   4.455   4.718  16.853 -0.7888  0.4260 -0.0163
  596MPD2    H3 8839   4.553   4.538  16.757 -0.6050  0.1111 -0.0140
  596MPD2     N 8840   4.567   4.722  16.338 -0.3177  0.1719 -0.5222
  596MPD2    H5 8841   4.577   4.632  16.292  0.1156  1.1318 -2.3430
  596MPD2    N1 8842   4.400   0.236  16.731 -0.0510  0.1190 -0.6193
  596MPD2    H7 8843   4.409   0.316  16.669  0.2370  0.0973 -0.6034
  597TMC3    C1 8844   4.334   0.389  16.891  0.1118 -0.4373 -0.4534
  597TMC3    C2 8845   4.401   0.487  16.824  0.4305 -0.8510  0.4756
  597TMC3    C3 8846   4.346   0.611  16.843 -0.6723  0.1866 -0.4931
  597TMC3    C4 8847   4.223   0.413  16.975 -0.3940 -0.3268 -0.1584
  597TMC3    C5 8848   4.176   0.541  16.986  0.2109 -0.4580 -0.0228
  597TMC3    C6 8849   4.246   0.646  16.931 -0.6332 -1.0705 -0.3575
  597TMC3     C 8850   4.363   0.253  16.860  0.4069 -0.2146  0.1252
  597TMC3     O 8851   4.325   0.167  16.936 -0.6420  0.3907 -0.0765
  597TMC3     H 8852   4.486   0.467  16.760  1.3042 -0.3910  1.4964
  597TMC3    H1 8853   4.173   0.320  17.001 -0.0646 -0.4582  0.0037
  597TMC3    H2 8854   4.213   0.749  16.936  0.3275 -0.8355  1.0476
  597TMC3    C7 8855   4.072   0.576  17.075 -0.0408  0.2087 -0.0554
  597TMC3    C8 8856   4.428   0.718  16.796 -0.0291  0.1955 -0.1652
  597TMC3    O1 8857   4.056   0.494  17.162 -0.6680 -0.3841  1.0066
  597TMC3    O2 8858   4.437   0.810  16.875  0.2894 -0.5018  0.1450
  598TMC3    C1 8859   2.553   1.389  15.231  0.6442 -0.0990 -0.3200
  598TMC3    C2 8860   2.436   1.464  15.206  0.0563  0.3318  0.0747
  598TMC3    C3 8861   2.460   1.600  15.186  0.7091  0.0016 -0.0660
  598TMC3    C4 8862   2.675   1.446  15.211 -0.8907  0.0934 -0.4217
  598TMC3    C5 8863   2.694   1.583  15.186 -0.0079 -0.2222 -0.3289
  598TMC3    C6 8864   2.582   1.658  15.188 -0.4520 -0.0741  0.4164
  598TMC3     C 8865   2.537   1.305  15.349 -0.1892  0.6229  0.1128
  598TMC3     O 8866   2.420   1.285  15.377  0.5109  0.1352 -0.0993
  598TMC3     H 8867   2.336   1.422  15.202  0.4712 -0.6795  0.2440
  598TMC3    H1 8868   2.763   1.382  15.208 -0.3286  0.8544 -0.4490
  598TMC3    H2 8869   2.597   1.765  15.181  2.1734 -0.3846  1.6469
  598TMC3    C7 8870   2.828   1.634  15.199 -0.8102 -0.0668  0.1706
  598TMC3    C8 8871   2.351   1.690  15.150  0.1467 -0.1937 -0.5451
  598TMC3    O1 8872   2.922   1.554  15.227 -0.0142 -0.2309 -0.1766
  598TMC3    O2 8873   2.383   1.807  15.138  0.3394  0.0360  0.1419
  599MPD2     C 8874   2.866   4.112  15.863 -0.0862  0.9807  0.3414
  599MPD2    C1 8875   2.824   3.976  15.875 -0.7917  0.0764  0.6449
  599MPD2    C2 8876   2.700   3.948  15.939 -0.0139 -0.5187 -0.2206
  599MPD2    C3 8877   2.639   4.045  16.014  0.0913  0.6853 -0.0304
  599MPD2    C4 8878   2.683   4.175  16.003 -0.7384 -0.3041  0.4411
  599MPD2    C5 8879   2.791   4.208  15.926  0.2570  0.0797 -0.4573
  599MPD2     H 8880   2.660   3.848  15.927  1.1631 -1.1386  1.0498
  599MPD2    H1 8881   2.630   4.258  16.049 -0.2832 -0.9600  2.1576
  599MPD2    H2 8882   2.951   4.139  15.801 -0.7423 -0.4553 -1.1631
  599MPD2    H3 8883   2.818   4.312  15.923  3.5805 -0.7681  0.2045
  599MPD2     N 8884   2.528   4.030  16.099 -0.6937 -0.0085 -0.6617
  599MPD2    H5 8885   2.498   4.110  16.154  0.2437  0.1523 -0.3847
  599MPD2    N1 8886   2.908   3.871  15.829 -0.2993  0.3009  0.7226
  599MPD2    H7 8887   2.996   3.908  15.793 -0.3655 -1.2030 -0.9630
  600TMC3    C1 8888   2.343   3.922  16.200  0.2561 -0.0181 -0.2900
  600TMC3    C2 8889   2.269   3.807  16.225 -0.6314 -0.0307 -0.7286
  600TMC3    C3 8890   2.185   3.806  16.326 -0.4769  0.0129  0.3574
  600TMC3    C4 8891   2.330   4.031  16.289  0.8696 -0.0510  0.1966
  600TMC3    C5 8892   2.247   4.018  16.393 -0.0219  0.1778 -0.0026
  600TMC3    C6 8893   2.164   3.907  16.409  0.4163  0.2101  0.0340
  600TMC3     C 8894   2.443   3.922  16.092 -0.1035 -0.0379  0.1058
  600TMC3     O 8895   2.435   3.821  16.022 -0.0040 -0.8575 -0.1957
  600TMC3     H 8896   2.287   3.723  16.159 -2.9773 -0.4615 -0.8194
  600TMC3    H1 8897   2.372   4.126  16.257  0.9683 -0.1798 -0.0513
  600TMC3    H2 8898   2.108   3.902  16.502  1.1160  1.5955  0.5385
  600TMC3    C7 8899   2.222   4.128  16.481 -0.4467 -0.0235 -0.3388
  600TMC3    C8 8900   2.100   3.689  16.340 -0.1361  0.3122 -0.3564
  600TMC3    O1 8901   2.142   4.107  16.570 -0.5050  0.0029 -0.3874
  600TMC3    O2 8902   2.162   3.584  16.338 -0.3037  0.5699  0.2282
  601MPD2     C 8903   4.582   2.173  17.594 -0.4070  0.0925 -0.4283
  601MPD2    C1 8904   4.450   2.126  17.579  0.7449  0.3414 -0.0420
  601MPD2    C2 8905   4.433   1.985  17.580  0.5595 -0.4546 -0.0223
  601MPD2    C3 8906   4.539   1.902  17.576 -0.9624  0.4790  0.6704
  601MPD2    C4 8907   4.672   1.951  17.592  0.1031  0.0203 -0.2276
  601MPD2    C5 8908   4.692   2.091  17.601  0.2705  0.0638 -0.0528
  601MPD2     H 8909   4.332   1.951  17.558  0.5401 -1.3994  1.5144
  601MPD2    H1 8910   0.039   1.891  17.600  0.2190 -0.0979 -2.1938
  601MPD2    H2 8911   4.592   2.281  17.584 -2.0434  0.3710  0.8938
  601MPD2    H3 8912   0.066   2.137  17.620  0.8623 -0.8414 -0.8752
  601MPD2     N 8913   4.532   1.761  17.548 -0.2168 -0.0196 -0.1169
  601MPD2    H5 8914   4.615   1.704  17.539 -0.7163 -0.5517 -1.2440
  601MPD2    N1 8915   4.338   2.206  17.546 -0.2788  0.0702  0.0441
  601MPD2    H7 8916   4.253   2.153  17.530  0.6198 -1.6297  0.8934
  602TMC3    C1 8917   4.205   2.403  17.495 -0.1221  0.9519 -0.7412
  602TMC3    C2 8918   4.197   2.540  17.508 -0.1199 -0.7183 -0.1349
  602TMC3    C3 8919   4.087   2.598  17.454  0.2539  0.2498  0.0152
  602TMC3    C4 8920   4.123   2.325  17.421  0.4990 -0.5166 -0.1730
  602TMC3    C5 8921   4.015   2.392  17.363  0.0497 -0.2514  0.0394
  602TMC3    C6 8922   4.012   2.531  17.365 -0.0141 -0.4636  1.0629
  602TMC3     C 8923   4.333   2.346  17.536  0.3079 -0.2673  0.6838
  602TMC3     O 8924   4.422   2.426  17.554  0.1897  0.4447 -0.1935
  602TMC3     H 8925   4.257   2.599  17.576 -0.0607 -1.7830  0.7336
  602TMC3    H1 8926   4.143   2.219  17.419 -1.2958 -0.8508  0.0549
  602TMC3    H2 8927   3.945   2.589  17.302  1.1696  0.2880  0.5121
  602TMC3    C7 8928   3.941   2.318  17.261 -1.3079 -0.2823  0.3649
  602TMC3    C8 8929   4.087   2.745  17.454 -0.4042  0.1782  0.5899
  602TMC3    O1 8930   3.987   2.215  17.213  0.0566 -0.2241  0.4635
  602TMC3    O2 8931   4.192   2.803  17.476  0.8412 -0.8495  0.2007
  603TMC3    C1 8932   3.143   2.634  11.051  0.4794 -0.6467  0.1246
  603TMC3    C2 8933   3.213   2.581  11.155 -0.5897  0.1878  0.8453
  603TMC3    C3 8934   3.335   2.618  11.182  0.1112  0.9364 -0.7052
  603TMC3    C4 8935   3.188   2.739  10.977 -0.1474  0.0329 -0.1367
  603TMC3    C5 8936   3.323   2.766  10.998  0.5540  0.5104 -0.4066
  603TMC3    C6 8937   3.392   2.723  11.111 -0.8588  0.8308  0.2784
  603TMC3     C 8938   3.018   2.568  11.019 -0.3359  0.4535  0.0085
  603TMC3     O 8939   2.962   2.504  11.107 -0.0552 -0.0094 -0.1574
  603TMC3     H 8940   3.172   2.500  11.214  1.0390 -2.2502 -1.3520
  603TMC3    H1 8941   3.129   2.799  10.909 -0.2548  1.2355  1.0125
  603TMC3    H2 8942   3.500   2.731  11.098 -0.5931  1.9186  3.2144
  603TMC3    C7 8943   3.376   2.887  10.934  0.8325 -0.3620  0.4655
  603TMC3    C8 8944   3.415   2.545  11.278  0.2697 -0.9817 -0.2104
  603TMC3    O1 8945   3.452   2.950  10.999  0.1072  0.4612  0.3365
  603TMC3    O2 8946   3.368   2.439  11.323  0.2449 -0.6265 -0.1347
  604MPD2     C 8947   3.611   1.457  16.258 -0.8814 -0.0946 -0.0186
  604MPD2    C1 8948   3.497   1.383  16.220 -0.8663 -0.3779  0.0540
  604MPD2    C2 8949   3.512   1.297  16.112 -0.0211  0.1531 -0.5519
  604MPD2    C3 8950   3.630   1.278  16.044  0.2562 -0.1319 -0.1092
  604MPD2    C4 8951   3.738   1.362  16.079  0.1063 -0.3397 -0.0092
  604MPD2    C5 8952   3.731   1.434  16.193 -0.0144  0.1581  0.0174
  604MPD2     H 8953   3.427   1.242  16.076 -1.2606  0.1625  2.3517
  604MPD2    H1 8954   3.834   1.368  16.029  1.1210 -0.8025  1.8723
  604MPD2    H2 8955   3.604   1.520  16.346 -2.3107  0.0853 -0.2652
  604MPD2    H3 8956   3.819   1.484  16.233 -0.5629  1.6538 -0.6235
  604MPD2     N 8957   3.637   1.192  15.930  0.1463 -1.2319  0.2474
  604MPD2    H5 8958   3.548   1.149  15.906 -0.3257 -0.7678  1.1511
  604MPD2    N1 8959   3.377   1.407  16.293  0.6451  0.1272  0.2280
  604MPD2    H7 8960   3.379   1.477  16.367  1.6301 -0.0427  0.3585
  605TMC3    C1 8961   3.155   1.417  16.356  0.9194 -0.2569 -0.0611
  605TMC3    C2 8962   3.200   1.493  16.460  0.0161 -0.2471 -0.3486
  605TMC3    C3 8963   3.154   1.616  16.478  0.4961  0.7926 -0.1799
  605TMC3    C4 8964   3.049   1.445  16.279 -0.1267 -0.3213 -0.3759
  605TMC3    C5 8965   2.998   1.575  16.296  0.7441 -0.3426  0.4479
  605TMC3    C6 8966   3.051   1.660  16.396  0.0732  0.2444  0.0336
  605TMC3     C 8967   3.255   1.344  16.278  0.9088 -0.3562 -0.0649
  605TMC3     O 8968   3.226   1.251  16.204 -0.1680 -0.6093 -0.3999
  605TMC3     H 8969   3.287   1.460  16.515  0.1288  1.3667  0.4606
  605TMC3    H1 8970   3.022   1.379  16.198  2.7440 -2.1955  0.2145
  605TMC3    H2 8971   3.019   1.763  16.388  1.9972  0.8633  0.3969
  605TMC3    C7 8972   2.885   1.624  16.218  0.0224  0.9629 -0.1334
  605TMC3    C8 8973   3.264   1.704  16.516 -0.1964  0.4904 -0.1293
  605TMC3    O1 8974   2.862   1.745  16.224  0.3227 -0.3593 -0.1446
  605TMC3    O2 8975   3.375   1.658  16.495 -0.0930  0.0273  0.4522
  606TMC3    C1 8976   3.977   0.068   0.653 -0.4872  0.4103  1.3046
  606TMC3    C2 8977   4.001   4.694   0.743 -0.5903  0.2996 -0.4278
  606TMC3    C3 8978   4.098   4.604   0.709  0.2604 -0.1684 -0.6934
  606TMC3    C4 8979   4.039   0.075   0.531  0.1082 -0.1509 -0.4314
  606TMC3    C5 8980   4.132   4.706   0.499 -0.7871  1.8444  0.2263
  606TMC3    C6 8981   4.161   4.606   0.585 -0.1467  0.3994  0.0459
  606TMC3     C 8982   3.849   0.141   0.662 -0.0077 -0.1992 -0.0683
  606TMC3     O 8983   3.770   0.096   0.746  0.0330 -0.3812  0.0432
  606TMC3     H 8984   3.941   4.687   0.832 -2.7679  0.2090 -1.8976
  606TMC3    H1 8985   3.988   0.134   0.456 -1.1416 -0.2421  0.3396
  606TMC3    H2 8986   4.235   4.532   0.559  2.0014  2.7425 -0.5725
  606TMC3    C7 8987   4.173   4.690   0.362 -0.4430  0.2236 -0.4739
  606TMC3    C8 8988   4.156   4.504   0.799 -0.4647  0.5219 -0.3813
  606TMC3    O1 8989   4.195   0.064   0.287  0.5544 -0.5572  0.2448
  606TMC3    O2 8990   4.202   4.406   0.744 -0.0394  0.3311  0.0865
  607MPD2     C 8991   2.491   2.206  11.271  0.1631 -0.8378 -0.5252
  607MPD2    C1 8992   2.542   2.290  11.368 -0.0318 -0.3284  0.0694
  607MPD2    C2 8993   2.547   2.247  11.496 -0.3558 -0.0808 -0.5956
  607MPD2    C3 8994   2.498   2.129  11.539  0.7123  0.0523  0.0277
  607MPD2    C4 8995   2.448   2.041  11.446  0.2966  0.2801  0.1705
  607MPD2    C5 8996   2.452   2.080  11.313  0.3141  0.4085  0.0536
  607MPD2     H 8997   2.593   2.309  11.572  0.2738 -1.3449  0.0641
  607MPD2    H1 8998   2.418   1.940  11.472 -1.7595  0.8915  0.1860
  607MPD2    H2 8999   2.503   2.225  11.165 -3.0057 -0.6236 -0.8363
  607MPD2    H3 9000   2.411   2.011  11.241  0.6794  0.9980 -0.7256
  607MPD2     N 9001   2.495   2.104  11.678 -0.7030  0.0446  0.2295
  607MPD2    H5 9002   2.522   2.187  11.730  1.9911 -0.2017 -0.7419
  607MPD2    N1 9003   2.611   2.408  11.343  0.1484 -0.2068  0.7438
  607MPD2    H7 9004   2.646   2.459  11.424 -2.5970  1.8077  0.6642
  608TMC3    C1 9005   2.707   2.597  11.250  0.1304 -1.0062  0.0048
  608TMC3    C2 9006   2.787   2.601  11.354 -0.0991  0.1439  0.1001
  608TMC3    C3 9007   2.854   2.717  11.387  0.4556 -0.4548  0.2340
  608TMC3    C4 9008   2.702   2.698  11.159  0.8967  0.7474 -0.3249
  608TMC3    C5 9009   2.756   2.816  11.203 -0.5906 -0.3079 -0.2515
  608TMC3    C6 9010   2.840   2.826  11.315 -0.2204  0.3414  0.1205
  608TMC3     C 9011   2.632   2.476  11.224  0.0183 -0.1885 -0.0311
  608TMC3     O 9012   2.581   2.446  11.117 -0.0126 -0.7435  0.2428
  608TMC3     H 9013   2.810   2.509  11.407 -4.5024 -0.3264  1.2080
  608TMC3    H1 9014   2.633   2.696  11.076  0.2452 -2.0210  0.2920
  608TMC3    H2 9015   2.860   2.921  11.363 -0.8539  0.8783 -0.6768
  608TMC3    C7 9016   2.803   2.900  11.092 -0.1470 -0.1069 -1.3389
  608TMC3    C8 9017   2.915   2.716  11.517  0.1125 -0.2204  0.1468
  608TMC3    O1 9018   2.723   2.917  10.999 -0.3135 -0.5709 -0.4107
  608TMC3    O2 9019   3.028   2.768  11.535  0.1672 -0.1269 -0.8106
  609TMC3    C1 9020   1.867   2.251   9.186 -0.2954  0.2528 -0.5670
  609TMC3    C2 9021   1.981   2.318   9.152 -1.1830  0.0364  0.3018
  609TMC3    C3 9022   2.103   2.259   9.164  0.2272 -0.2519  0.0375
  609TMC3    C4 9023   1.876   2.128   9.245 -0.2367  0.4691  0.0223
  609TMC3    C5 9024   1.995   2.071   9.253 -0.7405 -0.1881  0.4032
  609TMC3    C6 9025   2.109   2.134   9.221 -0.0751 -0.1202  0.2108
  609TMC3     C 9026   1.740   2.317   9.213 -0.0088  0.0384 -0.0968
  609TMC3     O 9027   1.649   2.243   9.254 -0.1201  1.1545 -0.4672
  609TMC3     H 9028   1.968   2.406   9.089 -0.0002 -2.3270 -3.2951
  609TMC3    H1 9029   1.786   2.078   9.278  0.4492  0.4554  1.8694
  609TMC3    H2 9030   2.204   2.082   9.233  0.2409  0.6334  0.9763
  609TMC3    C7 9031   1.992   1.970   9.360  0.5002 -0.6494  0.6408
  609TMC3    C8 9032   2.213   2.291   9.076 -0.1028  0.3487 -0.3333
  609TMC3    O1 9033   1.883   1.948   9.412  0.1892 -0.0278 -0.1398
  609TMC3    O2 9034   2.287   2.203   9.032  0.1226  0.4794 -0.3395
  610TMC3    C1 9035   2.948   2.285  12.354  0.1003 -0.0517 -0.2255
  610TMC3    C2 9036   2.991   2.286  12.225 -0.2055  0.7839 -0.2611
  610TMC3    C3 9037   3.122   2.268  12.208 -0.4326  0.5138 -0.8029
  610TMC3    C4 9038   3.028   2.257  12.463 -0.4530 -0.1269  0.3775
  610TMC3    C5 9039   3.161   2.245  12.434 -0.2290 -0.0037 -0.1471
  610TMC3    C6 9040   3.210   2.250  12.314  0.0475  1.0681 -0.4320
  610TMC3     C 9041   2.802   2.300  12.367 -0.8097 -0.5072 -0.1235
  610TMC3     O 9042   2.752   2.377  12.283  0.1822 -0.4589  0.2711
  610TMC3     H 9043   2.917   2.303  12.148 -0.6633 -2.1260 -0.4727
  610TMC3    H1 9044   2.984   2.261  12.561 -2.4843 -1.0650 -0.4957
  610TMC3    H2 9045   3.306   2.206  12.290  0.4327  1.2864  0.6840
  610TMC3    C7 9046   3.251   2.211  12.541 -0.1455  0.7985  0.2565
  610TMC3    C8 9047   3.170   2.305  12.075 -0.3782 -0.2379  0.1508
  610TMC3    O1 9048   3.212   2.127  12.622  0.2059  0.4640 -0.2044
  610TMC3    O2 9049   3.279   2.358  12.065  0.7934 -0.1263  0.0755
  611MPD2     C 9050   2.747   2.659   9.794 -0.3922 -0.2362  0.1615
  611MPD2    C1 9051   2.698   2.731   9.899 -0.8879 -0.1656 -0.0281
  611MPD2    C2 9052   2.762   2.850   9.929 -0.0999  0.2228  0.0330
  611MPD2    C3 9053   2.856   2.906   9.847 -0.3182 -0.6595  0.4862
  611MPD2    C4 9054   2.907   2.831   9.747 -0.7393 -0.4953 -0.1879
  611MPD2    C5 9055   2.856   2.709   9.726 -0.4361  0.1904  0.3706
  611MPD2     H 9056   2.730   2.906  10.017  1.2474 -0.9452  1.2759
  611MPD2    H1 9057   2.986   2.861   9.679 -2.3548 -0.1700 -1.9201
  611MPD2    H2 9058   2.702   2.564   9.766  0.5971  0.3275 -3.3952
  611MPD2    H3 9059   2.891   2.656   9.639 -0.1312 -0.0300  0.6280
  611MPD2     N 9060   2.930   3.026   9.883 -0.6126 -0.0922 -0.0260
  611MPD2    H5 9061   2.984   3.074   9.812  0.3398 -0.4391  0.4628
  611MPD2    N1 9062   2.587   2.683   9.969 -0.1082  0.0030 -0.5213
  611MPD2    H7 9063   2.566   2.589   9.939  0.6535 -0.0121 -1.0201
  612TMC3    C1 9064   3.044   3.170  10.033  0.6925  0.3248 -0.0072
  612TMC3    C2 9065   3.111   3.173  10.151  0.1068 -0.2699 -0.3742
  612TMC3    C3 9066   3.224   3.247  10.163  0.2336 -0.4240  0.1046
  612TMC3    C4 9067   3.070   3.256   9.931  0.8129  0.2296 -0.3178
  612TMC3    C5 9068   3.166   3.348   9.956  0.4330  0.3708  0.6114
  612TMC3    C6 9069   3.248   3.343  10.068  0.1664 -0.2098 -0.3511
  612TMC3     C 9070   2.935   3.079  10.014 -0.2967  0.1631  0.1678
  612TMC3     O 9071   2.880   3.037  10.117  0.1071 -0.3147  0.3007
  612TMC3     H 9072   3.076   3.118  10.238 -0.6742  0.8800  0.0411
  612TMC3    H1 9073   2.988   3.273   9.862 -0.5031  0.0408  1.2065
  612TMC3    H2 9074   3.330   3.413  10.077  0.2613 -0.4087  0.3238
  612TMC3    C7 9075   3.205   3.445   9.854 -0.0484 -0.1210  0.6449
  612TMC3    C8 9076   3.309   3.249  10.282 -0.1594  0.2611  0.6298
  612TMC3    O1 9077   3.268   3.542   9.897 -0.4717 -0.4114  0.3410
  612TMC3    O2 9078   3.372   3.353  10.295  0.2748 -0.4222 -0.2598
  613MPD2     C 9079   1.060   4.538  16.862  0.3225 -0.1448  0.3928
  613MPD2    C1 9080   1.029   4.607  16.752  0.0888 -0.4887 -0.2258
  613MPD2    C2 9081   0.894   4.622  16.718 -0.4015 -0.1522  0.3381
  613MPD2    C3 9082   0.797   4.579  16.804 -0.8157 -0.4095  0.4139
  613MPD2    C4 9083   0.827   4.506  16.920 -0.2639 -0.8186 -0.2672
  613MPD2    C5 9084   0.961   4.490  16.950 -0.3715 -0.9050 -0.4035
  613MPD2     H 9085   0.869   4.666  16.622 -0.2149 -0.8335 -0.0239
  613MPD2    H1 9086   0.760   4.469  16.997  3.3643 -1.9596  2.3233
  613MPD2    H2 9087   1.161   4.504  16.876  0.7400  0.3744 -1.2835
  613MPD2    H3 9088   0.993   4.438  17.039  0.6483 -0.4650 -0.5207
  613MPD2     N 9089   0.662   4.569  16.762  0.1084  0.5010  0.4750
  613MPD2    H5 9090   0.598   4.501  16.802 -1.5717  0.2109 -2.6412
  613MPD2    N1 9091   1.127   4.635  16.656  0.2714 -0.3289  0.1626
  613MPD2    H7 9092   1.223   4.604  16.667  0.2182 -0.6469 -0.2942
  614TMC3    C1 9093   1.193   4.685  16.441 -0.2586  0.3516 -0.1825
  614TMC3    C2 9094   1.178   4.553  16.401 -0.7170  0.4287  0.1644
  614TMC3    C3 9095   1.169   4.536  16.265  0.1808  0.7920  0.8235
  614TMC3    C4 9096   1.206   0.068  16.358 -0.7528  0.1171  0.0741
  614TMC3    C5 9097   1.192   0.047  16.224 -0.0193  0.3660 -0.0073
  614TMC3    C6 9098   1.178   4.637  16.174  0.8246  0.7519  0.2530
  614TMC3     C 9099   1.114   4.721  16.551  0.3248  0.0656 -0.2772
  614TMC3     O 9100   1.032   0.091  16.535  0.3478 -0.5662  0.0888
  614TMC3     H 9101   1.172   4.472  16.473  0.3500  2.8140  2.9190
  614TMC3    H1 9102   1.227   0.162  16.407  0.0041  0.2667 -0.5274
  614TMC3    H2 9103   1.179   4.624  16.066  1.2596 -0.9100  0.4675
  614TMC3    C7 9104   1.256   0.149  16.151  0.3717 -0.0502 -0.2508
  614TMC3    C8 9105   1.075   4.430  16.237  1.0468 -0.1097  0.0617
  614TMC3    O1 9106   1.350   0.205  16.207 -0.7183  0.3048  0.3132
  614TMC3    O2 9107   1.057   4.345  16.321 -0.3234 -0.0948 -0.5130
  615MPD2     C 9108   0.410   1.955  16.389 -0.1118 -0.6176 -0.2672
  615MPD2    C1 9109   0.450   1.993  16.267  0.1526 -0.1265  0.0208
  615MPD2    C2 9110   0.515   1.902  16.184 -0.4749  0.3869 -0.1002
  615MPD2    C3 9111   0.499   1.771  16.224 -0.3942  0.2656 -0.1405
  615MPD2    C4 9112   0.442   1.728  16.345  0.3798  0.0510 -0.1860
  615MPD2    C5 9113   0.413   1.826  16.433  0.4450 -0.1335  0.7337
  615MPD2     H 9114   0.570   1.951  16.105 -2.3207  0.3123 -1.4281
  615MPD2    H1 9115   0.444   1.626  16.380 -1.2914 -0.5505 -1.8947
  615MPD2    H2 9116   0.387   2.035  16.458  0.0468 -0.3167 -0.5652
  615MPD2    H3 9117   0.375   1.803  16.532 -1.1455 -0.3507  0.0792
  615MPD2     N 9118   0.534   1.666  16.134  0.2480  0.0200 -0.0887
  615MPD2    H5 9119   0.529   1.569  16.165  2.7036 -0.0750  0.0174
  615MPD2    N1 9120   0.447   2.133  16.225 -0.0636 -0.0377  0.2923
  615MPD2    H7 9121   0.504   2.168  16.148  1.7361 -0.8731  1.2562
  616TMC3    C1 9122   0.378   2.349  16.216 -0.5141 -0.0918 -0.6590
  616TMC3    C2 9123   0.493   2.393  16.155 -0.1829 -0.6463 -0.1480
  616TMC3    C3 9124   0.496   2.515  16.091  0.4394 -0.6745  0.7465
  616TMC3    C4 9125   0.265   2.426  16.218 -0.3773 -0.4924  0.6471
  616TMC3    C5 9126   0.263   2.542  16.148  0.0348 -0.2286  0.2635
  616TMC3    C6 9127   0.377   2.582  16.076 -0.1849  0.4883 -0.3099
  616TMC3     C 9128   0.367   2.226  16.288  0.6785 -0.0654 -0.4106
  616TMC3     O 9129   0.258   2.209  16.341 -0.6829  0.6778 -1.1336
  616TMC3     H 9130   0.580   2.331  16.173 -0.1609 -0.0408  1.8192
  616TMC3    H1 9131   0.178   2.398  16.276 -0.6625  0.2507  0.5795
  616TMC3    H2 9132   0.375   2.662  16.003  1.7695 -0.1430 -1.0202
  616TMC3    C7 9133   0.136   2.615  16.139 -0.3307 -0.0629 -0.0874
  616TMC3    C8 9134   0.613   2.573  16.019 -0.2100  1.0030 -0.5475
  616TMC3    O1 9135   0.036   2.560  16.180 -0.3288 -0.2414  0.0804
  616TMC3    O2 9136   0.595   2.672  15.944  0.8732 -0.1670  0.7013
  617MPD2     C 9137   3.298   4.331  13.713 -0.8221  0.3939 -0.4640
  617MPD2    C1 9138   3.355   4.337  13.834 -0.6730 -0.4394  0.5684
  617MPD2    C2 9139   3.279   4.311  13.948  0.3589 -0.2820 -0.7887
  617MPD2    C3 9140   3.145   4.267  13.934  0.0389  0.6955 -0.7541
  617MPD2    C4 9141   3.088   4.269  13.803  0.4523  0.6543 -0.1816
  617MPD2    C5 9142   3.169   4.298  13.697  0.7853 -0.5245 -1.0402
  617MPD2     H 9143   3.330   4.312  14.044  0.6621  1.2323 -0.9552
  617MPD2    H1 9144   2.988   4.231  13.781  0.4474 -0.5027  1.7971
  617MPD2    H2 9145   3.358   4.349  13.625  0.1814 -1.1772 -0.0907
  617MPD2    H3 9146   3.133   4.292  13.595  1.3945  0.6119 -1.3330
  617MPD2     N 9147   3.074   4.214  14.038 -0.2326 -0.4286 -0.3475
  617MPD2    H5 9148   2.986   4.171  14.014 -0.5349 -0.8020  1.4569
  617MPD2    N1 9149   3.494   4.375  13.845 -0.6735 -0.2182 -0.0399
  617MPD2    H7 9150   3.534   4.391  13.753 -0.1535  3.4808  0.8466
  618TMC3    C1 9151   3.712   4.431  13.906 -0.1572 -0.0966  0.5324
  618TMC3    C2 9152   3.816   4.393  13.989 -0.3788  0.1155  0.0258
  618TMC3    C3 9153   3.939   4.376  13.937  0.6455 -0.6078  0.5827
  618TMC3    C4 9154   3.738   4.470  13.777 -0.0507 -0.2691  0.2584
  618TMC3    C5 9155   3.869   4.469  13.736 -0.1427  0.3731  0.7440
  618TMC3    C6 9156   3.977   4.422  13.809  0.4098 -0.3096 -1.3515
  618TMC3     C 9157   3.576   4.400  13.954  0.5381  0.8219 -0.5410
  618TMC3     O 9158   3.560   4.373  14.073  0.2244 -0.4148  0.3908
  618TMC3     H 9159   3.799   4.353  14.089  1.2184 -1.3092 -0.2787
  618TMC3    H1 9160   3.665   4.499  13.702  0.8869 -0.0592 -0.5765
  618TMC3    H2 9161   4.080   4.416  13.775  2.2568  0.2939  4.1643
  618TMC3    C7 9162   3.877   4.485  13.586 -0.5846 -0.0216 -0.5809
  618TMC3    C8 9163   4.045   4.339  14.030  0.2292 -0.5060 -0.2054
  618TMC3    O1 9164   3.774   4.471  13.520 -0.1023 -1.0765 -0.0262
  618TMC3    O2 9165   4.018   4.366  14.145  0.3011  0.4497  0.0446
  619MPD2     C 9166   0.179   0.829  13.824  0.0027 -0.4471  0.1249
  619MPD2    C1 9167   0.085   0.840  13.723  0.5029 -0.0443  0.5789
  619MPD2    C2 9168   4.706   0.748  13.730  0.0185  0.0960  0.3382
  619MPD2    C3 9169   4.703   0.653  13.831  0.5217 -0.2472  0.6537
  619MPD2    C4 9170   0.071   0.645  13.936  0.4349  0.0687  0.0304
  619MPD2    C5 9171   0.175   0.738  13.931 -0.1440  0.1073 -0.1399
  619MPD2     H 9172   4.624   0.754  13.660 -0.9249  3.3866  1.7261
  619MPD2    H1 9173   0.067   0.561  14.004  0.7853 -0.1820 -0.2567
  619MPD2    H2 9174   0.243   0.915  13.834  0.0907 -0.2246 -2.3494
  619MPD2    H3 9175   0.236   0.717  14.018 -0.6318  1.8457  0.6112
  619MPD2     N 9176   4.588   0.574  13.842 -0.7240  0.4621 -0.6211
  619MPD2    H5 9177   4.554   0.535  13.929 -1.6905 -1.3561 -1.8228
  619MPD2    N1 9178   0.072   0.954  13.634  0.4589  0.4787 -0.3871
  619MPD2    H7 9179   4.708   0.972  13.583 -0.0211  0.7732  0.5269
  620TMC3    C1 9180   0.125   1.173  13.548  0.4707 -0.0595 -0.0865
  620TMC3    C2 9181   4.717   1.212  13.576  0.9134  1.4303 -0.1405
  620TMC3    C3 9182   4.679   1.344  13.580  0.0401 -0.2271  0.4118
  620TMC3    C4 9183   0.221   1.266  13.520 -0.2192  0.3534  0.8278
  620TMC3    C5 9184   0.180   1.398  13.528 -0.3730 -0.3645  0.6792
  620TMC3    C6 9185   0.052   1.435  13.558  0.2575 -0.2786  0.7605
  620TMC3     C 9186   0.169   1.047  13.615 -0.0931 -0.5983  0.0799
  620TMC3     O 9187   0.284   1.036  13.649 -0.6599 -0.5693  0.2858
  620TMC3     H 9188   4.644   1.145  13.619  2.2227 -1.3271 -2.1828
  620TMC3    H1 9189   0.326   1.238  13.522 -0.7972 -1.9027 -0.0551
  620TMC3    H2 9190   0.032   1.542  13.555 -2.2349 -0.7234  1.6212
  620TMC3    C7 9191   0.244   1.473  13.420 -0.2863  0.5873 -0.7318
  620TMC3    C8 9192   4.541   1.374  13.552  0.0226  0.2715  0.9982
  620TMC3    O1 9193   0.181   1.461  13.316 -0.1183  0.0022 -0.1164
  620TMC3    O2 9194   4.502   1.490  13.578 -0.4947  0.1423  0.0711
  621MPD2     C 9195   0.325   0.807  10.182  0.0376  0.1227 -0.1399
  621MPD2    C1 9196   0.381   0.909  10.115 -0.2477  0.6018 -0.2158
  621MPD2    C2 9197   0.512   0.944  10.132  0.2462 -1.0668  0.1052
  621MPD2    C3 9198   0.590   0.873  10.219  0.1176  0.4193 -0.1755
  621MPD2    C4 9199   0.530   0.768  10.286 -0.2622  0.1651 -0.0777
  621MPD2    C5 9200   0.401   0.733  10.268 -0.1236  0.6887  0.6726
  621MPD2     H 9201   0.559   1.022  10.073 -0.2054 -1.0064 -0.1734
  621MPD2    H1 9202   0.593   0.705  10.348 -2.9422 -1.1533  1.3251
  621MPD2    H2 9203   0.227   0.764  10.163 -0.2649  0.4853  0.6014
  621MPD2    H3 9204   0.370   0.657  10.339 -0.2887  0.7387  0.6537
  621MPD2     N 9205   0.726   0.917  10.227 -0.2923 -0.0722 -0.1328
  621MPD2    H5 9206   0.744   1.008  10.186  1.1745  0.1976  1.1253
  621MPD2    N1 9207   0.316   0.978  10.018 -0.5224 -0.0030  0.5798
  621MPD2    H7 9208   0.373   1.023   9.949 -0.4482 -0.4141  0.3738
  622TMC3    C1 9209   0.145   1.078   9.891  0.4551 -0.5323  0.2652
  622TMC3    C2 9210   0.039   1.161   9.910 -0.2907 -0.4657  0.5892
  622TMC3    C3 9211   0.015   1.251   9.812 -0.4744 -0.7710 -0.7231
  622TMC3    C4 9212   0.235   1.097   9.780 -0.2336 -0.2560  0.2486
  622TMC3    C5 9213   0.202   1.185   9.685  0.1630  0.2525 -0.4401
  622TMC3    C6 9214   0.092   1.265   9.697  0.2242  0.5425 -0.8885
  622TMC3     C 9215   0.185   0.992  10.004 -0.2181 -0.4290  0.0419
  622TMC3     O 9216   0.099   0.938  10.067  0.2455 -0.0966  0.3061
  622TMC3     H 9217   4.698   1.141   9.995  0.5451 -1.1146  1.0666
  622TMC3    H1 9218   0.328   1.041   9.776  0.6061  1.1513  0.3043
  622TMC3    H2 9219   0.056   1.333   9.621  0.3209  0.5143 -0.9603
  622TMC3    C7 9220   0.315   1.233   9.602  0.1812 -0.0044 -0.3903
  622TMC3    C8 9221   4.635   1.343   9.840  0.3149 -0.5087  0.6750
  622TMC3    O1 9222   0.424   1.183   9.613  0.1046  0.1045  0.6606
  622TMC3    O2 9223   4.534   1.305   9.900 -0.2967  0.5168 -0.6473
  623MPD2     C 9224   3.758   1.675  15.762 -0.4635 -0.1585  0.6973
  623MPD2    C1 9225   3.691   1.659  15.878  0.1597  0.2943  0.4559
  623MPD2    C2 9226   3.724   1.737  15.987  0.7491  0.6932  0.4224
  623MPD2    C3 9227   3.818   1.836  15.980  0.4523  0.6548  0.7796
  623MPD2    C4 9228   3.871   1.866  15.860 -0.5281  0.9986 -0.1796
  623MPD2    C5 9229   3.843   1.786  15.750 -0.8507  0.2827  0.0741
  623MPD2     H 9230   3.668   1.716  16.077 -0.1336  3.8690  0.6074
  623MPD2    H1 9231   3.938   1.949  15.840  1.1499 -0.6332 -1.3073
  623MPD2    H2 9232   3.743   1.612  15.675 -2.5937  2.5335 -0.9132
  623MPD2    H3 9233   3.891   1.803  15.654 -2.2397  1.5975 -0.3878
  623MPD2     N 9234   3.848   1.909  16.098 -0.0657  0.0737  0.0186
  623MPD2    H5 9235   3.786   1.887  16.176 -0.2837 -0.3421 -0.2736
  623MPD2    N1 9236   3.574   1.581  15.895  0.4956 -0.4175  0.6213
  623MPD2    H7 9237   3.532   1.603  15.985  0.4093 -0.2848  0.5497
  624TMC3    C1 9238   4.095   2.030  16.454  0.2258  0.1614 -0.4085
  624TMC3    C2 9239   3.983   2.015  16.536  0.3930  0.3492 -0.2047
  624TMC3    C3 9240   3.859   2.025  16.475 -0.1997 -0.4179  0.2675
  624TMC3    C4 9241   4.085   2.034  16.317  0.2654  0.1095 -0.2508
  624TMC3    C5 9242   3.958   2.031  16.261  0.2161 -0.4336  0.5020
  624TMC3    C6 9243   3.848   2.041  16.342  0.0390 -0.0666  0.7858
  624TMC3     C 9244   4.216   1.956  16.499  0.1579  0.0853  0.7666
  624TMC3     O 9245   4.207   1.894  16.603  0.7634 -0.2212 -0.1193
  624TMC3     H 9246   4.000   1.998  16.641  0.7187  0.4835 -0.2338
  624TMC3    H1 9247   4.166   2.051  16.247  0.5602 -1.8198 -0.3753
  624TMC3    H2 9248   3.749   2.027  16.299  0.3341 -0.2924  0.1635
  624TMC3    C7 9249   3.946   1.996  16.125 -0.5705  0.2782  0.3685
  624TMC3    C8 9250   3.736   1.972  16.526  1.0244  0.0591 -0.7407
  624TMC3    O1 9251   4.038   2.027  16.046  0.2103  0.5924 -0.1599
  624TMC3    O2 9252   3.716   1.854  16.539 -0.4872  0.1732  0.0502
  625MPD2     C 9253   4.248   2.269   0.611 -0.1064 -0.5468 -0.7815
  625MPD2    C1 9254   4.360   2.349   0.607 -0.4923  0.3752 -1.1173
  625MPD2    C2 9255   4.478   2.288   0.649  0.3819 -0.4826 -0.1536
  625MPD2    C3 9256   4.481   2.156   0.681 -0.1497  0.0161 -0.3655
  625MPD2    C4 9257   4.365   2.077   0.675 -0.3057  0.5193  0.4222
  625MPD2    C5 9258   4.248   2.137   0.642  0.2802  0.1570 -0.1094
  625MPD2     H 9259   4.563   2.356   0.656 -1.4701  1.8621 -0.4406
  625MPD2    H1 9260   4.365   1.971   0.701  0.9380  0.4534  0.1247
  625MPD2    H2 9261   4.153   2.313   0.583  0.4270  0.8414 -0.3821
  625MPD2    H3 9262   4.155   2.081   0.636  0.4716  0.0717 -1.9984
  625MPD2     N 9263   4.611   2.103   0.714 -0.7474 -0.2801 -0.2232
  625MPD2    H5 9264   4.686   2.169   0.732 -1.5370 -0.0202  2.0587
  625MPD2    N1 9265   4.368   2.488   0.562 -0.3375 -0.1835  0.9310
  625MPD2    H7 9266   4.453   2.542   0.578 -1.2019  1.5945 -0.5621
  626TMC3    C1 9267   4.292   2.704   0.489  0.3101 -0.1445  0.1944
  626TMC3    C2 9268   4.193   2.770   0.417 -0.2919 -0.1561 -0.1622
  626TMC3    C3 9269   4.204   2.901   0.377 -0.4595 -0.4027 -0.1964
  626TMC3    C4 9270   4.400   2.775   0.533  0.0956 -0.2032 -1.0248
  626TMC3    C5 9271   4.409   2.909   0.499 -0.1039  0.4858  0.4977
  626TMC3    C6 9272   4.311   2.978   0.428 -0.4502  0.5879 -0.4450
  626TMC3     C 9273   4.268   2.559   0.509  0.3090 -0.2746 -0.3696
  626TMC3     O 9274   4.170   2.512   0.447 -0.1952 -0.1885 -0.2685
  626TMC3     H 9275   4.102   2.717   0.388 -1.5566  2.2409 -0.5948
  626TMC3    H1 9276   4.484   2.731   0.586 -0.6143  0.1776  0.4029
  626TMC3    H2 9277   4.334   3.079   0.395  1.7036  0.6738  1.2809
  626TMC3    C7 9278   4.496   2.987   0.580 -0.1052  0.0019 -0.2397
  626TMC3    C8 9279   4.109   2.955   0.284 -0.7673 -0.0748 -0.5023
  626TMC3    O1 9280   4.593   2.927   0.630  0.6635  0.1386 -0.3168
  626TMC3    O2 9281   4.084   3.077   0.286 -0.1225  0.7413  0.4360
  627MPD2     C 9282   3.187   3.016  13.906  0.4364  0.1943  0.1106
  627MPD2    C1 9283   3.139   3.037  14.036  0.0008  0.5313  0.2494
  627MPD2    C2 9284   3.023   2.974  14.080 -0.8376  0.0246  0.1328
  627MPD2    C3 9285   2.956   2.882  14.000 -0.2426 -0.4364 -0.0468
  627MPD2    C4 9286   3.002   2.868  13.867 -0.7093 -0.2164 -0.6375
  627MPD2    C5 9287   3.106   2.942  13.817 -0.1284 -0.4113 -0.5703
  627MPD2     H 9288   2.986   2.993  14.180  0.7803 -0.8185  0.8974
  627MPD2    H1 9289   2.943   2.803  13.803  0.6379 -2.3061  0.2112
  627MPD2    H2 9290   3.272   3.067  13.863  2.4160 -0.3265  3.4077
  627MPD2    H3 9291   3.126   2.936  13.711  0.2771 -1.4702 -0.4277
  627MPD2     N 9292   2.835   2.821  14.044 -0.3837  0.6095  0.1231
  627MPD2    H5 9293   2.795   2.853  14.131 -0.6255  1.2748 -0.2340
  627MPD2    N1 9294   3.203   3.122  14.126 -0.1574 -0.1975 -0.2535
  627MPD2    H7 9295   3.159   3.124  14.218 -1.3807 -0.2096 -0.8376
  628TMC3    C1 9296   3.390   3.206  14.231  0.1050 -0.0726 -0.7339
  628TMC3    C2 9297   3.517   3.160  14.243 -0.7138  0.4523 -0.1490
  628TMC3    C3 9298   3.567   3.140  14.365 -0.0680 -0.5180  0.8907
  628TMC3    C4 9299   3.317   3.251  14.342 -0.2785 -0.1107  0.1266
  628TMC3    C5 9300   3.376   3.232  14.463  0.4946  0.2374 -0.4723
  628TMC3    C6 9301   3.496   3.167  14.480 -0.3291 -0.2313 -0.5422
  628TMC3     C 9302   3.329   3.182  14.107  0.4720 -0.6523  0.6315
  628TMC3     O 9303   3.388   3.195  14.001 -0.5042 -0.4232 -0.6256
  628TMC3     H 9304   3.575   3.123  14.159 -0.2856 -2.1622  1.2807
  628TMC3    H1 9305   3.214   3.285  14.337 -0.4920 -0.7881 -0.1866
  628TMC3    H2 9306   3.529   3.173  14.583 -0.4332 -0.9797 -0.4653
  628TMC3    C7 9307   3.319   3.289  14.586  0.0866  0.1633 -0.4738
  628TMC3    C8 9308   3.677   3.046  14.384 -1.0061  0.1927 -0.4316
  628TMC3    O1 9309   3.338   3.235  14.693  0.2622  0.3829  0.2890
  628TMC3    O2 9310   3.756   3.019  14.290  0.1589  0.1828 -0.1028
  629MPD2     C 9311   1.121   2.543  15.933 -0.1398  0.6046 -0.1303
  629MPD2    C1 9312   1.089   2.451  16.029 -0.8695 -0.0235  0.0878
  629MPD2    C2 9313   0.958   2.444  16.075  0.1149 -0.2869 -0.1613
  629MPD2    C3 9314   0.859   2.522  16.015 -0.0087 -0.7154  0.0681
  629MPD2    C4 9315   0.893   2.597  15.903 -0.3912  0.4937  0.3415
  629MPD2    C5 9316   1.026   2.614  15.874  0.1981  0.1898  0.0914
  629MPD2     H 9317   0.942   2.381  16.161 -2.1428 -0.3324 -0.5996
  629MPD2    H1 9318   0.822   2.655  15.846  1.0967  1.7464 -0.2452
  629MPD2    H2 9319   1.223   2.564  15.901  0.2565  0.4152  1.0201
  629MPD2    H3 9320   1.053   2.675  15.788  0.8120  0.9546  0.8323
  629MPD2     N 9321   0.727   2.506  16.059  0.3550  0.0242  0.1950
  629MPD2    H5 9322   0.717   2.428  16.123 -3.5794  1.0665  0.8647
  629MPD2    N1 9323   1.202   2.407  16.110 -0.5692 -0.5194 -0.2641
  629MPD2    H7 9324   1.295   2.445  16.091 -0.1386 -1.3014  0.2921
  630TMC3    C1 9325   1.319   2.285  16.273  0.6411  0.3551  0.2032
  630TMC3    C2 9326   1.411   2.383  16.275  0.4163  0.8940  0.4412
  630TMC3    C3 9327   1.502   2.384  16.373 -0.1854  0.7625  0.3966
  630TMC3    C4 9328   1.304   2.192  16.376 -0.3660  0.0824  0.1757
  630TMC3    C5 9329   1.418   2.179  16.456 -0.5303 -0.2689  0.0726
  630TMC3    C6 9330   1.506   2.281  16.463  0.9008  0.2272 -0.2821
  630TMC3     C 9331   1.194   2.305  16.202 -0.4923 -0.8410 -0.1082
  630TMC3     O 9332   1.102   2.231  16.228 -0.0003 -0.5817  0.4564
  630TMC3     H 9333   1.399   2.469  16.210 -1.2231  0.6380  0.4080
  630TMC3    H1 9334   1.220   2.124  16.376 -0.7409  0.5783  3.5725
  630TMC3    H2 9335   1.574   2.292  16.546 -0.5313  0.2570  0.8822
  630TMC3    C7 9336   1.444   2.053  16.520  0.0445 -0.3051  0.6807
  630TMC3    C8 9337   1.602   2.485  16.389 -0.0981  0.3617 -0.7639
  630TMC3    O1 9338   1.347   1.981  16.542  0.2011  0.6805 -0.4011
  630TMC3    O2 9339   1.713   2.456  16.431 -0.0309 -0.4747  0.3141
  631MPD2     C 9340   4.572   1.342  15.705 -0.4321 -0.3712 -0.1317
  631MPD2    C1 9341   4.649   1.353  15.592 -0.0987  0.0400  0.2663
  631MPD2    C2 9342   0.062   1.363  15.616 -0.1379  0.4227  0.4779
  631MPD2    C3 9343   0.114   1.333  15.740 -0.7606  0.3096  0.6984
  631MPD2    C4 9344   0.039   1.313  15.849  0.2583 -0.3859 -0.3621
  631MPD2    C5 9345   4.624   1.327  15.832  0.1963 -0.5833 -0.2492
  631MPD2     H 9346   0.134   1.380  15.536  0.7692  0.1284  1.2278
  631MPD2    H1 9347   0.079   1.289  15.947  2.0850  2.7224 -0.3271
  631MPD2    H2 9348   4.465   1.349  15.686 -0.6820 -2.1480  0.6378
  631MPD2    H3 9349   4.573   1.315  15.927 -0.0217 -1.6202 -0.5010
  631MPD2     N 9350   0.257   1.324  15.743  0.4242  0.1273  0.3539
  631MPD2    H5 9351   0.313   1.343  15.660  0.7757  2.2417  1.0658
  631MPD2    N1 9352   4.584   1.379  15.468 -0.2718  0.1802 -0.2748
  631MPD2    H7 9353   4.483   1.378  15.460 -0.3824  1.3235  0.8675
  632TMC3    C1 9354   4.577   1.468  15.247 -0.9479 -0.0472  0.4640
  632TMC3    C2 9355   4.451   1.520  15.279  0.5773  0.1474  0.1042
  632TMC3    C3 9356   4.420   1.636  15.211  0.3670 -0.0954  0.0166
  632TMC3    C4 9357   4.659   1.511  15.150 -0.0897  0.2250 -0.3139
  632TMC3    C5 9358   4.622   1.631  15.092  0.4412 -0.0695  0.1501
  632TMC3    C6 9359   4.506   1.688  15.121 -0.3629 -0.2722 -0.0855
  632TMC3     C 9360   4.655   1.403  15.353 -0.4136  0.0923 -0.0032
  632TMC3     O 9361   0.049   1.403  15.327  0.1444  0.3135 -0.5594
  632TMC3     H 9362   4.382   1.474  15.348  1.2307 -0.4225  0.3737
  632TMC3    H1 9363   0.030   1.463  15.126  0.7493  1.2172  0.9533
  632TMC3    H2 9364   4.489   1.783  15.072  1.7924 -1.8368 -3.8204
  632TMC3    C7 9365   4.692   1.666  14.969 -0.3053  0.6433 -0.2143
  632TMC3    C8 9366   4.281   1.687  15.220 -0.5221 -0.6165 -0.5347
  632TMC3    O1 9367   4.699   1.781  14.939 -0.1541  0.2019 -0.1757
  632TMC3    O2 9368   4.206   1.644  15.311  0.0010  0.4554  0.3970
  633MPD2     C 9369   3.780   0.040  17.445 -0.3759 -0.1918 -0.7385
  633MPD2    C1 9370   3.802   4.672  17.342  0.3599  0.5368 -0.0806
  633MPD2    C2 9371   3.821   4.543  17.384  0.3576  0.3491  0.3025
  633MPD2    C3 9372   3.801   4.493  17.512  0.1842 -0.0731  0.3432
  633MPD2    C4 9373   3.779   4.583  17.611 -0.1305 -0.6611 -0.5810
  633MPD2    C5 9374   3.772   4.720  17.578  0.6557 -0.0730 -0.2213
  633MPD2     H 9375   3.852   4.473  17.307 -1.6182  1.7891 -1.8362
  633MPD2    H1 9376   3.768   4.555   0.023 -0.0831 -0.1805 -0.4499
  633MPD2    H2 9377   3.786   0.147  17.426  0.8029 -0.2510 -0.7138
  633MPD2    H3 9378   3.765   0.083  17.643 -1.2242  0.7051 -1.4393
  633MPD2     N 9379   3.816   4.353  17.537  0.0769  0.0706 -0.6002
  633MPD2    H5 9380   3.822   4.327  17.635  1.3678 -1.1866 -1.0114
  633MPD2    N1 9381   3.824   4.710  17.212 -0.3924  0.4008 -0.7002
  633MPD2    H7 9382   3.834   4.633  17.146  0.7811  0.7754 -0.9710
  634TMC3    C1 9383   3.882   0.119  17.026  0.0088 -0.9853 -0.3810
  634TMC3    C2 9384   3.964   0.019  16.976  0.5642 -0.0525 -0.3805
  634TMC3    C3 9385   4.026   0.038  16.858 -0.0437  0.2696 -0.3370
  634TMC3    C4 9386   3.871   0.239  16.964 -0.8378 -0.7912  0.0334
  634TMC3    C5 9387   3.945   0.256  16.851  0.5031  0.1125  0.1627
  634TMC3    C6 9388   4.023   0.156  16.798  0.0870  0.2653  0.1703
  634TMC3     C 9389   3.835   0.111  17.162 -0.2194  0.5970  0.2452
  634TMC3     O 9390   3.808   0.218  17.215  0.3420 -0.7202  0.1166
  634TMC3     H 9391   3.973   4.647  17.027  0.1951  0.4694  0.6633
  634TMC3    H1 9392   3.812   0.322  17.001 -0.6760  0.3126 -2.2085
  634TMC3    H2 9393   4.072   0.169  16.702  0.1047  1.4632  0.3363
  634TMC3    C7 9394   3.935   0.377  16.767  0.1106  0.5811 -0.0132
  634TMC3    C8 9395   4.095   4.643  16.801  0.4372 -0.1382  0.6594
  634TMC3    O1 9396   4.004   0.399  16.667  0.1471 -0.5427 -0.0422
  634TMC3    O2 9397   4.152   4.562  16.874  0.4805  0.2888  0.1072
  635TMC3    C1 9398   0.356   0.999  16.937  0.7362 -0.2575  0.7409
  635TMC3    C2 9399   0.489   1.006  16.932  0.0780  0.1715 -0.1262
  635TMC3    C3 9400   0.546   0.924  16.844  0.0194  0.7849  0.1105
  635TMC3    C4 9401   0.281   0.914  16.860 -0.2221  0.1591 -0.3743
  635TMC3    C5 9402   0.346   0.837  16.768 -0.6300 -0.1622  0.0353
  635TMC3    C6 9403   0.481   0.838  16.761  0.2046  0.8502 -0.0462
  635TMC3     C 9404   0.280   1.078  17.029 -0.7537 -0.0690  0.3706
  635TMC3     O 9405   0.159   1.088  17.013  0.7163  0.0420 -0.0027
  635TMC3     H 9406   0.555   1.077  16.980  1.6834 -1.2163 -0.2483
  635TMC3    H1 9407   0.173   0.928  16.864 -0.2715 -0.4986  0.5874
  635TMC3    H2 9408   0.524   0.753  16.710  0.7293  1.7833 -1.1456
  635TMC3    C7 9409   0.283   0.733  16.699 -0.3818  0.3983  0.5141
  635TMC3    C8 9410   0.690   0.898  16.865  0.1038  0.5765  0.2646
  635TMC3    O1 9411   0.336   0.699  16.594 -0.2578  0.0731  0.2014
  635TMC3    O2 9412   0.740   0.923  16.974  0.0652 -0.4876 -0.0811
  636MPD2     C 9413   0.374   0.293  15.928  0.0400  0.0363  0.3000
  636MPD2    C1 9414   0.479   0.307  16.023 -0.2086 -0.2515  0.7849
  636MPD2    C2 9415   0.483   0.232  16.134  0.1101 -0.9514 -0.3460
  636MPD2    C3 9416   0.378   0.143  16.160 -0.4501 -0.8166  0.2042
  636MPD2    C4 9417   0.274   0.139  16.073  0.6981  0.4162  0.0356
  636MPD2    C5 9418   0.268   0.217  15.959  0.4467  0.1957 -0.0401
  636MPD2     H 9419   0.570   0.240  16.198 -0.3507  2.4402 -0.1896
  636MPD2    H1 9420   0.193   0.071  16.096 -0.3575  1.8331  0.4129
  636MPD2    H2 9421   0.369   0.350  15.836 -0.0804  1.3613  1.1175
  636MPD2    H3 9422   0.183   0.209  15.893  0.0956 -1.3798  0.5948
  636MPD2     N 9423   0.373   0.066  16.278 -0.3604 -0.1631 -0.1628
  636MPD2    H5 9424   0.425   0.105  16.356 -0.0573 -1.1937  0.1617
  636MPD2    N1 9425   0.599   0.389  16.002  0.4797 -0.6533  0.2191
  636MPD2    H7 9426   0.661   0.407  16.080  0.4132 -0.9551  0.3413
  637TMC3    C1 9427   0.358   4.586  16.409  0.2642  0.7466  0.3461
  637TMC3    C2 9428   0.420   4.640  16.517 -0.2866 -0.4973 -0.3213
  637TMC3    C3 9429   0.495   4.559  16.600  0.0236  0.2786  0.4364
  637TMC3    C4 9430   0.373   4.445  16.390 -0.7433  0.1108 -0.0821
  637TMC3    C5 9431   0.458   4.369  16.466 -0.2545  0.5156  0.1124
  637TMC3    C6 9432   0.517   4.427  16.575  0.4709 -1.0400  0.1298
  637TMC3     C 9433   0.329   4.663  16.285 -0.4926  0.2051 -0.6312
  637TMC3     O 9434   0.279   4.596  16.192 -0.7636 -0.2033 -0.9848
  637TMC3     H 9435   0.392   0.016  16.551 -3.9633 -1.1384 -1.4804
  637TMC3    H1 9436   0.310   4.389  16.322 -2.8943 -0.9834  2.8077
  637TMC3    H2 9437   0.603   4.380  16.623  2.5613  2.9481  0.2556
  637TMC3    C7 9438   0.564   4.315  16.383 -1.0147  0.1053 -0.0954
  637TMC3    C8 9439   0.613   4.628  16.648  0.7024 -0.0830  0.5178
  637TMC3    O1 9440   0.659   4.259  16.439 -0.1741  0.1731  0.0847
  637TMC3    O2 9441   0.658   4.710  16.570  0.4072  0.4950  0.7085
  638MPD2     C 9442   0.147   3.696  14.669  0.3850  0.2876 -0.0480
  638MPD2    C1 9443   0.167   3.580  14.596  0.8945  0.0574  0.2925
  638MPD2    C2 9444   0.143   3.466  14.671 -0.5930  0.7623  0.2156
  638MPD2    C3 9445   0.127   3.461  14.808  0.9860 -0.5955 -0.1674
  638MPD2    C4 9446   0.142   3.577  14.876 -0.6870 -0.0351  0.2629
  638MPD2    C5 9447   0.147   3.696  14.805 -0.3612  0.2108  0.8150
  638MPD2     H 9448   0.159   3.371  14.621  1.5671  1.2848 -0.0940
  638MPD2    H1 9449   0.145   3.579  14.985  0.8326 -0.5905  0.2322
  638MPD2    H2 9450   0.163   3.793  14.622 -3.1566  0.7748 -0.2338
  638MPD2    H3 9451   0.151   3.793  14.854  1.1745  0.3274  0.4672
  638MPD2     N 9452   0.127   3.332  14.854  0.3746 -0.4106 -0.1512
  638MPD2    H5 9453   0.125   3.252  14.792  1.5539  0.3906 -1.2228
  638MPD2    N1 9454   0.190   3.586  14.457 -0.4732 -0.1768  0.6887
  638MPD2    H7 9455   0.195   3.677  14.412 -1.1722 -0.1465  0.6732
  639TMC3    C1 9456   0.164   3.152  14.987 -0.6890 -0.2457 -0.7917
  639TMC3    C2 9457   0.090   3.074  14.907 -0.4549  0.1053 -0.3877
  639TMC3    C3 9458   0.153   2.959  14.870  0.4419 -0.6244  0.2118
  639TMC3    C4 9459   0.267   3.114  15.060  0.2718  0.8737 -0.1204
  639TMC3    C5 9460   0.331   2.999  15.017 -0.4021 -0.6447 -0.2685
  639TMC3    C6 9461   0.276   2.925  14.921 -0.6940  0.6891  0.4709
  639TMC3     C 9462   0.147   3.297  14.984 -0.2231 -0.3732  0.1556
  639TMC3     O 9463   0.171   3.363  15.090 -1.1056  0.0389  0.3575
  639TMC3     H 9464   0.008   3.119  14.851  0.3446  2.5498  0.3865
  639TMC3    H1 9465   0.322   3.171  15.134 -0.1834  1.2844 -0.0971
  639TMC3    H2 9466   0.324   2.832  14.894 -0.5324  0.3257  2.0285
  639TMC3    C7 9467   0.454   2.950  15.071  0.4706  0.4389  0.5687
  639TMC3    C8 9468   0.081   2.874  14.776 -0.5212 -0.2716 -0.7241
  639TMC3    O1 9469   0.463   2.825  15.071  0.0552  0.2330 -0.0318
  639TMC3    O2 9470   0.152   2.808  14.700  0.5489 -0.4204 -0.8690
  640MPD2     C 9471   1.052   2.731  10.107  0.4398  0.2472  0.8856
  640MPD2    C1 9472   1.136   2.805  10.029 -0.2314 -1.0078 -0.1142
  640MPD2    C2 9473   1.112   2.945  10.023 -0.6279  0.4417  0.5327
  640MPD2    C3 9474   1.000   3.007  10.077 -0.5989 -0.1468 -0.4021
  640MPD2    C4 9475   0.914   2.929  10.150 -0.2048  0.1828 -0.4353
  640MPD2    C5 9476   0.944   2.790  10.168  0.3129 -0.5190  0.1076
  640MPD2     H 9477   1.183   3.009   9.971  1.2293 -0.4828  1.9297
  640MPD2    H1 9478   0.830   2.982  10.192  0.5963  0.8220  0.3601
  640MPD2    H2 9479   1.065   2.629  10.143  1.3929 -0.1056 -0.4509
  640MPD2    H3 9480   0.890   2.733  10.242  0.5285 -1.7322 -0.6665
  640MPD2     N 9481   0.970   3.144  10.072  0.0479  1.0215  0.0707
  640MPD2    H5 9482   0.892   3.171  10.131 -0.9899 -2.4407  0.2679
  640MPD2    N1 9483   1.247   2.733   9.976 -0.1501  0.0224  0.1118
  640MPD2    H7 9484   1.253   2.632   9.983 -0.7004  0.0202  0.5138
  641TMC3    C1 9485   1.414   2.670   9.824 -0.1784 -0.6384 -0.1680
  641TMC3    C2 9486   1.401   2.539   9.875 -0.2706  0.0409  0.0451
  641TMC3    C3 9487   1.497   2.446   9.861  0.1821  0.3675  0.1449
  641TMC3    C4 9488   1.537   2.708   9.783  0.3877  0.0271  0.2624
  641TMC3    C5 9489   1.617   2.606   9.746  0.2007  0.2638 -0.0836
  641TMC3    C6 9490   1.599   2.471   9.777 -0.4180 -0.3761 -0.8843
  641TMC3     C 9491   1.339   2.778   9.889 -0.3205 -0.2132 -0.6105
  641TMC3     O 9492   1.375   2.893   9.865 -0.3198 -0.3830  0.3882
  641TMC3     H 9493   1.312   2.500   9.924 -0.2188  1.0588  0.9585
  641TMC3    H1 9494   1.562   2.809   9.752 -0.9267  0.8561  1.8840
  641TMC3    H2 9495   1.665   2.388   9.755 -0.1230 -0.5436  0.6327
  641TMC3    C7 9496   1.752   2.640   9.693  0.4215  0.1474  0.7019
  641TMC3    C8 9497   1.476   2.310   9.897  0.4388  0.5858 -0.3113
  641TMC3    O1 9498   1.798   2.751   9.717 -0.8174 -0.4116 -0.1379
  641TMC3    O2 9499   1.510   2.228   9.814  0.1773 -0.0669 -0.3927
  642TMC3    C1 9500   2.448   3.109  12.075  0.6635 -0.8078  0.4824
  642TMC3    C2 9501   2.563   3.163  12.022 -0.3120  0.6613  0.7092
  642TMC3    C3 9502   2.634   3.081  11.940  0.0441 -0.0241 -0.6804
  642TMC3    C4 9503   2.405   2.980  12.050  0.6417 -0.2462 -0.1829
  642TMC3    C5 9504   2.475   2.912  11.961  0.1266 -0.0628  0.1607
  642TMC3    C6 9505   2.591   2.960  11.902 -0.0501  0.5614  0.0708
  642TMC3     C 9506   2.357   3.184  12.160 -0.2377  0.1116  0.1313
  642TMC3     O 9507   2.243   3.146  12.171  0.6551  0.1248 -0.4667
  642TMC3     H 9508   2.602   3.263  12.035 -2.7343  1.4497  1.9810
  642TMC3    H1 9509   2.308   2.942  12.082  0.0251  0.4310 -1.2262
  642TMC3    H2 9510   2.648   2.891  11.841 -2.3981 -1.7579  0.5034
  642TMC3    C7 9511   2.427   2.779  11.914  0.2710  0.3834 -0.1010
  642TMC3    C8 9512   2.765   3.126  11.890  0.1780 -0.3705  0.2949
  642TMC3    O1 9513   2.468   2.727  11.812  0.7091  0.2983  0.0805
  642TMC3    O2 9514   2.808   3.081  11.787 -0.0131  0.3518  0.4728
  643TMC3    C1 9515   1.392   2.773   0.541  0.0446  0.0650  0.2386
  643TMC3    C2 9516   1.291   2.820   0.460  0.6294 -0.5398 -0.8092
  643TMC3    C3 9517   1.306   2.819   0.320  0.2035 -0.0225 -0.1103
  643TMC3    C4 9518   1.511   2.719   0.492  0.0205 -0.0429 -0.3777
  643TMC3    C5 9519   1.512   2.698   0.356 -0.0379 -0.5680 -0.0730
  643TMC3    C6 9520   1.424   2.763   0.270 -0.1819  0.0418 -0.5323
  643TMC3     C 9521   1.386   2.829   0.674 -0.0437  0.5895 -0.2636
  643TMC3     O 9522   1.279   2.866   0.724 -0.5926 -0.3158 -0.1623
  643TMC3     H 9523   1.199   2.860   0.502  1.0143  2.0906 -2.4571
  643TMC3    H1 9524   1.578   2.686   0.570 -0.0791 -0.5163 -0.4927
  643TMC3    H2 9525   1.431   2.756   0.162 -0.7726 -1.2857 -0.4809
  643TMC3    C7 9526   1.647   2.727   0.303 -0.2817 -0.1452 -0.0099
  643TMC3    C8 9527   1.202   2.874   0.238 -0.4029 -0.1767  0.7253
  643TMC3    O1 9528   1.664   2.839   0.255  0.1739  0.3094 -0.8191
  643TMC3    O2 9529   1.089   2.854   0.268 -0.4792  0.2998  0.2444
  644MPD2     C 9530   2.014   3.433  10.053 -0.1079  0.0584  0.5758
  644MPD2    C1 9531   1.926   3.329  10.056 -0.2971  0.4582  0.0374
  644MPD2    C2 9532   1.792   3.348  10.081 -0.0494 -0.4560  0.0141
  644MPD2    C3 9533   1.741   3.480  10.094 -0.0785  0.1218 -0.2284
  644MPD2    C4 9534   1.840   3.581  10.086  0.2741  0.1044  1.1263
  644MPD2    C5 9535   1.971   3.561  10.065  0.6947 -0.4305 -0.0167
  644MPD2     H 9536   1.721   3.267  10.073 -1.9431  1.2633 -0.5159
  644MPD2    H1 9537   1.816   3.685  10.070 -1.5053 -0.4257  0.3019
  644MPD2    H2 9538   2.121   3.421  10.039 -0.2465  0.4102 -0.7726
  644MPD2    H3 9539   2.036   3.648  10.057 -1.6226  1.1926 -1.0401
  644MPD2     N 9540   1.606   3.505  10.138 -0.1600  0.2069 -0.5861
  644MPD2    H5 9541   1.535   3.433  10.144 -1.5373  1.5126 -1.1118
  644MPD2    N1 9542   1.973   3.192  10.023 -0.0161 -0.1958 -0.5452
  644MPD2    H7 9543   2.074   3.187  10.013 -0.0168  1.8619 -1.5651
  645TMC3    C1 9544   1.411   3.634  10.188  0.4105 -0.7760 -0.4472
  645TMC3    C2 9545   1.336   3.743  10.144 -0.1046  0.0508  1.1086
  645TMC3    C3 9546   1.209   3.755  10.185  0.0392 -0.5658 -0.0166
  645TMC3    C4 9547   1.356   3.537  10.262  0.9819  0.6765 -0.3740
  645TMC3    C5 9548   1.231   3.551  10.301  0.5873  0.0487  0.4596
  645TMC3    C6 9549   1.152   3.661  10.271 -0.5961 -0.0715  0.1337
  645TMC3     C 9550   1.549   3.634  10.137  0.7572 -0.2984  0.0636
  645TMC3     O 9551   1.584   3.731  10.071  0.0792 -0.1035  0.0821
  645TMC3     H 9552   1.380   3.807  10.068 -1.7001  1.7244  1.6113
  645TMC3    H1 9553   1.420   3.453  10.290  0.7718  0.1267 -1.5645
  645TMC3    H2 9554   1.052   3.673  10.310 -1.0968 -0.5684 -0.9998
  645TMC3    C7 9555   1.159   3.445  10.365  0.1823 -0.1313 -0.3108
  645TMC3    C8 9556   1.119   3.831  10.099  0.1118  0.2791 -0.5706
  645TMC3    O1 9557   1.043   3.472  10.387  0.4696 -0.4542 -0.3207
  645TMC3    O2 9558   1.172   3.869   9.993  0.4761  0.2159 -0.0529
  646MPD2     C 9559   0.563   2.285  14.267 -0.2740 -0.6631 -0.2527
  646MPD2    C1 9560   0.479   2.220  14.359  0.6377  0.2317  0.9301
  646MPD2    C2 9561   0.346   2.240  14.349 -0.1559 -1.1396  0.4399
  646MPD2    C3 9562   0.292   2.318  14.244 -0.2900  0.5231  0.3118
  646MPD2    C4 9563   0.377   2.383  14.158  0.6062  0.3794 -0.1240
  646MPD2    C5 9564   0.512   2.366  14.171  0.3591 -0.0161 -0.2524
  646MPD2     H 9565   0.270   2.195  14.412 -0.0453 -0.1944  1.2676
  646MPD2    H1 9566   0.341   2.447  14.078 -2.1047 -1.8739 -0.7124
  646MPD2    H2 9567   0.670   2.275  14.279 -0.2352 -0.2642 -0.2475
  646MPD2    H3 9568   0.575   2.421  14.102 -0.3929  1.0548 -0.0831
  646MPD2     N 9569   0.151   2.335  14.231 -0.4077  0.1585 -0.2492
  646MPD2    H5 9570   0.092   2.310  14.310  1.8421  0.7590  1.6185
  646MPD2    N1 9571   0.543   2.149  14.463  0.7653  0.3587  0.2030
  646MPD2    H7 9572   0.644   2.151  14.455  0.8025 -1.0779  0.3038
  647TMC3    C1 9573   0.579   2.006  14.646 -0.0230 -0.4347 -0.3453
  647TMC3    C2 9574   0.542   1.882  14.702  0.2975 -0.2511 -0.3014
  647TMC3    C3 9575   0.625   1.835  14.798 -0.7071 -0.0016 -0.1865
  647TMC3    C4 9576   0.700   2.069  14.676  0.1410  0.7569  0.4379
  647TMC3    C5 9577   0.781   2.005  14.771  0.0660  0.0729 -0.8187
  647TMC3    C6 9578   0.737   1.895  14.840 -0.6170 -0.1284  0.2656
  647TMC3     C 9579   0.484   2.072  14.559 -0.5155  0.4278 -0.2359
  647TMC3     O 9580   0.366   2.047  14.574 -0.1900 -0.6152 -0.3809
  647TMC3     H 9581   0.453   1.821  14.691  0.0792 -0.3648  2.0890
  647TMC3    H1 9582   0.732   2.165  14.639 -2.2757  1.5773  0.4727
  647TMC3    H2 9583   0.810   1.842  14.900 -0.8397  0.5133  1.0963
  647TMC3    C7 9584   0.921   2.049  14.789  0.4330 -0.4888  0.2269
  647TMC3    C8 9585   0.594   1.709  14.862  0.1417 -0.0538  0.2212
  647TMC3    O1 9586   0.977   1.997  14.884 -0.4051  0.3687  0.0200
  647TMC3    O2 9587   0.628   1.690  14.974 -0.3537  0.0518  0.1628
  648TMC3    C1 9588   4.594   0.081  16.120  0.2660  0.4042 -0.5221
  648TMC3    C2 9589   4.654   4.690  16.082 -0.6147  0.5777 -0.1862
  648TMC3    C3 9590   4.694   4.680  15.949  0.3360 -0.0525  0.0122
  648TMC3    C4 9591   4.556   0.177  16.030 -0.2113  0.8952 -0.0480
  648TMC3    C5 9592   4.580   0.154  15.901 -0.3361 -0.2647 -0.2587
  648TMC3    C6 9593   4.651   0.048  15.855 -0.1204  0.1362 -0.1244
  648TMC3     C 9594   4.581   0.113  16.263 -0.1231 -0.1575 -0.2678
  648TMC3     O 9595   4.576   0.229  16.300 -0.3587 -0.0422  0.7370
  648TMC3     H 9596   4.696   4.630  16.162  1.9438  1.4205 -0.8970
  648TMC3    H1 9597   4.530   0.275  16.067 -0.5623 -0.6263  3.7535
  648TMC3    H2 9598   4.665   0.035  15.748  0.1153 -0.5001 -0.0148
  648TMC3    C7 9599   4.533   0.254  15.815  0.3827  0.8038  0.3529
  648TMC3    C8 9600   0.048   4.563  15.903  0.2655  0.3934  0.6848
  648TMC3    O1 9601   4.576   0.263  15.700  0.0171 -0.9560  0.6461
  648TMC3    O2 9602   0.103   4.564  15.793  0.0784 -0.0865  0.6714
  649TMC3    C1 9603   3.722   0.784  12.820 -0.5023  0.0532  0.5962
  649TMC3    C2 9604   3.844   0.720  12.810  0.3785  0.4240 -0.4840
  649TMC3    C3 9605   3.874   0.631  12.908  0.3706  0.0013 -0.3580
  649TMC3    C4 9606   3.631   0.751  12.916 -0.0671 -0.1384  0.6711
  649TMC3    C5 9607   3.668   0.668  13.018  0.7715  1.1974 -0.7346
  649TMC3    C6 9608   3.788   0.603  13.010 -0.7210  0.6728  0.0373
  649TMC3     C 9609   3.698   0.900  12.738  0.2009  0.5108 -0.0453
  649TMC3     O 9610   3.623   0.983  12.786 -0.2295  0.0282 -0.0357
  649TMC3     H 9611   3.913   0.749  12.732  1.0841  0.9044  0.3223
  649TMC3    H1 9612   3.539   0.809  12.915  0.7279  1.0312 -3.9222
  649TMC3    H2 9613   3.802   0.506  13.055  2.1327  0.4937 -1.1980
  649TMC3    C7 9614   3.556   0.606  13.092  0.0760 -0.2940 -0.4582
  649TMC3    C8 9615   4.007   0.585  12.944  0.0220 -0.1701  0.3417
  649TMC3    O1 9616   3.444   0.648  13.066  0.3877 -0.2103  0.2198
  649TMC3    O2 9617   4.008   0.480  12.999  0.2488 -0.1550  0.1306
  650TMC3    C1 9618   1.759   2.447  12.306 -0.1660  0.8166 -0.7053
  650TMC3    C2 9619   1.743   2.580  12.289  0.0804  0.2805 -0.1397
  650TMC3    C3 9620   1.631   2.622  12.232  0.5146 -0.4469  0.3501
  650TMC3    C4 9621   1.675   2.355  12.255 -0.1938  1.1765 -0.4909
  650TMC3    C5 9622   1.569   2.406  12.187  0.5872  0.3970  0.0466
  650TMC3    C6 9623   1.543   2.536  12.184  0.3344  0.0822 -0.0668
  650TMC3     C 9624   1.863   2.407  12.407 -0.1347  1.0190  0.1625
  650TMC3     O 9625   1.925   2.497  12.472 -0.5372 -0.7095 -0.4378
  650TMC3     H 9626   1.817   2.644  12.335  2.1406 -1.7743 -0.6236
  650TMC3    H1 9627   1.692   2.248  12.260  1.0631  1.4989  2.2746
  650TMC3    H2 9628   1.460   2.579  12.129 -0.7522 -3.0579 -0.9314
  650TMC3    C7 9629   1.505   2.322  12.092 -0.6887 -0.0831  0.4465
  650TMC3    C8 9630   1.608   2.768  12.230  0.1957  0.2108  1.2568
  650TMC3    O1 9631   1.513   2.203  12.115 -0.6648  0.1299 -0.4073
  650TMC3    O2 9632   1.711   2.834  12.233  0.0397 -0.2257 -0.2954
  651MPD2     C 9633   0.874   4.494  10.986  0.5474 -0.2138 -0.3753
  651MPD2    C1 9634   0.820   4.553  10.873 -0.2242 -0.2236 -0.9340
  651MPD2    C2 9635   0.898   4.560  10.756 -0.5598 -0.7149 -0.0165
  651MPD2    C3 9636   1.027   4.502  10.760 -0.3643 -0.2995 -0.2819
  651MPD2    C4 9637   1.077   4.450  10.874  0.1845  0.4480 -0.2509
  651MPD2    C5 9638   1.001   4.442  10.986 -0.9294  0.6040 -0.6083
  651MPD2     H 9639   0.864   4.612  10.667  2.6408  0.6954 -0.4104
  651MPD2    H1 9640   1.175   4.403  10.880 -0.6612 -1.4022 -0.9500
  651MPD2    H2 9641   0.811   4.476  11.073  0.5456 -0.2124 -0.3763
  651MPD2    H3 9642   1.044   4.383  11.067 -0.7590  2.1456  0.4371
  651MPD2     N 9643   1.101   4.518  10.639 -0.5452  0.0805  0.2057
  651MPD2    H5 9644   1.060   4.547  10.551 -2.4225 -0.0563  1.0278
  651MPD2    N1 9645   0.688   4.614  10.874 -0.0474  0.8329  0.0887
  651MPD2    H7 9646   0.659   4.652  10.784 -3.0769 -0.6632  0.4287
  652TMC3    C1 9647   1.503   4.688  10.449  0.6591  0.3276  0.0885
  652TMC3    C2 9648   1.441   4.579  10.513  0.9321  0.4134 -0.6156
  652TMC3    C3 9649   1.307   4.588  10.525  0.4970 -0.2308  0.8457
  652TMC3    C4 9650   1.426   0.078  10.421  0.5269 -0.6968  0.0126
  652TMC3    C5 9651   1.291   0.075  10.419  0.2831 -0.1687 -0.0520
  652TMC3    C6 9652   1.237   4.688  10.473 -0.2023  0.3877 -0.4835
  652TMC3     C 9653   1.647   4.694  10.436  0.5684 -0.0082 -0.0679
  652TMC3     O 9654   1.715   4.613  10.501 -0.0129 -0.3214  0.1071
  652TMC3     H 9655   1.500   4.495  10.547 -2.2152 -1.8187 -0.6009
  652TMC3    H1 9656   1.472   0.173  10.394  0.5037 -0.3213  1.3143
  652TMC3    H2 9657   1.131   4.711  10.478 -0.3809 -0.6062  0.2086
  652TMC3    C7 9658   1.231   0.203  10.421  0.3212 -0.2130 -0.4179
  652TMC3    C8 9659   1.244   4.514  10.634  0.1433  0.6684 -0.2425
  652TMC3    O1 9660   1.166   0.241  10.326  0.0718  0.3359 -0.3006
  652TMC3    O2 9661   1.328   4.477  10.718 -0.4657  0.1396 -0.6495
  653MPD2     C 9662   3.454   0.071  17.689 -0.7558  0.2880 -0.0123
  653MPD2    C1 9663   3.435   0.146  17.575 -0.0902  0.4407  0.1244
  653MPD2    C2 9664   3.413   0.085  17.457  0.8198 -0.2251  0.5337
  653MPD2    C3 9665   3.396   4.672  17.458 -1.1188  0.3508  0.7618
  653MPD2    C4 9666   3.395   4.596  17.578 -0.0595 -0.5405 -0.0880
  653MPD2    C5 9667   3.427   4.664  17.689 -0.1981 -0.1290 -0.1845
  653MPD2     H 9668   3.405   0.141  17.364  0.7133 -0.3257  0.4831
  653MPD2    H1 9669   3.391   4.488  17.586 -2.6564 -0.4218  0.2282
  653MPD2    H2 9670   3.495   0.112   0.088  0.4071 -0.7736 -0.0687
  653MPD2    H3 9671   3.428   4.616   0.093  1.3315  0.9387  0.3276
  653MPD2     N 9672   3.396   4.608  17.334  0.2351 -0.2843  0.1909
  653MPD2    H5 9673   3.393   4.671  17.254  0.5189 -0.2658  0.1950
  653MPD2    N1 9674   3.455   0.284  17.574  0.0528 -0.7835 -0.0720
  653MPD2    H7 9675   3.483   0.320  17.484 -1.8311  0.4217 -0.1778
  654TMC3    C1 9676   3.408   4.449  17.165 -0.7655  0.1629 -1.0182
  654TMC3    C2 9677   3.382   4.547  17.070  0.3072  0.2103 -0.7914
  654TMC3    C3 9678   3.338   4.503  16.952  0.0689  1.0438 -0.5419
  654TMC3    C4 9679   3.410   4.314  17.135  0.8662  0.5535  0.6780
  654TMC3    C5 9680   3.376   4.280  17.009 -0.2817  0.2906 -0.4807
  654TMC3    C6 9681   3.331   4.369  16.917 -0.0205  0.5821  0.0236
  654TMC3     C 9682   3.422   4.477  17.305 -1.0873 -0.0083  0.0930
  654TMC3     O 9683   3.449   4.379  17.378 -0.3331  0.2018 -0.5979
  654TMC3     H 9684   3.396   4.653  17.087 -0.9663  0.6144 -2.2311
  654TMC3    H1 9685   3.434   4.237  17.207  1.7378  0.1450 -0.0446
  654TMC3    H2 9686   3.286   4.343  16.823  2.9353 -0.3454 -1.1335
  654TMC3    C7 9687   3.313   4.150  17.004 -0.0241 -0.2950 -0.8036
  654TMC3    C8 9688   3.265   4.598  16.864 -0.9595 -0.3673 -0.2898
  654TMC3    O1 9689   3.207   4.139  16.950  0.4070 -0.1949 -0.0320
  654TMC3    O2 9690   3.206   4.696  16.906 -0.3425  0.0383  0.2136
  655MPD2     C 9691   0.319   0.262  15.574 -0.5236 -0.2646  0.0354
  655MPD2    C1 9692   0.184   0.271  15.563 -0.0971  0.8326  0.0488
  655MPD2    C2 9693   0.109   0.174  15.500  0.0028  0.1734  0.1865
  655MPD2    C3 9694   0.170   0.063  15.450 -0.0991 -1.2865  0.2557
  655MPD2    C4 9695   0.306   0.047  15.461 -0.4058 -0.1242  0.3079
  655MPD2    C5 9696   0.382   0.148  15.522  0.4893  0.8435  0.2711
  655MPD2     H 9697   0.002   0.188  15.488 -0.1994 -0.7623  0.9149
  655MPD2    H1 9698   0.358   4.679  15.434 -0.5810 -0.8956  2.5910
  655MPD2    H2 9699   0.387   0.340  15.606 -1.4173  0.3628  0.3927
  655MPD2    H3 9700   0.489   0.142  15.542  0.1437 -1.5927  1.2915
  655MPD2     N 9701   0.099   4.676  15.398  0.0263  0.3120  0.4361
  655MPD2    H5 9702   0.151   4.589  15.389 -3.2226 -1.5430 -0.2236
  655MPD2    N1 9703   0.120   0.384  15.617 -0.3719 -0.3158  0.0808
  655MPD2    H7 9704   0.019   0.386  15.630 -0.6350 -0.3111 -2.0189
  656TMC3    C1 9705   0.091   0.607  15.689 -0.2022  0.2416 -0.0178
  656TMC3    C2 9706   0.018   0.570  15.795  0.1280 -0.0154 -0.4341
  656TMC3    C3 9707   4.666   0.669  15.843  0.9849 -0.5240 -0.4942
  656TMC3    C4 9708   0.089   0.726  15.625  0.9908 -0.1780  0.2982
  656TMC3    C5 9709   4.718   0.809  15.668 -0.0825  0.8587  0.9249
  656TMC3    C6 9710   4.647   0.788  15.781 -0.3825 -0.4503 -0.5266
  656TMC3     C 9711   0.181   0.508  15.636  0.2085 -0.2877  0.1139
  656TMC3     O 9712   0.280   0.548  15.578  0.1399  0.2354  0.0443
  656TMC3     H 9713   0.040   0.473  15.838 -2.3294 -0.0409  0.7342
  656TMC3    H1 9714   0.147   0.736  15.535 -2.3825  1.1458 -1.7340
  656TMC3    H2 9715   4.583   0.866  15.823  0.6289  0.7144 -1.1329
  656TMC3    C7 9716   4.659   0.884  15.556  0.6370 -0.5878 -0.4251
  656TMC3    C8 9717   4.601   0.646  15.970  0.2116  0.7063 -0.6324
  656TMC3    O1 9718   4.706   0.863  15.447 -0.4551 -0.3098  0.2112
  656TMC3    O2 9719   4.596   0.525  16.000 -0.0732  0.1202 -0.3547
  657TMC3    C1 9720   3.673   4.105  14.851  0.1245  0.0808 -0.8157
  657TMC3    C2 9721   3.644   4.110  14.988 -0.5952  0.7764 -0.1610
  657TMC3    C3 9722   3.531   4.180  15.019  0.3387  0.3976  0.0549
  657TMC3    C4 9723   3.584   4.146  14.755  0.0365 -0.0353 -0.3336
  657TMC3    C5 9724   3.471   4.217  14.795 -0.5477  0.9825  0.4033
  657TMC3    C6 9725   3.448   4.231  14.927 -0.1036  0.1189  0.9054
  657TMC3     C 9726   3.791   4.037  14.815  0.1005  0.4709 -0.4654
  657TMC3     O 9727   3.842   3.969  14.898  0.3390  0.1879 -0.1069
  657TMC3     H 9728   3.721   4.081  15.060 -1.0933  0.9366  0.4369
  657TMC3    H1 9729   3.602   4.125  14.651 -0.8419 -0.5953 -0.3721
  657TMC3    H2 9730   3.355   4.282  14.951 -1.3155 -1.3197 -0.7259
  657TMC3    C7 9731   3.409   4.284  14.683  0.3784 -0.5410 -0.3144
  657TMC3    C8 9732   3.512   4.259  15.143  0.0013 -0.6776 -0.2132
  657TMC3    O1 9733   3.436   4.247  14.570 -0.0475  0.0598 -0.1755
  657TMC3    O2 9734   3.441   4.364  15.148  0.1425  0.3224 -0.4497
  658MPD2     C 9735   0.385   4.389  14.921 -0.5899 -0.5958 -0.3444
  658MPD2    C1 9736   0.253   4.421  14.895 -0.2473 -0.2440 -1.4730
  658MPD2    C2 9737   0.222   4.503  14.785  0.0129 -0.2469 -0.1233
  658MPD2    C3 9738   0.327   4.554  14.714 -0.0080  0.0989 -0.0981
  658MPD2    C4 9739   0.461   4.532  14.739  0.6830  0.0399  0.0991
  658MPD2    C5 9740   0.485   4.449  14.845 -0.6392 -0.3951 -0.6280
  658MPD2     H 9741   0.122   4.526  14.751  0.1841 -0.6198 -0.8739
  658MPD2    H1 9742   0.542   4.557  14.671  1.7925 -0.8436  1.0946
  658MPD2    H2 9743   0.404   4.330  15.011 -2.0298 -1.3439 -0.5341
  658MPD2    H3 9744   0.588   4.431  14.875 -0.1654  3.3458 -0.0596
  658MPD2     N 9745   0.285   4.623  14.600  0.2954 -0.1664  0.4131
  658MPD2    H5 9746   0.186   4.618  14.580  0.5432  1.4244 -1.1491
  658MPD2    N1 9747   0.159   4.378  14.986 -0.4071  0.0376  0.3904
  658MPD2    H7 9748   0.193   4.330  15.069  0.3157  0.1823  0.1789
  659TMC3    C1 9749   4.690   4.406  15.115 -0.0182 -0.7751 -0.4489
  659TMC3    C2 9750   0.021   4.477  15.218  0.2082  0.2490 -0.4997
  659TMC3    C3 9751   4.649   4.551  15.287  0.2501  0.2421  0.0812
  659TMC3    C4 9752   4.563   4.397  15.087 -0.6954 -0.3839  0.0904
  659TMC3    C5 9753   4.472   4.469  15.161  0.0017 -0.5408  0.1116
  659TMC3    C6 9754   4.513   4.535  15.278 -0.2828 -0.3589  0.4746
  659TMC3     C 9755   0.028   4.414  14.987  0.9921 -0.1327  0.1550
  659TMC3     O 9756   4.686   4.467  14.891  0.4844  0.3297  0.4971
  659TMC3     H 9757   0.128   4.490  15.214 -0.1136  2.5259 -1.6150
  659TMC3    H1 9758   4.543   4.335  15.000  3.3990 -1.9901  0.2829
  659TMC3    H2 9759   4.452   4.594  15.345  1.1783  1.6285  0.0311
  659TMC3    C7 9760   4.334   4.469  15.123  0.1285 -0.3045 -0.3358
  659TMC3    C8 9761   4.687   4.674  15.359  0.1150  0.1896 -0.2900
  659TMC3    O1 9762   4.254   4.499  15.214  0.1361 -0.1383 -0.6323
  659TMC3    O2 9763   4.601   0.038  15.368  0.3395  0.0311  0.2805
  660MPD2     C 9764   3.619   3.335  12.225 -0.6461  0.2932 -0.8599
  660MPD2    C1 9765   3.498   3.384  12.261  0.5943  0.0840  0.5489
  660MPD2    C2 9766   3.404   3.310  12.325 -0.7261 -0.9526 -0.2920
  660MPD2    C3 9767   3.434   3.179  12.369 -0.4172 -0.3946  0.3625
  660MPD2    C4 9768   3.568   3.136  12.352 -0.1729  0.1310  0.9838
  660MPD2    C5 9769   3.655   3.215  12.278  0.8075  0.2043  0.2017
  660MPD2     H 9770   3.304   3.350  12.337 -1.5496 -2.4337 -2.2557
  660MPD2    H1 9771   3.610   3.044  12.390  1.6948  0.0946 -1.1602
  660MPD2    H2 9772   3.691   3.395  12.171  1.1191 -0.1895  0.9506
  660MPD2    H3 9773   3.753   3.176  12.252 -0.3987 -1.9340 -1.1080
  660MPD2     N 9774   3.348   3.100  12.433 -0.3541 -0.3486 -0.3026
  660MPD2    H5 9775   3.383   3.019  12.485  0.2748  1.4830  2.1175
  660MPD2    N1 9776   3.470   3.514  12.219 -0.5663 -0.2980  0.4508
  660MPD2    H7 9777   3.531   3.556  12.149 -2.0157  1.5764  0.3360
  661TMC3    C1 9778   3.317   3.686  12.165 -0.1167 -0.6215 -0.0268
  661TMC3    C2 9779   3.384   3.704  12.048 -0.0318 -0.8987 -0.6538
  661TMC3    C3 9780   3.315   3.739  11.930 -0.3053  0.3953  0.0151
  661TMC3    C4 9781   3.184   3.704  12.170 -0.3635  0.8190  0.3808
  661TMC3    C5 9782   3.117   3.742  12.057  0.5972  0.3660  0.2276
  661TMC3    C6 9783   3.177   3.754  11.936  0.3953  0.0995  0.4210
  661TMC3     C 9784   3.367   3.593  12.263 -0.1993 -0.3579  1.0891
  661TMC3     O 9785   3.303   3.589  12.368  0.2938 -0.0483  0.5651
  661TMC3     H 9786   3.492   3.703  12.046  0.0413  2.4454  1.3110
  661TMC3    H1 9787   3.122   3.655  12.244  0.4793 -1.6631 -0.5417
  661TMC3    H2 9788   3.129   3.797  11.849  2.3462  0.0918 -0.6581
  661TMC3    C7 9789   2.974   3.720  12.056 -0.2830  0.1735  0.1545
  661TMC3    C8 9790   3.381   3.814  11.820 -0.3411 -0.0852 -0.9746
  661TMC3    O1 9791   2.912   3.748  12.158 -0.2783 -0.3918  0.5833
  661TMC3    O2 9792   3.353   3.778  11.703 -0.2862  0.2298 -0.1464
  662MPD2     C 9793   3.231   3.386  17.447  0.3909  0.1373  0.4668
  662MPD2    C1 9794   3.188   3.350  17.573 -0.2053 -0.1317 -0.9447
  662MPD2    C2 9795   3.131   3.447  17.658  0.0264 -0.1809 -0.1749
  662MPD2    C3 9796   3.126   3.579  17.626  0.6279 -0.2630 -0.1215
  662MPD2    C4 9797   3.177   3.610  17.502 -0.7879 -0.6703 -1.0497
  662MPD2    C5 9798   3.233   3.519  17.416  0.0584 -0.1706 -0.3538
  662MPD2     H 9799   3.091   3.414   0.060 -0.3359 -1.9270 -0.9382
  662MPD2    H1 9800   3.170   3.712  17.465  1.6817  0.2769  1.1768
  662MPD2    H2 9801   3.265   3.325  17.365  1.7941 -1.2338  2.0573
  662MPD2    H3 9802   3.253   3.556  17.316 -1.8016  0.7385 -0.3871
  662MPD2     N 9803   3.065   3.682   0.010 -0.0162 -0.7747  0.3295
  662MPD2    H5 9804   3.066   3.773  17.659 -1.1041 -0.4524  0.9635
  662MPD2    N1 9805   3.193   3.211  17.615 -0.5025  0.1612 -0.0220
  662MPD2    H7 9806   3.149   3.185   0.010 -1.5333 -0.5090 -0.7248
  663TMC3    C1 9807   3.206   2.980  17.595 -0.4288 -0.0760 -0.2116
  663TMC3    C2 9808   3.077   2.962  17.636  0.4626  0.2388  0.3895
  663TMC3    C3 9809   3.022   2.840  17.631  0.3491  1.1612 -0.2002
  663TMC3    C4 9810   3.291   2.877  17.558  0.1337  0.0885 -0.0971
  663TMC3    C5 9811   3.235   2.753  17.551  0.4165  0.2801  0.9481
  663TMC3    C6 9812   3.108   2.732  17.599 -0.3776 -0.1769  0.2888
  663TMC3     C 9813   3.242   3.110  17.542  0.0706  0.1417  0.1893
  663TMC3     O 9814   3.307   3.101  17.439  0.5938 -0.6612  0.1952
  663TMC3     H 9815   3.009   3.045  17.619  2.0927  0.7199 -3.6971
  663TMC3    H1 9816   3.392   2.902  17.529 -0.8289  2.7198 -1.2767
  663TMC3    H2 9817   3.051   2.649  17.562 -1.1758  0.6360 -0.3005
  663TMC3    C7 9818   3.318   2.656  17.492  0.0646  0.4880 -0.0637
  663TMC3    C8 9819   2.944   2.798   0.055 -0.0516  0.0518 -0.6429
  663TMC3    O1 9820   3.415   2.693  17.435  0.6083 -0.2537 -0.0152
  663TMC3    O2 9821   2.933   2.678   0.089  0.0320 -0.0587 -0.2747
  664MPD2     C 9822   1.597   1.200  17.462 -0.2741 -0.2420 -0.3515
  664MPD2    C1 9823   1.586   1.330  17.507  0.0460 -0.4503 -0.1335
  664MPD2    C2 9824   1.595   1.354  17.640 -0.0659 -0.1939  0.5047
  664MPD2    C3 9825   1.588   1.253   0.044  0.0120 -0.0936  0.2928
  664MPD2    C4 9826   1.590   1.124   0.002  0.2883  0.2201  0.2709
  664MPD2    C5 9827   1.599   1.101  17.562  0.4364 -0.2284 -0.6160
  664MPD2     H 9828   1.594   1.459  17.668  2.9698 -0.0523  0.0659
  664MPD2    H1 9829   1.583   1.038   0.068  0.3656 -0.9201 -1.1932
  664MPD2    H2 9830   1.595   1.162  17.361  0.3722 -0.2695 -0.3545
  664MPD2    H3 9831   1.608   1.001  17.520  1.3704 -0.5675  0.4056
  664MPD2     N 9832   1.577   1.296   0.180 -0.5480  0.2616 -0.0231
  664MPD2    H5 9833   1.586   1.395   0.200  1.1899  0.3118 -1.0364
  664MPD2    N1 9834   1.590   1.440  17.419 -0.1095  0.4876  0.0879
  664MPD2    H7 9835   1.564   1.529  17.459  2.2245  0.7314  1.0750
  665TMC3    C1 9836   1.475   1.311   0.384  0.1916  0.5726  0.0610
  665TMC3    C2 9837   1.348   1.301   0.434  0.5767  0.0994 -0.2034
  665TMC3    C3 9838   1.307   1.406   0.521 -0.2833 -0.6526  0.8687
  665TMC3    C4 9839   1.561   1.408   0.425 -0.4017 -0.3454 -0.3891
  665TMC3    C5 9840   1.519   1.501   0.518 -0.5064  0.5583  0.0289
  665TMC3    C6 9841   1.392   1.497   0.573 -0.1851 -0.0868  0.3935
  665TMC3     C 9842   1.508   1.221   0.275  0.7260  0.1039  0.4261
  665TMC3     O 9843   1.435   1.120   0.264 -0.2006  0.1507  0.3595
  665TMC3     H 9844   1.279   1.220   0.415 -0.7179  1.2757 -0.5343
  665TMC3    H1 9845   1.663   1.405   0.390 -0.5086  0.9953 -0.7936
  665TMC3    H2 9846   1.361   1.568   0.649  1.5686  0.4168  0.6503
  665TMC3    C7 9847   1.599   1.623   0.526  0.0560  0.8398  0.1891
  665TMC3    C8 9848   1.179   1.410   0.585  0.0580 -0.3379 -1.0733
  665TMC3    O1 9849   1.685   1.634   0.435 -0.3158  0.3375  0.1482
  665TMC3    O2 9850   1.168   1.473   0.693 -0.0116  0.1633  0.0676
  666TMC3    C1 9851   0.953   0.932  10.303  0.3299  0.0096  0.5411
  666TMC3    C2 9852   1.056   0.898  10.391  0.6193 -0.3898  0.0031
  666TMC3    C3 9853   1.169   0.976  10.375  0.0396  0.2149 -0.8868
  666TMC3    C4 9854   0.955   1.041  10.221 -0.5004  0.1387 -0.2598
  666TMC3    C5 9855   1.072   1.115  10.214  0.1053 -0.1375  0.1141
  666TMC3    C6 9856   1.182   1.073  10.282 -0.0969  0.5931 -0.5451
  666TMC3     C 9857   0.831   0.857  10.302 -0.7391  0.1734 -0.0930
  666TMC3     O 9858   0.821   0.756  10.371  0.1322  0.4133 -0.0686
  666TMC3     H 9859   1.046   0.823  10.469 -0.5012 -2.5771 -2.2804
  666TMC3    H1 9860   0.875   1.077  10.157 -2.2431 -1.1309  1.2216
  666TMC3    H2 9861   1.269   1.138  10.285  0.7882 -0.6857  2.1228
  666TMC3    C7 9862   1.073   1.243  10.156  0.4176 -0.2650  0.5114
  666TMC3    C8 9863   1.260   0.970  10.483 -0.4782 -0.1579  0.5126
  666TMC3    O1 9864   1.178   1.282  10.107  0.1745 -0.3218 -0.1575
  666TMC3    O2 9865   1.211   0.917  10.584  0.0905 -0.1246 -0.7413
  667MPD2     C 9866   2.593   1.551  14.873  0.7373 -0.1288 -0.3953
  667MPD2    C1 9867   2.479   1.627  14.853  0.9333  0.9964  1.0331
  667MPD2    C2 9868   2.367   1.553  14.832  0.9898  0.3303  0.6111
  667MPD2    C3 9869   2.363   1.414  14.835 -0.3050 -0.3151 -0.1406
  667MPD2    C4 9870   2.477   1.356  14.870 -0.4762 -0.0673 -0.6638
  667MPD2    C5 9871   2.595   1.418  14.884  0.0137 -0.3154 -0.5488
  667MPD2     H 9872   2.274   1.599  14.799 -1.2613 -4.8200 -0.1692
  667MPD2    H1 9873   2.474   1.248  14.870  0.8955 -0.0859 -2.7123
  667MPD2    H2 9874   2.686   1.605  14.879  0.6079  0.0190  0.2555
  667MPD2    H3 9875   2.687   1.363  14.897  0.9091  1.1681 -0.5799
  667MPD2     N 9876   2.249   1.343  14.789  0.4178  0.5496  0.0693
  667MPD2    H5 9877   2.243   1.242  14.787 -0.0085  0.5635  0.6429
  667MPD2    N1 9878   2.472   1.761  14.842  0.3794 -0.0151 -0.4748
  667MPD2    H7 9879   2.384   1.801  14.810  0.5973 -1.3329 -2.6684
  668TMC3    C1 9880   2.533   1.985  14.856 -0.5989  0.3613 -0.2354
  668TMC3    C2 9881   2.638   2.066  14.820 -0.2600  0.0533 -0.4477
  668TMC3    C3 9882   2.626   2.198  14.855  1.3252 -0.0574  0.3403
  668TMC3    C4 9883   2.416   2.032  14.910  0.3483  0.0273 -0.7040
  668TMC3    C5 9884   2.419   2.161  14.947  0.1931  0.0801 -0.2573
  668TMC3    C6 9885   2.516   2.248  14.919 -0.0594 -0.8206 -0.5162
  668TMC3     C 9886   2.563   1.851  14.894  0.1942  0.2241 -0.1472
  668TMC3     O 9887   2.675   1.826  14.933  0.0665 -0.1280  0.1996
  668TMC3     H 9888   2.726   2.023  14.772 -1.8248 -1.1385 -2.2552
  668TMC3    H1 9889   2.336   1.964  14.938  1.0717 -0.8098 -0.6894
  668TMC3    H2 9890   2.516   2.348  14.961 -0.5786 -2.5153  3.5104
  668TMC3    C7 9891   2.337   2.194  15.062 -0.0718  0.0184 -0.5569
  668TMC3    C8 9892   2.754   2.273  14.842  0.3839 -0.3750 -0.6630
  668TMC3    O1 9893   2.226   2.145  15.067  0.8874  0.1940 -0.7079
  668TMC3    O2 9894   2.858   2.209  14.836  0.1291  0.2818  0.0465
  669TMC3    C1 9895   0.499   1.379  14.179 -0.3036  0.7664 -0.6281
  669TMC3    C2 9896   0.385   1.454  14.167 -0.4654 -0.0613  0.2067
  669TMC3    C3 9897   0.385   1.570  14.099  0.0559  0.1708 -0.2113
  669TMC3    C4 9898   0.616   1.431  14.132 -0.0211  0.3211  1.0768
  669TMC3    C5 9899   0.607   1.555  14.076 -0.1794  0.3891  0.6219
  669TMC3    C6 9900   0.495   1.625  14.050 -0.2910  0.1144  0.9769
  669TMC3     C 9901   0.497   1.276  14.274  0.0381  0.4415  0.2606
  669TMC3     O 9902   0.417   1.268  14.363  0.2017 -0.2374 -0.3462
  669TMC3     H 9903   0.293   1.415  14.207 -0.1502  1.4281  2.3467
  669TMC3    H1 9904   0.711   1.409  14.179 -0.1997  0.0929  1.3315
  669TMC3    H2 9905   0.501   1.720  13.998  0.6442 -1.1534 -1.2425
  669TMC3    C7 9906   0.734   1.630  14.056  0.8508  0.0314 -0.3691
  669TMC3    C8 9907   0.264   1.601  14.038  0.1801 -0.1032  0.6175
  669TMC3    O1 9908   0.723   1.745  14.020  0.3900  0.4202 -0.8793
  669TMC3    O2 9909   0.169   1.523  14.042  0.2004 -0.0922  0.3251
  670MPD2     C 9910   3.294   4.023  13.063 -0.1393 -0.0969  0.1159
  670MPD2    C1 9911   3.402   4.088  13.119 -0.8220 -0.5476 -0.6844
  670MPD2    C2 9912   3.427   4.107  13.251 -0.2248  0.4359 -0.1129
  670MPD2    C3 9913   3.337   4.058  13.341 -0.2163 -0.0552  0.2004
  670MPD2    C4 9914   3.219   4.005  13.291 -0.6147  0.0778  0.0277
  670MPD2    C5 9915   3.199   3.981  13.155  0.0859  0.3310 -0.6141
  670MPD2     H 9916   3.523   4.150  13.278 -0.6293  1.0065  0.4089
  670MPD2    H1 9917   3.143   3.960  13.354  0.1270  0.0595  0.9092
  670MPD2    H2 9918   3.275   4.004  12.958 -0.6753 -1.7946  0.5153
  670MPD2    H3 9919   3.114   3.925  13.118 -0.1818  1.0405 -1.0730
  670MPD2     N 9920   3.369   4.048  13.477  0.7464 -0.6094 -0.1113
  670MPD2    H5 9921   3.460   4.081  13.509  0.8660  0.6507 -1.7497
  670MPD2    N1 9922   3.505   4.139  13.040 -0.5584  0.3671 -0.4224
  670MPD2    H7 9923   3.583   4.184  13.086 -0.6157 -0.9338  0.9453
  671TMC3    C1 9924   3.352   3.991  13.709 -0.2497 -0.1812 -0.1053
  671TMC3    C2 9925   3.486   3.988  13.721  0.0512  0.0703 -0.1892
  671TMC3    C3 9926   3.542   3.958  13.839 -0.0383  0.5169  0.2350
  671TMC3    C4 9927   3.270   3.977  13.820 -0.1730 -0.1507  0.8980
  671TMC3    C5 9928   3.334   3.968  13.938 -0.3830  0.5404  0.5519
  671TMC3    C6 9929   3.466   3.969  13.952 -0.4470 -0.0706  0.9088
  671TMC3     C 9930   3.289   3.983  13.576 -0.1643 -0.3289  0.0700
  671TMC3     O 9931   3.175   3.946  13.572 -0.4849 -0.1004 -0.0959
  671TMC3     H 9932   3.552   3.966  13.638 -2.8046 -2.0791 -1.9103
  671TMC3    H1 9933   3.162   3.972  13.821 -0.1568 -0.8201 -0.7752
  671TMC3    H2 9934   3.495   3.948  14.054  0.4268 -1.8440  0.2935
  671TMC3    C7 9935   3.279   3.873  14.039 -0.1590  0.0249 -0.2340
  671TMC3    C8 9936   3.624   3.843  13.841 -0.6735  0.0989  0.1474
  671TMC3    O1 9937   3.326   3.863  14.153  0.1676  0.2246  0.0557
  671TMC3    O2 9938   3.664   3.805  13.734 -0.0643  0.6327 -0.1774
  672MPD2     C 9939   3.417   4.198   1.057  0.3762 -0.4573  0.9428
  672MPD2    C1 9940   3.480   4.314   1.013  0.4552  0.5419  0.0756
  672MPD2    C2 9941   3.486   4.430   1.092  0.4314  0.2412 -0.2954
  672MPD2    C3 9942   3.434   4.427   1.221  0.1154  0.2298 -0.3944
  672MPD2    C4 9943   3.381   4.311   1.267  0.3349  0.0990 -0.2873
  672MPD2    C5 9944   3.368   4.200   1.188  0.1854  0.6074  0.6956
  672MPD2     H 9945   3.540   4.519   1.061  0.1516  1.6489  3.2223
  672MPD2    H1 9946   3.339   4.308   1.367  1.1631  0.8680  0.0765
  672MPD2    H2 9947   3.402   4.107   0.999 -0.4050 -0.2260  0.7894
  672MPD2    H3 9948   3.320   4.109   1.222  2.4654 -1.2777 -1.1447
  672MPD2     N 9949   3.441   4.534   1.307  0.4763  0.4499 -0.5464
  672MPD2    H5 9950   3.410   4.517   1.402  0.8926 -1.2724 -0.7137
  672MPD2    N1 9951   3.567   4.306   0.905 -0.5247  0.1004  0.3285
  672MPD2    H7 9952   3.610   4.391   0.869  0.4570 -0.2747  0.6178
  673TMC3    C1 9953   3.740   4.217   0.777  0.3248  0.6434  0.2094
  673TMC3    C2 9954   3.835   4.121   0.782 -0.0627 -0.3969 -0.0771
  673TMC3    C3 9955   3.941   4.128   0.695 -0.2638  1.1633 -0.0602
  673TMC3    C4 9956   3.736   4.308   0.678 -0.0315 -0.7171  0.2284
  673TMC3    C5 9957   3.841   4.306   0.589 -0.2818  0.2835  0.1115
  673TMC3    C6 9958   3.945   4.221   0.600 -0.5339  0.0235  0.2797
  673TMC3     C 9959   3.628   4.188   0.862 -1.1759  0.3759 -0.5795
  673TMC3     O 9960   3.590   4.071   0.859  0.3312  0.2600  0.4368
  673TMC3     H 9961   3.835   4.052   0.866  1.2849 -0.1996  0.0809
  673TMC3    H1 9962   3.655   4.379   0.671  0.3399 -0.4982 -1.7141
  673TMC3    H2 9963   4.023   4.226   0.525  1.2397 -0.8501  2.1003
  673TMC3    C7 9964   3.848   4.407   0.487 -0.1329  0.3369  0.2150
  673TMC3    C8 9965   4.063   4.065   0.731  0.3509 -0.1169  0.4506
  673TMC3    O1 9966   3.947   4.404   0.419  0.5869 -0.0766  0.0175
  673TMC3    O2 9967   4.138   4.023   0.644 -0.2643 -0.3774  0.1347
  674MPD2     C 9968   3.037   4.456   1.028 -0.7080 -0.7007  0.0706
  674MPD2    C1 9969   3.040   4.341   0.957  0.0861 -0.3867  0.1394
  674MPD2    C2 9970   2.942   4.246   0.963  0.2208 -0.5878  0.7522
  674MPD2    C3 9971   2.841   4.263   1.065  0.2043 -0.9714 -0.0358
  674MPD2    C4 9972   2.855   4.367   1.151  0.7952  0.2458  0.2343
  674MPD2    C5 9973   2.945   4.469   1.124  0.3423 -0.1188  0.4689
  674MPD2     H 9974   2.939   4.158   0.900 -0.1678  0.3491 -0.5454
  674MPD2    H1 9975   2.777   4.397   1.220 -0.9001 -0.8138 -1.2451
  674MPD2    H2 9976   3.115   4.528   1.005 -0.3363 -1.4060 -0.8708
  674MPD2    H3 9977   2.931   4.567   1.167 -0.9447 -0.4399  0.7861
  674MPD2     N 9978   2.736   4.168   1.065 -0.7370  0.2773 -0.5861
  674MPD2    H5 9979   2.735   4.100   0.991 -0.0987  0.8078 -1.0822
  674MPD2    N1 9980   3.138   4.342   0.857  0.4999  0.1068 -0.6579
  674MPD2    H7 9981   3.185   4.430   0.842  0.5158 -0.0956 -1.8627
  675TMC3    C1 9982   3.280   4.265   0.689 -0.3518 -0.0730  0.6117
  675TMC3    C2 9983   3.359   4.160   0.635  0.0008  0.3794  0.2346
  675TMC3    C3 9984   3.418   4.172   0.512  0.9735 -0.5275 -0.0789
  675TMC3    C4 9985   3.259   4.374   0.617  0.1056  0.2782 -0.0525
  675TMC3    C5 9986   3.320   4.384   0.491 -0.0067 -0.3218 -0.2309
  675TMC3    C6 9987   3.402   4.285   0.437  0.1756 -0.6453 -0.1503
  675TMC3     C 9988   3.177   4.227   0.789 -0.3792 -0.6098  0.2123
  675TMC3     O 9989   3.137   4.112   0.801 -0.0990 -0.3457 -0.2166
  675TMC3     H 9990   3.358   4.066   0.689 -0.7839  0.8113  0.9783
  675TMC3    H1 9991   3.193   4.453   0.648  0.1984  0.1340  0.5078
  675TMC3    H2 9992   3.434   4.283   0.334  0.1334  0.0093 -0.1776
  675TMC3    C7 9993   3.284   4.482   0.391  0.7416  0.3020  0.0338
  675TMC3    C8 9994   3.516   4.074   0.463  0.3866  0.4250 -0.3736
  675TMC3    O1 9995   3.369   4.496   0.304 -0.0852 -0.1453  0.1785
  675TMC3    O2 9996   3.543   4.067   0.346 -0.5632  0.1878 -0.0521
  676MPD2     C 9997   1.689   2.345  11.187  0.4531  0.0854 -0.3553
  676MPD2    C1 9998   1.708   2.233  11.262 -0.0750  0.4278  0.4638
  676MPD2    C2 9999   1.765   2.120  11.208  0.8726  0.0764 -0.1411
  676MPD2    C310000   1.810   2.122  11.081 -0.1184 -0.2343 -0.4141
  676MPD2    C410001   1.791   2.235  11.002  0.2756  0.2980 -0.2038
  676MPD2    C510002   1.736   2.350  11.057 -0.5790  0.3993  0.0178
  676MPD2     H10003   1.787   2.031  11.266 -0.0368  0.7583  1.2503
  676MPD2    H110004   1.824   2.253  10.900  1.1813 -0.2518 -0.0099
  676MPD2    H210005   1.636   2.432  11.223  0.0000 -0.3631  0.0662
  676MPD2    H310006   1.723   2.434  10.991  0.0031 -0.7774 -1.6060
  676MPD2     N10007   1.871   2.006  11.038  0.2299  0.4881 -0.4379
  676MPD2    H510008   1.848   1.924  11.092  1.2080  0.5532  0.0728
  676MPD2    N110009   1.665   2.228  11.394  0.8342 -0.4276 -0.2187
  676MPD2    H710010   1.680   2.138  11.438 -0.1995  0.5403  2.0710
  677TMC3    C110011   1.586   2.286  11.602 -0.2343  0.1097 -0.2735
  677TMC3    C210012   1.586   2.154  11.620  0.6894 -0.3148 -0.3736
  677TMC3    C310013   1.669   2.095  11.715  0.6313 -0.0078  0.3945
  677TMC3    C410014   1.639   2.365  11.700 -0.1854 -0.4130 -0.1175
  677TMC3    C510015   1.705   2.307  11.797  0.4466 -0.2084 -0.3476
  677TMC3    C610016   1.720   2.177  11.803 -0.4267 -0.4494 -0.1298
  677TMC3     C10017   1.602   2.326  11.466 -0.4303 -0.2038 -0.0125
  677TMC3     O10018   1.577   2.440  11.437 -0.6333 -0.5891  0.2891
  677TMC3     H10019   1.540   2.082  11.554 -1.4291 -0.2973  1.0955
  677TMC3    H110020   1.626   2.473  11.708  1.1936 -0.4286  2.2232
  677TMC3    H210021   1.778   2.130  11.883 -1.3357 -1.2453  0.0608
  677TMC3    C710022   1.786   2.393  11.884  0.8462 -0.0086 -0.2216
  677TMC3    C810023   1.744   1.985  11.654  0.1191 -0.3364  0.6444
  677TMC3    O110024   1.818   2.348  11.989  0.1609  0.4110 -0.6813
  677TMC3    O210025   1.750   1.991  11.532  0.2560  0.3457  0.3560
  678MPD2     C10026   2.354   3.046   1.492 -0.4302 -0.2043 -0.0781
  678MPD2    C110027   2.410   2.963   1.393  0.3257 -0.2121  0.4706
  678MPD2    C210028   2.324   2.871   1.332  0.0330 -0.0004  0.0378
  678MPD2    C310029   2.191   2.870   1.364 -0.2117  0.1155  0.6098
  678MPD2    C410030   2.140   2.971   1.446 -0.1187 -0.6230 -0.1813
  678MPD2    C510031   2.222   3.045   1.521  0.2963  0.8212  0.2898
  678MPD2     H10032   2.365   2.800   1.262 -1.3362 -0.9401  0.1823
  678MPD2    H110033   2.038   2.953   1.480  0.3908 -2.3177  0.4593
  678MPD2    H210034   2.414   3.115   1.550 -0.2769  0.9319 -1.6010
  678MPD2    H310035   2.176   3.116   1.589  0.0755  0.1664  0.8207
  678MPD2     N10036   2.107   2.786   1.286  0.9933  0.5865 -0.6077
  678MPD2    H510037   2.156   2.723   1.223  1.6084  0.3659  0.0945
  678MPD2    N110038   2.543   2.963   1.357 -0.2833 -0.6937  0.2449
  678MPD2    H710039   2.547   2.907   1.272  0.1940  0.6053 -0.5811
  679TMC3    C110040   2.918   2.896   1.189  0.4337 -1.1281  0.3406
  679TMC3    C210041   2.801   2.901   1.260  0.4465  0.2515 -0.0887
  679TMC3    C310042   2.775   3.012   1.331 -0.0807 -0.0900 -0.3655
  679TMC3    C410043   2.999   3.000   1.182 -0.8033 -0.0335 -0.2561
  679TMC3    C510044   2.971   3.108   1.255 -0.2215 -0.7820 -0.5009
  679TMC3    C610045   2.856   3.120   1.327 -0.2714  0.2241 -0.2223
  679TMC3     C10046   2.933   2.787   1.093  0.7619 -0.0105 -0.2734
  679TMC3     O10047   2.835   2.713   1.098 -0.7095 -0.4086 -0.6602
  679TMC3     H10048   2.731   2.819   1.265 -0.5902  1.0626 -1.1220
  679TMC3    H110049   3.078   3.009   1.108 -0.3790 -1.4280  0.0374
  679TMC3    H210050   2.821   3.205   1.384  0.2491  0.1188  0.2512
  679TMC3    C710051   2.992   3.230   1.174 -0.7414  0.0677  0.0469
  679TMC3    C810052   2.650   3.038   1.403 -0.4570  0.2381 -1.0028
  679TMC3    O110053   3.026   3.221   1.056  0.0875  0.0999 -0.4607
  679TMC3    O210054   2.647   3.119   1.494  0.1112 -0.1378 -0.0954
  680MPD2     C10055   2.699   0.889  13.288 -0.1349 -0.2124 -0.6502
  680MPD2    C110056   2.790   0.835  13.378  0.3068 -0.2352  0.3967
  680MPD2    C210057   2.868   0.928  13.438  0.0862  0.2623  0.4961
  680MPD2    C310058   2.858   1.062  13.421 -0.3014  0.1311  0.0976
  680MPD2    C410059   2.770   1.108  13.333 -0.4623  0.4257  0.3091
  680MPD2    C510060   2.691   1.023  13.272 -0.0240  0.2229  0.5871
  680MPD2     H10061   2.933   0.882  13.511 -2.5170  0.2107  2.7629
  680MPD2    H110062   2.757   1.215  13.321 -0.3345  0.6249  1.9546
  680MPD2    H210063   2.627   0.830  13.232 -0.5985 -0.9030  0.6764
  680MPD2    H310064   2.608   1.057  13.211  0.5878  1.6485  0.5402
  680MPD2     N10065   2.940   1.159  13.493 -0.0237 -0.8430 -0.2268
  680MPD2    H510066   2.937   1.257  13.466 -0.9915 -0.8462 -0.1168
  680MPD2    N110067   2.806   0.696  13.399  0.0258 -0.3946  0.2081
  680MPD2    H710068   2.884   0.674  13.459  0.6127 -0.7295 -0.6683
  681TMC3    C110069   2.805   0.469  13.369  0.8292  0.9905  0.3403
  681TMC3    C210070   2.719   0.391  13.432 -0.1228 -0.0854  0.7613
  681TMC3    C310071   2.751   0.329  13.552  0.1273 -0.3963 -0.3725
  681TMC3    C410072   2.934   0.484  13.410  0.2276 -0.0702 -0.3976
  681TMC3    C510073   2.972   0.409  13.510  0.4476  0.6313  0.4527
  681TMC3    C610074   2.885   0.335  13.592  0.8207  0.0323 -0.1532
  681TMC3     C10075   2.741   0.592  13.327 -0.8543 -0.3605 -0.1393
  681TMC3     O10076   2.636   0.587  13.265 -0.2049 -0.0684 -0.0661
  681TMC3     H10077   2.614   0.400  13.406  0.1539 -0.7387 -0.5947
  681TMC3    H110078   2.995   0.539  13.338 -0.8382 -1.5175 -2.4004
  681TMC3    H210079   2.918   0.282  13.681  2.2031 -1.1607 -1.3789
  681TMC3    C710080   3.114   0.391  13.537  0.3399  0.5569 -0.1211
  681TMC3    C810081   2.650   0.334  13.653 -0.1616 -0.7744  0.2053
  681TMC3    O110082   3.136   0.326  13.635  0.6235  0.2751  0.0457
  681TMC3    O210083   2.557   0.262  13.637  0.2220 -0.2167  0.8207
  682MPD2     C10084   0.278   2.305  10.505 -0.6159  0.5995 -0.0745
  682MPD2    C110085   0.252   2.180  10.557  0.2613 -0.1198  0.6381
  682MPD2    C210086   0.198   2.169  10.682  0.1785  0.0196 -0.1509
  682MPD2    C310087   0.187   2.283  10.756 -0.7278  0.1289  0.2909
  682MPD2    C410088   0.206   2.409  10.699 -0.0908  0.9878 -0.6702
  682MPD2    C510089   0.267   2.422  10.576 -0.1916 -0.2337  0.0761
  682MPD2     H10090   0.180   2.071  10.724 -1.4727  0.3023 -0.2117
  682MPD2    H110091   0.187   2.504  10.748 -1.2679  1.3168 -1.7997
  682MPD2    H210092   0.319   2.321  10.406 -1.0556  1.8201 -0.0481
  682MPD2    H310093   0.277   2.518  10.527  1.9509  0.0113  0.9649
  682MPD2     N10094   0.155   2.265  10.894 -0.2222 -0.0180  0.1618
  682MPD2    H510095   0.123   2.174  10.924  0.5357  0.4521  2.4261
  682MPD2    N110096   0.263   2.058  10.488  0.5618  0.3363  0.1661
  682MPD2    H710097   0.225   1.971  10.523  0.9101  0.5198  1.0164
  683TMC3    C110098   0.196   2.285  11.339 -0.1455 -0.0860 -0.9153
  683TMC3    C210099   0.127   2.166  11.345 -0.1358 -0.0663  0.4136
  683TMC3    C310100   0.046   2.131  11.243 -0.3155 -0.8587 -0.1139
  683TMC3    C410101   0.191   2.350  11.221 -0.7275  0.0697  0.5592
  683TMC3    C510102   0.118   2.304  11.117 -0.0050  0.4081 -0.0749
  683TMC3    C610103   0.029   2.197  11.127  0.3054  0.4230 -0.2483
  683TMC3     C10104   0.312   2.305  11.421 -0.1420 -0.0509  0.1651
  683TMC3     O10105   0.385   2.400  11.398  0.3123 -0.1794  0.2114
  683TMC3     H10106   0.127   2.113  11.440  1.1428  0.5517  0.7763
  683TMC3    H110107   0.257   2.434  11.201  1.9629 -1.7168  1.8863
  683TMC3    H210108   4.687   2.165  11.046  1.1309 -0.9842 -0.3495
  683TMC3    C710109   0.159   2.369  10.989 -0.1795 -0.0837 -0.0375
  683TMC3    C810110   4.672   2.022  11.280  0.6633  0.2475 -1.2452
  683TMC3    O110111   0.207   2.478  10.989 -0.3039 -0.4985  0.4586
  683TMC3    O210112   4.554   2.042  11.245  0.5153 -0.7161 -0.0588
  684MPD2     C10113   3.118   1.984  16.181 -0.8788  0.1660 -0.2426
  684MPD2    C110114   3.146   1.973  16.048  0.2476  0.2822  0.4456
  684MPD2    C210115   3.177   2.085  15.975 -0.4112  0.0734 -0.3873
  684MPD2    C310116   3.194   2.206  16.045 -0.0348  0.7466  0.3912
  684MPD2    C410117   3.164   2.215  16.181  0.1402  0.4691  0.0065
  684MPD2    C510118   3.123   2.099  16.245 -0.7512 -0.7867 -0.1263
  684MPD2     H10119   3.202   2.078  15.870 -0.4568  0.4829 -0.4240
  684MPD2    H110120   3.166   2.307  16.238  0.3912  1.3254 -1.3774
  684MPD2    H210121   3.085   1.901  16.243 -3.5475  1.5186  0.1558
  684MPD2    H310122   3.081   2.110  16.344 -0.5297  0.4413 -0.1697
  684MPD2     N10123   3.240   2.322  15.988 -0.4849  0.5362  0.3026
  684MPD2    H510124   3.249   2.403  16.049 -2.2913  0.5965  0.4692
  684MPD2    N110125   3.147   1.846  15.987  0.2632 -0.5265  0.0107
  684MPD2    H710126   3.132   1.842  15.887  2.4349  0.8518 -0.3817
  685TMC3    C110127   3.204   1.621  15.959 -0.5364  0.0424  0.4466
  685TMC3    C210128   3.129   1.623  15.845 -0.0348  0.7005 -0.2231
  685TMC3    C310129   3.159   1.557  15.727  0.2901  0.3436 -0.4672
  685TMC3    C410130   3.327   1.566  15.956  0.4985 -0.8413  0.2174
  685TMC3    C510131   3.361   1.519  15.832  0.4406 -0.0086  0.5090
  685TMC3    C610132   3.279   1.494  15.724 -0.4116 -0.1459  0.1602
  685TMC3     C10133   3.187   1.736  16.055  0.1231 -0.0073 -0.0467
  685TMC3     O10134   3.255   1.733  16.155 -0.8163 -0.3138  0.4607
  685TMC3     H10135   3.025   1.647  15.863  0.6225  1.3931  2.6150
  685TMC3    H110136   3.395   1.575  16.040  2.2124 -0.2285 -1.2233
  685TMC3    H210137   3.294   1.434  15.634  0.3921 -1.9834  1.5229
  685TMC3    C710138   3.501   1.513  15.798 -0.8495  0.0268 -0.1424
  685TMC3    C810139   3.063   1.547  15.618  0.0155 -0.0172  0.1776
  685TMC3    O110140   3.536   1.487  15.682 -0.5200 -0.5138 -0.6208
  685TMC3    O210141   3.040   1.437  15.570  0.5848  0.1461 -0.2175
  686MPD2     C10142   0.127   1.847  15.371 -0.1585 -0.1063 -0.0038
  686MPD2    C110143   0.092   1.777  15.481  0.2945 -0.2013 -0.0900
  686MPD2    C210144   0.177   1.694  15.546 -0.1299  0.5747 -0.1275
  686MPD2    C310145   0.311   1.692  15.513 -0.2728 -0.1900 -0.0170
  686MPD2    C410146   0.352   1.767  15.407 -0.0157  0.0990  0.1291
  686MPD2    C510147   0.258   1.836  15.334  0.6090 -0.6039 -0.0064
  686MPD2     H10148   0.140   1.645  15.636 -1.2139  0.6160 -0.5487
  686MPD2    H110149   0.457   1.772  15.378  0.1889 -1.2451  0.6679
  686MPD2    H210150   0.060   1.903  15.307  1.3532  1.9372  0.1809
  686MPD2    H310151   0.284   1.893  15.245 -0.3542 -1.3552 -0.7721
  686MPD2     N10152   0.395   1.618  15.598  0.0722 -0.5447  0.3430
  686MPD2    H510153   0.353   1.574  15.678  0.1946 -2.2053 -0.5073
  686MPD2    N110154   4.681   1.785  15.527 -0.4506  0.2684 -0.4377
  686MPD2    H710155   4.657   1.727  15.607 -1.2340  0.3158 -0.6353
  687TMC3    C110156   0.574   1.509  15.687  0.0983  0.2085 -0.0020
  687TMC3    C210157   0.491   1.405  15.708  0.1486 -0.2315  0.2967
  687TMC3    C310158   0.459   1.371  15.840 -0.1428 -0.1530  0.0324
  687TMC3    C410159   0.617   1.589  15.791 -0.4572  0.2885 -0.8431
  687TMC3    C510160   0.576   1.562  15.920  0.7440  0.9420  0.4990
  687TMC3    C610161   0.498   1.451  15.948 -0.2328 -0.3729 -0.8384
  687TMC3     C10162   0.535   1.604  15.584  0.1247 -0.3452  0.0259
  687TMC3     O10163   0.614   1.638  15.503  0.2561  0.1749  0.3306
  687TMC3     H10164   0.461   1.354  15.617  0.9368  0.9501 -0.6323
  687TMC3    H110165   0.676   1.677  15.766 -0.3490  0.7031  0.8789
  687TMC3    H210166   0.464   1.427  16.048 -1.0945 -0.8076 -1.2345
  687TMC3    C710167   0.568   1.683  16.001  0.2022  0.2207  0.7697
  687TMC3    C810168   0.332   1.301  15.856 -0.1486  0.2016  0.1629
  687TMC3    O110169   0.578   1.784  15.932 -0.0762  0.3298  0.4417
  687TMC3    O210170   0.308   1.270  15.967 -0.1467  0.2752  0.9545
  688MPD2     C10171   3.676   0.882  17.228  0.3071  0.3954 -0.7756
  688MPD2    C110172   3.728   0.765  17.287 -0.2385  0.9304 -0.5854
  688MPD2    C210173   3.837   0.699  17.224  0.2377 -0.1339  0.0870
  688MPD2    C310174   3.897   0.753  17.113  0.0494 -0.1661  0.3076
  688MPD2    C410175   3.846   0.867  17.056 -0.0867  0.3653  0.2579
  688MPD2    C510176   3.743   0.931  17.122  0.2561  0.2894 -0.4751
  688MPD2     H10177   3.867   0.606  17.270 -0.9267  0.7664  2.6638
  688MPD2    H110178   3.893   0.919  16.973 -2.4229 -0.8667 -1.8178
  688MPD2    H210179   3.587   0.940  17.253  2.2094  2.7342  0.5882
  688MPD2    H310180   3.708   1.026  17.083  1.2998  0.6861 -0.4465
  688MPD2     N10181   3.997   0.689  17.038  0.0585  0.0182 -0.2012
  688MPD2    H510182   4.020   0.731  16.949 -0.1637  1.0003  0.2030
  688MPD2    N110183   3.662   0.706  17.393 -0.1331  0.0388 -0.4384
  688MPD2    H710184   3.705   0.618  17.421 -1.4250 -0.2221  0.7473
  689TMC3    C110185   3.537   0.688  17.587 -0.1476 -0.6463 -0.0096
  689TMC3    C210186   3.521   0.767   0.002 -0.0476  0.0835  0.4516
  689TMC3    C310187   3.493   0.700   0.116 -0.1265 -0.2019 -0.4579
  689TMC3    C410188   3.526   0.553  17.579 -0.7043 -0.6722 -0.4372
  689TMC3    C510189   3.495   0.491   0.002  0.0551  0.6981 -0.2904
  689TMC3    C610190   3.481   0.558   0.118 -0.2947 -0.2579 -0.0340
  689TMC3     C10191   3.563   0.760  17.468  0.2581  0.0743 -0.3212
  689TMC3     O10192   3.510   0.874  17.456  0.1102 -0.3787 -0.4361
  689TMC3     H10193   3.527   0.875  17.681  0.7327 -0.2310 -1.6960
  689TMC3    H110194   3.548   0.499  17.488 -1.1035 -2.5289  0.5649
  689TMC3    H210195   3.475   0.506   0.213  1.8491 -0.2413  0.1226
  689TMC3    C710196   3.455   0.353   0.002 -0.5545 -0.3669  0.2183
  689TMC3    C810197   3.462   0.779   0.232  0.3509 -0.2917  0.0720
  689TMC3    O110198   3.411   0.321   0.110 -0.3143 -0.1295  0.4484
  689TMC3    O210199   3.400   0.718   0.320 -0.2633  0.2925 -0.1275
  690MPD2     C10200   1.537   2.017  16.160  0.4991  0.2376 -0.3759
  690MPD2    C110201   1.484   2.108  16.078 -0.0764  0.1115 -0.7422
  690MPD2    C210202   1.560   2.214  16.040  0.4267 -0.1800 -0.6504
  690MPD2    C310203   1.680   2.243  16.098  0.1374  0.1342  0.4003
  690MPD2    C410204   1.732   2.157  16.191 -0.0608 -1.1377  0.6379
  690MPD2    C510205   1.660   2.046  16.217 -0.1454 -0.6626 -0.2121
  690MPD2     H10206   1.519   2.289  15.974 -0.2765 -1.1368 -1.2972
  690MPD2    H110207   1.833   2.158  16.232  1.1188 -1.0887 -2.1991
  690MPD2    H210208   1.488   1.922  16.176  0.1881  0.6932  1.3709
  690MPD2    H310209   1.701   1.970  16.283 -1.4421 -0.8080  0.4315
  690MPD2     N10210   1.740   2.368  16.081 -0.2367 -0.1461  0.0885
  690MPD2    H510211   1.705   2.430  16.009  0.2216  0.5050  0.4247
  690MPD2    N110212   1.374   2.080  15.994 -0.0905  0.0923  0.3438
  690MPD2    H710213   1.342   2.159  15.938  3.6878  1.2766 -0.1717
  691TMC3    C110214   1.202   1.986  15.878 -0.0818  0.4551  0.0781
  691TMC3    C210215   1.127   2.103  15.872 -0.7067  0.8479  0.3821
  691TMC3    C310216   1.040   2.126  15.768 -0.4053 -0.5566  0.0950
  691TMC3    C410217   1.202   1.900  15.774 -0.1064 -0.6371 -0.1598
  691TMC3    C510218   1.124   1.939  15.666  0.5035 -0.2658  0.2313
  691TMC3    C610219   1.047   2.051  15.657  0.6620 -0.8441 -0.3019
  691TMC3     C10220   1.301   1.966  15.984  0.3431  0.3461 -0.4596
  691TMC3     O10221   1.341   1.853  16.015 -0.4707 -0.1414 -0.5884
  691TMC3     H10222   1.114   2.159  15.963 -1.5262  1.9065 -0.3923
  691TMC3    H110223   1.265   1.813  15.772 -1.4595 -1.5939 -1.2851
  691TMC3    H210224   0.988   2.083  15.572  0.0398  0.6589  0.6955
  691TMC3    C710225   1.153   1.877  15.544  0.1275 -0.0767 -0.1460
  691TMC3    C810226   0.914   2.169  15.810  0.6827 -0.0193  0.1084
  691TMC3    O110227   1.171   1.941  15.443 -0.3168  0.2996  0.4068
  691TMC3    O210228   0.847   2.096  15.876  0.1963 -0.2851 -0.4129
  692TMC3    C110229   2.995   3.657  15.780 -0.4422 -0.5124 -0.5145
  692TMC3    C210230   3.120   3.710  15.805  0.4305 -0.1091 -0.2983
  692TMC3    C310231   3.227   3.633  15.760 -0.2209 -0.6916 -0.5453
  692TMC3    C410232   2.969   3.540  15.717 -0.2724 -0.0074  0.6376
  692TMC3    C510233   3.079   3.482  15.659 -0.1624 -0.6133 -0.1795
  692TMC3    C610234   3.207   3.520  15.687 -0.3538 -0.1941 -0.5134
  692TMC3     C10235   2.882   3.738  15.823 -0.6121  0.0155  0.3345
  692TMC3     O10236   2.777   3.681  15.835 -0.3047  0.1679  1.0814
  692TMC3     H10237   3.126   3.781  15.887  3.5725 -2.6406  1.6456
  692TMC3    H110238   2.872   3.493  15.709 -0.5240  0.3048  1.7171
  692TMC3    H210239   3.293   3.479  15.636  1.9227  0.1840  3.0129
  692TMC3    C710240   3.047   3.356  15.597  0.3354 -0.2820  0.3654
  692TMC3    C810241   3.342   3.611  15.843  0.5626  0.2777  0.1855
  692TMC3    O110242   2.939   3.344  15.542 -0.2903 -0.3274 -0.4071
  692TMC3    O210243   3.372   3.493  15.863  0.3578  0.3926 -0.6241
  693MPD2     C10244   2.800   1.684  10.660  0.0859  0.2632 -0.1541
  693MPD2    C110245   2.744   1.576  10.607  0.0132 -0.3135 -0.4973
  693MPD2    C210246   2.819   1.460  10.595 -0.3915 -0.5176  0.4103
  693MPD2    C310247   2.955   1.454  10.639 -0.0398 -0.3385 -0.1368
  693MPD2    C410248   3.018   1.572  10.685 -0.2828  0.4818  0.3195
  693MPD2    C510249   2.929   1.682  10.692  0.3627 -0.1763  0.4366
  693MPD2     H10250   2.763   1.371  10.569 -1.4080  0.5729 -1.1346
  693MPD2    H110251   3.123   1.576  10.709 -0.0506  0.7412 -0.7726
  693MPD2    H210252   2.752   1.781  10.649  0.2428  0.4448  0.7966
  693MPD2    H310253   2.974   1.776  10.721 -0.7762 -0.0064  1.6821
  693MPD2     N10254   3.039   1.342  10.638  0.0913  0.8818  0.6729
  693MPD2    H510255   3.121   1.353  10.697  0.6845 -0.7347  0.1318
  693MPD2    N110256   2.608   1.588  10.563  0.4625  0.1164 -0.5368
  693MPD2    H710257   2.563   1.678  10.579 -1.1846 -1.3148  2.9558
  694TMC3    C110258   2.382   1.521  10.539 -0.1056  0.3066 -0.0508
  694TMC3    C210259   2.299   1.433  10.475 -0.6312 -0.0769 -0.3945
  694TMC3    C310260   2.191   1.376  10.545  0.9698  0.2597 -0.1989
  694TMC3    C410261   2.364   1.538  10.670 -0.4593 -0.2349 -0.0889
  694TMC3    C510262   2.264   1.471  10.739 -0.1016 -0.2464  0.0578
  694TMC3    C610263   2.172   1.395  10.677 -0.7813 -0.4413  0.5565
  694TMC3     C10264   2.524   1.488  10.521  0.2131 -0.1410  0.0983
  694TMC3     O10265   2.554   1.372  10.494 -0.1269  0.1122 -0.1926
  694TMC3     H10266   2.329   1.402  10.375 -2.3533  1.3169 -1.3396
  694TMC3    H110267   2.441   1.588  10.727 -0.9656  0.8749 -0.3811
  694TMC3    H210268   2.091   1.345  10.729 -1.3131  0.1920  0.3432
  694TMC3    C710269   2.266   1.482  10.887 -0.2511  0.0158  0.3578
  694TMC3    C810270   2.119   1.262  10.493 -0.6216 -0.0573  0.2436
  694TMC3    O110271   2.273   1.591  10.939  0.1844  0.2862 -0.2692
  694TMC3    O210272   2.047   1.195  10.565  0.4927 -0.4065  0.0587
  695MPD2     C10273   3.321   2.981  13.367 -0.2802  0.1032  0.2922
  695MPD2    C110274   3.366   3.057  13.477  0.1490 -0.6560  0.7412
  695MPD2    C210275   3.270   3.125  13.551 -0.8937  1.0309 -0.3715
  695MPD2    C310276   3.135   3.124  13.515  0.5381 -0.1838  0.2493
  695MPD2    C410277   3.095   3.045  13.407 -0.3066  0.7396 -0.3888
  695MPD2    C510278   3.191   2.979  13.330  0.4280  0.3034  0.4144
  695MPD2     H10279   3.301   3.185  13.636 -1.4554  1.4290 -0.4478
  695MPD2    H110280   2.993   3.024  13.378 -0.6799  2.0811 -0.0403
  695MPD2    H210281   3.392   2.929  13.304 -2.2160 -1.8888 -0.2360
  695MPD2    H310282   3.147   2.932  13.243  1.9659 -1.4511  0.5823
  695MPD2     N10283   3.043   3.192  13.597  0.0701  0.1045 -0.1891
  695MPD2    H510284   3.081   3.235  13.680 -1.3161  1.4357 -0.2308
  695MPD2    N110285   3.501   3.071  13.518 -0.4747  0.3502  0.4160
  695MPD2    H710286   3.517   3.127  13.601  2.4171 -1.9018  1.3739
  696TMC3    C110287   2.837   3.254  13.681  0.0446  0.3115 -0.4591
  696TMC3    C210288   2.867   3.204  13.803 -0.2119 -0.0526 -0.2046
  696TMC3    C310289   2.776   3.233  13.906 -0.0226  0.1743  0.1097
  696TMC3    C410290   2.725   3.325  13.653  0.2752 -1.6814  0.3036
  696TMC3    C510291   2.644   3.358  13.759 -0.0653 -0.5251 -0.4080
  696TMC3    C610292   2.668   3.313  13.875 -0.0812 -0.1042  0.1386
  696TMC3     C10293   2.913   3.216  13.566 -0.2222 -0.6952  0.2504
  696TMC3     O10294   2.849   3.199  13.465  0.2609 -0.0601 -0.3704
  696TMC3     H10295   2.950   3.136  13.820  1.0630  1.5515  0.0168
  696TMC3    H110296   2.696   3.364  13.556  0.7617  1.5686  1.4666
  696TMC3    H210297   2.607   3.342  13.961 -0.0307  0.1360  0.0918
  696TMC3    C710298   2.578   3.494  13.755 -0.0020  0.6319  0.0587
  696TMC3    C810299   2.838   3.286  14.022  0.9471 -0.1666  0.5689
  696TMC3    O110300   2.546   3.540  13.647  0.3588  0.1637  0.0475
  696TMC3    O210301   2.781   3.273  14.129  0.2777 -0.0951  0.1259
  697MPD2     C10302   2.357   0.614  15.766  0.3775 -0.2470 -0.3236
  697MPD2    C110303   2.479   0.557  15.746  0.4123 -0.3379 -0.0093
  697MPD2    C210304   2.573   0.625  15.665 -0.1971 -0.3717  0.0113
  697MPD2    C310305   2.522   0.728  15.590 -0.2313  0.6198  0.4503
  697MPD2    C410306   2.393   0.776  15.596  0.7974  1.1678 -0.1187
  697MPD2    C510307   2.311   0.725  15.694  0.5431 -0.7586 -0.0332
  697MPD2     H10308   2.667   0.580  15.635  0.3868  1.0153 -0.2474
  697MPD2    H110309   2.359   0.858  15.534 -0.3590  1.6428  1.1473
  697MPD2    H210310   2.290   0.573  15.841  0.2961  1.1369  0.3669
  697MPD2    H310311   2.215   0.773  15.710 -0.3490 -2.9617  1.2333
  697MPD2     N10312   2.605   0.795  15.492 -0.1183  0.8536 -0.2864
  697MPD2    H510313   2.556   0.864  15.436 -0.8251  1.2628  0.8200
  697MPD2    N110314   2.529   0.437  15.804  0.8721 -0.3831 -0.0085
  697MPD2    H710315   2.626   0.413  15.783  0.8384 -0.6380  0.1292
  698TMC3    C110316   2.801   0.859  15.380  1.1490  0.5186 -0.4060
  698TMC3    C210317   2.930   0.910  15.397 -0.6937 -0.1866  0.3365
  698TMC3    C310318   3.010   0.922  15.287 -0.3547 -0.2256 -0.2508
  698TMC3    C410319   2.757   0.817  15.256 -0.5536 -1.0616 -0.0328
  698TMC3    C510320   2.839   0.830  15.149 -0.1916 -0.2072 -0.1216
  698TMC3    C610321   2.963   0.882  15.162 -0.4253  0.2251  0.2333
  698TMC3     C10322   2.740   0.791  15.492 -0.0467 -0.7373 -0.1007
  698TMC3     O10323   2.815   0.751  15.580  0.1457  0.4469  0.8554
  698TMC3     H10324   2.972   0.934  15.494  1.5888  1.2947 -1.0187
  698TMC3    H110325   2.658   0.773  15.248 -1.2202  0.5269 -0.5295
  698TMC3    H210326   3.018   0.896  15.071  0.1881  2.7171  1.0033
  698TMC3    C710327   2.796   0.771  15.024  0.3756 -0.4593 -0.1041
  698TMC3    C810328   3.143   0.991  15.318 -0.4044 -0.0843 -0.1282
  698TMC3    O110329   2.674   0.748  15.011  0.0871  0.1008  0.2567
  698TMC3    O210330   3.164   1.036  15.431  0.4017 -0.1829 -0.2974
  699TMC3    C110331   3.124   3.040  12.526 -0.7463  0.5267 -0.4609
  699TMC3    C210332   3.177   2.978  12.633 -0.0104  0.1526  0.0637
  699TMC3    C310333   3.081   2.946  12.735 -0.1764 -0.8341  0.1464
  699TMC3    C410334   2.991   3.068  12.504 -0.7154 -0.4408 -0.4631
  699TMC3    C510335   2.905   3.031  12.603 -0.2429  0.0488  0.3163
  699TMC3    C610336   2.949   2.981  12.724  0.0573  0.0675 -0.2225
  699TMC3     C10337   3.208   3.119  12.434  0.7446  0.1968 -0.2099
  699TMC3     O10338   3.142   3.203  12.373  0.2052 -0.4017  0.2796
  699TMC3     H10339   3.284   2.973  12.649 -0.0816 -0.2776  0.3877
  699TMC3    H110340   2.945   3.109  12.414 -1.0483  0.9953  0.3695
  699TMC3    H210341   2.877   2.933  12.790 -1.2209 -0.6125 -2.1249
  699TMC3    C710342   2.789   3.113  12.615 -0.2025  0.5053  0.4556
  699TMC3    C810343   3.113   2.868  12.857 -0.4054  0.1706  0.6932
  699TMC3    O110344   2.746   3.145  12.507 -0.5628 -0.3481  0.0039
  699TMC3    O210345   3.017   2.853  12.931  0.3281 -0.4512 -0.4151
  700TMC3    C110346   1.851   0.943  17.017  0.3225  0.2837 -0.2638
  700TMC3    C210347   1.947   0.847  17.043  0.3349 -0.2836 -0.5938
  700TMC3    C310348   2.016   0.856  17.161 -0.0231  0.0205  0.0355
  700TMC3    C410349   1.818   1.048  17.099  0.3332  0.2643 -0.3181
  700TMC3    C510350   1.903   1.056  17.207  0.4388 -0.1010 -0.3576
  700TMC3    C610351   2.002   0.970  17.241  0.1329  0.2849  0.2122
  700TMC3     C10352   1.827   0.977  16.878  0.4679 -0.1109  0.1839
  700TMC3     O10353   1.751   0.914  16.803 -0.8213 -0.0499 -0.2918
  700TMC3     H10354   1.961   0.765  16.974 -0.7428 -0.8446 -0.1515
  700TMC3    H110355   1.752   1.127  17.065  0.4281 -0.0112 -1.1454
  700TMC3    H210356   2.075   0.990  17.319  0.9405  1.8672 -0.9523
  700TMC3    C710357   1.934   1.191  17.239 -0.5076 -0.2764  0.0334
  700TMC3    C810358   2.115   0.761  17.200  0.7287  0.8941  0.5927
  700TMC3    O110359   1.933   1.265  17.141 -0.0829  0.5680  0.0397
  700TMC3    O210360   2.170   0.790  17.305  0.0427  0.0330  0.5474
  701TMC3    C110361   1.627   4.438  15.696  0.2238 -0.3314 -0.1744
  701TMC3    C210362   1.651   4.367  15.581 -0.1554  0.1518  0.3846
  701TMC3    C310363   1.744   4.433  15.506 -0.6430  0.2613  0.3672
  701TMC3    C410364   1.688   4.554  15.739  0.0655 -0.1034  0.0187
  701TMC3    C510365   1.786   4.610  15.661  0.5960  0.1323 -0.5318
  701TMC3    C610366   1.810   4.546  15.541  0.0750  1.0975  0.9840
  701TMC3     C10367   1.541   4.368  15.792 -0.1232  0.0414  0.0485
  701TMC3     O10368   1.568   4.382  15.911  0.1128 -0.1960  0.0843
  701TMC3     H10369   1.617   4.268  15.554 -1.2985  0.7017 -0.2017
  701TMC3    H110370   1.657   4.599  15.833  0.0042  0.5538 -0.3202
  701TMC3    H210371   1.876   4.593  15.469 -0.3227  0.0921 -0.0335
  701TMC3    C710372   1.824   0.023  15.659 -0.3340  0.3712 -0.1298
  701TMC3    C810373   1.754   4.394  15.367 -0.2094  0.0720 -0.0757
  701TMC3    O110374   1.862   0.073  15.551 -0.6110  0.7016 -0.9319
  701TMC3    O210375   1.859   4.404  15.307 -0.1583  0.5000 -0.2466
  702MPD2     C10376   2.210   1.840  10.313 -0.5085 -0.2102 -0.0430
  702MPD2    C110377   2.169   1.928  10.411  0.4425 -0.0612 -0.2159
  702MPD2    C210378   2.191   2.060  10.389 -0.3201 -0.2579  0.0476
  702MPD2    C310379   2.245   2.114  10.275 -0.0914  0.9009 -0.2547
  702MPD2    C410380   2.288   2.022  10.180  0.4097  0.1281  0.1498
  702MPD2    C510381   2.272   1.884  10.196 -0.1999 -0.9502 -0.4579
  702MPD2     H10382   2.157   2.134  10.459  3.5523  0.5209  1.0852
  702MPD2    H110383   2.330   2.054  10.085  0.5869 -1.2560 -0.2335
  702MPD2    H210384   2.209   1.732  10.322  1.1139 -0.1769  0.5824
  702MPD2    H310385   2.314   1.803  10.138  1.2797 -1.1449  0.8735
  702MPD2     N10386   2.250   2.251  10.256 -0.2330  0.3820  0.5654
  702MPD2    H510387   2.204   2.306  10.328 -1.0500 -1.2531  1.2932
  702MPD2    N110388   2.107   1.891  10.532 -0.0725  0.3952  0.3744
  702MPD2    H710389   2.067   1.958  10.597 -0.5696 -1.3239  1.8416
  703TMC3    C110390   2.319   2.457  10.169 -0.2459  0.8793  0.8099
  703TMC3    C210391   2.224   2.520  10.247  0.3031  0.1502  0.0712
  703TMC3    C310392   2.252   2.647  10.285  0.0097  1.0419 -0.7254
  703TMC3    C410393   2.429   2.521  10.115 -0.4363 -0.3867  0.4962
  703TMC3    C510394   2.444   2.654  10.145 -0.3403  0.7380 -0.1996
  703TMC3    C610395   2.359   2.712  10.239 -0.1662 -0.8968 -0.2595
  703TMC3     C10396   2.317   2.311  10.155  0.0558 -0.0532 -0.6413
  703TMC3     O10397   2.390   2.259  10.072 -0.6245 -0.0827 -0.0757
  703TMC3     H10398   2.127   2.475  10.269 -0.3065  1.6969  0.5217
  703TMC3    H110399   2.499   2.468  10.051 -1.1050  0.0919 -0.6237
  703TMC3    H210400   2.369   2.818  10.262 -0.9459 -0.4387 -2.0553
  703TMC3    C710401   2.510   2.748  10.062 -0.6967 -0.2216 -0.5626
  703TMC3    C810402   2.146   2.719  10.354 -0.0291  0.0265  0.2410
  703TMC3    O110403   2.504   2.867  10.090 -0.3659  0.0647 -0.5408
  703TMC3    O210404   2.120   2.831  10.327 -0.4837  0.1710 -0.0129
  704TMC3    C110405   4.145   4.680  12.190 -0.1429  0.2685  0.0076
  704TMC3    C210406   4.281   4.703  12.211  0.3344  0.4490  0.2825
  704TMC3    C310407   4.333   4.656  12.331  0.4813  0.4940  1.0281
  704TMC3    C410408   4.068   4.605  12.274 -0.2664 -0.1035 -0.5714
  704TMC3    C510409   4.134   4.544  12.378  0.2487 -0.3981 -0.2457
  704TMC3    C610410   4.265   4.565  12.415 -0.2999  0.0307  0.0628
  704TMC3     C10411   4.065   0.017  12.078 -0.1015  0.5004 -0.8289
  704TMC3     O10412   3.944   0.033  12.091  0.0254 -0.4930  0.2074
  704TMC3     H10413   4.337   0.046  12.144 -3.0682  0.3503 -2.6229
  704TMC3    H110414   3.965   4.581  12.249 -0.3227  0.1347 -0.5763
  704TMC3    H210415   4.318   4.517  12.496 -0.3058  0.2417  0.1888
  704TMC3    C710416   4.130   4.400  12.340 -0.0453 -0.6764 -0.6713
  704TMC3    C810417   4.466   4.613  12.297 -0.9967  0.0836  0.0677
  704TMC3    O110418   4.236   4.355  12.297 -1.4870  0.3601 -0.4929
  704TMC3    O210419   4.506   4.600  12.180  0.5288 -0.2800 -0.2913
  705MPD2     C10420   3.300   2.969  16.106 -0.2014  0.2288  0.3393
  705MPD2    C110421   3.340   3.091  16.159  0.2875 -0.3235 -0.1952
  705MPD2    C210422   3.254   3.161  16.247 -0.3044 -0.0576  0.1644
  705MPD2    C310423   3.130   3.113  16.280 -0.0444  0.6464 -0.1219
  705MPD2    C410424   3.087   2.993  16.225 -0.2213  0.6071 -0.3804
  705MPD2    C510425   3.175   2.925  16.141  0.3074 -0.7829 -0.2710
  705MPD2     H10426   3.290   3.245  16.305  2.2286 -1.0407  0.0261
  705MPD2    H110427   2.982   2.968  16.234  0.3101 -1.3320  0.4197
  705MPD2    H210428   3.363   2.909  16.042 -1.8648 -2.8279  1.5521
  705MPD2    H310429   3.135   2.839  16.088  2.8153 -1.6307 -0.7871
  705MPD2     N10430   3.034   3.195  16.338  0.2250  0.5892 -0.1216
  705MPD2    H510431   2.938   3.162  16.340 -0.2169  1.6895 -2.3840
  705MPD2    N110432   3.472   3.140  16.142 -0.6185 -0.0560  0.4950
  705MPD2    H710433   3.507   3.213  16.204  0.3054 -0.2826  0.2405
  706TMC3    C110434   3.891   3.171  15.927 -0.2804  1.1977 -0.0570
  706TMC3    C210435   3.921   3.286  15.985  0.4022  0.3618  0.4159
  706TMC3    C310436   3.828   3.339  16.068  0.3939  1.3265  0.2825
  706TMC3    C410437   3.786   3.092  15.963  0.2474  0.7400  0.3384
  706TMC3    C510438   3.698   3.148  16.044 -0.5578  0.8186 -0.3589
  706TMC3    C610439   3.717   3.273  16.106  0.1729  0.2701  0.1862
  706TMC3     C10440   3.988   3.127  15.829  0.1927  0.2087 -0.3317
  706TMC3     O10441   4.097   3.176  15.837  0.1869 -0.8785  1.3416
  706TMC3     H10442   4.002   3.353  15.957 -0.7352  1.4456 -0.2844
  706TMC3    H110443   3.766   2.998  15.914  3.8478 -0.7221  1.6577
  706TMC3    H210444   3.641   3.326  16.161  0.8875 -1.2516  2.6500
  706TMC3    C710445   3.560   3.103  16.039 -0.1936 -0.3122  0.3112
  706TMC3    C810446   3.809   3.483  16.057 -0.4617 -0.2033 -0.4678
  706TMC3    O110447   3.533   3.036  15.940 -0.1241  0.4487 -0.4236
  706TMC3    O210448   3.764   3.521  15.951  0.4348  0.1654 -0.2755
  707TMC3    C110449   0.013   2.183   1.194  0.2420 -0.7261  0.0212
  707TMC3    C210450   4.701   2.050   1.198  0.3599 -0.4536 -0.2506
  707TMC3    C310451   4.571   2.023   1.156 -0.0518  0.3461  0.0903
  707TMC3    C410452   4.656   2.286   1.138 -0.2604  0.8186  0.2546
  707TMC3    C510453   4.528   2.246   1.101 -0.4158 -0.4170  0.8829
  707TMC3    C610454   4.482   2.122   1.117 -0.2559 -0.1433 -0.2722
  707TMC3     C10455   0.153   2.211   1.231 -0.4055  0.1467 -0.0117
  707TMC3     O10456   0.226   2.108   1.218  0.4417 -0.3924  0.1058
  707TMC3     H10457   0.042   1.975   1.242 -1.7219 -3.0821 -1.7549
  707TMC3    H110458   4.690   2.389   1.135 -0.2426  0.7771 -0.9438
  707TMC3    H210459   4.382   2.094   1.087  0.6070 -0.8820 -2.5186
  707TMC3    C710460   4.434   2.343   1.063 -0.1175  0.3731  0.1537
  707TMC3    C810461   4.553   1.886   1.104  0.3243  0.1913 -0.4003
  707TMC3    O110462   4.315   2.323   1.089  0.3645  0.3193  0.2149
  707TMC3    O210463   4.450   1.864   1.037 -0.4354 -0.4636  0.0163
  708MPD2     C10464   2.127   1.435  14.083 -0.3529  0.3593  0.4675
  708MPD2    C110465   2.161   1.567  14.051 -0.3925 -0.3176 -0.8443
  708MPD2    C210466   2.260   1.631  14.123 -0.0865 -0.0481 -0.0327
  708MPD2    C310467   2.308   1.568  14.236  0.0741  0.1310  0.0494
  708MPD2    C410468   2.274   1.435  14.270 -0.3704  0.1863 -0.6095
  708MPD2    C510469   2.176   1.369  14.196 -0.5452 -0.0832  0.6307
  708MPD2     H10470   2.289   1.735  14.110  3.7876 -1.1256  0.1539
  708MPD2    H110471   2.319   1.383  14.353 -0.4067 -2.7478 -2.4097
  708MPD2    H210472   2.040   1.390  14.037 -0.7422  3.8285 -2.2091
  708MPD2    H310473   2.141   1.268  14.215 -1.9706  0.2190 -0.3109
  708MPD2     N10474   2.394   1.623  14.330 -0.0850 -0.5337  1.2082
  708MPD2    H510475   2.428   1.564  14.406  2.2772  2.8426  2.8402
  708MPD2    N110476   2.092   1.626  13.949  0.1065  0.5032 -0.1122
  708MPD2    H710477   2.016   1.572  13.909  1.4922 -0.7628 -1.0108
  709TMC3    C110478   1.987   1.796  13.834 -0.5757  0.1282 -0.4185
  709TMC3    C210479   1.924   1.685  13.774 -0.0644 -1.3567 -0.3074
  709TMC3    C310480   1.788   1.669  13.795 -0.4992 -0.3160  1.0208
  709TMC3    C410481   1.918   1.888  13.908 -0.7200 -0.0984  0.3331
  709TMC3    C510482   1.795   1.847  13.951 -0.2979  0.7822  0.4632
  709TMC3    C610483   1.732   1.736  13.901 -0.2358  0.6414 -0.5404
  709TMC3     C10484   2.102   1.759  13.910 -0.1015 -0.5622 -0.9162
  709TMC3     O10485   2.166   1.853  13.959  0.2180  0.1995 -0.4577
  709TMC3     H10486   1.979   1.609  13.720  0.7390 -1.5486  0.8046
  709TMC3    H110487   1.972   1.961  13.967 -0.7112  0.6370 -0.5874
  709TMC3    H210488   1.626   1.723  13.919  0.2110 -2.6674 -0.1996
  709TMC3    C710489   1.787   1.862  14.097 -0.0191 -0.3789  0.1079
  709TMC3    C810490   1.711   1.574  13.711 -0.2329 -0.6828  0.6661
  709TMC3    O110491   1.850   1.958  14.136 -0.1121  0.6710  0.1284
  709TMC3    O210492   1.614   1.520  13.765 -0.0633  0.2448 -0.2566
  710TMC3    C110493   2.426   3.391   0.682  0.4007  0.0038 -1.1858
  710TMC3    C210494   2.450   3.343   0.556  0.7668 -0.0882 -0.1667
  710TMC3    C310495   2.574   3.357   0.506  0.4993 -0.6524  0.3108
  710TMC3    C410496   2.513   3.459   0.757  0.5998  0.6769  0.2392
  710TMC3    C510497   2.636   3.472   0.700  0.2637  0.4566  0.2274
  710TMC3    C610498   2.668   3.423   0.576  0.8185  0.2025  0.3102
  710TMC3     C10499   2.291   3.382   0.723  0.1622 -0.4976 -0.6827
  710TMC3     O10500   2.215   3.303   0.658 -0.4431  0.4380  0.5460
  710TMC3     H10501   2.379   3.288   0.495 -0.5271  0.2277  1.0386
  710TMC3    H110502   2.486   3.498   0.855 -3.9947  3.7891 -2.2683
  710TMC3    H210503   2.770   3.435   0.541  1.6338  1.5737  3.1712
  710TMC3    C710504   2.754   3.485   0.784  0.1609 -0.0943 -0.7838
  710TMC3    C810505   2.634   3.258   0.417 -0.0456  0.1022  0.2142
  710TMC3    O110506   2.835   3.393   0.779  0.4627 -0.5693  0.0588
  710TMC3    O210507   2.724   3.301   0.341  0.2644 -0.3740  0.2535
  711TMC3    C110508   2.430   4.298  15.263  0.8791 -0.1263  0.1623
  711TMC3    C210509   2.528   4.342  15.351  0.6013  0.0105 -0.1790
  711TMC3    C310510   2.658   4.344  15.303 -0.0757  0.2274  0.6893
  711TMC3    C410511   2.456   4.234  15.147  0.4460  0.1713  0.1574
  711TMC3    C510512   2.591   4.226  15.111 -0.8380 -0.0920  0.2140
  711TMC3    C610513   2.689   4.288  15.180 -0.5716  0.0244  0.5244
  711TMC3     C10514   2.290   4.274  15.301 -0.5204 -0.0116  0.3861
  711TMC3     O10515   2.219   4.196  15.234 -0.0130  0.2392 -0.6155
  711TMC3     H10516   2.505   4.386  15.447 -2.0183 -0.9891 -0.3322
  711TMC3    H110517   2.377   4.192  15.087 -0.3558  0.0664  1.2847
  711TMC3    H210518   2.787   4.296  15.135 -0.4905  1.4133  0.9651
  711TMC3    C710519   2.639   4.088  15.071 -0.2576  0.0300  0.2564
  711TMC3    C810520   2.758   4.316  15.404  0.3011 -0.3069  0.8208
  711TMC3    O110521   2.748   4.057  15.114 -0.3268  0.0242 -0.6440
  711TMC3    O210522   2.774   4.379  15.508 -0.1430  0.0487 -0.4278
  712MPD2     C10523   4.050   0.074  13.181 -0.1360 -0.3085 -0.3469
  712MPD2    C110524   3.960   0.107  13.285 -0.4578  0.0199 -0.1600
  712MPD2    C210525   3.997   0.200  13.380  0.0432  0.0006  0.1266
  712MPD2    C310526   4.122   0.266  13.373  0.8478 -0.4883  0.4121
  712MPD2    C410527   4.211   0.215  13.281  0.3842  0.6157  0.8707
  712MPD2    C510528   4.169   0.130  13.182  1.3961  0.2522  0.6216
  712MPD2     H10529   3.930   0.227  13.462 -0.1368  2.6812 -0.8866
  712MPD2    H110530   4.312   0.256  13.279  0.6899 -0.3226 -1.6852
  712MPD2    H210531   4.018   0.005  13.104  0.6885 -0.3385 -0.6631
  712MPD2    H310532   4.237   0.102  13.103  0.6643  2.3474 -0.7612
  712MPD2     N10533   4.166   0.362  13.465 -0.5875  0.3553 -0.3109
  712MPD2    H510534   4.262   0.393  13.455 -0.0863 -1.4384 -0.9594
  712MPD2    N110535   3.832   0.048  13.291  1.0717  0.4534 -0.3375
  712MPD2    H710536   3.778   0.073  13.373 -0.7000  1.0448 -1.6771
  713TMC3    C110537   4.170   0.487  13.656 -0.5317  0.0590  0.6358
  713TMC3    C210538   4.298   0.453  13.675  0.1539 -0.3098  0.0970
  713TMC3    C310539   4.369   0.519  13.773  0.4745  0.0130 -1.0008
  713TMC3    C410540   4.101   0.570  13.737 -0.7305  0.0862  0.3077
  713TMC3    C510541   4.175   0.631  13.841 -0.1094 -0.1838 -0.1528
  713TMC3    C610542   4.312   0.612  13.851 -0.0333  0.3849  0.2006
  713TMC3     C10543   4.093   0.405  13.572  0.3296 -0.3149  0.4720
  713TMC3     O10544   3.971   0.398  13.580  0.2964  0.2755 -0.4023
  713TMC3     H10545   4.343   0.373  13.618 -0.2250 -0.4110 -0.0517
  713TMC3    H110546   3.995   0.585  13.720 -0.5948  0.1886 -0.4276
  713TMC3    H210547   4.371   0.669  13.921 -0.1213  1.1773 -0.3731
  713TMC3    C710548   4.113   0.732  13.920 -0.2359  0.4258 -0.3694
  713TMC3    C810549   4.504   0.548  13.735  0.2599 -0.1490 -0.6662
  713TMC3    O110550   4.174   0.742  14.026 -0.1126 -0.0300  0.1729
  713TMC3    O210551   4.513   0.550  13.613 -0.2526 -0.3857 -0.5954
  714MPD2     C10552   1.210   3.394   1.381  0.0832 -0.6638 -0.3981
  714MPD2    C110553   1.191   3.449   1.508 -0.3871 -0.5215  0.4517
  714MPD2    C210554   1.063   3.477   1.555  0.0826  0.6337 -0.4963
  714MPD2    C310555   0.953   3.440   1.475  0.0578 -0.1569 -0.8550
  714MPD2    C410556   0.971   3.366   1.359  0.0481  0.3020  0.0100
  714MPD2    C510557   1.101   3.346   1.314 -0.4129 -0.3188  0.6313
  714MPD2     H10558   1.050   3.515   1.656  0.7122  1.3394 -0.6775
  714MPD2    H110559   0.890   3.323   1.301  2.6939 -2.0444 -1.9390
  714MPD2    H210560   1.311   3.385   1.342  0.1357  0.7419 -0.5854
  714MPD2    H310561   1.123   3.290   1.224 -1.7469  2.2136 -1.2502
  714MPD2     N10562   0.831   3.467   1.528  0.0558  0.6550 -0.5979
  714MPD2    H510563   0.837   3.521   1.614 -2.4015  0.3695 -0.2431
  714MPD2    N110564   1.315   3.477   1.580 -0.0268  0.0191  0.0873
  714MPD2    H710565   1.400   3.500   1.529 -0.3089  2.5294  0.7126
  715TMC3    C110566   1.455   3.552   1.755 -0.5191  0.3749  0.2447
  715TMC3    C210567   1.558   3.502   1.678 -0.1541  0.1590 -0.5512
  715TMC3    C310568   1.680   3.496   1.743  0.0885 -0.3246  0.4518
  715TMC3    C410569   1.469   3.579   1.887  0.2224  0.5473  0.7099
  715TMC3    C510570   1.593   3.568   1.939  0.4037  0.4028 -0.0950
  715TMC3    C610571   1.702   3.529   1.875 -0.3706 -0.6856  0.0629
  715TMC3     C10572   1.320   3.520   1.711 -0.1368  0.3484  0.1879
  715TMC3     O10573   1.233   3.517   1.793 -0.5412  0.1207  0.2684
  715TMC3     H10574   1.545   3.453   1.582  0.8629 -0.0592 -0.5696
  715TMC3    H110575   1.377   3.618   1.929 -1.5553 -1.8448 -1.0086
  715TMC3    H210576   1.795   3.508   1.927  1.3056  0.6112 -2.4392
  715TMC3    C710577   1.623   3.640   2.072  0.4221 -0.6334  0.2017
  715TMC3    C810578   1.784   3.444   1.658 -0.4795  0.8155  0.0229
  715TMC3    O110579   1.739   3.664   2.109 -0.1991  0.2081  0.0310
  715TMC3    O210580   1.759   3.353   1.581 -0.2397  0.6768 -0.1279
  716MPD2     C10581   1.329   2.157  10.197  0.3540  0.4271 -0.1715
  716MPD2    C110582   1.393   2.157  10.076 -0.0013 -0.4343 -0.2150
  716MPD2    C210583   1.452   2.047  10.028  0.5246 -0.7576 -0.2517
  716MPD2    C310584   1.448   1.926  10.094 -0.6429  0.2604 -0.4664
  716MPD2    C410585   1.378   1.914  10.213 -0.2056  0.2576 -0.0630
  716MPD2    C510586   1.322   2.031  10.265  0.0698 -0.7202  0.7582
  716MPD2     H10587   1.514   2.053   9.939 -0.1112 -0.3708 -0.6661
  716MPD2    H110588   1.377   1.821  10.268 -2.4237  0.0272 -0.5101
  716MPD2    H210589   1.274   2.241  10.237  0.4504  0.8007 -0.8351
  716MPD2    H310590   1.257   2.021  10.351 -0.3548  0.3141  0.5477
  716MPD2     N10591   1.512   1.815  10.032 -0.1387  0.2005  0.0046
  716MPD2    H510592   1.567   1.842   9.951 -1.6910 -1.6782 -1.6672
  716MPD2    N110593   1.404   2.284  10.016 -0.1201  0.0085 -0.4002
  716MPD2    H710594   1.369   2.362  10.070  2.1075 -0.3709  1.5618
  717TMC3    C110595   1.599   1.599  10.002 -0.1196  0.3175 -0.4894
  717TMC3    C210596   1.702   1.657   9.931 -0.5153 -0.4911  0.0084
  717TMC3    C310597   1.778   1.573   9.851 -0.0261 -0.7612  0.5208
  717TMC3    C410598   1.579   1.457   9.994  0.1741 -0.0181 -0.0256
  717TMC3    C510599   1.669   1.381   9.921  0.6327 -0.2326 -0.4532
  717TMC3    C610600   1.764   1.440   9.846 -0.0580 -0.8130  0.4469
  717TMC3     C10601   1.498   1.682  10.068 -0.7148 -0.0597  0.1480
  717TMC3     O10602   1.432   1.624  10.150 -0.0002  0.1715  0.2241
  717TMC3     H10603   1.743   1.756   9.947  0.4623 -1.3488  2.9048
  717TMC3    H110604   1.495   1.416  10.050  0.9146  0.1344  1.1893
  717TMC3    H210605   1.815   1.380   9.771  0.1879 -1.8343  1.4284
  717TMC3    C710606   1.649   1.240   9.916  0.3849 -0.1731  0.2692
  717TMC3    C810607   1.860   1.642   9.752  0.2860 -0.1996 -0.5069
  717TMC3    O110608   1.545   1.193   9.958 -0.4228 -0.1970  0.4965
  717TMC3    O210609   1.840   1.761   9.740  0.0865  0.2043  0.1793
  718MPD2     C10610   1.051   0.512  13.166  0.5972 -0.5744  0.1577
  718MPD2    C110611   0.982   0.535  13.048 -0.7681  0.3553 -0.7902
  718MPD2    C210612   0.881   0.451  13.014 -0.2291 -0.3002 -0.0030
  718MPD2    C310613   0.846   0.343  13.091 -0.3452  0.2431  0.4569
  718MPD2    C410614   0.911   0.324  13.210  0.3376  0.1024  0.7398
  718MPD2    C510615   1.011   0.408  13.250  0.0105 -0.9435  0.3448
  718MPD2     H10616   0.839   0.467  12.915 -1.5702  0.7359  0.7221
  718MPD2    H110617   0.879   0.241  13.273 -1.3658 -0.0432 -0.3149
  718MPD2    H210618   1.139   0.570  13.193 -0.2407  0.6901  0.1742
  718MPD2    H310619   1.060   0.379  13.343 -0.8569  1.5284  1.5672
  718MPD2     N10620   0.747   0.256  13.038  0.2775  0.5567  0.0854
  718MPD2    H510621   0.705   0.278  12.948 -0.1927  3.3052  0.9700
  718MPD2    N110622   1.026   0.646  12.970  0.3793 -0.2340  0.5873
  718MPD2    H710623   1.111   0.694  12.995 -1.3413  2.6142  0.9496
  719TMC3    C110624   0.993   0.806  12.811 -0.2930  0.2242  0.7699
  719TMC3    C210625   0.909   0.853  12.711 -0.1255 -0.2374 -0.4248
  719TMC3    C310626   0.956   0.892  12.592  0.0338  0.5005  0.4727
  719TMC3    C410627   1.129   0.809  12.798 -0.0700  0.4516  0.1384
  719TMC3    C510628   1.175   0.861  12.683  0.2381  0.0688 -0.5391
  719TMC3    C610629   1.093   0.904  12.580 -0.3124  0.6790 -0.1457
  719TMC3     C10630   0.937   0.700  12.880 -0.5726 -0.2559  0.5065
  719TMC3     O10631   0.821   0.672  12.855  0.8188 -0.0192 -0.3292
  719TMC3     H10632   0.802   0.864  12.728 -0.3309 -1.8883 -0.6995
  719TMC3    H110633   1.206   0.771  12.864  1.1168  0.7300 -1.0608
  719TMC3    H210634   1.124   0.944  12.484  0.8845  0.7990  0.2942
  719TMC3    C710635   1.316   0.889  12.663 -0.0391 -0.6090  0.2381
  719TMC3    C810636   0.915   0.792  12.497 -0.3056 -0.1934 -0.1970
  719TMC3    O110637   1.350   0.906  12.547  0.4767  0.3366 -0.4078
  719TMC3    O210638   0.981   0.780  12.395 -0.0808  0.6932  0.1862
  720MPD2     C10639   4.174   2.133  13.981 -0.5980 -0.1496  0.6050
  720MPD2    C110640   4.266   2.118  13.884 -0.1092  0.8160 -0.0046
  720MPD2    C210641   4.395   2.085  13.917  0.0582  0.0319 -0.8271
  720MPD2    C310642   4.437   2.075  14.044  0.3676 -0.1401 -0.3892
  720MPD2    C410643   4.350   2.108  14.147 -0.3481 -0.4519  0.1565
  720MPD2    C510644   4.218   2.131  14.111 -0.0098  0.6530  0.4451
  720MPD2     H10645   4.460   2.063  13.834 -0.3074  0.7706 -1.3075
  720MPD2    H110646   4.377   2.099  14.252 -1.3399  0.1082  0.4655
  720MPD2    H210647   4.071   2.158  13.960 -0.2593  0.6535 -0.1180
  720MPD2    H310648   4.142   2.143  14.187  0.1694  0.7292  0.6107
  720MPD2     N10649   4.573   2.045  14.070  0.2429 -0.8895 -0.5887
  720MPD2    H510650   4.634   2.025  13.991  2.3009  0.2126  0.7246
  720MPD2    N110651   4.233   2.117  13.742  0.6126 -0.1400  0.0141
  720MPD2    H710652   4.312   2.104  13.680  0.8139 -1.7892  0.6159
  721TMC3    C110653   0.042   1.999  14.200 -0.5567 -0.3332  0.3691
  721TMC3    C210654   0.087   1.949  14.319  0.0206  0.2236  0.3172
  721TMC3    C310655   0.221   1.924  14.328  0.2596  0.6228  0.1674
  721TMC3    C410656   0.130   2.042  14.097 -0.6765 -0.0240  0.2620
  721TMC3    C510657   0.262   2.012  14.117 -0.9845  0.1795 -0.4708
  721TMC3    C610658   0.309   1.943  14.226 -0.5285 -0.4315  0.0085
  721TMC3     C10659   4.631   2.050  14.195  0.3769  0.0570 -0.3881
  721TMC3     O10660   4.583   2.066  14.305 -0.7630  0.3725  0.1751
  721TMC3     H10661   0.018   1.917  14.396 -1.8197  0.3377 -1.3051
  721TMC3    H110662   0.094   2.105  14.016  0.6089  1.1704  0.6175
  721TMC3    H210663   0.415   1.924  14.240  0.3448  3.3414 -1.4936
  721TMC3    C710664   0.362   2.046  14.018  0.2374 -0.0237 -0.4113
  721TMC3    C810665   0.256   1.807  14.403  0.7522 -0.4912  0.3816
  721TMC3    O110666   0.470   1.991  14.030  0.8615  0.1032  0.5242
  721TMC3    O210667   0.334   1.729  14.349 -0.3193 -0.3775 -0.0750
  722MPD2     C10668   3.203   0.730  13.188 -0.6569  0.0642 -0.5643
  722MPD2    C110669   3.138   0.849  13.208 -0.2111  0.6186 -0.4868
  722MPD2    C210670   3.021   0.873  13.138 -0.2726 -0.2110 -0.0044
  722MPD2    C310671   2.972   0.778  13.055 -0.6121 -0.6518 -0.5529
  722MPD2    C410672   3.035   0.656  13.042  0.5360 -0.3897 -0.6484
  722MPD2    C510673   3.149   0.634  13.107 -0.5853 -0.0352 -0.7339
  722MPD2     H10674   2.966   0.966  13.137 -1.8712 -1.1808 -2.0992
  722MPD2    H110675   2.995   0.585  12.970  2.1383 -1.4896 -0.4741
  722MPD2    H210676   3.299   0.715  13.236 -0.5395 -2.8632 -1.7256
  722MPD2    H310677   3.205   0.544  13.084 -1.8784 -1.1783  0.5549
  722MPD2     N10678   2.848   0.814  12.986 -0.0337  0.0940 -0.3361
  722MPD2    H510679   2.816   0.910  12.998 -1.0445 -0.4337  1.2048
  722MPD2    N110680   3.198   0.948  13.292 -0.3938  0.6562 -0.0699
  722MPD2    H710681   3.166   1.044  13.286 -0.6319  0.6346  0.7528
  723TMC3    C110682   2.647   0.787  12.866  0.1884 -0.0324  0.1989
  723TMC3    C210683   2.569   0.717  12.776  0.7930  0.8468 -0.4093
  723TMC3    C310684   2.482   0.792  12.700  0.8200 -0.1240  0.0299
  723TMC3    C410685   2.615   0.915  12.918 -0.2196  0.1917 -0.2683
  723TMC3    C510686   2.515   0.978  12.848 -0.4567  0.2721 -0.1955
  723TMC3    C610687   2.452   0.923  12.734 -0.2891 -0.7528 -0.1273
  723TMC3     C10688   2.771   0.722  12.914  0.5428 -1.1141 -0.2106
  723TMC3     O10689   2.802   0.611  12.871 -0.1107 -0.1996  0.2493
  723TMC3     H10690   2.592   0.618  12.739  1.1590  1.2083 -1.1367
  723TMC3    H110691   2.661   0.966  13.002  1.3037 -2.1706  0.3576
  723TMC3    H210692   2.373   0.971  12.677 -0.5963 -1.3376 -0.1880
  723TMC3    C710693   2.498   1.119  12.879 -0.1069  0.4280  0.5652
  723TMC3    C810694   2.426   0.739  12.579  0.0309  0.1858  0.5172
  723TMC3    O110695   2.543   1.170  12.982 -0.7942  0.6531  0.4951
  723TMC3    O210696   2.379   0.820  12.504  0.2621  0.4902 -0.2022
  724TMC3    C110697   3.622   4.372   9.730 -0.5196 -0.0421  0.7911
  724TMC3    C210698   3.615   4.468   9.635 -1.2564 -0.5389 -0.1925
  724TMC3    C310699   3.688   4.577   9.655  0.6302 -0.4373 -0.2577
  724TMC3    C410700   3.686   4.382   9.850  0.5422  0.2674  0.5721
  724TMC3    C510701   3.747   4.503   9.875 -0.1961 -0.4374 -0.3169
  724TMC3    C610702   3.748   4.605   9.778 -0.1230  0.4231 -0.3417
  724TMC3     C10703   3.551   4.243   9.715  0.0553 -0.6816 -0.4336
  724TMC3     O10704   3.561   4.160   9.806 -0.6393  0.3911  0.1366
  724TMC3     H10705   3.567   4.458   9.538  1.1720 -1.5496 -1.2885
  724TMC3    H110706   3.669   4.306   9.926  3.3279 -1.5375 -0.5880
  724TMC3    H210707   3.805   4.696   9.796 -0.4147  0.4543  0.3931
  724TMC3    C710708   3.818   4.530   9.997 -0.0344  0.0383 -1.1566
  724TMC3    C810709   3.677   4.685   9.554 -0.6562 -0.5580 -0.2027
  724TMC3    O110710   3.857   4.642  10.023  0.0296  0.3360  0.3687
  724TMC3    O210711   3.652   4.647   9.440  0.2053  0.2179  0.5653
  725TMC3    C110712   0.629   2.493  12.615  0.5058  0.3734 -0.1057
  725TMC3    C210713   0.649   2.540  12.490 -0.2234  0.2653  1.2033
  725TMC3    C310714   0.688   2.458  12.384  0.1359  0.2603  0.1451
  725TMC3    C410715   0.668   2.363  12.643 -0.2187  0.5725 -0.0226
  725TMC3    C510716   0.718   2.282  12.547  0.2248 -0.1480  0.0451
  725TMC3    C610717   0.720   2.326  12.413 -0.5109  0.0187 -0.3449
  725TMC3     C10718   0.619   2.592  12.716  0.0781  0.6047 -1.0688
  725TMC3     O10719   0.661   2.698  12.682 -0.5123  0.1902 -0.1369
  725TMC3     H10720   0.636   2.646  12.468  0.2662 -0.3957 -2.2600
  725TMC3    H110721   0.661   2.330  12.746  1.4607 -0.0305 -0.1093
  725TMC3    H210722   0.747   2.255  12.336  2.3614  2.1200 -1.2789
  725TMC3    C710723   0.692   2.141  12.572  0.0884  0.1998  0.2475
  725TMC3    C810724   0.657   2.487  12.245 -0.5430  0.0349 -0.2838
  725TMC3    O110725   0.592   2.117  12.639 -0.2878  0.0538  0.1737
  725TMC3    O210726   0.699   2.412  12.160 -0.1872 -0.2085 -0.5283
  726MPD2     C10727   2.644   3.746  10.459 -0.3663 -0.6060 -0.1425
  726MPD2    C110728   2.760   3.800  10.514  0.7205  1.0315 -0.0800
  726MPD2    C210729   2.778   3.806  10.646  0.3151  0.4986  0.2404
  726MPD2    C310730   2.677   3.751  10.726 -0.7502 -0.4656 -0.0899
  726MPD2    C410731   2.556   3.707  10.677  0.1143  0.3041 -0.2022
  726MPD2    C510732   2.540   3.700  10.544 -0.4322  0.1901 -0.3155
  726MPD2     H10733   2.860   3.866  10.686 -0.3524  0.9227  0.9651
  726MPD2    H110734   2.483   3.676  10.752 -0.1310  3.8122  1.0125
  726MPD2    H210735   2.623   3.733  10.354  0.9278  0.8224 -0.5651
  726MPD2    H310736   2.455   3.647  10.501 -1.0485 -0.7570  2.0449
  726MPD2     N10737   2.678   3.778  10.868 -0.1067  0.1385  1.0396
  726MPD2    H510738   2.610   3.730  10.926 -1.3922  0.8034  0.0836
  726MPD2    N110739   2.859   3.866  10.440 -0.6712  0.2492  0.0958
  726MPD2    H710740   2.920   3.925  10.495  1.4572 -0.2100 -1.7561
  727TMC3    C110741   2.912   4.007  10.257  0.4400 -0.4096  0.0411
  727TMC3    C210742   3.024   4.051  10.313  0.2395 -0.0075  0.1495
  727TMC3    C310743   3.058   4.183  10.291 -0.8101 -0.0150  0.1644
  727TMC3    C410744   2.840   4.073  10.160 -0.2420 -0.1289 -0.2086
  727TMC3    C510745   2.871   4.205  10.137 -0.2444  0.0376 -0.1297
  727TMC3    C610746   2.980   4.259  10.208  0.1127 -0.2882 -0.2852
  727TMC3     C10747   2.858   3.884  10.305  0.1557  0.6793  0.0157
  727TMC3     O10748   2.778   3.835  10.228 -0.4925  0.4185 -0.5771
  727TMC3     H10749   3.093   3.981  10.359 -0.9112 -1.1474  0.1192
  727TMC3    H110750   2.743   4.036  10.130  0.3280  0.5154 -2.8191
  727TMC3    H210751   2.987   4.367  10.201  2.0072 -0.4527 -0.8435
  727TMC3    C710752   2.747   4.281  10.105 -1.0094  0.9380  0.2266
  727TMC3    C810753   3.190   4.243  10.318  0.0990 -0.1622 -0.0496
  727TMC3    O110754   2.638   4.232  10.115  0.0323  0.1324  0.0962
  727TMC3    O210755   3.216   4.350  10.260  0.2115  0.1617  0.1365
  728TMC3    C110756   1.877   2.564  16.107  0.1394 -0.5127  0.3960
  728TMC3    C210757   1.994   2.606  16.150  0.2404 -0.4637 -0.0816
  728TMC3    C310758   2.046   2.714  16.089  0.0980 -0.3119  0.1233
  728TMC3    C410759   1.806   2.621  16.005  0.7373 -0.8952 -0.8188
  728TMC3    C510760   1.860   2.733  15.948 -0.1735  0.9418 -0.1566
  728TMC3    C610761   1.980   2.782  15.988  0.0581 -0.4831  0.6063
  728TMC3     C10762   1.850   2.424  16.146 -0.9948 -0.5179  0.5285
  728TMC3     O10763   1.922   2.364  16.225 -0.2595 -0.0489 -0.1840
  728TMC3     H10764   2.051   2.555  16.228 -0.6528  0.1058  0.9465
  728TMC3    H110765   1.705   2.592  15.977  0.0285  0.1622  0.6669
  728TMC3    H210766   2.029   2.867  15.941 -1.9575  0.9782  1.1628
  728TMC3    C710767   1.796   2.769  15.826  0.2247 -0.1065 -0.1284
  728TMC3    C810768   2.193   2.742  16.100  0.2839 -0.4157 -0.3097
  728TMC3    O110769   1.739   2.670  15.772 -0.1563  0.2347  0.1165
  728TMC3    O210770   2.252   2.691  16.193  1.1133 -0.5781  0.0773
  729MPD2     C10771   3.963   3.829  16.811 -0.1593  0.1868  0.4135
  729MPD2    C110772   4.075   3.845  16.879 -0.6309  0.0401 -0.2431
  729MPD2    C210773   4.078   3.849  17.014  0.3511 -0.6822 -0.7716
  729MPD2    C310774   3.965   3.823  17.086  0.5736 -0.1329  0.3386
  729MPD2    C410775   3.847   3.799  17.015  0.1286  0.3294 -0.1930
  729MPD2    C510776   3.847   3.804  16.881  0.5656 -0.3595 -0.5788
  729MPD2     H10777   4.173   3.876  17.058 -0.5072  0.5372  0.3292
  729MPD2    H110778   3.752   3.781  17.064  0.4859 -0.3216  0.2606
  729MPD2    H210779   3.974   3.832  16.704  0.3206 -1.1387  0.4275
  729MPD2    H310780   3.758   3.778  16.825  0.9386 -1.0642 -0.8487
  729MPD2     N10781   3.959   3.833  17.223 -0.0954  0.8341 -0.4763
  729MPD2    H510782   3.879   3.794  17.271 -1.1186 -0.2475 -3.0259
  729MPD2    N110783   4.187   3.895  16.803 -0.0387  0.4727  0.1483
  729MPD2    H710784   4.171   3.909  16.703 -2.8906 -1.1803  0.3648
  730TMC3    C110785   3.995   3.923  17.422 -0.0324  0.1334 -0.2943
  730TMC3    C210786   4.086   3.940  17.519 -0.1267 -0.7398  0.2899
  730TMC3    C310787   4.073   4.045  17.609 -0.6879  0.1450  0.3535
  730TMC3    C410788   3.893   4.019  17.415 -0.0306 -0.1027  0.3203
  730TMC3    C510789   3.882   4.130  17.498  0.6487 -0.9244 -0.8015
  730TMC3    C610790   3.968   4.138  17.603  0.2261 -0.1081 -0.7119
  730TMC3     C10791   4.049   3.903  17.297 -0.9455  0.5862 -0.8163
  730TMC3     O10792   4.134   3.983  17.265 -0.7483  0.2701  0.0489
  730TMC3     H10793   4.175   3.879  17.521 -0.4372 -1.0905  2.6124
  730TMC3    H110794   3.821   4.018  17.334 -0.7772  0.7470  0.9733
  730TMC3    H210795   3.967   4.226  17.667 -0.7877 -0.8408  0.2827
  730TMC3    C710796   3.820   4.252  17.441  0.6855  0.0014  1.0635
  730TMC3    C810797   4.193   4.118  17.629 -0.1773  0.6682  0.0543
  730TMC3    O110798   3.779   4.246  17.325  0.7655 -0.0301  0.0941
  730TMC3    O210799   4.273   4.138  17.536  0.2217 -0.1594 -0.1016
  731MPD2     C10800   4.392   1.803  12.419  0.5200  0.2018 -0.3910
  731MPD2    C110801   4.473   1.694  12.436  0.1605 -0.1731  0.1472
  731MPD2    C210802   4.429   1.596  12.527 -0.6627  0.3607 -0.0373
  731MPD2    C310803   4.308   1.598  12.592 -0.3312 -0.2465  0.0012
  731MPD2    C410804   4.222   1.707  12.563 -0.2429  0.3155  0.0954
  731MPD2    C510805   4.268   1.804  12.482  0.1661 -0.2693 -0.0017
  731MPD2     H10806   4.495   1.517  12.562  1.8849  2.3471 -0.3681
  731MPD2    H110807   4.126   1.720  12.613  0.0344  1.6897  0.2849
  731MPD2    H210808   4.422   1.898  12.376 -1.0720  1.4763  1.3519
  731MPD2    H310809   4.213   1.895  12.459  0.8399  0.3747  0.8851
  731MPD2     N10810   4.279   1.495  12.686  0.3719  0.5705 -0.0806
  731MPD2    H510811   4.352   1.425  12.695 -0.9517 -0.9103 -0.7584
  731MPD2    N110812   4.608   1.680  12.387 -0.3282 -0.2634 -0.5982
  731MPD2    H710813   4.655   1.594  12.415  2.0310  0.7092 -1.6193
  732TMC3    C110814   0.086   1.723  12.281 -0.1044 -0.4122  0.3540
  732TMC3    C210815   0.108   1.586  12.255  0.1729 -0.0327  0.2742
  732TMC3    C310816   0.236   1.548  12.221  0.2833 -0.0813 -0.2054
  732TMC3    C410817   0.186   1.815  12.272 -0.4319 -0.2437  0.1396
  732TMC3    C510818   0.313   1.771  12.226  0.5097 -0.5149 -0.9781
  732TMC3    C610819   0.335   1.636  12.208  0.0063 -0.0140  0.2980
  732TMC3     C10820   4.678   1.773  12.310 -0.5554  0.7120 -0.4425
  732TMC3     O10821   4.654   1.895  12.298  0.1969 -0.5769  0.6742
  732TMC3     H10822   0.025   1.517  12.252 -0.8473  1.2582 -1.1045
  732TMC3    H110823   0.173   1.922  12.285  0.0508 -0.3437  1.4354
  732TMC3    H210824   0.431   1.588  12.193  0.6688  1.1346  0.9516
  732TMC3    C710825   0.429   1.866  12.229  0.3379 -0.3131  0.4131
  732TMC3    C810826   0.268   1.408  12.233 -0.0429 -0.2280  0.2547
  732TMC3    O110827   0.414   1.975  12.277 -0.3661 -0.3882 -0.4485
  732TMC3    O210828   0.382   1.384  12.266  0.2489 -0.1600  0.3879
  733TMC3    C110829   0.381   0.014  12.901  0.4155  0.4679  0.2994
  733TMC3    C210830   0.465   0.042  13.007  0.8198  0.8439 -0.2776
  733TMC3    C310831   0.595   0.086  12.980 -0.1119 -0.1300  0.7259
  733TMC3    C410832   0.419   0.044  12.769 -0.5992 -0.5020 -0.0574
  733TMC3    C510833   0.543   0.087  12.744 -0.4570 -0.0815  0.1166
  733TMC3    C610834   0.636   0.104  12.848 -0.3186 -0.2672  0.4441
  733TMC3     C10835   0.241   0.026  12.932 -0.2950 -0.1195 -0.1825
  733TMC3     O10836   0.199   0.137  12.960  0.7259 -0.0169 -0.2189
  733TMC3     H10837   0.431   0.005  13.104  3.7434  1.7453  1.1026
  733TMC3    H110838   0.351   0.026  12.686  1.9513 -0.4938 -2.1532
  733TMC3    H210839   0.742   0.106  12.826 -0.3149 -0.7907  0.4099
  733TMC3    C710840   0.550   0.167  12.623  1.1605 -0.5380  0.3499
  733TMC3    C810841   0.689   0.139  13.082 -0.0614  0.3957 -0.1406
  733TMC3    O110842   0.498   0.126  12.517 -0.5279  0.1981  0.3360
  733TMC3    O210843   0.700   0.095  13.197 -0.2495 -0.2842  0.0522
  734MPD2     C10844   2.896   2.551  11.995  0.0414 -0.9286  0.1200
  734MPD2    C110845   2.784   2.496  11.926 -0.1223  0.0960 -0.3893
  734MPD2    C210846   2.773   2.522  11.795 -0.0548 -0.7064 -0.0387
  734MPD2    C310847   2.862   2.605  11.731  0.5001 -0.4740 -0.1944
  734MPD2    C410848   2.973   2.657  11.801  0.6272 -0.1280 -0.5398
  734MPD2    C510849   2.988   2.623  11.933 -0.0759  0.7166 -0.0281
  734MPD2     H10850   2.687   2.488  11.739 -0.3918 -0.1710  0.1550
  734MPD2    H110851   3.047   2.724  11.759  0.7522  0.4758  0.6487
  734MPD2    H210852   2.908   2.547  12.102 -2.3634 -1.1551  0.3827
  734MPD2    H310853   3.077   2.638  11.992  0.5584 -0.1013 -0.7688
  734MPD2     N10854   2.833   2.639  11.601 -0.1303  0.0898  0.2910
  734MPD2    H510855   2.738   2.620  11.570  0.2017 -1.3989  0.1845
  734MPD2    N110856   2.696   2.405  11.997  0.6194  0.4487  0.4675
  734MPD2    H710857   2.707   2.386  12.096 -2.1269  1.3858  0.9543
  735TMC3    C110858   2.568   2.215  12.002  0.2917  0.1647 -0.1582
  735TMC3    C210859   2.474   2.139  11.934 -0.1078 -0.3720 -0.1710
  735TMC3    C310860   2.505   2.011  11.892 -0.0768  0.1585  0.2839
  735TMC3    C410861   2.677   2.147  12.054 -0.6534 -0.1812  0.9930
  735TMC3    C510862   2.698   2.014  12.022  0.5522  0.0818 -0.5238
  735TMC3    C610863   2.616   1.945  11.941  0.2459  0.0749  0.4645
  735TMC3     C10864   2.598   2.330  11.927  0.2704  0.6133 -0.3091
  735TMC3     O10865   2.561   2.321  11.812 -0.0853 -0.2927  0.3683
  735TMC3     H10866   2.385   2.185  11.892  1.3289  0.3436 -2.4268
  735TMC3    H110867   2.745   2.193  12.125  0.1005 -1.1276  0.8829
  735TMC3    H210868   2.654   1.851  11.901  0.7652  0.4818  0.0019
  735TMC3    C710869   2.839   1.979  12.040 -0.0506  0.0043  0.4578
  735TMC3    C810870   2.472   1.990  11.752 -0.5475  0.2787 -0.2929
  735TMC3    O110871   2.916   2.072  12.050  0.2566 -0.6167 -0.0721
  735TMC3    O210872   2.465   1.874  11.713  0.2394 -0.1589 -0.3323
  736MPD2     C10873   2.986   1.653  12.125  0.0183  0.4171  0.3161
  736MPD2    C110874   2.983   1.776  12.065  0.2619 -0.6773  0.4773
  736MPD2    C210875   3.101   1.834  12.023 -0.0478 -0.2373  0.1341
  736MPD2    C310876   3.225   1.758  12.038  0.1841 -0.2603  0.6840
  736MPD2    C410877   3.225   1.638  12.105 -0.5964 -0.3924  0.6236
  736MPD2    C510878   3.103   1.584  12.137  0.0470  0.2356  0.6707
  736MPD2     H10879   3.102   1.928  11.968  0.1241  0.0325  0.5983
  736MPD2    H110880   3.313   1.575  12.106  0.4990  1.0987 -1.7712
  736MPD2    H210881   2.897   1.607  12.165 -0.4492  1.7430  0.8199
  736MPD2    H310882   3.098   1.477  12.149 -0.4618  0.1314 -0.4982
  736MPD2     N10883   3.349   1.803  11.987 -0.9366  0.2603  0.3366
  736MPD2    H510884   3.430   1.746  12.013 -0.9901 -0.7030 -1.6282
  736MPD2    N110885   2.858   1.839  12.054  0.7970  0.8567 -0.1567
  736MPD2    H710886   2.776   1.784  12.078 -0.0292  2.2210  0.1603
  737TMC3    C110887   3.510   1.932  11.893  0.2078 -0.0498  1.0340
  737TMC3    C210888   3.553   2.057  11.876  0.2244  0.2218 -0.5164
  737TMC3    C310889   3.652   2.092  11.789 -0.4312 -0.1837  0.0107
  737TMC3    C410890   3.553   1.840  11.791 -0.0901  0.1731  0.3525
  737TMC3    C510891   3.645   1.881  11.696  0.4178 -0.5265 -0.3149
  737TMC3    C610892   3.706   2.001  11.705  0.2408 -0.4056  0.0160
  737TMC3     C10893   3.370   1.922  11.924  0.6373 -0.4594 -0.8972
  737TMC3     O10894   3.304   2.023  11.893 -0.3521  0.1624 -0.2586
  737TMC3     H10895   3.525   2.110  11.967  0.9107  1.7504 -1.1914
  737TMC3    H110896   3.503   1.744  11.790 -0.8652  0.5794  0.1923
  737TMC3    H210897   3.785   2.036  11.639 -1.3770  0.9366 -1.2024
  737TMC3    C710898   3.700   1.779  11.612 -0.0669  0.3208  0.0688
  737TMC3    C810899   3.690   2.228  11.773  1.2197 -0.1011 -0.1730
  737TMC3    O110900   3.687   1.668  11.655  0.3872 -1.1687  0.3060
  737TMC3    O210901   3.709   2.283  11.880  0.1732 -0.0215 -1.4580
  738MPD2     C10902   3.424   1.091  15.326 -0.0286  0.3099  0.8113
  738MPD2    C110903   3.358   1.042  15.211  0.4052 -0.1620 -0.7082
  738MPD2    C210904   3.422   1.061  15.087  0.7419  0.4381 -0.3771
  738MPD2    C310905   3.547   1.122  15.079  0.2759 -0.2878 -0.5605
  738MPD2    C410906   3.612   1.150  15.197  0.6654  0.9635  0.1864
  738MPD2    C510907   3.556   1.141  15.323  1.0026 -0.3455  0.7028
  738MPD2     H10908   3.376   1.011  15.003  0.1296 -0.1855  0.3261
  738MPD2    H110909   3.709   1.197  15.184 -0.7664  3.7839 -0.2091
  738MPD2    H210910   3.371   1.090  15.421  1.3584 -0.3456  1.5786
  738MPD2    H310911   3.609   1.177  15.410 -1.5391  1.7345  1.3966
  738MPD2     N10912   3.609   1.159  14.955 -0.0438 -0.6551  0.1586
  738MPD2    H510913   3.691   1.218  14.967 -1.5454  1.6781 -1.0185
  738MPD2    N110914   3.223   0.998  15.209  0.0452  0.6435  0.2562
  738MPD2    H710915   3.177   0.968  15.124  0.5842  1.4750 -0.3335
  739TMC3    C110916   3.647   1.171  14.727 -0.0161  0.2268  0.4611
  739TMC3    C210917   3.592   1.204  14.608  0.0075 -0.1671  0.9349
  739TMC3    C310918   3.670   1.277  14.516  0.3888  0.5310  0.4642
  739TMC3    C410919   3.780   1.198  14.761 -0.2482 -0.6216 -0.9047
  739TMC3    C510920   3.853   1.267  14.672  0.0068  0.7482 -0.2146
  739TMC3    C610921   3.803   1.301  14.548  0.3569  0.2511  0.0512
  739TMC3     C10922   3.562   1.126  14.834  0.2092  0.6040 -0.2341
  739TMC3     O10923   3.459   1.074  14.797  0.8425 -0.0355  0.1139
  739TMC3     H10924   3.484   1.205  14.596 -0.0686  1.3923  1.6788
  739TMC3    H110925   3.823   1.152  14.849 -0.9303  1.2444  0.3765
  739TMC3    H210926   3.869   1.350  14.477  0.3440  0.8778  0.4691
  739TMC3    C710927   3.998   1.248  14.683 -0.6173 -0.2061 -0.4257
  739TMC3    C810928   3.608   1.290  14.388 -0.6915  0.4604  0.1721
  739TMC3    O110929   4.031   1.159  14.754  0.3088  0.0274 -0.1885
  739TMC3    O210930   3.486   1.268  14.378 -0.2246  0.1045 -0.6430
  740TMC3    C110931   3.658   2.608  14.142 -0.0473  0.6064 -0.2548
  740TMC3    C210932   3.778   2.599  14.212  0.6315  0.3577 -0.0662
  740TMC3    C310933   3.893   2.538  14.150  0.4006  0.9835 -0.5693
  740TMC3    C410934   3.654   2.573  14.008  0.4778 -0.1521  0.4127
  740TMC3    C510935   3.767   2.519  13.951  0.1323 -0.7225 -0.2492
  740TMC3    C610936   3.882   2.498  14.016 -0.4413 -0.0528  0.1306
  740TMC3     C10937   3.566   2.705  14.194  0.3273  0.0776 -0.1916
  740TMC3     O10938   3.492   2.754  14.111 -0.4581  0.6436  0.1799
  740TMC3     H10939   3.789   2.646  14.309 -2.8803  1.0799 -0.0226
  740TMC3    H110940   3.561   2.592  13.956 -0.6981 -0.7229  2.3025
  740TMC3    H210941   3.976   2.464  13.974 -1.4784 -0.3482 -1.9632
  740TMC3    C710942   3.763   2.501  13.805  0.2826  0.0907 -0.1353
  740TMC3    C810943   4.005   2.478  14.224 -0.6641  0.4499  0.1168
  740TMC3    O110944   3.652   2.506  13.751 -1.1053  0.0773 -0.5326
  740TMC3    O210945   4.092   2.429  14.157 -0.1041 -0.1603  0.5538
  741TMC3    C110946   3.543   1.791  14.251  0.3361  0.1305  0.6112
  741TMC3    C210947   3.426   1.750  14.196 -0.0933 -0.4483  0.2480
  741TMC3    C310948   3.349   1.659  14.263  0.9801  0.0433 -0.2130
  741TMC3    C410949   3.587   1.734  14.365  0.5574 -0.1565 -0.7289
  741TMC3    C510950   3.509   1.641  14.423  0.4170 -0.0346  0.7762
  741TMC3    C610951   3.391   1.596  14.375 -0.5252  0.3367  0.5497
  741TMC3     C10952   3.634   1.864  14.173  0.1726 -0.3339  0.8868
  741TMC3     O10953   3.720   1.923  14.228 -0.6937  0.1654  0.3000
  741TMC3     H10954   3.380   1.807  14.116  1.2571  1.0653  0.5549
  741TMC3    H110955   3.686   1.762  14.401 -0.1153  0.1672  0.8457
  741TMC3    H210956   3.335   1.520  14.429 -3.0171  1.8460  0.0791
  741TMC3    C710957   3.539   1.598  14.563  0.8532 -0.2467  0.1999
  741TMC3    C810958   3.229   1.609  14.193 -0.3177 -0.4089 -0.3719
  741TMC3    O110959   3.451   1.531  14.619  0.3935 -0.6684 -0.7545
  741TMC3    O210960   3.170   1.678  14.112  0.3719 -0.8772 -0.8577
  742TMC3    C110961   3.022   0.249  15.576 -0.0719  0.4674 -0.5673
  742TMC3    C210962   2.972   0.256  15.451  0.6646  0.3085 -0.4217
  742TMC3    C310963   3.053   0.225  15.347  0.6517  0.3694 -0.9594
  742TMC3    C410964   3.146   0.212  15.597  0.2731 -1.0624  0.2953
  742TMC3    C510965   3.237   0.198  15.494  0.2895  0.5983  0.2331
  742TMC3    C610966   3.191   0.203  15.364 -0.5874 -0.4980  0.7208
  742TMC3     C10967   2.939   0.298  15.687 -0.2782  0.5311  0.7105
  742TMC3     O10968   2.838   0.356  15.649  0.0519 -0.3785 -0.3959
  742TMC3     H10969   2.865   0.249  15.434  0.4169  1.1561  0.7624
  742TMC3    H110970   3.188   0.197  15.696  0.5909 -0.3027  0.2722
  742TMC3    H210971   3.260   0.174  15.285 -0.4493 -0.5309  0.8539
  742TMC3    C710972   3.359   0.125  15.513  0.8258  0.1401 -0.7173
  742TMC3    C810973   3.000   0.196  15.212 -0.0910  0.0736  0.0318
  742TMC3    O110974   3.401   0.060  15.422  1.0039 -0.5800 -0.1489
  742TMC3    O210975   3.077   0.135  15.134  0.2084 -0.2455 -0.0045
  743MPD2     C10976   0.644   1.968   1.548  0.6213 -0.2307  0.8650
  743MPD2    C110977   0.725   1.871   1.499  0.0919  0.0181 -0.5055
  743MPD2    C210978   0.852   1.865   1.560  0.6071 -0.3102  1.2262
  743MPD2    C310979   0.896   1.946   1.658  0.0226  0.9170 -0.1484
  743MPD2    C410980   0.811   2.047   1.699  0.2438 -0.5420  0.5409
  743MPD2    C510981   0.692   2.061   1.637 -0.2220 -0.4852 -0.4756
  743MPD2     H10982   0.925   1.789   1.536  0.2513  0.3210 -1.7811
  743MPD2    H110983   0.842   2.129   1.763 -1.1387 -0.0772  0.6038
  743MPD2    H210984   0.543   1.985   1.512  1.0075  1.2646  0.4497
  743MPD2    H310985   0.630   2.141   1.677 -0.0500 -1.5902  2.0427
  743MPD2     N10986   1.030   1.932   1.703 -0.1576  0.0422  0.5449
  743MPD2    H510987   1.087   1.861   1.659  0.9854  1.9392 -1.0348
  743MPD2    N110988   0.676   1.782   1.403  0.1455  0.9125  0.3528
  743MPD2    H710989   0.580   1.796   1.376  0.3196 -0.6495 -1.1073
  744TMC3    C110990   0.691   1.610   1.240 -0.5846 -0.5138 -0.1074
  744TMC3    C210991   0.556   1.576   1.249  0.1103  0.1764 -0.2384
  744TMC3    C310992   0.495   1.496   1.161 -0.3128 -0.0732  0.2367
  744TMC3    C410993   0.767   1.562   1.134  0.0126 -0.7243  0.9482
  744TMC3    C510994   0.704   1.486   1.043  0.1049 -0.3650 -0.4878
  744TMC3    C610995   0.569   1.441   1.058 -0.6228  0.0976  0.1831
  744TMC3     C10996   0.760   1.695   1.336 -1.0533 -0.5628 -0.1064
  744TMC3     O10997   0.882   1.676   1.335 -0.4459  0.7741  0.6359
  744TMC3     H10998   0.505   1.622   1.333 -0.5833 -0.2125 -0.4471
  744TMC3    H110999   0.869   1.598   1.120  0.5745 -2.2620  0.9954
  744TMC3    H211000   0.513   1.374   0.994  1.3479 -2.2886  0.9964
  744TMC3    C711001   0.795   1.421   0.949  1.2255 -0.6196 -0.0674
  744TMC3    C811002   0.354   1.528   1.149  0.5752  0.3681  0.2091
  744TMC3    O111003   0.911   1.420   0.984 -0.0032 -0.1720 -0.0888
  744TMC3    O211004   0.303   1.579   1.250  0.1691  0.0240 -0.0970
  745TMC3    C111005   3.630   4.656  13.222  0.1837  0.1087 -0.0972
  745TMC3    C211006   3.589   4.687  13.346 -0.1610  0.9552  0.7508
  745TMC3    C311007   3.475   0.034  13.366 -0.7528 -0.0485 -0.2720
  745TMC3    C411008   3.556   4.706  13.121 -0.1884  0.2579  0.0984
  745TMC3    C511009   3.452   0.067  13.141  0.1886  0.4501 -0.0832
  745TMC3    C611010   3.403   0.100  13.260 -0.3990 -0.3224  0.0054
  745TMC3     C11011   3.771   4.694  13.196  0.4254 -0.6244 -0.1613
  745TMC3     O11012   3.794   4.704  13.072  0.3529 -0.1257  0.6072
  745TMC3     H11013   3.610   4.616  13.426  0.2591 -1.1125 -1.1879
  745TMC3    H111014   3.578   4.670  13.021  2.0034 -0.2030  0.7581
  745TMC3    H211015   3.323   0.170  13.281 -0.2666 -0.3340  0.5527
  745TMC3    C711016   3.443   0.174  13.047 -0.3656  0.8875  0.2384
  745TMC3    C811017   3.415   0.036  13.496 -0.5980 -0.4462 -0.0839
  745TMC3    O111018   3.346   0.243  13.061 -0.1598 -0.2661 -0.2136
  745TMC3    O211019   3.300   0.082  13.499 -0.5304  0.1391 -0.0261
  746TMC3    C111020   1.952   1.867  10.883 -1.2049 -0.0234 -0.7881
  746TMC3    C211021   2.045   1.860  10.789 -0.3860 -0.1116  0.0979
  746TMC3    C311022   2.033   1.744  10.711  0.2549  0.5531  0.2893
  746TMC3    C411023   1.847   1.780  10.911  0.2332 -0.1217  1.3225
  746TMC3    C511024   1.840   1.673  10.828  0.0142 -0.1544  0.1271
  746TMC3    C611025   1.937   1.650  10.738  0.6931 -0.3342  0.4704
  746TMC3     C11026   1.928   2.003  10.917 -0.0718 -0.1140 -0.4242
  746TMC3     O11027   1.949   2.092  10.836  0.0499 -0.2728  0.2426
  746TMC3     H11028   2.112   1.943  10.768 -0.1889 -0.1841  0.4294
  746TMC3    H111029   1.760   1.812  10.968 -0.6290 -2.2114  1.1937
  746TMC3    H211030   1.933   1.559  10.678  3.4567 -0.9856  1.2962
  746TMC3    C711031   1.708   1.606  10.813  0.5024  0.0861  0.2975
  746TMC3    C811032   2.082   1.760  10.570  0.4248  0.4458 -0.5202
  746TMC3    O111033   1.628   1.606  10.907 -0.2089  0.7452 -0.4158
  746TMC3    O211034   2.081   1.661  10.500 -0.0695  0.6088  0.3218
  747TMC3    C111035   3.789   2.050  10.744  0.2047  0.1392  0.7830
  747TMC3    C211036   3.836   1.923  10.763  0.1823 -1.0102 -0.1178
  747TMC3    C311037   3.948   1.908  10.838  0.3334 -0.4623  0.1480
  747TMC3    C411038   3.860   2.154  10.791 -1.0384 -0.2846 -0.6594
  747TMC3    C511039   3.977   2.142  10.858  0.2395  0.1063 -0.4650
  747TMC3    C611040   4.020   2.012  10.882  0.0646  0.1588  0.5685
  747TMC3     C11041   3.684   2.078  10.651  0.2893 -0.1954 -0.0198
  747TMC3     O11042   3.663   2.193  10.636  0.1194  0.1770  0.1494
  747TMC3     H11043   3.775   1.836  10.742  0.2877 -0.4412 -2.7681
  747TMC3    H111044   3.824   2.256  10.778 -2.1866 -0.4817  0.9780
  747TMC3    H211045   4.113   1.985  10.931  0.5127 -0.4321 -0.6244
  747TMC3    C711046   4.048   2.259  10.908 -0.7146 -0.2687 -0.7114
  747TMC3    C811047   3.937   1.797  10.929 -0.6770 -0.2510 -0.2780
  747TMC3    O111048   4.136   2.221  10.985  0.6134  0.6204 -0.0820
  747TMC3    O211049   3.903   1.692  10.874 -0.4397 -0.4997 -0.2344
  748MPD2     C11050   4.612   2.924   1.168 -0.1621  0.6021  0.3629
  748MPD2    C111051   4.677   2.812   1.206  0.3151 -0.5494 -0.9801
  748MPD2    C211052   0.083   2.784   1.162 -0.7645 -0.0549  0.8606
  748MPD2    C311053   0.147   2.875   1.076 -0.8628  0.1051 -0.3860
  748MPD2    C411054   0.079   2.988   1.038 -0.2174  0.0681 -0.1341
  748MPD2    C511055   4.671   3.012   1.080  0.4923 -0.3452  0.7947
  748MPD2     H11056   0.135   2.698   1.201 -2.4297 -2.1114 -1.4266
  748MPD2    H111057   0.116   3.057   0.963 -1.9693  1.7245  0.5197
  748MPD2    H211058   4.512   2.945   1.202 -1.0107 -2.5603 -0.1672
  748MPD2    H311059   4.624   3.106   1.053  0.8492 -0.8745 -1.6694
  748MPD2     N11060   0.276   2.849   1.036  0.2574  0.1191 -0.2001
  748MPD2    H511061   0.309   2.757   1.063  1.3616 -0.5318 -3.7459
  748MPD2    N111062   4.602   2.722   1.288  0.7018  0.3191 -0.3076
  748MPD2    H711063   4.506   2.743   1.314  0.8048 -1.2461  1.3292
  749TMC3    C111064   0.490   2.871   0.936  0.6408  0.0776 -0.1228
  749TMC3    C211065   0.547   2.810   1.043 -0.0592 -0.6137  0.1693
  749TMC3    C311066   0.680   2.806   1.057  0.2069  0.1269  0.3436
  749TMC3    C411067   0.569   2.940   0.845 -0.4502  0.0204  0.5161
  749TMC3    C511068   0.710   2.932   0.856  0.0641  0.0006  0.2349
  749TMC3    C611069   0.760   2.859   0.954  0.1121  0.1877  0.3521
  749TMC3     C11070   0.352   2.921   0.945 -0.5047 -0.1168  0.7860
  749TMC3     O11071   0.319   3.014   0.876 -0.0807  0.1637  0.7765
  749TMC3     H11072   0.488   2.764   1.122  0.8421  3.6079  3.3072
  749TMC3    H111073   0.523   3.014   0.780  0.6459  0.8642  0.6970
  749TMC3    H211074   0.866   2.837   0.959  0.4385  1.8676  0.6354
  749TMC3    C711075   0.772   3.064   0.822  0.8472  0.3947 -0.1588
  749TMC3    C811076   0.727   2.753   1.177 -1.1518  1.0712  0.1657
  749TMC3    O111077   0.704   3.163   0.797  0.3715  0.5369  0.1440
  749TMC3    O211078   0.662   2.783   1.275 -0.0093 -0.8517  0.3649
  750MPD2     C11079   1.835   3.387  11.614  0.2207  0.0348  0.1714
  750MPD2    C111080   1.777   3.264  11.601  0.7385  0.1251 -0.2389
  750MPD2    C211081   1.753   3.207  11.473 -0.4617 -0.3606 -0.2461
  750MPD2    C311082   1.785   3.279  11.358 -0.2073  0.0234 -0.1202
  750MPD2    C411083   1.855   3.395  11.379  0.4958  0.0976 -0.9405
  750MPD2    C511084   1.886   3.445  11.502  0.1663  0.5062  0.2676
  750MPD2     H11085   1.726   3.102  11.467 -0.6931 -0.3985  1.5832
  750MPD2    H111086   1.889   3.452  11.293  0.8371 -0.5041 -1.2052
  750MPD2    H211087   1.873   3.419  11.710 -0.1136  2.7152 -0.5853
  750MPD2    H311088   1.946   3.535  11.510  1.2968 -0.4454  2.5802
  750MPD2     N11089   1.748   3.240  11.227  0.0384 -0.8194 -0.0606
  750MPD2    H511090   1.767   3.309  11.155 -0.4385 -0.3496  0.2612
  750MPD2    N111091   1.738   3.192  11.719 -1.1833  0.4383 -0.1006
  750MPD2    H711092   1.746   3.252  11.800 -2.8723  0.2085  0.2346
  751TMC3    C111093   1.597   3.141  11.070  0.1095  0.5274  0.4422
  751TMC3    C211094   1.493   3.054  11.054  0.0560  0.5167 -0.3706
  751TMC3    C311095   1.386   3.094  10.979  0.1850  0.4469 -0.4474
  751TMC3    C411096   1.600   3.264  11.005 -0.0192  0.3888 -0.1070
  751TMC3    C511097   1.487   3.301  10.940 -0.3847  0.0363 -0.3738
  751TMC3    C611098   1.383   3.213  10.918  0.3809  0.4099 -0.5050
  751TMC3     C11099   1.669   3.131  11.198 -0.0072 -0.1442 -0.8399
  751TMC3     O11100   1.636   3.039  11.272  0.1742  0.2940 -0.5016
  751TMC3     H11101   1.486   2.957  11.102 -0.8915  1.9820  2.4410
  751TMC3    H111102   1.678   3.336  11.027 -0.1384  0.8486 -1.2084
  751TMC3    H211103   1.297   3.250  10.864 -0.4800 -1.4606 -0.4034
  751TMC3    C711104   1.518   3.404  10.837 -0.5367  0.8061 -0.3217
  751TMC3    C811105   1.338   2.977  10.909 -0.0161 -0.7355 -0.5577
  751TMC3    O111106   1.638   3.424  10.819  0.7562  0.4967 -0.0246
  751TMC3    O211107   1.418   2.916  10.843  0.2124  0.3135 -0.2537
  752TMC3    C111108   0.293   3.058  16.780 -0.0061 -0.0049 -0.4499
  752TMC3    C211109   0.160   3.025  16.757  0.0752 -0.1201 -0.0381
  752TMC3    C311110   0.117   2.895  16.787  0.3918 -0.1703 -0.7395
  752TMC3    C411111   0.383   2.957  16.810 -0.3142 -0.1566 -0.5722
  752TMC3    C511112   0.337   2.836  16.844  0.7253  0.1984 -0.7831
  752TMC3    C611113   0.205   2.803  16.841 -0.2760 -0.5100 -0.4202
  752TMC3     C11114   0.340   3.192  16.740 -0.4237  0.9842  0.0539
  752TMC3     O11115   0.458   3.199  16.710  0.7665 -0.3268  0.4406
  752TMC3     H11116   0.090   3.106  16.744 -0.2788 -0.2683  0.9937
  752TMC3    H111117   0.487   2.982  16.828  0.0016 -0.2897 -2.2319
  752TMC3    H211118   0.172   2.702  16.863  0.1596 -0.4189  0.6441
  752TMC3    C711119   0.424   2.725  16.875  0.0197 -0.1132  0.1690
  752TMC3    C811120   4.705   2.853  16.775 -0.5334  0.8806 -0.0930
  752TMC3    O111121   0.376   2.636  16.948  0.1101  0.9550  0.0535
  752TMC3    O211122   4.691   2.738  16.814  0.6632  0.2011  0.1848
  753TMC3    C111123   1.892   0.035  13.558 -0.0347 -0.4279  0.6675
  753TMC3    C211124   1.981   4.717  13.654  0.4870  0.3767 -0.0557
  753TMC3    C311125   1.985   4.592  13.690 -0.1755 -0.1676  0.0364
  753TMC3    C411126   1.836   4.664  13.471 -0.3081  0.0253  0.4459
  753TMC3    C511127   1.862   4.539  13.497 -0.9403  0.6232  0.0317
  753TMC3    C611128   1.929   4.500  13.608  0.4249  0.1416 -0.1569
  753TMC3     C11129   1.923   0.166  13.504  0.3599 -0.5270 -0.2712
  753TMC3     O11130   1.836   0.216  13.433 -0.3675  0.0478  0.5509
  753TMC3     H11131   2.014   0.075  13.719  1.8284 -0.5314  0.3948
  753TMC3    H111132   1.787   4.692  13.378  0.5054 -1.9361 -0.5675
  753TMC3    H211133   1.930   4.394  13.633  1.7851 -0.0405 -0.9647
  753TMC3    C711134   1.852   4.447  13.388  0.6817 -0.1506 -0.0040
  753TMC3    C811135   2.071   4.547  13.799 -0.5503 -0.4627  0.1041
  753TMC3    O111136   1.859   4.495  13.273 -0.2301  0.6658 -0.0530
  753TMC3    O211137   2.097   4.432  13.800  0.2836  0.9245 -0.3072
  754MPD2     C11138   1.552   3.388  13.112 -0.5381  0.3632  0.2423
  754MPD2    C111139   1.496   3.269  13.067  0.1990 -0.6287  0.0423
  754MPD2    C211140   1.362   3.272  13.030 -0.2929 -0.5516 -0.1762
  754MPD2    C311141   1.278   3.381  13.049  0.2508  0.0072  0.3479
  754MPD2    C411142   1.332   3.495  13.108  0.6353  0.2191 -0.9643
  754MPD2    C511143   1.470   3.496  13.134 -0.9043  0.1067  0.0009
  754MPD2     H11144   1.313   3.184  12.990  1.3552 -1.2495 -0.6774
  754MPD2    H111145   1.267   3.576  13.140  3.0723  2.1434 -0.8776
  754MPD2    H211146   1.657   3.397  13.137 -0.4348  2.2441 -0.8617
  754MPD2    H311147   1.511   3.587  13.176 -0.4892  0.1029 -0.3973
  754MPD2     N11148   1.138   3.370  13.031  0.4753  0.1802 -0.1017
  754MPD2    H511149   1.086   3.452  13.061  0.4947  0.2270 -0.1964
  754MPD2    N111150   1.587   3.165  13.043 -0.1952  0.1909  0.7492
  754MPD2    H711151   1.683   3.191  13.061  0.7912 -2.4812 -0.7223
  755MPD2     C11152   0.327   3.858  13.301 -0.1692 -0.3855  0.4905
  755MPD2    C111153   0.327   3.738  13.373  0.1785 -0.7068  0.4254
  755MPD2    C211154   0.413   3.635  13.348  0.1570 -0.0633  0.2558
  755MPD2    C311155   0.510   3.653  13.257  0.2111 -0.1114  0.1081
  755MPD2    C411156   0.521   3.774  13.194 -0.5064 -0.0051  0.6968
  755MPD2    C511157   0.432   3.875  13.217 -0.3060  0.4953  0.1004
  755MPD2     H11158   0.399   3.545  13.407  0.2264 -0.6156 -0.5686
  755MPD2    H111159   0.595   3.794  13.117 -0.0284 -0.7504  0.9513
  755MPD2    H211160   0.265   3.944  13.321  1.5343  0.9859 -0.1527
  755MPD2    H311161   0.435   3.963  13.155  0.2854 -1.6978 -2.9501
  755MPD2     N11162   0.595   3.545  13.228 -0.4977 -0.0993 -0.1802
  755MPD2    H511163   0.564   3.462  13.278 -0.4475 -0.8755 -1.4286
  755MPD2    N111164   0.240   3.729  13.486 -0.4741  0.2380 -0.1622
  755MPD2    H711165   0.247   3.641  13.536 -1.9888  0.1050 -0.1752
  756MPD2     C11166   1.442   4.250   9.427  0.3156  0.2581 -0.0100
  756MPD2    C111167   1.356   4.241   9.538 -0.6112 -0.1409  0.4301
  756MPD2    C211168   1.218   4.281   9.522 -0.1911 -0.2863  0.0416
  756MPD2    C311169   1.184   4.339   9.403 -0.6432  0.5294 -0.0605
  756MPD2    C411170   1.272   4.358   9.302  0.0268  0.5832  0.1112
  756MPD2    C511171   1.399   4.307   9.313  0.5470  0.1679 -0.1375
  756MPD2     H11172   1.151   4.278   9.607 -1.3011 -3.7864 -0.9469
  756MPD2    H111173   1.246   4.410   9.210 -3.0468  2.2166  1.9231
  756MPD2    H211174   1.545   4.217   9.430 -0.0200 -0.9936 -2.5557
  756MPD2    H311175   1.468   4.311   9.230 -0.9028 -3.2176 -1.4749
  756MPD2     N11176   1.064   4.394   9.394 -0.1908  0.1251 -0.7284
  756MPD2    H511177   1.006   4.379   9.476 -1.7341  2.6733 -1.3416
  756MPD2    N111178   1.395   4.191   9.664  0.5293 -0.4722 -0.8181
  756MPD2    H711179   1.319   4.191   9.731 -0.0369  0.2239 -1.4539
  757MPD2     C11180   0.397   4.110   9.868 -0.0168  0.0110  0.3349
  757MPD2    C111181   0.478   4.048   9.774 -0.1187 -0.6020 -0.0819
  757MPD2    C211182   0.552   4.132   9.686  0.4956 -0.7325  0.2177
  757MPD2    C311183   0.544   4.266   9.690  0.2535  0.8552 -0.2475
  757MPD2    C411184   0.461   4.324   9.779  0.0980  0.3549 -0.3807
  757MPD2    C511185   0.388   4.246   9.868  0.6526  0.1281 -0.0007
  757MPD2     H11186   0.622   4.097   9.611 -0.5833  1.4127 -1.7957
  757MPD2    H111187   0.445   4.430   9.793  1.3256  0.7890 -2.2321
  757MPD2    H211188   0.335   4.052   9.936  1.5748 -0.1540  1.6337
  757MPD2    H311189   0.333   4.300   9.945 -2.1224 -1.1665 -1.0531
  757MPD2     N11190   0.627   4.349   9.606  0.0413 -0.2356  0.4483
  757MPD2    H511191   0.694   4.304   9.544  0.9161 -0.4512  1.5520
  757MPD2    N111192   0.478   3.903   9.766 -0.5123  0.4802  0.0006
  757MPD2    H711193   0.428   3.849   9.837  0.4757 -1.0848 -0.4931
  758MPD2     C11194   0.662   3.299  16.330 -0.9732  0.2052 -0.3507
  758MPD2    C111195   0.735   3.188  16.373  0.3818 -0.9798 -0.1830
  758MPD2    C211196   0.804   3.199  16.493  0.4229  0.5553  0.2324
  758MPD2    C311197   0.804   3.315  16.570 -0.2135 -0.4002 -0.5774
  758MPD2    C411198   0.728   3.422  16.519  0.6507 -1.1265  0.3905
  758MPD2    C511199   0.663   3.415  16.392 -0.5407 -0.3803  0.5138
  758MPD2     H11200   0.839   3.110  16.544  2.7608  0.8794 -0.8132
  758MPD2    H111201   0.705   3.516  16.569  0.5943 -1.3383  0.7582
  758MPD2    H211202   0.602   3.299  16.240 -0.3970  1.2945 -0.7350
  758MPD2    H311203   0.594   3.484  16.346  0.3637 -0.6221 -1.2140
  758MPD2     N11204   0.874   3.335  16.692 -0.1128 -0.3424 -0.0780
  758MPD2    H511205   0.869   3.427  16.734  1.2081 -0.7497  0.9707
  758MPD2    N111206   0.743   3.078  16.291 -0.1811  0.5222 -0.1302
  758MPD2    H711207   0.704   3.084  16.198  0.3659  0.5304 -0.3558
  759MPD2     C11208   0.371   2.613   9.988 -0.3948 -1.0214 -0.1211
  759MPD2    C111209   0.412   2.486   9.952 -0.7053  0.7435  0.7156
  759MPD2    C211210   0.538   2.467   9.890 -0.8927 -0.2324  0.7062
  759MPD2    C311211   0.624   2.573   9.865 -0.5663 -0.7129 -0.0590
  759MPD2    C411212   0.575   2.702   9.894  0.8718  0.5287 -0.2714
  759MPD2    C511213   0.456   2.716   9.963 -0.2685 -0.1687 -1.0149
  759MPD2     H11214   0.576   2.371   9.858  0.1860  0.2738  0.4814
  759MPD2    H111215   0.623   2.797   9.873 -1.0732  1.6989  0.5138
  759MPD2    H211216   0.273   2.642  10.024  0.0651 -0.6380  0.8174
  759MPD2    H311217   0.428   2.814  10.002  1.7590  0.2439 -0.5834
  759MPD2     N11218   0.752   2.540   9.806 -0.3809 -0.3119  0.1292
  759MPD2    H511219   0.779   2.442   9.812  0.4263 -0.0808  0.2562
  759MPD2    N111220   0.328   2.372   9.979  0.5853  0.4782 -0.6694
  759MPD2    H711221   0.342   2.278   9.944 -0.8778  0.2962 -0.7636
  760MPD2     C11222   4.430   3.726  11.622  0.2443  0.5873 -0.9621
  760MPD2    C111223   4.564   3.704  11.648  0.1725 -0.3258  0.3058
  760MPD2    C211224   4.605   3.586  11.717  0.1992  0.1135 -0.2306
  760MPD2    C311225   4.510   3.497  11.761  0.1353 -0.2969 -0.4205
  760MPD2    C411226   4.374   3.525  11.742 -0.2175 -0.0239 -0.0742
  760MPD2    C511227   4.338   3.638  11.672  1.2014  0.1473 -0.8045
  760MPD2     H11228   4.712   3.574  11.733  0.0799 -0.0785  0.4064
  760MPD2    H111229   4.295   3.463  11.782 -1.1921  1.0914 -0.2834
  760MPD2    H211230   4.399   3.822  11.583  0.1420  0.5359 -1.0089
  760MPD2    H311231   4.233   3.665  11.667  1.1629 -0.1172 -1.3886
  760MPD2     N11232   4.542   3.396  11.847  0.6911 -1.0068 -0.1850
  760MPD2    H511233   4.462   3.348  11.888 -0.1893 -1.0625 -1.9231
  760MPD2    N111234   4.661   3.792  11.599 -0.2461 -0.1190  0.1330
  760MPD2    H711235   0.034   3.764  11.618 -0.0090 -0.1115 -1.1039
  761MPD2     C11236   0.948   2.679  10.745  0.2914 -0.4206 -0.5093
  761MPD2    C111237   1.085   2.667  10.731 -0.4118 -1.1474  0.0715
  761MPD2    C211238   1.172   2.759  10.792  0.3367 -0.6999  0.4900
  761MPD2    C311239   1.122   2.857  10.870  0.1587 -0.0347  0.1566
  761MPD2    C411240   0.986   2.857  10.897  0.7511  0.0182  0.8028
  761MPD2    C511241   0.895   2.775  10.835  0.1880 -0.0311 -0.1705
  761MPD2     H11242   1.279   2.747  10.778  0.2067 -0.1306 -1.0035
  761MPD2    H111243   0.946   2.933  10.962  1.4205 -0.3725  1.6787
  761MPD2    H211244   0.877   2.617  10.691 -0.2708  0.8806 -1.2607
  761MPD2    H311245   0.787   2.771  10.844  0.3094  0.1083  1.3100
  761MPD2     N11246   1.198   2.959  10.926 -0.1250  0.5080 -0.1821
  761MPD2    H511247   1.155   3.025  10.990 -0.0800 -0.2314  0.6158
  761MPD2    N111248   1.123   2.557  10.653  0.4781 -0.0794 -0.0672
  761MPD2    H711249   1.053   2.488  10.625  0.2644  0.6636 -1.3226
  762MPD2     C11250   1.675   2.726  10.566  0.3101  0.6558  0.1534
  762MPD2    C111251   1.722   2.596  10.580 -0.0682  0.1334 -0.0201
  762MPD2    C211252   1.849   2.557  10.537  0.4861 -0.1462 -0.3901
  762MPD2    C311253   1.938   2.660  10.484 -0.6126  0.2770 -0.2900
  762MPD2    C411254   1.891   2.788  10.485 -0.0960  0.4103  0.5334
  762MPD2    C511255   1.762   2.819  10.525 -0.0392 -0.4654 -0.1553
  762MPD2     H11256   1.883   2.454  10.537  0.0556 -0.2981 -2.3645
  762MPD2    H111257   1.954   2.875  10.468 -1.4515  1.0056 -1.4180
  762MPD2    H211258   1.579   2.759  10.604 -0.5608 -0.9160 -0.6669
  762MPD2    H311259   1.735   2.924  10.519  1.0853 -0.1238  0.6565
  762MPD2     N11260   2.065   2.635  10.428 -0.2818  0.1524 -0.3445
  762MPD2    H511261   2.104   2.543  10.444 -0.0720 -0.0864 -2.1926
  762MPD2    N111262   1.626   2.506  10.625  0.3892  0.3052  0.8106
  762MPD2    H711263   1.531   2.541  10.632  0.8127  1.9935 -1.7130
  763MPD2     C11264   2.972   3.339  15.971 -0.1760 -0.5847 -0.5489
  763MPD2    C111265   2.851   3.395  16.007 -0.0256  0.2381  0.6349
  763MPD2    C211266   2.844   3.501  16.090  0.2916  0.5688  0.1311
  763MPD2    C311267   2.963   3.547  16.148  0.0140  0.9696  0.0251
  763MPD2    C411268   3.087   3.489  16.108 -0.1305  0.4675 -0.3103
  763MPD2    C511269   3.089   3.388  16.020  0.4327  0.1778 -0.0931
  763MPD2     H11270   2.750   3.551  16.106 -0.9373 -0.9691 -2.1624
  763MPD2    H111271   3.181   3.529  16.143  0.4806 -1.9294  0.7723
  763MPD2    H211272   2.986   3.253  15.907 -1.9338 -0.9221 -0.5010
  763MPD2    H311273   3.181   3.337  15.992  0.9651  0.5093  1.0543
  763MPD2     N11274   2.972   3.650  16.240 -0.0371 -0.0300 -0.6451
  763MPD2    H511275   3.063   3.687  16.267  0.5550 -2.3222  0.5270
  763MPD2    N111276   2.727   3.358  15.942  0.5072 -0.3301 -0.4575
  763MPD2    H711277   2.652   3.426  15.946 -0.4356 -1.5302  2.5522
  764MPD2     C11278   4.604   3.692   0.300 -0.2695 -0.5610 -0.3711
  764MPD2    C111279   4.658   3.823   0.307 -0.3036 -0.6936  0.2650
  764MPD2    C211280   4.700   3.880   0.428 -0.4450 -0.5634 -0.4927
  764MPD2    C311281   4.674   3.807   0.542 -0.9581  0.3241 -0.6292
  764MPD2    C411282   4.615   3.682   0.536 -0.3345 -0.5339  0.1812
  764MPD2    C511283   4.583   3.626   0.421 -0.2311  0.3620  1.3164
  764MPD2     H11284   0.010   3.983   0.437  1.1113 -1.2186  1.4121
  764MPD2    H111285   4.609   3.630   0.631 -1.4719 -0.7621 -0.0194
  764MPD2    H211286   4.578   3.641   0.208  0.8559 -0.0223 -0.9823
  764MPD2    H311287   4.532   3.530   0.418 -1.8454  1.3558 -2.0182
  764MPD2     N11288   4.687   3.872   0.668 -0.3391  0.2204 -0.1091
  764MPD2    H511289   4.716   3.969   0.678  0.2030  0.0125  0.3162
  764MPD2    N111290   4.666   3.907   0.197 -0.0158  0.4793  0.5275
  764MPD2    H711291   4.712   3.992   0.227 -2.1351  1.5675  0.6977
  765MPD2     C11292   0.475   2.416  15.718  0.2343  0.1294 -0.1085
  765MPD2    C111293   0.580   2.482  15.659  0.0714  0.6578  0.2075
  765MPD2    C211294   0.702   2.425  15.660  0.5512 -0.2389 -1.0927
  765MPD2    C311295   0.728   2.310  15.722  0.6354 -0.3212  0.4456
  765MPD2    C411296   0.627   2.241  15.782 -0.4191 -0.5004 -0.0712
  765MPD2    C511297   0.498   2.289  15.772  0.2661  0.1398  0.6470
  765MPD2     H11298   0.781   2.477  15.607  0.3546  0.5948 -0.5721
  765MPD2    H111299   0.641   2.145  15.830 -1.2495 -1.5212 -1.8952
  765MPD2    H211300   0.373   2.448  15.734  0.1047  0.0049 -0.6846
  765MPD2    H311301   0.415   2.238  15.821  2.0157 -2.3099  1.0734
  765MPD2     N11302   0.865   2.270  15.734  0.7214  0.0533 -0.4184
  765MPD2    H511303   0.928   2.311  15.665 -1.3052 -0.2752 -2.4290
  765MPD2    N111304   0.549   2.605  15.598  0.0283  0.0028 -0.5858
  765MPD2    H711305   0.451   2.630  15.606  0.4526  1.2063  0.8722
  766MPD2     C11306   4.720   2.783  15.202  0.0028  0.3763  0.1242
  766MPD2    C111307   0.132   2.749  15.188  0.4433 -0.7106 -0.0950
  766MPD2    C211308   0.165   2.667  15.084  0.2793 -0.1441  0.0632
  766MPD2    C311309   0.068   2.617  14.997 -0.4980 -0.4950 -0.3174
  766MPD2    C411310   4.663   2.656  15.013 -0.0047  0.3599 -0.1058
  766MPD2    C511311   4.624   2.738  15.118  0.8367 -0.0002 -0.2216
  766MPD2     H11312   0.271   2.643  15.081  0.4633  0.8180 -1.6848
  766MPD2    H111313   4.587   2.634  14.939 -1.8312 -0.0148  1.8577
  766MPD2    H211314   4.703   2.853  15.282  2.6376  0.9273  0.1745
  766MPD2    H311315   4.521   2.764  15.141  0.8994  0.9480 -1.0464
  766MPD2     N11316   0.105   2.538  14.890  0.4411  0.4721 -0.0916
  766MPD2    H511317   0.034   2.530  14.819  0.6722 -0.3720 -0.2238
  766MPD2    N111318   0.231   2.797  15.269 -0.4419  0.0661  0.2031
  766MPD2    H711319   0.321   2.751  15.262  0.2131  1.0857  1.9512
  767MPD2     C11320   4.433   2.819  14.761  0.4847  0.2061 -0.4150
  767MPD2    C111321   4.566   2.812  14.721 -0.2139  0.0101  0.1613
  767MPD2    C211322   4.593   2.737  14.609  0.1010  0.7276  0.1433
  767MPD2    C311323   4.493   2.696  14.530 -0.3380  0.1225 -0.0348
  767MPD2    C411324   4.361   2.716  14.561  0.6056  0.6344  0.0177
  767MPD2    C511325   4.331   2.777  14.682 -0.4396 -0.4154 -0.5204
  767MPD2     H11326   4.696   2.718  14.584  0.1736  0.4616  0.6467
  767MPD2    H111327   4.270   2.685  14.510 -0.1576  4.0435 -0.6737
  767MPD2    H211328   4.405   2.856  14.859 -0.5859 -3.3585  0.6258
  767MPD2    H311329   4.232   2.810  14.712 -0.0737 -0.5981  0.9134
  767MPD2     N11330   4.539   2.649  14.404 -0.2610  0.4159 -0.2911
  767MPD2    H511331   4.638   2.632  14.389 -0.4902 -0.7391 -0.5279
  767MPD2    N111332   4.666   2.883  14.791 -0.9585 -0.0690  0.1209
  767MPD2    H711333   4.631   2.940  14.868 -0.2155 -3.4351  2.9400
  768MPD2     C11334   1.040   1.188  11.389 -0.6027  0.2186 -0.5057
  768MPD2    C111335   1.097   1.121  11.282  0.0075 -0.4708  0.1295
  768MPD2    C211336   1.203   1.039  11.304 -0.1031 -0.0261 -0.2463
  768MPD2    C311337   1.256   1.016  11.429 -0.4000 -0.6071  0.4459
  768MPD2    C411338   1.200   1.081  11.534 -0.0761 -0.3692  0.6173
  768MPD2    C511339   1.089   1.166  11.518 -0.8313 -0.0514  0.3618
  768MPD2     H11340   1.236   0.987  11.214 -0.5969 -1.8676  0.6366
  768MPD2    H111341   1.243   1.069  11.633  1.1792  1.3766  0.2801
  768MPD2    H211342   0.961   1.262  11.386 -1.4508 -0.6537  0.5856
  768MPD2    H311343   1.043   1.216  11.602 -3.1209 -2.2285  0.4221
  768MPD2     N11344   1.375   0.943  11.451  0.0414  0.6159 -0.4294
  768MPD2    H511345   1.410   0.931  11.546 -1.3311  0.6256  0.0859
  768MPD2    N111346   1.066   1.144  11.143 -0.1230  0.5245  0.2776
  768MPD2    H711347   1.125   1.099  11.074  0.7578  1.7848  0.2136
  769MPD2     C11348   1.560   4.247  14.909  0.5106 -0.0751  0.2292
  769MPD2    C111349   1.456   4.274  14.997 -0.6087 -0.3549  0.0139
  769MPD2    C211350   1.479   4.318  15.126  0.2320 -0.0438  0.0280
  769MPD2    C311351   1.609   4.336  15.174  0.0623  0.6683 -0.6605
  769MPD2    C411352   1.703   4.294  15.083 -0.4547 -0.3820  0.4927
  769MPD2    C511353   1.685   4.252  14.959  0.7958  0.0770 -0.1749
  769MPD2     H11354   1.398   4.340  15.196  1.1707  1.0254  0.7803
  769MPD2    H111355   1.805   4.291  15.121 -0.8355 -2.2360  1.3315
  769MPD2    H211356   1.536   4.208  14.811  1.2646  2.7400 -1.0874
  769MPD2    H311357   1.761   4.223  14.886 -0.9614  0.2091 -2.0632
  769MPD2     N11358   1.628   4.362  15.316  0.2370 -0.4570  0.1611
  769MPD2    H511359   1.542   4.383  15.364  1.1684 -1.0098  2.0672
  769MPD2    N111360   1.321   4.255  14.948 -0.3100  0.5034  0.4807
  769MPD2    H711361   1.318   4.216  14.854 -0.9461 -0.9929  1.1315
  770MPD2     C11362   0.683   3.760  15.326 -0.3759 -0.9605  0.1504
  770MPD2    C111363   0.820   3.776  15.309  0.4348  0.1379 -0.5696
  770MPD2    C211364   0.864   3.881  15.223  0.7277  0.3467 -0.1385
  770MPD2    C311365   0.783   3.970  15.171 -0.2452  0.1773  0.5386
  770MPD2    C411366   0.650   3.966  15.212 -0.0261  0.1807  0.4135
  770MPD2    C511367   0.601   3.857  15.274  0.3365 -0.3783  0.1895
  770MPD2     H11368   0.964   3.898  15.186  0.1768  1.0733 -1.2680
  770MPD2    H111369   0.575   4.041  15.193 -0.7988 -0.7420 -0.2267
  770MPD2    H211370   0.639   3.686  15.391  1.4399 -1.6298  0.6039
  770MPD2    H311371   0.498   3.861  15.306  0.2822 -2.0244  0.1925
  770MPD2     N11372   0.839   4.068  15.083  0.0110 -0.0243  0.6705
  770MPD2    H511373   0.938   4.067  15.061  0.1375 -0.5491  1.2741
  770MPD2    N111374   0.914   3.680  15.362 -0.4918  0.0710 -0.4338
  770MPD2    H711375   0.885   3.588  15.393 -1.3721  0.5303  0.0865
  771MPD2     C11376   2.825   2.009  13.689  0.1828  0.5158 -0.2886
  771MPD2    C111377   2.762   2.114  13.622  0.7061  0.3416  0.6779
  771MPD2    C211378   2.664   2.076  13.529  0.0366 -0.2063 -0.0993
  771MPD2    C311379   2.613   1.947  13.513  0.8049 -0.5549  0.4710
  771MPD2    C411380   2.677   1.850  13.582 -0.1845 -0.5824  0.1535
  771MPD2    C511381   2.781   1.885  13.669 -0.4776  0.5736 -0.0553
  771MPD2     H11382   2.621   2.154  13.468 -1.4164 -0.9572 -0.0386
  771MPD2    H111383   2.637   1.750  13.570  1.2082 -1.0736 -0.4015
  771MPD2    H211384   2.911   2.018  13.755 -0.2712  1.2182  0.2101
  771MPD2    H311385   2.844   1.808  13.712  0.1437  1.2593  0.2801
  771MPD2     N11386   2.514   1.920  13.421  0.1825  0.4972 -0.2713
  771MPD2    H511387   2.452   1.993  13.387  0.5397  0.3112 -1.3301
  771MPD2    N111388   2.813   2.249  13.622 -0.4403 -0.2635  0.5280
  771MPD2    H711389   2.780   2.320  13.557  1.8526  0.1854 -0.1739
  772MPD2     C11390   2.587   2.947  13.628  0.1681 -0.1916  0.3019
  772MPD2    C111391   2.581   2.814  13.659 -0.3803  0.2832  0.4837
  772MPD2    C211392   2.456   2.768  13.705  0.0656  0.3090 -0.0180
  772MPD2    C311393   2.339   2.843  13.697 -0.1443  0.2062 -0.8329
  772MPD2    C411394   2.348   2.972  13.661  0.2901 -0.3551  0.2588
  772MPD2    C511395   2.477   3.031  13.632  0.3906  0.3218 -0.1352
  772MPD2     H11396   2.452   2.669  13.748  0.0989 -0.6410 -2.1834
  772MPD2    H111397   2.263   3.036  13.640  0.2081 -0.2920  0.7754
  772MPD2    H211398   2.675   3.000  13.594  1.8369 -0.8136  3.6954
  772MPD2    H311399   2.473   3.136  13.605 -0.6714  0.7923  1.8141
  772MPD2     N11400   2.213   2.792  13.735  0.4765 -0.2964 -0.3474
  772MPD2    H511401   2.138   2.861  13.736  2.7541  2.1964 -0.7633
  772MPD2    N111402   2.682   2.719  13.643 -0.2259  0.6519  0.2193
  772MPD2    H711403   2.652   2.625  13.665 -1.7353  1.2086  0.5155
  773MPD2     C11404   1.594   3.692   0.298  0.3511  0.2956  0.0141
  773MPD2    C111405   1.620   3.609   0.194  0.0744  0.3739  0.2601
  773MPD2    C211406   1.693   3.491   0.215  0.2180 -0.5536 -0.1073
  773MPD2    C311407   1.750   3.460   0.343  0.1467  0.2616 -0.4743
  773MPD2    C411408   1.731   3.550   0.448  0.2149 -0.6508 -0.1169
  773MPD2    C511409   1.641   3.654   0.422 -0.1567 -0.4658 -0.2241
  773MPD2     H11410   1.713   3.430   0.127 -1.1418 -2.0813  0.6471
  773MPD2    H111411   1.777   3.540   0.546  0.0562  0.3650  0.0606
  773MPD2    H211412   1.523   3.774   0.296 -1.4131 -1.3334 -2.5368
  773MPD2    H311413   1.633   3.722   0.506 -3.2158 -1.3794  0.2268
  773MPD2     N11414   1.817   3.338   0.363  0.3859 -0.2762  0.1024
  773MPD2    H511415   1.842   3.302   0.271  1.7356  2.3948 -0.5827
  773MPD2    N111416   1.561   3.624   0.062  0.1727  0.3881  0.4608
  773MPD2    H711417   1.586   3.550  17.691 -0.9438  0.3531  0.0653
  774MPD2     C11418   1.304   2.112  13.023 -0.2957 -0.0257  0.2978
  774MPD2    C111419   1.209   2.171  13.101  0.0689 -0.1854 -1.0192
  774MPD2    C211420   1.205   2.301  13.119 -0.4318  0.0399 -0.6697
  774MPD2    C311421   1.289   2.381  13.049  0.3097 -0.0543  0.3590
  774MPD2    C411422   1.377   2.325  12.961  0.0223 -0.4999  0.1618
  774MPD2    C511423   1.389   2.190  12.951 -0.4614  0.1717  0.2742
  774MPD2     H11424   1.141   2.339  13.198 -1.1429 -0.3450 -1.0607
  774MPD2    H111425   1.439   2.386  12.897 -1.4509 -0.7343 -1.4791
  774MPD2    H211426   1.308   2.004  13.013  2.5583  0.1772 -0.6125
  774MPD2    H311427   1.460   2.149  12.879 -0.4385 -1.4373  1.2231
  774MPD2     N11428   1.284   2.525  13.074  0.2084  0.1095  0.2474
  774MPD2    H511429   1.197   2.565  13.108  0.0866 -1.6034  1.9980
  774MPD2    N111430   1.129   2.088  13.181  0.0501  0.0806 -0.4230
  774MPD2    H711431   1.160   1.992  13.189  1.1923  0.8021  3.6402
  775MPD2     C11432   2.219   4.192  16.012 -0.0544 -0.1550 -0.9082
  775MPD2    C111433   2.187   4.296  16.098  0.6481  0.2573  0.0341
  775MPD2    C211434   2.268   4.406  16.090  0.3827  0.3667  0.2160
  775MPD2    C311435   2.365   4.417  15.997  0.0379  0.3587 -0.3896
  775MPD2    C411436   2.386   4.316  15.906 -0.0547 -0.3012  0.4415
  775MPD2    C511437   2.319   4.200  15.925 -0.0480  0.6371  0.6627
  775MPD2     H11438   2.236   4.497  16.140  0.8771  1.8799 -2.2411
  775MPD2    H111439   2.461   4.322  15.828 -2.1156  1.5310 -1.4280
  775MPD2    H211440   2.165   4.100  16.029  1.5426 -1.0988 -0.8529
  775MPD2    H311441   2.348   4.115  15.864  0.3852  1.5619 -0.4058
  775MPD2     N11442   2.444   4.534  15.982  0.3085  0.1555 -0.1230
  775MPD2    H511443   2.515   4.527  15.909  1.0743 -1.4559  0.7789
  775MPD2    N111444   2.081   4.282  16.188 -0.4237  0.2140 -0.1685
  775MPD2    H711445   2.044   4.187  16.194 -1.2888  0.5594  0.0230
  776MPD2     C11446   1.949   3.541  12.010  0.2433  0.0084 -0.0126
  776MPD2    C111447   1.820   3.495  11.996 -0.7930  0.0836 -0.5028
  776MPD2    C211448   1.742   3.564  11.903  0.3886  0.4621 -0.0415
  776MPD2    C311449   1.787   3.688  11.851  0.2855 -0.5691  0.2902
  776MPD2    C411450   1.909   3.739  11.891  0.0266 -0.2843  0.3749
  776MPD2    C511451   1.990   3.666  11.970  0.0375  0.5153 -0.1962
  776MPD2     H11452   1.656   3.520  11.854  0.1457  0.1232  0.6898
  776MPD2    H111453   1.936   3.841  11.865 -2.2007 -0.3876 -2.3091
  776MPD2    H211454   2.025   3.479  12.057 -1.9704 -1.1557  2.0119
  776MPD2    H311455   2.087   3.702  12.000  0.7503 -1.4982 -0.0819
  776MPD2     N11456   1.710   3.770  11.767  0.7381 -0.4094 -0.2817
  776MPD2    H511457   1.752   3.855  11.734 -2.0691  1.0072 -0.2503
  776MPD2    N111458   1.777   3.372  12.043 -0.0710 -0.6991 -0.4933
  776MPD2    H711459   1.839   3.311  12.095  2.4019 -0.6551 -3.3668
  777MPD2     C11460   1.854   1.973   0.806  0.1085 -0.5608  0.4308
  777MPD2    C111461   1.723   1.967   0.855 -0.1939  0.3432  0.4962
  777MPD2    C211462   1.629   1.882   0.797  0.4730  0.2203  0.4419
  777MPD2    C311463   1.662   1.808   0.682  0.0667 -0.0867 -0.3361
  777MPD2    C411464   1.793   1.823   0.637 -0.7678  0.2678  0.2378
  777MPD2    C511465   1.892   1.895   0.700 -0.1431  0.0791 -0.1689
  777MPD2     H11466   1.529   1.880   0.838  0.5043 -1.4084  0.4254
  777MPD2    H111467   1.826   1.765   0.551  0.9031 -0.6472  1.5134
  777MPD2    H211468   1.934   2.030   0.852  0.1516  0.0518 -0.4253
  777MPD2    H311469   1.996   1.895   0.670 -1.2514  0.2584 -4.0148
  777MPD2     N11470   1.575   1.707   0.635  0.0992 -0.1914  0.4547
  777MPD2    H511471   1.490   1.694   0.689 -1.0678  1.3382 -1.0258
  777MPD2    N111472   1.689   2.060   0.955 -0.4364 -1.0268 -0.3311
  777MPD2    H711473   1.765   2.111   0.997 -0.9275  1.3814 -2.3773
  778MPD2     C11474   2.785   2.604  14.691 -0.2012 -0.2487 -1.0969
  778MPD2    C111475   2.820   2.474  14.726 -0.3787 -0.0417 -0.3664
  778MPD2    C211476   2.945   2.428  14.677  0.0068 -1.1615  0.2768
  778MPD2    C311477   3.017   2.496  14.582  0.8048 -0.4248  0.3082
  778MPD2    C411478   2.974   2.621  14.546 -0.2444 -0.3000 -1.0445
  778MPD2    C511479   2.871   2.676  14.614  1.0862  0.2222 -0.2135
  778MPD2     H11480   2.979   2.327  14.700 -0.3387 -1.6291 -1.2494
  778MPD2    H111481   3.040   2.678  14.482 -1.2755  1.4106 -0.6031
  778MPD2    H211482   2.689   2.654  14.701 -0.8645 -1.8533  0.4622
  778MPD2    H311483   2.850   2.780  14.591  0.0406 -0.1938 -1.1639
  778MPD2     N11484   3.129   2.425  14.537 -0.0426  0.1901  0.3767
  778MPD2    H511485   3.143   2.328  14.565 -1.8828 -0.3379 -0.5414
  778MPD2    N111486   2.728   2.406  14.805  0.0309 -0.2481  0.2200
  778MPD2    H711487   2.634   2.445  14.807 -0.1759 -0.6880 -0.8345
  779MPD2     C11488   2.087   0.892  14.102  0.2020 -0.0137 -0.4072
  779MPD2    C111489   2.213   0.900  14.146 -0.4058  0.0488  0.6615
  779MPD2    C211490   2.294   0.997  14.090 -0.8320 -0.6323  0.0859
  779MPD2    C311491   2.256   1.078  13.989  0.7993 -0.2863 -0.3246
  779MPD2    C411492   2.125   1.067  13.952  0.0028  0.0763  0.2365
  779MPD2    C511493   2.044   0.972  14.006 -0.0859  0.8096  1.0800
  779MPD2     H11494   2.392   1.009  14.134 -0.7573 -0.6912 -0.0662
  779MPD2    H111495   2.079   1.134  13.880 -1.7577 -0.1476  1.1492
  779MPD2    H211496   2.011   0.824  14.140  0.8162 -1.5144 -1.8855
  779MPD2    H311497   1.945   0.963  13.963 -0.5528 -0.7228  2.4927
  779MPD2     N11498   2.338   1.187  13.946 -0.3758 -0.8540 -0.1441
  779MPD2    H511499   2.419   1.207  14.004  0.4540 -1.7013 -1.0333
  779MPD2    N111500   2.266   0.815  14.248  0.1942 -0.4179  0.0295
  779MPD2    H711501   2.366   0.822  14.269  0.2027  0.6540 -0.4043
  780MPD2     C11502   1.091   0.891   0.959 -0.3025 -0.7239 -0.5940
  780MPD2    C111503   1.122   0.818   0.847  0.2939 -0.0566  1.2584
  780MPD2    C211504   1.232   0.863   0.776 -0.3629  0.3034 -0.1801
  780MPD2    C311505   1.302   0.972   0.812  0.2241  0.5821 -0.0639
  780MPD2    C411506   1.270   1.049   0.926  0.4476  0.1142  0.8414
  780MPD2    C511507   1.167   0.997   0.998 -0.3902 -0.3937 -0.6205
  780MPD2     H11508   1.268   0.805   0.691  1.7902  0.4900  0.6149
  780MPD2    H111509   1.331   1.131   0.963 -0.4658  1.4584 -0.6800
  780MPD2    H211510   1.008   0.870   1.026  0.1635 -0.6979 -0.0019
  780MPD2    H311511   1.153   1.056   1.088 -0.4080 -0.5280 -0.5356
  780MPD2     N11512   1.418   1.010   0.743 -0.9066 -0.2850  0.0816
  780MPD2    H511513   1.420   0.979   0.647 -0.1782 -1.2299  0.4072
  780MPD2    N111514   1.060   0.690   0.838  0.1922 -0.4181 -0.0053
  780MPD2    H711515   0.996   0.659   0.911  1.0928 -0.2239  0.8639
  781MPD2     C11516   4.051   2.126  11.783 -0.7257  0.0879  0.4754
  781MPD2    C111517   4.087   2.226  11.868 -0.9682 -0.0282 -0.0228
  781MPD2    C211518   4.173   2.323  11.817 -1.0953  0.6559 -0.4757
  781MPD2    C311519   4.216   2.325  11.684  0.4324 -0.8479  0.9373
  781MPD2    C411520   4.180   2.221  11.610  0.1926 -0.1220  0.1336
  781MPD2    C511521   4.097   2.127  11.654 -0.3101  0.0054 -0.5390
  781MPD2     H11522   4.198   2.404  11.884 -2.1144 -0.6178  1.4606
  781MPD2    H111523   4.219   2.215  11.509 -0.1190  2.0795 -0.1084
  781MPD2    H211524   3.997   2.035  11.808 -0.0327  0.0748  1.9093
  781MPD2    H311525   4.061   2.050  11.586  1.1220  0.9149 -2.3041
  781MPD2     N11526   4.290   2.426  11.629 -0.6639 -0.2505  0.0865
  781MPD2    H511527   4.307   2.412  11.529  1.0221  0.9928  0.1939
  781MPD2    N111528   4.045   2.235  12.004  0.1035 -0.0286 -0.5085
  781MPD2    H711529   4.069   2.315  12.061  1.8839 -1.8622  1.3194
  782MPD2     C11530   2.157   4.306  10.709 -0.4900  0.3863 -0.7612
  782MPD2    C111531   2.199   4.176  10.689  0.5390  0.2108 -0.0158
  782MPD2    C211532   2.282   4.121  10.788 -0.7549 -0.5877 -0.5158
  782MPD2    C311533   2.338   4.194  10.885 -0.0718 -0.4508 -0.8735
  782MPD2    C411534   2.309   4.332  10.891  0.3256 -0.5730  0.2895
  782MPD2    C511535   2.221   4.386  10.799  0.0777 -0.5076  0.1304
  782MPD2     H11536   2.313   4.018  10.771 -0.4256 -0.1856 -2.2816
  782MPD2    H111537   2.338   4.411  10.959 -2.8624  1.7633 -1.0072
  782MPD2    H211538   2.080   4.354  10.650 -0.8993 -0.9538 -1.2985
  782MPD2    H311539   2.193   4.490  10.807 -0.4840 -0.7591  1.5354
  782MPD2     N11540   2.420   4.135  10.974 -0.0360 -0.0727  0.7113
  782MPD2    H511541   2.429   4.035  10.958 -0.3883 -0.4988  3.1908
  782MPD2    N111542   2.150   4.083  10.590 -0.4739  0.3236  0.2162
  782MPD2    H711543   2.180   3.986  10.592 -1.8257 -0.1355 -2.6213
  783MPD2     C11544   1.309   3.635  10.653  0.4351  0.6986 -0.0906
  783MPD2    C111545   1.420   3.564  10.673 -0.0524  0.7803  0.1431
  783MPD2    C211546   1.537   3.600  10.603  0.1357  0.1064 -0.8781
  783MPD2    C311547   1.541   3.709  10.515 -0.6992  0.0745  0.7054
  783MPD2    C411548   1.430   3.780  10.497 -0.0999 -0.0702  0.1740
  783MPD2    C511549   1.316   3.744  10.566  0.5139 -0.2838 -0.2858
  783MPD2     H11550   1.631   3.550  10.624  0.0424  0.2890 -0.0480
  783MPD2    H111551   1.425   3.861  10.425 -0.7927  2.3496  2.9780
  783MPD2    H211552   1.215   3.633  10.708  0.7699 -0.8166  0.4105
  783MPD2    H311553   1.224   3.799  10.551  0.3701 -0.9334 -1.7904
  783MPD2     N11554   1.664   3.735  10.450  0.5149 -0.0679 -0.7371
  783MPD2    H511555   1.734   3.670  10.484  0.0031 -0.1160  0.2181
  783MPD2    N111556   1.409   3.462  10.772 -0.4447 -0.0919  0.1393
  783MPD2    H711557   1.314   3.437  10.797 -0.9194 -0.4704 -2.0138
  784MPD2     C11558   4.368   3.880   1.102  0.1518  0.1662 -0.6778
  784MPD2    C111559   4.280   3.977   1.148 -0.2876  1.2243 -0.6776
  784MPD2    C211560   4.171   4.016   1.072 -0.6951 -0.5301 -0.3157
  784MPD2    C311561   4.168   3.993   0.943  0.0286  0.5989  0.3265
  784MPD2    C411562   4.267   3.914   0.885  0.0922 -0.2515 -0.5779
  784MPD2    C511563   4.357   3.857   0.970  0.2381  0.3208 -0.3000
  784MPD2     H11564   4.098   4.076   1.124  0.3602 -0.1180  0.7045
  784MPD2    H111565   4.284   3.893   0.780 -1.3741  0.8827 -1.0419
  784MPD2    H211566   4.442   3.818   1.151 -0.2229 -0.2503 -0.6383
  784MPD2    H311567   4.425   3.782   0.931  1.0834  1.4715 -1.0300
  784MPD2     N11568   4.070   4.052   0.866  0.4735 -0.2180  0.0738
  784MPD2    H511569   4.000   4.104   0.917 -1.1246 -1.0225 -1.3123
  784MPD2    N111570   4.265   4.008   1.287 -0.6922 -0.7766 -0.7393
  784MPD2    H711571   4.183   4.064   1.309  0.9246  0.5637  1.9328
  785MPD2     C11572   4.280   2.021  10.533 -0.6085  0.0295 -0.3340
  785MPD2    C111573   4.238   2.154  10.543  0.0807 -0.1100  0.7450
  785MPD2    C211574   4.121   2.195  10.481  0.5535 -0.1411  0.0207
  785MPD2    C311575   4.048   2.108  10.404  0.2853 -0.1879  0.9957
  785MPD2    C411576   4.081   1.976  10.403  0.7218  0.4632 -0.6900
  785MPD2    C511577   4.190   1.935  10.471  0.1793  0.7760  0.1867
  785MPD2     H11578   4.106   2.302  10.494  0.9243 -0.1171  0.2362
  785MPD2    H111579   4.035   1.894  10.349  0.0640  1.2255 -1.2912
  785MPD2    H211580   4.374   1.983  10.570  0.0394  1.6929 -0.2611
  785MPD2    H311581   4.217   1.831  10.461 -1.8351  0.0359  2.5489
  785MPD2     N11582   3.928   2.161  10.346 -0.1214  0.1925  0.0966
  785MPD2    H511583   3.898   2.252  10.381 -1.0099 -0.6162  1.4132
  785MPD2    N111584   4.318   2.253  10.606  0.3182  0.1148 -0.1448
  785MPD2    H711585   4.278   2.346  10.601 -0.7090 -0.4653 -2.3599
  786MPD2     C11586   2.688   0.269  14.825  0.1464 -0.6805 -0.2329
  786MPD2    C111587   2.779   0.165  14.850 -0.0357 -0.7503  0.3207
  786MPD2    C211588   2.843   0.165  14.969 -0.0365  0.0830 -0.1468
  786MPD2    C311589   2.821   0.266  15.064 -0.8719  0.2709  0.4466
  786MPD2    C411590   2.734   0.370  15.042  0.8575 -0.2390 -0.6808
  786MPD2    C511591   2.668   0.367  14.920  0.7691 -0.1340  0.8683
  786MPD2     H11592   2.904   0.080  14.998 -0.2306 -0.2217 -0.6255
  786MPD2    H111593   2.731   0.454  15.110  0.3175 -2.2264  1.7844
  786MPD2    H211594   2.631   0.265  14.733 -0.4095  1.5582  0.0076
  786MPD2    H311595   2.588   0.439  14.903  1.6890  0.8029  0.4913
  786MPD2     N11596   2.894   0.275  15.175 -0.6838  0.2236  0.1626
  786MPD2    H511597   2.875   0.354  15.236  0.5244  0.8086 -0.1948
  786MPD2    N111598   2.794   0.047  14.773 -0.6030 -0.3982 -0.4964
  786MPD2    H711599   2.862   4.701  14.804 -0.0166  0.4365  0.0762
  787MPD2     C11600   3.041   4.261  15.024 -0.4732  0.1675  0.9374
  787MPD2    C111601   3.016   4.222  14.890 -0.4408 -0.1075 -0.1669
  787MPD2    C211602   3.070   4.097  14.847  0.2863  0.3484  0.9590
  787MPD2    C311603   3.142   4.019  14.937 -0.3900  0.2414  0.2125
  787MPD2    C411604   3.144   4.051  15.068  0.2165  0.7498  0.7160
  787MPD2    C511605   3.103   4.174  15.107  0.0345  0.2439  0.8242
  787MPD2     H11606   3.058   4.053  14.749  0.2315 -1.0972  1.6189
  787MPD2    H111607   3.208   3.999  15.139 -1.3674 -2.1674  0.0328
  787MPD2    H211608   3.029   4.367  15.042  0.5318  0.6284 -1.1684
  787MPD2    H311609   3.116   4.202  15.210 -1.7789 -0.2771  1.2021
  787MPD2     N11610   3.211   3.909  14.888  0.7476  1.1310  0.0706
  787MPD2    H511611   3.212   3.907  14.786 -1.4352  1.7056  0.0414
  787MPD2    N111612   2.959   4.316  14.802 -0.1018 -0.1664  0.1799
  787MPD2    H711613   2.937   4.407  14.842 -0.1968 -0.9718  1.9763
  788MPD2     C11614   0.537   2.326   0.960  0.4316 -0.0977  0.0481
  788MPD2    C111615   0.419   2.322   0.894  0.3209  0.5384  0.2723
  788MPD2    C211616   0.390   2.428   0.810  0.9443 -0.1254 -0.3210
  788MPD2    C311617   0.481   2.530   0.777 -0.3254 -0.3551 -0.9692
  788MPD2    C411618   0.596   2.531   0.852 -0.2110  0.2777 -0.2423
  788MPD2    C511619   0.624   2.429   0.933 -0.5746  0.2371  0.5370
  788MPD2     H11620   0.297   2.416   0.755 -0.2981 -0.3986  1.8456
  788MPD2    H111621   0.674   2.604   0.834  0.8191 -1.0576 -1.1971
  788MPD2    H211622   0.557   2.247   1.031 -0.9590  0.3205  0.9124
  788MPD2    H311623   0.725   2.431   0.973 -0.1981  0.1646 -0.4107
  788MPD2     N11624   0.459   2.635   0.681 -0.5520 -0.4343 -0.3695
  788MPD2    H511625   0.540   2.694   0.661 -0.8911  0.2195  0.1938
  788MPD2    N111626   0.325   2.215   0.898  0.1496 -0.2433  0.6673
  788MPD2    H711627   0.240   2.224   0.842  0.3850  1.6374  0.5941
  789MPD2     C11628   0.374   3.119  16.217 -0.9805 -0.1552  0.1271
  789MPD2    C111629   0.317   3.075  16.334  0.1477 -0.2681 -0.2828
  789MPD2    C211630   0.221   3.149  16.399  0.2939  0.3205 -0.3600
  789MPD2    C311631   0.184   3.267  16.346 -0.3711  0.2011  0.2872
  789MPD2    C411632   0.254   3.322  16.244 -0.5034  0.0330 -0.3128
  789MPD2    C511633   0.346   3.244  16.173  0.8098  0.3712  0.7363
  789MPD2     H11634   0.182   3.113  16.494  1.3672 -3.0108 -1.2035
  789MPD2    H111635   0.219   3.420  16.212 -0.8035  1.3067  3.8868
  789MPD2    H211636   0.444   3.062  16.156 -0.9753  0.1184 -0.1237
  789MPD2    H311637   0.401   3.287  16.090 -0.0765 -2.9924 -1.6068
  789MPD2     N11638   0.069   3.334  16.399 -0.2636  0.5892 -0.0443
  789MPD2    H511639   0.038   3.422  16.359 -2.6370 -0.2006  0.0717
  789MPD2    N111640   0.339   2.945  16.385  0.2836  0.3098  0.4528
  789MPD2    H711641   0.309   2.937  16.482  2.3099 -1.2209  0.9706
  790MPD2     C11642   1.523   4.627  13.663 -0.0581 -0.2546  0.0769
  790MPD2    C111643   1.561   4.497  13.650  0.4051  0.0131  0.0871
  790MPD2    C211644   1.555   4.439  13.521  0.6413  0.2990  0.1131
  790MPD2    C311645   1.506   4.513  13.415 -0.2171  0.2666 -0.1568
  790MPD2    C411646   1.461   4.641  13.440 -0.3061 -0.5886  0.2393
  790MPD2    C511647   1.475   4.699  13.558 -0.1310  0.8829 -0.0056
  790MPD2     H11648   1.586   4.338  13.496  0.0948  0.7976 -2.5124
  790MPD2    H111649   1.414   4.706  13.367 -0.1149 -4.2728 -3.1892
  790MPD2    H211650   1.519   4.662  13.765 -0.0172  0.1967 -0.0760
  790MPD2    H311651   1.428   0.071  13.583  0.6267  1.0215  0.8967
  790MPD2     N11652   1.482   4.449  13.295  0.2814  0.9772  0.7541
  790MPD2    H511653   1.512   4.354  13.277  1.4331  1.4591  0.1465
  790MPD2    N111654   1.594   4.429  13.769  0.7326  0.1079  0.5630
  790MPD2    H711655   1.585   4.480  13.857 -0.9849  1.0409 -0.1692
  791MPD2     C11656   0.822   4.214  13.079  0.1890  0.8766 -0.1248
  791MPD2    C111657   0.901   4.191  12.973  0.2641  0.1753 -0.1940
  791MPD2    C211658   0.861   4.101  12.877 -0.5510 -0.5169 -0.1678
  791MPD2    C311659   0.739   4.042  12.880  0.1508  0.2648 -0.2823
  791MPD2    C411660   0.647   4.076  12.982 -0.5944  0.0266  0.0458
  791MPD2    C511661   0.691   4.171  13.074 -0.0141 -0.5718 -0.4908
  791MPD2     H11662   0.928   4.085  12.793 -0.8953 -0.0614 -0.5247
  791MPD2    H111663   0.557   4.018  12.996 -0.8152  0.7368  1.5632
  791MPD2    H211664   0.848   4.272  13.167 -1.1654  1.4839 -0.1199
  791MPD2    H311665   0.631   4.201  13.159 -0.3634 -0.2440 -0.8565
  791MPD2     N11666   0.710   3.945  12.779  0.7433  0.8946 -0.0462
  791MPD2    H511667   0.786   3.927  12.715 -0.2539 -0.9396 -0.7098
  791MPD2    N111668   1.032   4.249  12.988  0.5820 -0.4504  0.5150
  791MPD2    H711669   1.050   4.306  13.070  3.3590 -0.9512  0.2496
  792MPD2     C11670   2.205   4.304  11.304 -0.2799 -0.4102 -0.6453
  792MPD2    C111671   2.123   4.371  11.220 -0.0437  0.5756 -0.6195
  792MPD2    C211672   2.002   4.309  11.198  0.6922  0.3266 -0.3101
  792MPD2    C311673   1.975   4.181  11.244  0.3945  0.1555 -0.2773
  792MPD2    C411674   2.064   4.118  11.325  0.1486 -0.3127 -0.7597
  792MPD2    C511675   2.181   4.181  11.357 -0.7743 -0.7584  0.8177
  792MPD2     H11676   1.929   4.367  11.142 -1.2002 -0.7949  1.0126
  792MPD2    H111677   2.050   4.017  11.364  2.9764 -0.1386  0.7260
  792MPD2    H211678   2.303   4.343  11.327 -0.1076 -1.5002  0.4869
  792MPD2    H311679   2.257   4.128  11.413  0.7559 -0.7665 -1.2815
  792MPD2     N11680   1.854   4.115  11.213  0.7704  0.1389  0.0035
  792MPD2    H511681   1.850   4.027  11.263  0.0694 -1.3401 -2.6350
  792MPD2    N111682   2.165   4.503  11.172  0.4321  0.2075 -0.5320
  792MPD2    H711683   2.253   4.547  11.198  1.2069 -1.4381 -0.3246
  793MPD2     C11684   1.183   4.155  10.410 -0.0383 -0.6287 -0.2281
  793MPD2    C111685   1.318   4.133  10.405 -0.2906 -0.1075  0.2997
  793MPD2    C211686   1.385   4.102  10.526 -0.5020  0.1141 -0.2045
  793MPD2    C311687   1.320   4.107  10.645  0.0360 -0.6103  0.0157
  793MPD2    C411688   1.184   4.135  10.647  0.2184  0.6808  0.7240
  793MPD2    C511689   1.119   4.158  10.532 -0.4017 -0.0148  0.1994
  793MPD2     H11690   1.487   4.066  10.518 -1.0134 -1.7031  1.6898
  793MPD2    H111691   1.125   4.136  10.738  0.3991  4.0168  0.8062
  793MPD2    H211692   1.126   4.168  10.319 -0.8475  0.7092  0.4645
  793MPD2    H311693   1.022   4.206  10.530 -0.7819 -0.6871  2.9188
  793MPD2     N11694   1.396   4.088  10.766 -0.0106 -0.1701  0.0998
  793MPD2    H511695   1.495   4.072  10.749 -0.0547  1.4309 -1.6743
  793MPD2    N111696   1.394   4.127  10.284 -0.1807  0.0209  0.4952
  793MPD2    H711697   1.486   4.082  10.290 -0.6860 -1.3534 -2.0108
  794MPD2     C11698   1.259   4.014  17.039 -0.3742 -0.2904  0.2192
  794MPD2    C111699   1.175   3.923  17.095  0.5173  0.3957  0.1564
  794MPD2    C211700   1.051   3.902  17.033 -0.2271 -0.2506  0.3977
  794MPD2    C311701   1.009   3.977  16.920 -0.6963  0.1241  0.1645
  794MPD2    C411702   1.094   4.071  16.873  0.0583 -0.3641  0.1236
  794MPD2    C511703   1.215   4.095  16.934 -0.7412 -0.4201 -0.5448
  794MPD2     H11704   0.979   3.833  17.076  1.5033 -2.1714  0.1761
  794MPD2    H111705   1.064   4.137  16.792  0.1772  1.1336  1.2967
  794MPD2    H211706   1.361   4.026  17.074 -1.2373 -0.1732  2.7426
  794MPD2    H311707   1.278   4.171  16.889  0.8935 -1.4243  0.0609
  794MPD2     N11708   0.890   3.962  16.849  0.0954 -0.7386  0.2382
  794MPD2    H511709   0.861   4.028  16.778 -0.0626  1.5953  2.4482
  794MPD2    N111710   1.218   3.839  17.204 -0.2450  0.0416  0.3176
  794MPD2    H711711   1.159   3.759  17.224 -0.6910  0.8315  2.1871
  795MPD2     C11712   3.823   1.148  13.958  0.5135  0.6492 -0.1586
  795MPD2    C111713   3.771   1.067  13.862 -0.2401  0.6250 -0.1857
  795MPD2    C211714   3.830   0.943  13.842 -0.2027  0.2331 -0.0919
  795MPD2    C311715   3.946   0.910  13.904  0.1128  0.1489 -0.1454
  795MPD2    C411716   3.996   0.991  14.009 -0.1205  0.1067 -0.1346
  795MPD2    C511717   3.925   1.109  14.039 -0.3553  0.4874 -0.2209
  795MPD2     H11718   3.799   0.872  13.766 -2.1531  0.3620  0.5822
  795MPD2    H111719   4.088   0.968  14.062  0.4751 -0.4838 -1.4199
  795MPD2    H211720   3.774   1.243  13.977 -3.3406 -1.8272  2.2230
  795MPD2    H311721   3.962   1.188  14.102  1.4670 -0.0665 -0.6000
  795MPD2     N11722   4.005   0.795  13.865 -0.7112  0.8391 -0.2611
  795MPD2    H511723   3.976   0.754  13.777 -0.0404 -0.8795  0.3259
  795MPD2    N111724   3.663   1.115  13.780  0.3356  0.0842 -0.0296
  795MPD2    H711725   3.624   1.208  13.782  0.7320  0.2653 -0.9712
  796MPD2     C11726   2.989   2.850  15.629 -0.0298 -0.2736  0.1846
  796MPD2    C111727   3.125   2.877  15.634  0.8697 -0.0011 -0.0292
  796MPD2    C211728   3.175   3.012  15.628 -0.3270 -0.3854 -0.7186
  796MPD2    C311729   3.079   3.115  15.634  0.0346  0.3817  0.0039
  796MPD2    C411730   2.947   3.077  15.630 -0.1299  0.3663  0.2047
  796MPD2    C511731   2.907   2.948  15.624 -0.4582  0.7775  0.4645
  796MPD2     H11732   3.278   3.046  15.627 -0.7813  1.0465  0.5494
  796MPD2    H111733   2.868   3.151  15.638  0.8520  1.3624  0.6589
  796MPD2    H211734   2.957   2.746  15.625 -1.8527  0.2551  1.1680
  796MPD2    H311735   2.801   2.928  15.618  0.0641 -1.9697  0.5993
  796MPD2     N11736   3.125   3.252  15.639  0.4528 -0.0348  0.1733
  796MPD2    H511737   3.214   3.271  15.684  0.1246  0.0793  0.7801
  796MPD2    N111738   3.217   2.763  15.638 -0.2246 -0.1628 -0.9033
  796MPD2    H711739   3.167   2.676  15.654  1.7023 -0.9202  0.8922
  797MPD2     C11740   3.787   2.267  17.012  0.1842  0.0129  0.4979
  797MPD2    C111741   3.784   2.384  17.083 -0.8670 -0.0340 -0.1366
  797MPD2    C211742   3.713   2.492  17.033  0.2271 -0.1846 -0.9984
  797MPD2    C311743   3.660   2.497  16.905  0.5607 -0.1267  0.4356
  797MPD2    C411744   3.657   2.375  16.840 -0.1442  0.9053 -0.4426
  797MPD2    C511745   3.712   2.263  16.898 -0.1535 -0.0018  0.4370
  797MPD2     H11746   3.697   2.576  17.100  0.1640  0.6078 -2.0126
  797MPD2    H111747   3.607   2.364  16.744  1.4371 -1.0761 -1.0292
  797MPD2    H211748   3.840   2.182  17.054 -1.5761 -1.7760 -0.9004
  797MPD2    H311749   3.694   2.174  16.839  1.2992  1.9543 -2.9450
  797MPD2     N11750   3.616   2.615  16.846 -0.6153  0.0766  0.6568
  797MPD2    H511751   3.567   2.607  16.757  1.9229  0.7099 -0.7963
  797MPD2    N111752   3.846   2.403  17.204  0.4842 -0.6327 -0.6674
  797MPD2    H711753   3.830   2.498  17.235 -1.9936 -1.6077  1.0021
  798MPD2     C11754   3.949   3.160  17.188 -0.1101  0.4182  0.1025
  798MPD2    C111755   3.849   3.064  17.167 -0.0156 -0.1982  0.1170
  798MPD2    C211756   3.859   2.952  17.243  0.3530 -0.7608  0.0987
  798MPD2    C311757   3.963   2.936  17.337 -0.2778  0.3972 -0.2400
  798MPD2    C411758   4.059   3.041  17.357  0.9904  0.3619  0.3414
  798MPD2    C511759   4.050   3.154  17.282  0.1503 -0.1810  0.5653
  798MPD2     H11760   3.793   2.875  17.202 -1.3847  0.8267 -0.0584
  798MPD2    H111761   4.144   3.021  17.421  0.5319 -1.7599  0.2792
  798MPD2    H211762   3.947   3.253  17.132 -0.3392 -1.6246 -3.2574
  798MPD2    H311763   4.126   3.231  17.288 -1.6387  1.5636  1.0501
  798MPD2     N11764   3.973   2.805  17.399 -0.1491 -0.2219  0.4405
  798MPD2    H511765   3.886   2.753  17.394  0.0533 -0.3445 -1.7491
  798MPD2    N111766   3.749   3.065  17.067 -0.7290  0.8168 -0.6174
  798MPD2    H711767   3.689   2.983  17.068  0.0056  0.3239  1.6631
  799MPD2     C11768   3.114   3.429  14.751 -0.1997 -0.4809 -0.7167
  799MPD2    C111769   3.182   3.487  14.644 -0.4917  0.2468  0.0735
  799MPD2    C211770   3.152   3.610  14.602  0.1210 -0.1749  0.1573
  799MPD2    C311771   3.064   3.690  14.669 -0.4528  0.8680 -0.6904
  799MPD2    C411772   2.996   3.630  14.773 -0.2703 -1.0977 -0.1713
  799MPD2    C511773   3.017   3.506  14.811 -0.1749  0.0906  0.1237
  799MPD2     H11774   3.205   3.649  14.516 -0.5646  1.0770  0.2901
  799MPD2    H111775   2.923   3.690  14.826 -0.9989 -1.3932 -0.8511
  799MPD2    H211776   3.121   3.323  14.770 -2.4970 -0.7203 -1.1921
  799MPD2    H311777   2.959   3.461  14.892  0.5280 -0.4490  0.3254
  799MPD2     N11778   3.030   3.821  14.626 -0.9561 -0.2330 -0.6912
  799MPD2    H511779   2.944   3.861  14.662 -1.2708 -1.0122 -0.5765
  799MPD2    N111780   3.271   3.414  14.562 -0.2484 -0.1209  0.2307
  799MPD2    H711781   3.296   3.464  14.477 -1.1860  1.8198  1.0747
  800MPD2     C11782   3.387   4.693  14.003  0.7598  0.1144  0.0179
  800MPD2    C111783   3.510   0.010  13.977  0.1326  0.5258 -0.3697
  800MPD2    C211784   3.557   0.026  13.846 -0.4049  0.0487  1.2654
  800MPD2    C311785   3.462   0.009  13.744  0.3175  0.7144 -0.8178
  800MPD2    C411786   3.328   4.700  13.777 -0.4943 -0.3466 -0.4473
  800MPD2    C511787   3.292   4.685  13.910  0.0359  0.2650  0.0310
  800MPD2     H11788   3.661   0.053  13.830 -0.3825 -1.1948 -0.6866
  800MPD2    H111789   3.261   4.672  13.696 -0.0128  0.6252 -1.1698
  800MPD2    H211790   3.351   4.668  14.102 -0.4663  1.9250  0.0238
  800MPD2    H311791   3.198   4.632  13.920 -0.8021  1.8292  0.3163
  800MPD2     N11792   3.497   0.014  13.603  0.0568 -0.1665 -0.0465
  800MPD2    H511793   3.595   0.024  13.577  0.3622 -1.7926  0.4575
  800MPD2    N111794   3.588   0.033  14.087  0.1358  0.0044  0.3128
  800MPD2    H711795   3.535   0.044  14.173 -0.1827 -1.0582  0.2523
  801MPD2     C11796   3.645   0.749  14.215 -0.1912  1.0935 -0.2937
  801MPD2    C111797   3.581   0.644  14.286 -0.3750  0.0334 -0.1050
  801MPD2    C211798   3.440   0.666  14.320 -0.3127 -0.2980  0.2130
  801MPD2    C311799   3.377   0.785  14.287  0.1641 -0.0433  0.2092
  801MPD2    C411800   3.453   0.885  14.225 -0.1845  0.0417 -0.5177
  801MPD2    C511801   3.579   0.864  14.189 -0.3082  0.2848  0.0856
  801MPD2     H11802   3.382   0.597  14.380 -0.5119  1.0864  1.5828
  801MPD2    H111803   3.405   0.977  14.197  0.3287 -0.1943 -2.1330
  801MPD2    H211804   3.746   0.734  14.176  0.3196  0.7327  1.1746
  801MPD2    H311805   3.630   0.943  14.137  1.0484 -0.2737  0.5651
  801MPD2     N11806   3.249   0.819  14.334 -0.8428 -0.2638 -0.0198
  801MPD2    H511807   3.237   0.919  14.351 -1.0834 -0.2166 -0.4804
  801MPD2    N111808   3.633   0.519  14.323  0.4485  0.6869  0.9912
  801MPD2    H711809   3.570   0.447  14.358  0.2229  0.6955  0.6018
  802MPD2     C11810   2.227   1.219  16.980 -0.1202 -0.6412 -0.2416
  802MPD2    C111811   2.290   1.174  17.094 -0.0956  0.6012 -0.2931
  802MPD2    C211812   2.368   1.055  17.099  0.1935  0.2648  0.7035
  802MPD2    C311813   2.377   0.983  16.985  0.4145 -0.3390  0.3573
  802MPD2    C411814   2.320   1.032  16.866  0.4962  0.1814  0.2654
  802MPD2    C511815   2.247   1.147  16.862  0.2143 -0.1338  0.5372
  802MPD2     H11816   2.426   1.030  17.187  1.7156  1.5535  0.0856
  802MPD2    H111817   2.335   0.980  16.772 -0.1243 -2.0459  1.3934
  802MPD2    H211818   2.173   1.313  16.981  0.9057 -0.0524  0.9487
  802MPD2    H311819   2.205   1.184  16.770 -1.0470 -0.6663  0.8912
  802MPD2     N11820   2.445   0.862  16.986 -0.0686  0.4219 -0.0137
  802MPD2    H511821   2.469   0.829  17.079  0.4418  2.6662  0.6526
  802MPD2    N111822   2.264   1.249  17.207 -0.2402  0.4295  0.4829
  802MPD2    H711823   2.234   1.346  17.197  0.2921  0.2700 -2.6277
  803MPD2     C11824   4.689   4.281  11.615 -0.1143 -0.1122 -0.0208
  803MPD2    C111825   0.025   4.215  11.723  0.2595  0.4719 -1.0996
  803MPD2    C211826   4.676   4.126  11.804 -0.2599 -0.6217  0.1439
  803MPD2    C311827   4.547   4.091  11.764 -0.6598  0.6315  0.0005
  803MPD2    C411828   4.490   4.151  11.651  0.7059 -0.2524 -0.1019
  803MPD2    C511829   4.559   4.248  11.587  0.5715  0.4130  0.2710
  803MPD2     H11830   4.722   4.086  11.893  0.4289  1.1121  0.5785
  803MPD2    H111831   4.393   4.120  11.615  0.2901  1.2270 -0.2923
  803MPD2    H211832   0.026   4.337  11.544 -0.9701  0.3900 -0.3457
  803MPD2    H311833   4.518   4.298  11.500  2.8358  1.3679 -0.2613
  803MPD2     N11834   4.470   3.982  11.831  0.0197  0.1034 -0.2485
  803MPD2    H511835   4.373   3.970  11.804  0.9367 -1.9590 -2.6345
  803MPD2    N111836   0.158   4.231  11.774  0.7948 -0.1604 -0.4248
  803MPD2    H711837   0.178   4.161  11.845 -1.1510 -0.2226  0.0605
  804MPD2     C11838   3.413   1.076  16.833  0.7087 -0.8782 -0.7202
  804MPD2    C111839   3.389   1.053  16.969  0.2922  0.7924 -0.0997
  804MPD2    C211840   3.439   1.142  17.060  0.0224  0.1672  0.1592
  804MPD2    C311841   3.503   1.257  17.025 -0.1752 -0.3567 -0.7718
  804MPD2    C411842   3.519   1.284  16.888 -0.2456 -0.1409  1.1055
  804MPD2    C511843   3.470   1.196  16.790  0.4224 -0.0862 -0.1454
  804MPD2     H11844   3.427   1.124  17.166  2.2766 -0.5333  0.2910
  804MPD2    H111845   3.558   1.382  16.863 -0.5055 -0.2477  0.2828
  804MPD2    H211846   3.383   0.999  16.763  1.7958 -0.9324 -1.1251
  804MPD2    H311847   3.493   1.227  16.688 -1.6746  0.0914 -0.5630
  804MPD2     N11848   3.548   1.356  17.113  0.2998  0.2478  0.1058
  804MPD2    H511849   3.581   1.442  17.071  0.5282 -0.2091 -0.6431
  804MPD2    N111850   3.345   0.928  17.022 -0.5332 -0.6200 -0.0811
  804MPD2    H711851   3.335   0.923  17.123  0.2344 -0.5798 -0.0080
  805MPD2     C11852   2.913   3.989  15.415  0.1916 -0.3518  0.1973
  805MPD2    C111853   2.904   4.119  15.443 -0.2529  0.6770  0.2858
  805MPD2    C211854   3.001   4.176  15.532 -0.1897  0.4999  0.8915
  805MPD2    C311855   3.089   4.090  15.598 -0.1654  0.3755  0.3293
  805MPD2    C411856   3.086   3.954  15.578 -0.2918  0.3698  0.5695
  805MPD2    C511857   2.995   3.909  15.488 -1.0006  0.3182  0.5980
  805MPD2     H11858   3.018   4.283  15.529  1.7197  0.1232 -1.4459
  805MPD2    H111859   3.165   3.892  15.618 -0.7859 -0.1392  0.7482
  805MPD2    H211860   2.849   3.947  15.338 -0.3946 -0.5894  0.8220
  805MPD2    H311861   2.982   3.804  15.467 -0.3778  0.5410 -0.9132
  805MPD2     N11862   3.183   4.150  15.680  0.3512  0.3727  0.6625
  805MPD2    H511863   3.191   4.250  15.663  2.9931  0.4229  2.3000
  805MPD2    N111864   2.819   4.202  15.363 -0.2912  0.1421 -0.1585
  805MPD2    H711865   2.789   4.166  15.273  2.0671  2.1387 -1.7526
  806MPD2     C11866   3.829   3.668   0.541 -0.2326 -0.1409  0.4741
  806MPD2    C111867   3.798   3.727   0.667 -0.1134 -0.1253  0.3635
  806MPD2    C211868   3.710   3.836   0.676 -0.0204 -0.4997 -0.8979
  806MPD2    C311869   3.663   3.894   0.560  0.1726 -0.3348  0.1412
  806MPD2    C411870   3.689   3.831   0.436  0.6254 -0.1301  0.0901
  806MPD2    C511871   3.764   3.718   0.426  0.0529  0.2634 -0.1864
  806MPD2     H11872   3.661   3.873   0.766 -1.5444 -1.8388 -1.1788
  806MPD2    H111873   3.648   3.870   0.343  2.2078 -0.3820 -0.7096
  806MPD2    H211874   3.896   3.583   0.541  0.8034  0.6692 -1.9524
  806MPD2    H311875   3.767   3.670   0.329  3.6263 -0.9225  0.5061
  806MPD2     N11876   3.570   4.002   0.573  0.0961  0.4288 -0.2880
  806MPD2    H511877   3.549   4.027   0.669  0.9606  0.3938 -0.0885
  806MPD2    N111878   3.870   3.674   0.775 -0.6779  0.1790  0.0791
  806MPD2    H711879   3.941   3.603   0.757 -0.8934  0.4082 -1.6417
  807MPD2     C11880   3.921   3.712   1.645 -0.3681  0.3883 -0.3700
  807MPD2    C111881   3.851   3.653   1.544  0.5247  0.5737 -0.4712
  807MPD2    C211882   3.728   3.601   1.572 -0.1013 -0.5930  0.3721
  807MPD2    C311883   3.676   3.594   1.701 -0.2424  0.8240 -0.4182
  807MPD2    C411884   3.756   3.637   1.802 -0.6532  0.3749  1.2360
  807MPD2    C511885   3.872   3.706   1.774 -0.2854 -0.2326 -0.0340
  807MPD2     H11886   3.677   3.550   1.491  0.6345 -1.1095  0.2313
  807MPD2    H111887   3.729   3.629   1.907 -0.3282 -2.0673  1.1368
  807MPD2    H211888   4.020   3.752   1.624 -0.6414  0.7616 -0.9722
  807MPD2    H311889   3.941   3.725   1.855 -0.2312 -1.3572  0.1949
  807MPD2     N11890   3.551   3.531   1.719  0.0741  0.3381  0.3839
  807MPD2    H511891   3.500   3.507   1.635  0.9419 -1.5641  0.3989
  807MPD2    N111892   3.889   3.653   1.408  0.3373 -0.1108 -0.0053
  807MPD2    H711893   3.822   3.618   1.341  0.3724  1.9769 -1.1190
  808MPD2     C11894   3.751   1.329   9.462 -0.4013  0.0022  0.1939
  808MPD2    C111895   3.792   1.314   9.597  0.2361 -0.4326 -0.4175
  808MPD2    C211896   3.864   1.426   9.636 -0.3656  0.5009  0.0402
  808MPD2    C311897   3.893   1.538   9.560  0.4284  0.8520 -0.8111
  808MPD2    C411898   3.855   1.543   9.431  0.8600 -0.2423 -0.2147
  808MPD2    C511899   3.786   1.430   9.383  0.3458 -0.0521  0.3117
  808MPD2     H11900   3.896   1.430   9.739 -1.4739  1.6551  0.3362
  808MPD2    H111901   3.871   1.626   9.364 -0.2174 -1.2265 -1.6721
  808MPD2    H211902   3.703   1.245   9.413  0.5074 -0.2947 -0.1853
  808MPD2    H311903   3.761   1.435   9.278  2.0219  0.5388 -0.0665
  808MPD2     N11904   3.963   1.652   9.604  1.0809 -0.0288  0.6689
  808MPD2    H511905   3.967   1.736   9.548 -0.5521 -1.8133 -2.0757
  808MPD2    N111906   3.780   1.200   9.677 -0.1973 -0.7119  0.5425
  808MPD2    H711907   3.818   1.202   9.771  1.0060  2.3139 -0.0178
  809MPD2     C11908   4.458   2.166   9.137 -0.3108  0.3025 -0.0918
  809MPD2    C111909   4.517   2.156   9.261 -0.2937  0.4087  0.3316
  809MPD2    C211910   4.438   2.131   9.369 -0.0255 -1.2956 -0.6687
  809MPD2    C311911   4.298   2.109   9.354 -0.2525  0.3172 -0.9564
  809MPD2    C411912   4.250   2.116   9.227  0.6141 -0.2241 -0.0941
  809MPD2    C511913   4.321   2.151   9.117  0.4699 -0.0179  0.1426
  809MPD2     H11914   4.483   2.115   9.466  0.4915 -0.1027 -0.7164
  809MPD2    H111915   4.145   2.092   9.210  1.1836 -2.5040 -0.4165
  809MPD2    H211916   4.521   2.176   9.049 -0.6312  4.2290  0.1089
  809MPD2    H311917   4.271   2.162   9.022 -1.6618 -1.7196  1.0779
  809MPD2     N11918   4.209   2.066   9.453 -0.9719 -0.0802  0.0037
  809MPD2    H511919   4.112   2.038   9.441 -1.6444  2.1292  0.2473
  809MPD2    N111920   4.656   2.146   9.286 -0.5525  0.8295 -0.0298
  809MPD2    H711921   4.689   2.106   9.373 -2.7092 -0.8857  0.0155
  810MPD2     C11922   3.366   0.043   9.751  0.0331  0.0869  0.0900
  810MPD2    C111923   3.375   4.662   9.836  0.1192  0.2727 -0.7670
  810MPD2    C211924   3.449   4.676   9.951  0.6075 -0.7223 -0.0354
  810MPD2    C311925   3.522   0.070   9.976  0.4202 -0.6504 -0.7723
  810MPD2    C411926   3.517   0.171   9.879 -0.3548  0.6668 -0.3511
  810MPD2    C511927   3.435   0.156   9.773  0.6915  0.3263 -0.2098
  810MPD2     H11928   3.448   4.612  10.038 -0.3866 -2.9788 -1.7193
  810MPD2    H111929   3.563   0.268   9.894 -0.1559  0.5566 -0.2501
  810MPD2    H211930   3.303   0.033   9.663  2.8575 -4.2259 -1.4823
  810MPD2    H311931   3.424   0.235   9.700 -1.1794  0.8540  0.6599
  810MPD2     N11932   3.589   0.081  10.102 -0.4763 -0.6017 -0.6256
  810MPD2    H511933   3.597   4.718  10.155  0.6684 -1.0644 -1.5436
  810MPD2    N111934   3.306   4.543   9.810  0.2481  0.3896 -0.8040
  810MPD2    H711935   3.271   4.538   9.715  1.1614 -0.1138 -1.1107
  811MPD2     C11936   2.540   4.363   9.736  0.0898  0.0489 -0.0677
  811MPD2    C111937   2.665   4.406   9.704 -0.7383  0.6121  0.1113
  811MPD2    C211938   2.686   4.542   9.671 -0.0970 -0.1188 -0.3243
  811MPD2    C311939   2.580   4.632   9.670  0.6437  0.3397 -0.5010
  811MPD2    C411940   2.454   4.580   9.697 -0.8834 -0.0260 -0.2431
  811MPD2    C511941   2.439   4.446   9.726 -0.7361 -0.1599 -0.1353
  811MPD2     H11942   2.785   4.585   9.667  0.0546 -0.4780 -0.4646
  811MPD2    H111943   2.369   4.648   9.698  0.4286  1.5814  1.1074
  811MPD2    H211944   2.532   4.260   9.765  1.1319  0.4997  1.8024
  811MPD2    H311945   2.339   4.410   9.746 -0.2961 -2.2538 -1.7374
  811MPD2     N11946   2.608   0.051   9.655 -0.1968 -0.0819 -0.1166
  811MPD2    H511947   2.706   0.077   9.662 -0.3644 -0.2436  2.9853
  811MPD2    N111948   2.775   4.313   9.721 -0.5634  0.0020 -1.1243
  811MPD2    H711949   2.758   4.236   9.784 -3.5252  1.6806  0.1237
  812MPD2     C11950   2.622   4.038  12.182 -0.0216 -1.4528  0.8007
  812MPD2    C111951   2.536   4.128  12.224 -0.3033 -0.6173 -0.2500
  812MPD2    C211952   2.481   4.118  12.353  0.2696  0.6965 -0.0150
  812MPD2    C311953   2.523   4.011  12.437 -0.1469  0.2791  0.3779
  812MPD2    C411954   2.619   3.920  12.395 -0.4632  0.3819  0.0194
  812MPD2    C511955   2.658   3.927  12.263 -0.6035 -0.3504 -0.8869
  812MPD2     H11956   2.414   4.193  12.393  2.1789  2.7795 -0.7383
  812MPD2    H111957   2.660   3.838  12.454 -1.8873  1.5985  2.7146
  812MPD2    H211958   2.664   4.035  12.082 -1.1245 -1.5500  0.3408
  812MPD2    H311959   2.718   3.849  12.217  1.2501  0.3488  0.3362
  812MPD2     N11960   2.470   4.005  12.566 -0.0051 -0.4376  0.5317
  812MPD2    H511961   2.416   4.081  12.607 -1.6826 -1.7238  0.6489
  812MPD2    N111962   2.502   4.229  12.131 -0.0231 -0.1428  0.3791
  812MPD2    H711963   2.557   4.248  12.048 -1.9110 -2.5176 -1.3777
  813MPD2     C11964   1.353   1.290  12.668  0.1749 -0.4068 -0.5768
  813MPD2    C111965   1.453   1.269  12.763 -0.3965  0.1534  0.2801
  813MPD2    C211966   1.427   1.222  12.891 -0.1128 -0.3353  0.4509
  813MPD2    C311967   1.294   1.219  12.939  0.3697 -0.3048  0.2361
  813MPD2    C411968   1.196   1.258  12.847  0.5846  0.1502  0.2867
  813MPD2    C511969   1.225   1.284  12.715  0.1923  1.1437 -0.6480
  813MPD2     H11970   1.505   1.202  12.963  1.2290 -0.0930 -0.9454
  813MPD2    H111971   1.092   1.255  12.877  0.3965 -0.9135 -0.4557
  813MPD2    H211972   1.372   1.317  12.565  0.5785 -1.1628 -0.6986
  813MPD2    H311973   1.147   1.314  12.645 -2.1185 -0.4746  1.2391
  813MPD2     N11974   1.281   1.196  13.076  0.5603 -0.0328 -0.1050
  813MPD2    H511975   1.364   1.153  13.117  1.7467  1.4243 -1.0010
  813MPD2    N111976   1.591   1.299  12.737 -0.2715 -0.3841 -0.3504
  813MPD2    H711977   1.660   1.280  12.809 -1.0591 -0.3730  0.4139
  814MPD2     C11978   2.155   2.340  11.990  0.0731  0.7042  0.1389
  814MPD2    C111979   2.192   2.406  11.869 -0.1000 -0.0181 -1.0482
  814MPD2    C211980   2.265   2.529  11.878 -0.1869  0.2092  0.6237
  814MPD2    C311981   2.292   2.586  12.004 -0.8099 -0.2357  0.5520
  814MPD2    C411982   2.249   2.522  12.121 -0.4554 -0.3625  0.6120
  814MPD2    C511983   2.180   2.403  12.116  0.0995  0.5746  0.3061
  814MPD2     H11984   2.314   2.577  11.794  0.8411  1.0904  1.7364
  814MPD2    H111985   2.265   2.563  12.220  2.4847 -0.1834  0.0599
  814MPD2    H211986   2.095   2.250  11.990  0.2913  0.5580  1.9984
  814MPD2    H311987   2.141   2.364  12.209  1.1036 -0.7510  0.1706
  814MPD2     N11988   2.356   2.713  12.015 -0.3650  0.4526 -0.1756
  814MPD2    H511989   2.331   2.773  12.093  0.5949  0.2296  0.2960
  814MPD2    N111990   2.171   2.352  11.735 -0.0695 -0.1666 -0.0704
  814MPD2    H711991   2.225   2.400  11.665 -0.3299 -0.5420 -0.5245
  815MPD2     C11992   2.414   1.624  11.976  0.0372  0.1106 -0.0359
  815MPD2    C111993   2.395   1.491  11.945 -0.3014 -0.9564  0.3299
  815MPD2    C211994   2.290   1.430  12.008 -0.4492  0.0803 -0.0879
  815MPD2    C311995   2.196   1.489  12.092 -0.1551 -0.2227  0.0843
  815MPD2    C411996   2.207   1.622  12.106 -0.0276  0.6196  0.0588
  815MPD2    C511997   2.322   1.684  12.058  0.5646 -0.1217  0.9458
  815MPD2     H11998   2.271   1.323  12.000  1.3449 -0.3544  1.5491
  815MPD2    H111999   2.144   1.674  12.178 -0.7246  2.4034 -1.8134
  815MPD2    H212000   2.508   1.672  11.954  0.7301 -1.9576 -1.6517
  815MPD2    H312001   2.347   1.780  12.103  2.1115  0.6684 -1.6080
  815MPD2     N12002   2.094   1.402  12.141 -0.0784  0.6251  0.1210
  815MPD2    H512003   2.108   1.304  12.120 -2.4971  0.9233 -2.8355
  815MPD2    N112004   2.476   1.428  11.847  0.1881 -0.5258  0.1881
  815MPD2    H712005   2.554   1.486  11.816  0.1665  0.0708  1.2316
  816MPD2     C12006   2.336   0.567  17.210 -0.4535 -0.3111 -0.4379
  816MPD2    C112007   2.239   0.571  17.108  0.1131  0.0111 -0.3896
  816MPD2    C212008   2.253   0.486  17.000  1.0245  0.1839 -0.4383
  816MPD2    C312009   2.365   0.400  16.990  0.1247  0.5500 -0.5658
  816MPD2    C412010   2.461   0.402  17.095 -0.2776  0.6197  0.2428
  816MPD2    C512011   2.446   0.486  17.200  0.1654 -0.3478 -0.1781
  816MPD2     H12012   2.175   0.481  16.925  0.8917 -1.1579 -0.2209
  816MPD2    H112013   2.549   0.339  17.095 -1.4848 -1.0351 -2.0841
  816MPD2    H212014   2.331   0.632  17.296 -0.6350 -1.1181  0.1577
  816MPD2    H312015   2.529   0.476  17.269  0.5042  1.0176 -0.3932
  816MPD2     N12016   2.382   0.333  16.864  0.3410 -0.7576  0.4017
  816MPD2    H512017   2.309   0.346  16.795 -0.9452 -1.8619  1.5612
  816MPD2    N112018   2.132   0.653  17.113 -0.2970  0.1881  0.0304
  816MPD2    H712019   2.066   0.641  17.036 -0.1873  1.8063 -0.3174
  817MPD2     C12020   1.835   2.094  10.069  0.3913  0.1363  0.5162
  817MPD2    C112021   1.943   2.119   9.997  0.4764  0.8727 -0.4714
  817MPD2    C212022   1.982   2.254   9.971  0.1907 -0.0612 -0.1396
  817MPD2    C312023   1.900   2.353  10.013 -0.1275 -0.2727 -1.0258
  817MPD2    C412024   1.790   2.327  10.089 -0.0881 -0.4022 -0.0099
  817MPD2    C512025   1.756   2.199  10.105  0.7371  0.0511  0.6255
  817MPD2     H12026   2.070   2.279   9.912  0.7697  1.4757  1.3728
  817MPD2    H112027   1.721   2.404  10.122 -0.7242  0.1386 -2.6425
  817MPD2    H212028   1.804   1.999  10.113  0.1212 -1.3430 -2.8190
  817MPD2    H312029   1.670   2.174  10.166  0.0157 -0.5995 -0.6550
  817MPD2     N12030   1.945   2.478   9.983  0.0533  0.0997 -0.3668
  817MPD2    H512031   2.027   2.470   9.924  1.0910 -2.9448  1.4924
  817MPD2    N112032   2.025   2.015   9.963  0.4969 -1.1033  0.2927
  817MPD2    H712033   2.110   2.033   9.912  0.8728 -0.2147  1.2219
  818MPD2     C12034   0.811   1.635   9.941  0.1810 -0.2498 -0.6162
  818MPD2    C112035   0.736   1.587  10.044 -0.2654 -0.3502 -0.4979
  818MPD2    C212036   0.778   1.474  10.113  0.3359  0.0422 -0.7248
  818MPD2    C312037   0.907   1.416  10.086 -0.5903  0.0010 -0.1909
  818MPD2    C412038   0.987   1.471   9.985 -0.4032  0.1324  0.8865
  818MPD2    C512039   0.934   1.573   9.908  0.1092 -0.0072 -0.3771
  818MPD2     H12040   0.722   1.433  10.196  0.5530  0.5793 -0.3168
  818MPD2    H112041   1.080   1.434   9.943  0.5826  0.5091  2.7557
  818MPD2    H212042   0.773   1.707   9.869  2.7624  1.0345 -0.6869
  818MPD2    H312043   0.996   1.602   9.823  0.2375 -0.2424 -0.3632
  818MPD2     N12044   0.946   1.300  10.156 -0.2427 -0.2160 -0.1313
  818MPD2    H512045   0.884   1.270  10.230 -0.7337 -2.9681 -1.6491
  818MPD2    N112046   0.622   1.647  10.096 -0.1898  0.4561 -0.3741
  818MPD2    H712047   0.570   1.597  10.168 -1.7258  1.9159 -0.4722
  819MPD2     C12048   3.353   3.826  15.413 -0.1406  0.4292  0.5384
  819MPD2    C112049   3.376   3.689  15.419 -0.2405  0.1265  0.6242
  819MPD2    C212050   3.492   3.642  15.491  0.2981  0.3267  0.5020
  819MPD2    C312051   3.566   3.734  15.562  0.0169  0.0344  0.6761
  819MPD2    C412052   3.530   3.867  15.567  0.0359  0.1361  0.4627
  819MPD2    C512053   3.428   3.915  15.491  0.0011  0.1073  0.4709
  819MPD2     H12054   3.522   3.538  15.488  0.1643  0.3414 -1.5706
  819MPD2    H112055   3.580   3.943  15.627 -0.6306 -0.2690  1.5408
  819MPD2    H212056   3.265   3.864  15.362  1.6483  0.5243 -2.4309
  819MPD2    H312057   3.395   4.018  15.504 -1.2570 -0.6349  3.3339
  819MPD2     N12058   3.675   3.680  15.637  0.3953  0.0499  0.5787
  819MPD2    H512059   3.703   3.585  15.614 -0.1971 -0.1251  0.5783
  819MPD2    N112060   3.275   3.613  15.342 -0.1872  0.0261 -0.2203
  819MPD2    H712061   3.202   3.662  15.293  0.6114  1.5711  0.1441
  820MPD2     C12062   2.461   3.805  14.922  0.1357  0.4279  0.4333
  820MPD2    C112063   2.562   3.874  14.989 -0.5471  0.4401 -0.5425
  820MPD2    C212064   2.671   3.795  15.042  0.0947  0.3826  0.5209
  820MPD2    C312065   2.662   3.655  15.032 -0.3084  0.2204  0.5439
  820MPD2    C412066   2.556   3.593  14.960  0.8002 -0.3214  0.1238
  820MPD2    C512067   2.463   3.674  14.898 -0.0374  0.1650 -0.1314
  820MPD2     H12068   2.746   3.834  15.110  1.2110  0.0869 -0.5353
  820MPD2    H112069   2.543   3.485  14.953  2.4763 -0.7047  2.7678
  820MPD2    H212070   2.381   3.869  14.886  0.1269 -0.2625 -0.7711
  820MPD2    H312071   2.374   3.632  14.853  1.3014 -2.0359 -0.7285
  820MPD2     N12072   2.760   3.565  15.088  0.2758  0.5393  0.8071
  820MPD2    H512073   2.751   3.467  15.064  0.2734  0.5281  0.8527
  820MPD2    N112074   2.546   4.015  15.006  0.3322 -0.2401  0.6476
  820MPD2    H712075   2.466   4.065  14.970 -0.1970 -2.1860 -0.8505
  821MPD2     C12076   3.509   0.379  12.841 -0.1021  0.2912  0.5614
  821MPD2    C112077   3.594   0.276  12.876  0.5386  0.4891 -0.2981
  821MPD2    C212078   3.720   0.270  12.818 -0.5316  0.1682 -0.6570
  821MPD2    C312079   3.767   0.368  12.732  0.7138  0.1189 -0.0984
  821MPD2    C412080   3.673   0.461  12.689  1.1332 -0.3392 -0.4727
  821MPD2    C512081   3.550   0.470  12.750 -1.2027  0.1961 -0.5508
  821MPD2     H12082   3.780   0.182  12.837 -0.1947  0.2561 -1.2929
  821MPD2    H112083   3.696   0.533  12.611  2.2409  1.3738  1.4515
  821MPD2    H212084   3.408   0.378  12.879  0.3516  1.8424  1.8228
  821MPD2    H312085   3.479   0.548  12.725 -2.1333 -1.3569 -2.7485
  821MPD2     N12086   3.899   0.362  12.678  0.1586 -0.1612 -0.1889
  821MPD2    H512087   3.929   0.433  12.611 -1.1802 -2.5834 -3.3290
  821MPD2    N112088   3.554   0.176  12.968  0.5154  0.4575  0.1548
  821MPD2    H712089   3.628   0.110  12.988  0.3174 -0.7803 -3.2196
  822MPD2     C12090   4.406   0.494  15.680  0.1671  0.5032 -0.3731
  822MPD2    C112091   4.368   0.438  15.800  0.1517  0.3078  0.4223
  822MPD2    C212092   4.274   0.508  15.869  0.5100  0.1385 -0.3014
  822MPD2    C312093   4.215   0.623  15.826 -0.0095 -0.1106  0.4070
  822MPD2    C412094   4.237   0.662  15.697 -0.1853  0.5133 -0.2858
  822MPD2    C512095   4.337   0.597  15.626  0.5885  0.8513 -0.0639
  822MPD2     H12096   4.248   0.483  15.972  2.0525  1.2016  0.3353
  822MPD2    H112097   4.188   0.750  15.659 -1.9107  0.2749  1.3889
  822MPD2    H212098   4.488   0.455  15.621 -0.7488 -2.5692  0.3950
  822MPD2    H312099   4.351   0.626  15.523  1.2071  0.7411 -0.0072
  822MPD2     N12100   4.125   0.689  15.924  0.5543 -0.3501  0.5554
  822MPD2    H512101   4.093   0.634  16.003 -0.6551 -1.3427 -0.6172
  822MPD2    N112102   4.421   0.322  15.865 -0.5276 -0.3015 -0.3630
  822MPD2    H712103   4.383   0.299  15.956  0.0313 -2.4038 -0.6521
  823MPD2     C12104   3.688   0.815  16.641 -0.3482 -0.2123  0.0505
  823MPD2    C112105   3.778   0.742  16.568  0.1555  0.1855  0.5157
  823MPD2    C212106   3.822   0.615  16.611  0.5584  0.6323 -0.2248
  823MPD2    C312107   3.791   0.575  16.735  0.6945  0.0534  0.2551
  823MPD2    C412108   3.694   0.650  16.807  0.2398  0.4686 -0.5839
  823MPD2    C512109   3.643   0.766  16.762  0.8349  0.4496 -0.3259
  823MPD2     H12110   3.894   0.560  16.551 -1.4145 -1.5006 -0.6170
  823MPD2    H112111   3.661   0.620  16.906  0.9791 -0.1385 -0.5156
  823MPD2    H212112   3.662   0.916  16.614  1.5319  0.0901 -0.6761
  823MPD2    H312113   3.581   0.835  16.819  0.0535  2.1628 -3.2748
  823MPD2     N12114   3.839   0.461  16.811 -0.1467  0.1580  0.1043
  823MPD2    H512115   3.805   0.447  16.905 -3.2353 -1.1507 -1.2132
  823MPD2    N112116   3.823   0.801  16.447  0.1634  0.1063 -0.6759
  823MPD2    H712117   3.793   0.896  16.429 -3.5719 -0.9321  0.0799
  824MPD2     C12118   0.097   4.257  16.100 -0.0233 -0.4366 -0.1289
  824MPD2    C112119   0.106   4.332  15.985  0.0232 -0.2782  1.5948
  824MPD2    C212120   0.193   4.293  15.885 -0.0177  0.0094 -0.1858
  824MPD2    C312121   0.256   4.171  15.896 -0.3011  0.0987  0.3075
  824MPD2    C412122   0.255   4.104  16.015 -0.3766 -0.1342 -0.3558
  824MPD2    C512123   0.170   4.143  16.114 -0.2312  0.3195 -0.1548
  824MPD2     H12124   0.211   4.352  15.796 -0.3366 -0.6169 -0.6703
  824MPD2    H112125   0.306   4.009  16.025 -0.7698 -0.7455 -4.0650
  824MPD2    H212126   0.041   4.285  16.189  0.0479  1.4260 -0.6610
  824MPD2    H312127   0.161   4.088  16.207  1.0936 -0.5187 -0.5217
  824MPD2     N12128   0.349   4.131  15.794  0.1877 -0.3366 -0.1893
  824MPD2    H512129   0.362   4.194  15.716  0.7456  1.7125  1.5730
  824MPD2    N112130   0.032   4.455  15.986 -0.6850 -0.0400  0.7814
  824MPD2    H712131   4.692   4.467  16.065 -3.2990  1.1548 -1.4743
  825MPD2     C12132   0.442   4.408  15.266  0.4495  0.1012  0.4244
  825MPD2    C112133   0.572   4.380  15.312 -0.7213  0.7464 -0.1123
  825MPD2    C212134   0.666   4.477  15.297 -0.4059 -1.0442 -0.4336
  825MPD2    C312135   0.640   4.604  15.248  0.2256 -0.0157  0.3180
  825MPD2    C412136   0.505   4.633  15.210 -0.4878  0.4869  0.3919
  825MPD2    C512137   0.410   4.536  15.226 -0.7258  0.2492  0.3703
  825MPD2     H12138   0.764   4.463  15.342 -0.0611  3.3259  0.2153
  825MPD2    H112139   0.488   0.008  15.167 -0.9686  0.2952  0.1440
  825MPD2    H212140   0.361   4.338  15.284  0.0199  0.9626  1.8823
  825MPD2    H312141   0.310   4.567  15.197 -0.7886 -1.6452 -1.3771
  825MPD2     N12142   0.737   4.705  15.247 -0.9204 -0.1711  0.0515
  825MPD2    H512143   0.709   0.073  15.213  1.3436  1.2231  1.9450
  825MPD2    N112144   0.580   4.264  15.390  0.0514  0.7262  0.5292
  825MPD2    H712145   0.495   4.209  15.399 -0.0185  1.0275  1.6039
  826MPD2     C12146   0.589   3.913  13.826  0.3482  0.3304  0.1521
  826MPD2    C112147   0.585   3.962  13.698 -0.3059  0.6882  0.4115
  826MPD2    C212148   0.480   4.047  13.663  0.1071 -0.4292 -0.3853
  826MPD2    C312149   0.384   4.087  13.759  0.0490  0.6373  0.6687
  826MPD2    C412150   0.394   4.034  13.880  0.0627  0.5106  0.1787
  826MPD2    C512151   0.502   3.958  13.921 -0.0761 -0.4075  0.0540
  826MPD2     H12152   0.477   4.073  13.558  1.6984  0.2308 -0.2733
  826MPD2    H112153   0.309   4.048  13.945 -0.7027 -0.3304 -0.6494
  826MPD2    H212154   0.675   3.854  13.853 -0.5720 -2.1780 -2.3860
  826MPD2    H312155   0.529   3.933  14.023 -0.0098  1.7565  0.5683
  826MPD2     N12156   0.268   4.158  13.728 -0.2464 -0.2437 -0.0023
  826MPD2    H512157   0.201   4.178  13.802 -0.1558  0.2456 -0.0500
  826MPD2    N112158   0.686   3.909  13.610 -0.1571  0.3857  0.5525
  826MPD2    H712159   0.752   3.846  13.655  0.0497  0.0283 -0.2600
  827MPD2     C12160   1.287   0.869  10.039 -0.5259 -0.1248 -0.0371
  827MPD2    C112161   1.278   0.758  10.128 -0.1560 -0.0010 -0.1521
  827MPD2    C212162   1.163   0.680  10.128  0.5890  0.2696 -0.1816
  827MPD2    C312163   1.061   0.715  10.043  1.2454 -0.4713 -0.2224
  827MPD2    C412164   1.070   0.813   9.948 -0.7362  0.1950 -0.0373
  827MPD2    C512165   1.189   0.885   9.948  0.6581  0.3991  0.8399
  827MPD2     H12166   1.149   0.589  10.186 -0.1344  0.2693 -0.3578
  827MPD2    H112167   0.997   0.827   9.868  0.4255 -1.6293 -1.4238
  827MPD2    H212168   1.371   0.938  10.038 -0.5469 -0.1227 -1.1762
  827MPD2    H312169   1.205   0.949   9.863 -1.9664 -1.1718 -0.8326
  827MPD2     N12170   0.946   0.640  10.058 -0.4177 -0.6670  0.0217
  827MPD2    H512171   0.947   0.558  10.118  0.2175  0.5740  1.7182
  827MPD2    N112172   1.386   0.736  10.216  0.3391 -0.3615  0.2512
  827MPD2    H712173   1.469   0.789  10.192 -0.5113 -0.0003 -1.9447
  828MPD2     C12174   4.676   0.223  12.461 -0.0560  0.1207 -0.8165
  828MPD2    C112175   4.650   0.201  12.326  0.2464  0.0165 -0.0782
  828MPD2    C212176   0.035   0.171  12.247  0.1493  0.2556 -0.2494
  828MPD2    C312177   0.160   0.157  12.304 -0.4842  0.8944 -0.0038
  828MPD2    C412178   0.188   0.177  12.438 -0.4820 -0.5949 -0.6196
  828MPD2    C512179   0.086   0.212  12.514 -0.2634  0.0369  0.1039
  828MPD2     H12180   0.014   0.147  12.144  0.6033 -2.1993  0.2279
  828MPD2    H112181   0.283   0.145  12.480 -0.7881 -0.6064  0.0598
  828MPD2    H212182   4.600   0.253  12.532  0.4161 -2.4894  0.7745
  828MPD2    H312183   0.098   0.219  12.621  0.1813  1.8066 -0.0554
  828MPD2     N12184   0.276   0.106  12.237  0.0739  0.2672  0.1286
  828MPD2    H512185   0.362   0.088  12.287 -1.6853  0.3279  3.2265
  828MPD2    N112186   4.533   0.238  12.258 -0.2210 -0.1761 -0.6496
  828MPD2    H712187   4.534   0.233  12.157  1.5996  0.2358 -0.6585
  829MPD2     C12188   4.583   0.629  11.515  0.0221 -0.5154 -0.2772
  829MPD2    C112189   4.445   0.638  11.528  0.1877 -0.0111 -0.2996
  829MPD2    C212190   4.385   0.568  11.632 -0.0584 -0.4195 -0.0914
  829MPD2    C312191   4.462   0.507  11.734 -0.0812  0.0806 -0.1259
  829MPD2    C412192   4.595   0.495  11.714  0.3015 -0.1377 -0.4338
  829MPD2    C512193   4.651   0.550  11.604  0.5865  0.6389  0.1060
  829MPD2     H12194   4.277   0.555  11.639 -0.1125 -0.5671 -1.1224
  829MPD2    H112195   4.658   0.442  11.785 -0.1425  1.3335  1.0574
  829MPD2    H212196   4.640   0.674  11.435  2.5697 -0.8254  1.3657
  829MPD2    H312197   0.035   0.538  11.593  0.3114 -0.2779 -1.5678
  829MPD2     N12198   4.402   0.456  11.861 -0.1322  0.3791 -0.1032
  829MPD2    H512199   4.467   0.401  11.916 -0.0077 -1.5968 -2.1873
  829MPD2    N112200   4.372   0.710  11.429 -0.2967  0.0439  0.3496
  829MPD2    H712201   4.426   0.743  11.350 -1.3436  0.2355 -0.2761
  830MPD2     C12202   4.005   3.209  15.346  0.2699 -0.2185 -0.1892
  830MPD2    C112203   4.086   3.313  15.384  0.7379 -1.0921 -0.3772
  830MPD2    C212204   4.196   3.350  15.305 -0.3613 -0.3969  0.0133
  830MPD2    C312205   4.219   3.291  15.182  0.2278 -0.6885  0.5638
  830MPD2    C412206   4.139   3.186  15.142 -0.1862 -0.2046  0.1845
  830MPD2    C512207   4.038   3.144  15.228  0.5784  0.6111 -0.3444
  830MPD2     H12208   4.250   3.442  15.325 -0.2142 -0.1070 -1.6847
  830MPD2    H112209   4.156   3.127  15.053  2.7230  2.4258 -1.0133
  830MPD2    H212210   3.921   3.185  15.410  0.1351  3.0868  0.9116
  830MPD2    H312211   3.977   3.058  15.203 -1.1625  2.1589 -1.4210
  830MPD2     N12212   4.306   3.348  15.080  0.1319 -0.2613 -0.2560
  830MPD2    H512213   4.297   3.314  14.984 -0.3716  3.0574 -1.3774
  830MPD2    N112214   4.048   3.402  15.493 -0.0148 -0.7069  0.2852
  830MPD2    H712215   3.956   3.394  15.535 -0.2833 -0.5611 -0.2797
  831MPD2     C12216   4.418   0.860  16.201 -0.3794 -0.5037  0.0789
  831MPD2    C112217   4.451   0.738  16.140 -0.5471  0.0527  0.0030
  831MPD2    C212218   4.390   0.620  16.182 -0.4721 -0.0016 -0.3084
  831MPD2    C312219   4.283   0.619  16.271 -0.5299  0.0640  0.6323
  831MPD2    C412220   4.247   0.742  16.322 -0.4339  0.6934 -0.2841
  831MPD2    C512221   4.315   0.863  16.292  0.0847 -0.2094 -0.3063
  831MPD2     H12222   4.417   0.532  16.125  2.6523  0.9314 -0.2605
  831MPD2    H112223   4.158   0.755  16.382 -0.8126  3.4353 -1.4246
  831MPD2    H212224   4.476   0.950  16.184 -0.0810 -1.0958 -2.1421
  831MPD2    H312225   4.280   0.957  16.333  0.8905 -0.5197  1.1088
  831MPD2     N12226   4.197   0.512  16.298 -0.0229 -0.1239 -0.0013
  831MPD2    H512227   4.121   0.541  16.359 -0.0945  1.5753 -0.8960
  831MPD2    N112228   4.550   0.752  16.043 -0.5150  0.2335 -0.0889
  831MPD2    H712229   4.566   0.847  16.012 -0.8088  0.4757  0.5225
  832MPD2     C12230   2.784   1.379  17.171  0.1113  0.2185 -0.2160
  832MPD2    C112231   2.808   1.506  17.149  0.1742 -0.6137  0.3460
  832MPD2    C212232   2.742   1.575  17.048  0.4811 -0.0828  0.1773
  832MPD2    C312233   2.656   1.503  16.967 -0.7172  0.4893 -0.3972
  832MPD2    C412234   2.637   1.370  16.987  0.4248  0.3142 -0.6956
  832MPD2    C512235   2.694   1.313  17.093  0.2935  0.1477 -1.1713
  832MPD2     H12236   2.743   1.684  17.044  0.6314 -0.0262  1.7242
  832MPD2    H112237   2.577   1.313  16.917  0.1522 -0.7998  0.4461
  832MPD2    H212238   2.833   1.328  17.253 -2.6090 -0.3467  1.0670
  832MPD2    H312239   2.688   1.205  17.106 -1.7298  0.5311  1.2971
  832MPD2     N12240   2.577   1.563  16.862  0.5074 -0.3105  0.0674
  832MPD2    H512241   2.534   1.493  16.802  1.7483 -2.4445  1.6813
  832MPD2    N112242   2.892   1.570  17.248  0.3694  0.1984 -0.2114
  832MPD2    H712243   2.912   1.517  17.332 -0.3600 -0.3821 -0.4034
  833MPD2     C12244   0.934   2.756  12.548 -0.0646  0.2427 -0.2133
  833MPD2    C112245   0.900   2.833  12.439  0.1663 -0.1347  0.0171
  833MPD2    C212246   0.942   2.790  12.315  0.0776 -0.3808  0.1583
  833MPD2    C312247   1.017   2.675  12.301  0.1266  1.1892 -0.2830
  833MPD2    C412248   1.052   2.603  12.417 -1.7056  0.2665  0.1359
  833MPD2    C512249   1.001   2.638  12.536 -0.0744  0.6283  0.7750
  833MPD2     H12250   0.923   2.849  12.226 -1.0075  3.7880  3.1630
  833MPD2    H112251   1.108   2.512  12.401 -1.9450  0.3645 -1.2880
  833MPD2    H212252   0.891   2.789  12.642 -1.4476 -0.2086 -0.6885
  833MPD2    H312253   1.012   2.577  12.626 -1.5931 -1.0575 -0.1788
  833MPD2     N12254   1.062   2.621  12.177  0.8061  0.5779  0.7911
  833MPD2    H512255   1.108   2.531  12.183  0.7202  0.5180  0.5307
  833MPD2    N112256   0.814   2.939  12.470  0.1575  0.4848 -0.0947
  833MPD2    H712257   0.786   2.949  12.567 -0.3035  1.1286 -0.2920
  834MPD2     C12258   0.455   2.032  11.633 -0.5460 -0.4169  0.2666
  834MPD2    C112259   0.450   2.158  11.573  0.5222  0.0460 -0.2085
  834MPD2    C212260   0.532   2.259  11.622  0.0752  0.3386 -0.6495
  834MPD2    C312261   0.635   2.233  11.709 -0.6759 -0.0418 -0.4318
  834MPD2    C412262   0.647   2.103  11.756 -0.1365  0.0892 -0.0395
  834MPD2    C512263   0.555   2.004  11.724 -0.8428  0.4686  1.0783
  834MPD2     H12264   0.517   2.361  11.588 -0.7733  0.1592 -0.8316
  834MPD2    H112265   0.734   2.065  11.809 -0.9241  0.1552  1.2913
  834MPD2    H212266   0.400   1.944  11.602  0.8792 -0.5885 -1.7321
  834MPD2    H312267   0.566   1.907  11.771  2.3471  0.1083 -0.4119
  834MPD2     N12268   0.722   2.342  11.738  0.4675  0.5273 -0.1347
  834MPD2    H512269   0.700   2.428  11.689 -0.2350  0.1360 -0.5064
  834MPD2    N112270   0.344   2.186  11.486 -0.3090 -0.1957 -0.8092
  834MPD2    H712271   0.292   2.103  11.460  0.9146 -0.7003 -1.6670
  835MPD2     C12272   0.807   0.947  10.699 -0.4863 -0.8903 -0.6775
  835MPD2    C112273   0.679   0.923  10.750  0.1351  0.1442 -0.2009
  835MPD2    C212274   0.660   0.900  10.884  0.4644  0.0749 -1.3596
  835MPD2    C312275   0.762   0.901  10.969 -0.7044 -0.3015 -0.8090
  835MPD2    C412276   0.886   0.923  10.923 -0.3758  0.3092 -1.0683
  835MPD2    C512277   0.907   0.945  10.785  0.1779  0.0773  0.6600
  835MPD2     H12278   0.562   0.885  10.928  0.9003  2.3976  0.3915
  835MPD2    H112279   0.977   0.932  10.980 -0.3946  1.0202 -1.1563
  835MPD2    H212280   0.829   0.981  10.599  0.9247  0.7966  0.2110
  835MPD2    H312281   1.006   0.978  10.756 -0.7576  1.1472 -1.3014
  835MPD2     N12282   0.731   0.875  11.098  0.2533 -0.0914  0.1802
  835MPD2    H512283   0.637   0.845  11.122 -0.5422  1.2863 -1.2479
  835MPD2    N112284   0.557   0.932  10.672  0.3633 -0.3264  1.4808
  835MPD2    H712285   0.471   0.912  10.722 -0.5026  1.0656  0.5545
  836MPD2     C12286   0.301   1.258  11.396 -0.3050  0.3376 -0.1836
  836MPD2    C112287   0.313   1.141  11.462  0.1072  0.2838  0.2990
  836MPD2    C212288   0.198   1.075  11.517 -0.2291 -0.2881 -0.1804
  836MPD2    C312289   0.075   1.128  11.497  0.1528  0.3929  0.4854
  836MPD2    C412290   0.065   1.248  11.428  0.8065 -0.0341  0.0995
  836MPD2    C512291   0.177   1.308  11.376  0.2217  0.2878  1.0935
  836MPD2     H12292   0.214   0.981  11.567  1.9427 -0.8498 -1.9318
  836MPD2    H112293   4.694   1.303  11.429  2.0016  1.9736  2.6068
  836MPD2    H212294   0.391   1.308  11.364 -0.9903  1.2912 -0.6296
  836MPD2    H312295   0.179   1.408  11.332  0.5471  0.5727  1.7557
  836MPD2     N12296   4.686   1.082  11.565  0.7143 -0.4502 -0.2125
  836MPD2    H512297   4.607   1.145  11.570 -0.7741 -2.4271  1.2313
  836MPD2    N112298   0.441   1.080  11.453 -1.0154  0.0486  0.2104
  836MPD2    H712299   0.508   1.130  11.397 -1.7096 -0.3275 -0.9448
  837MPD2     C12300   3.027   0.653   9.981 -0.9593 -0.7337 -0.0582
  837MPD2    C112301   2.942   0.691   9.881  0.1232  0.0322  0.3675
  837MPD2    C212302   2.927   0.828   9.856  0.8066 -0.4163  0.2916
  837MPD2    C312303   2.966   0.928   9.935  0.4178 -0.3112  0.0583
  837MPD2    C412304   3.043   0.898  10.044 -0.0703 -0.3629 -0.1551
  837MPD2    C512305   3.081   0.764  10.059  0.9387  0.0366  0.3422
  837MPD2     H12306   2.859   0.849   9.775  1.1178  0.4767  0.2622
  837MPD2    H112307   3.089   0.976  10.103  0.0694 -1.8687  1.7488
  837MPD2    H212308   3.036   0.547  10.004  0.1556 -0.8121 -0.8421
  837MPD2    H312309   3.157   0.741  10.132  1.9645 -1.7728 -1.3269
  837MPD2     N12310   2.919   1.054   9.903 -0.0694  0.7066  0.4316
  837MPD2    H512311   2.870   1.060   9.815  0.6774 -1.8913 -0.1600
  837MPD2    N112312   2.873   0.604   9.801  0.3430 -0.7449  0.0394
  837MPD2    H712313   2.830   0.660   9.728  2.8313  1.2338  0.1124
  838MPD2     C12314   1.830   2.834  10.977  0.5130 -0.3753  0.8047
  838MPD2    C112315   1.824   2.816  11.117 -0.0473 -0.8395 -0.3151
  838MPD2    C212316   1.718   2.754  11.175  0.8790  1.0059  1.0259
  838MPD2    C312317   1.617   2.697  11.094 -1.1982 -0.2658 -0.3488
  838MPD2    C412318   1.628   2.697  10.955 -0.0056 -0.2703 -0.0869
  838MPD2    C512319   1.739   2.766  10.904 -0.0348  0.0424 -0.3180
  838MPD2     H12320   1.701   2.751  11.282 -0.6665  3.1458  0.8431
  838MPD2    H112321   1.564   2.654  10.878  1.9455  1.0575 -2.4609
  838MPD2    H212322   1.894   2.904  10.925 -1.9202  0.7047 -0.7379
  838MPD2    H312323   1.749   2.772  10.796 -0.1840 -0.7685 -0.3817
  838MPD2     N12324   1.506   2.644  11.162 -0.5767 -0.3594 -0.6829
  838MPD2    H512325   1.500   2.662  11.262  0.7071  3.0200 -1.2043
  838MPD2    N112326   1.911   2.882  11.203 -1.1505  0.0903 -0.5374
  838MPD2    H712327   1.902   2.869  11.303 -3.7085 -0.9148 -0.9097
  839MPD2     C12328   1.906   2.636  11.996 -0.4987 -0.0044  0.5451
  839MPD2    C112329   1.895   2.614  11.864  0.7623  0.0261 -0.1868
  839MPD2    C212330   1.960   2.700  11.785 -0.2397  0.2788  0.5250
  839MPD2    C312331   2.020   2.816  11.826  0.3546 -0.2889 -0.7444
  839MPD2    C412332   2.011   2.853  11.963  0.6887 -0.1887  0.5490
  839MPD2    C512333   1.952   2.758  12.043  0.0657  1.0188  0.1294
  839MPD2     H12334   1.957   2.696  11.677 -2.3703  0.2768  0.5954
  839MPD2    H112335   2.045   2.945  12.009  0.6840 -0.4758  1.1215
  839MPD2    H212336   1.856   2.568  12.064 -0.3387 -0.3968  0.2695
  839MPD2    H312337   1.949   2.779  12.149 -1.3644 -0.6924  0.4337
  839MPD2     N12338   2.095   2.901  11.737  0.3816  0.0250  0.8646
  839MPD2    H512339   2.093   2.999  11.766  0.5048 -0.2846  1.9124
  839MPD2    N112340   1.834   2.498  11.812  0.2601 -0.1761  0.2491
  839MPD2    H712341   1.829   2.499  11.711 -3.3475 -0.5112  0.4433
  840MPD2     C12342   1.988   0.951  10.104 -0.2523 -0.3415 -0.3494
  840MPD2    C112343   1.941   0.953  10.238  0.0703  0.5404  0.0951
  840MPD2    C212344   1.993   1.041  10.334 -0.1165 -0.3634  0.3234
  840MPD2    C312345   2.093   1.130  10.294 -0.4976  0.4938  0.3279
  840MPD2    C412346   2.149   1.118  10.176  0.0128 -0.6165 -0.3047
  840MPD2    C512347   2.093   1.036  10.086  0.1708 -0.6053 -0.5526
  840MPD2     H12348   1.954   1.037  10.434 -1.1289  2.2528  0.0337
  840MPD2    H112349   2.234   1.177  10.142 -0.2913 -0.0167 -0.0157
  840MPD2    H212350   1.947   0.887  10.028 -2.1759 -1.4503  1.6339
  840MPD2    H312351   2.145   1.037   9.991  1.8218 -0.2129  0.3586
  840MPD2     N12352   2.158   1.227  10.371  0.0795  0.3185 -0.2447
  840MPD2    H512353   2.228   1.287  10.328 -0.3047  0.7429 -0.2862
  840MPD2    N112354   1.853   0.845  10.272 -0.1158 -0.6519  0.5150
  840MPD2    H712355   1.789   0.816  10.199 -0.8188  2.1688 -0.0262
  841MPD2     C12356   1.529   0.952  14.046  0.1694  0.2434 -0.2254
  841MPD2    C112357   1.614   0.864  14.115 -0.0743  0.4935  0.5308
  841MPD2    C212358   1.687   0.903  14.226  0.1186  0.3374 -0.7031
  841MPD2    C312359   1.696   1.034  14.253  0.1275  0.6875 -0.1849
  841MPD2    C412360   1.635   1.128  14.174 -0.3534 -0.1480  0.2558
  841MPD2    C512361   1.543   1.087  14.075  0.0145  0.2949  0.3295
  841MPD2     H12362   1.746   0.831  14.282 -1.1681 -0.6742 -0.6660
  841MPD2    H112363   1.650   1.233  14.198 -1.8174 -0.0093  0.6186
  841MPD2    H212364   1.470   0.923  13.959  0.6789 -0.2106 -0.4191
  841MPD2    H312365   1.495   1.158  14.009  0.0045  0.0628  0.0891
  841MPD2     N12366   1.782   1.064  14.364  0.2463  0.1183 -0.6598
  841MPD2    H512367   1.817   0.992  14.426  0.0743  0.8691  0.3189
  841MPD2    N112368   1.619   0.721  14.095  0.4764  0.1768  0.1604
  841MPD2    H712369   1.671   0.658  14.155 -0.4455  0.9252  1.7548
  842MPD2     C12370   1.781   1.914  16.578 -0.5157  0.6397 -0.2241
  842MPD2    C112371   1.648   1.922  16.588  0.0458 -0.1389  0.2280
  842MPD2    C212372   1.583   1.832  16.675 -0.0449  0.0043 -0.4205
  842MPD2    C312373   1.645   1.747  16.761 -0.5447  0.0863  0.0282
  842MPD2    C412374   1.781   1.746  16.753  0.1105  0.4315  0.7094
  842MPD2    C512375   1.850   1.824  16.660  0.3293  0.3821 -0.8159
  842MPD2     H12376   1.477   1.854  16.682  0.1648 -0.1985  3.3008
  842MPD2    H112377   1.839   1.674  16.809 -1.5150 -0.4409  1.2764
  842MPD2    H212378   1.840   1.965  16.503 -2.1626  2.8963  0.0182
  842MPD2    H312379   1.955   1.804  16.639  0.2886  1.4596 -1.9765
  842MPD2     N12380   1.578   1.684  16.873  0.0035  0.5728  0.6875
  842MPD2    H512381   1.628   1.647  16.953  0.9568  1.5062  0.5224
  842MPD2    N112382   1.579   2.022  16.515 -0.2080 -0.2674 -0.1598
  842MPD2    H712383   1.636   2.094  16.470 -0.5182  0.4805  0.6480
  843MPD2     C12384   3.454   2.291   0.078  0.7838 -0.2838 -0.3189
  843MPD2    C112385   3.519   2.186   0.020 -0.2770 -0.3674 -0.0602
  843MPD2    C212386   3.662   2.176   0.034 -0.0507 -0.6229  0.2547
  843MPD2    C312387   3.732   2.276   0.101 -0.3676 -0.0090 -0.0429
  843MPD2    C412388   3.663   2.391   0.138  0.0981 -0.4275  0.1231
  843MPD2    C512389   3.524   2.393   0.140 -1.0576 -0.1420  0.2957
  843MPD2     H12390   3.714   2.085   0.005  1.4357  0.2958  0.0316
  843MPD2    H112391   3.710   2.469   0.197 -0.3985  1.2877 -1.7740
  843MPD2    H212392   3.346   2.299   0.079  0.7024 -1.2827 -1.0199
  843MPD2    H312393   3.466   2.471   0.189 -0.4087  0.9701 -0.6941
  843MPD2     N12394   3.871   2.274   0.141  0.6499  0.0410 -0.1908
  843MPD2    H512395   3.897   2.341   0.212  0.6116  0.9312 -1.0075
  843MPD2    N112396   3.442   2.080  17.673  0.3437 -0.3757 -0.5815
  843MPD2    H712397   3.345   2.076   0.010  0.4475 -2.3942 -0.5227
  844MPD2     C12398   2.489   1.555  16.232 -0.3609 -0.3965 -0.6416
  844MPD2    C112399   2.525   1.424  16.241  0.1555  0.2586  0.2210
  844MPD2    C212400   2.615   1.391  16.342  0.2000  0.1534 -0.0213
  844MPD2    C312401   2.657   1.492  16.430  0.6635 -0.0556  0.7442
  844MPD2    C412402   2.622   1.626  16.405 -0.0090  0.6960 -0.3858
  844MPD2    C512403   2.534   1.654  16.306 -0.1140  0.0904  0.0763
  844MPD2     H12404   2.645   1.288  16.358  1.9448  0.1382 -3.2409
  844MPD2    H112405   2.656   1.712  16.462  0.0421  1.0804 -1.0033
  844MPD2    H212406   2.424   1.592  16.154 -2.0474 -0.1122  0.9066
  844MPD2    H312407   2.499   1.755  16.288  0.6064  0.0619 -1.5039
  844MPD2     N12408   2.752   1.457  16.539  0.0503  0.3556  0.0383
  844MPD2    H512409   2.778   1.359  16.541 -3.0263 -0.4447  0.8499
  844MPD2    N112410   2.464   1.336  16.149 -0.1692  0.0686 -0.1618
  844MPD2    H712411   2.404   1.383  16.082 -0.3109  0.0202 -0.0708
  845MPD2     C12412   3.381   2.114  16.915  1.2311 -0.2114 -0.4315
  845MPD2    C112413   3.253   2.120  16.965  0.0415 -0.2286 -0.0038
  845MPD2    C212414   3.181   2.002  16.966  0.5576  0.1501  0.4355
  845MPD2    C312415   3.241   1.885  16.916  0.0978  0.1516  0.1870
  845MPD2    C412416   3.373   1.883  16.892  0.2863  0.1807  0.6028
  845MPD2    C512417   3.443   1.999  16.890  0.2386 -1.0375 -0.0625
  845MPD2     H12418   3.078   2.002  16.997  0.3348 -1.0976 -0.2745
  845MPD2    H112419   3.406   1.800  16.831  0.8192 -1.1727  2.7547
  845MPD2    H212420   3.447   2.200  16.917  1.3964 -0.3760  1.9600
  845MPD2    H312421   3.547   2.006  16.860  0.4354  0.9401  1.0328
  845MPD2     N12422   3.151   1.768  16.912  0.3076 -0.4023  0.4716
  845MPD2    H512423   3.054   1.784  16.937  1.6098  2.4207  3.7627
  845MPD2    N112424   3.190   2.242  17.011  0.2439 -0.8997  0.1698
  845MPD2    H712425   3.237   2.330  16.994  0.1357 -0.9196 -0.2447
  846MPD2     C12426   4.011   2.520  13.361 -0.0120  0.1282  0.1140
  846MPD2    C112427   4.102   2.497  13.458  0.2295  0.4882  0.1254
  846MPD2    C212428   4.063   2.510  13.590  0.1460  0.2855 -0.1823
  846MPD2    C312429   3.929   2.538  13.620 -0.4897 -0.0255 -0.4595
  846MPD2    C412430   3.841   2.570  13.520 -0.1817  0.1891  0.6272
  846MPD2    C512431   3.879   2.546  13.388 -0.3628  0.3629 -0.7935
  846MPD2     H12432   4.139   2.483  13.663 -3.7257 -3.9169  2.2681
  846MPD2    H112433   3.736   2.592  13.540 -0.2771  1.0777 -0.8345
  846MPD2    H212434   4.030   2.503  13.256  2.7917 -1.3459  0.8639
  846MPD2    H312435   3.809   2.552  13.306  0.3192  0.6629 -1.3476
  846MPD2     N12436   3.890   2.513  13.752  0.4845 -0.4047  0.0544
  846MPD2    H512437   3.964   2.498  13.820  0.9159 -2.0157 -0.7801
  846MPD2    N112438   4.233   2.454  13.422  0.4632  0.3667 -0.2017
  846MPD2    H712439   4.314   2.453  13.484  0.0497 -1.7668  0.2876
  847MPD2     C12440   4.143   3.601  13.485 -0.0663 -0.5792 -0.1934
  847MPD2    C112441   4.170   3.574  13.621  0.5818 -0.3432  0.1600
  847MPD2    C212442   4.208   3.446  13.657  0.6979  0.3207 -0.0001
  847MPD2    C312443   4.247   3.360  13.555 -0.0809  0.1140  0.3122
  847MPD2    C412444   4.221   3.385  13.422 -0.8970  0.7585  0.0958
  847MPD2    C512445   4.171   3.505  13.392  0.7540 -0.2081 -0.3819
  847MPD2     H12446   4.245   3.418  13.755  1.7674  0.4766 -0.3603
  847MPD2    H112447   4.252   3.319  13.341 -2.7971  0.6011 -0.5090
  847MPD2    H212448   4.128   3.700  13.445  1.6588 -0.5129 -0.7085
  847MPD2    H312449   4.157   3.520  13.285 -2.3965  0.6047  0.1329
  847MPD2     N12450   4.320   3.234  13.580 -0.1422  0.4983 -0.6111
  847MPD2    H512451   4.380   3.206  13.503 -1.0361 -2.2770 -0.2828
  847MPD2    N112452   4.148   3.667  13.725  0.2057 -0.6743  0.2907
  847MPD2    H712453   4.170   3.623  13.814  2.3607 -1.3527 -0.5868
  848MPD2     C12454   2.373   2.097  16.259 -0.2699  0.3702 -0.3003
  848MPD2    C112455   2.367   2.118  16.394  0.4747  0.0768  0.4795
  848MPD2    C212456   2.359   2.250  16.441  0.4257 -0.1750  0.9269
  848MPD2    C312457   2.346   2.361  16.358 -0.0948 -0.0404 -0.0253
  848MPD2    C412458   2.347   2.334  16.222  0.2437  0.2613 -0.0545
  848MPD2    C512459   2.360   2.204  16.173 -0.2552  0.2512 -0.3692
  848MPD2     H12460   2.379   2.260  16.547  0.6023  1.3234  0.7586
  848MPD2    H112461   2.330   2.412  16.149 -0.8511  1.2371  1.2577
  848MPD2    H212462   2.398   1.999  16.220  4.5098  1.2049  0.5890
  848MPD2    H312463   2.363   2.192  16.065 -1.3000  1.2942 -0.5160
  848MPD2     N12464   2.322   2.493  16.400  0.0613 -0.2124 -0.1236
  848MPD2    H512465   2.312   2.568  16.333 -0.0518  0.5150  0.7061
  848MPD2    N112466   2.365   2.014  16.490 -0.2328  0.4178  0.2428
  848MPD2    H712467   2.379   2.045  16.585  2.3829  1.0245 -0.3447
  849MPD2     C12468   1.702   1.598  14.346 -0.6189 -0.1168  0.5811
  849MPD2    C112469   1.774   1.704  14.287  0.7160 -0.1925 -0.4114
  849MPD2    C212470   1.880   1.753  14.359  0.5711  0.4702 -0.4064
  849MPD2    C312471   1.906   1.703  14.481 -0.1331 -0.1569  0.4981
  849MPD2    C412472   1.842   1.587  14.528 -0.0212  0.5930 -0.0099
  849MPD2    C512473   1.732   1.538  14.462 -0.2418  1.3340 -0.0085
  849MPD2     H12474   1.935   1.843  14.334 -0.9170  1.7380  0.8873
  849MPD2    H112475   1.868   1.547  14.625 -1.0266 -2.4558 -1.0003
  849MPD2    H212476   1.616   1.565  14.289 -0.3647 -1.6043  1.0586
  849MPD2    H312477   1.682   1.453  14.509  1.2408  0.9561  0.8750
  849MPD2     N12478   2.027   1.733  14.552  0.3866  0.2114 -0.5116
  849MPD2    H512479   2.064   1.655  14.604  0.6177  1.4220  1.1477
  849MPD2    N112480   1.744   1.740  14.150  0.2499 -0.9677 -0.4542
  849MPD2    H712481   1.677   1.694  14.090  1.1466 -2.4573 -0.3064
  850MPD2     C12482   3.945   4.420  14.783  0.7910  0.5319 -0.3141
  850MPD2    C112483   3.949   4.457  14.917  0.0669 -0.1912  0.0536
  850MPD2    C212484   4.067   4.469  14.984  0.0033 -0.1755  0.3678
  850MPD2    C312485   4.186   4.441  14.915 -0.8841 -0.3654 -0.2056
  850MPD2    C412486   4.184   4.412  14.786 -0.5991  0.4006 -0.5288
  850MPD2    C512487   4.067   4.405  14.722 -0.1779  0.5220  0.2474
  850MPD2     H12488   4.081   4.501  15.086 -0.5905 -0.3075  0.4880
  850MPD2    H112489   4.277   4.393  14.733 -0.8866 -2.8267  0.0989
  850MPD2    H212490   3.852   4.402  14.730 -0.1477 -0.0312  1.5482
  850MPD2    H312491   4.068   4.382  14.616  1.3875  0.4792  0.2672
  850MPD2     N12492   4.309   4.454  14.985 -0.0653 -0.2707  0.3560
  850MPD2    H512493   4.399   4.441  14.938  0.6740  0.2864  1.6163
  850MPD2    N112494   3.822   4.480  14.979 -0.0727  0.0892 -0.5326
  850MPD2    H712495   3.747   4.491  14.910 -1.1160  1.4101  0.8000
  851MPD2     C12496   4.463   4.206  15.359 -0.3966 -0.1672  0.4084
  851MPD2    C112497   4.343   4.163  15.311  0.4618  0.4672  0.6238
  851MPD2    C212498   4.352   4.059  15.226  0.0366  0.0291  0.0427
  851MPD2    C312499   4.470   4.010  15.178  0.1642  0.1717  0.3245
  851MPD2    C412500   4.590   4.060  15.225  0.2952  0.1389 -0.3071
  851MPD2    C512501   4.585   4.157  15.319  0.5732  0.3517 -0.2884
  851MPD2     H12502   4.263   4.011  15.187  1.0504  0.4698 -2.8223
  851MPD2    H112503   4.686   4.017  15.201  0.7766  0.4853  0.9590
  851MPD2    H212504   4.477   4.294  15.420  3.4853 -0.2174 -0.4414
  851MPD2    H312505   4.677   4.200  15.357 -1.2950  2.9003  1.4088
  851MPD2     N12506   4.465   3.902  15.079 -0.2707  0.3496 -0.4892
  851MPD2    H512507   4.373   3.871  15.049  0.5146 -1.8202 -0.6249
  851MPD2    N112508   4.223   4.234  15.347  0.0543  0.1805 -0.5146
  851MPD2    H712509   4.236   4.328  15.384  2.1690 -0.4993  0.4459
  852MPD2     C12510   3.959   2.321   9.627 -0.8199  0.1630  1.1933
  852MPD2    C112511   3.992   2.387   9.748  0.3939 -0.2602  0.3269
  852MPD2    C212512   4.110   2.471   9.762  0.4225 -0.4654 -0.2241
  852MPD2    C312513   4.198   2.467   9.650  0.7935  0.3699  0.4096
  852MPD2    C412514   4.161   2.402   9.531  0.1009 -0.0583  0.1402
  852MPD2    C512515   4.045   2.340   9.519 -0.3957 -0.2807 -0.3608
  852MPD2     H12516   4.142   2.520   9.853  0.8143 -1.4473  0.1638
  852MPD2    H112517   4.225   2.398   9.444  2.1254 -2.4083  1.7414
  852MPD2    H212518   3.863   2.274   9.612 -0.6354  0.4123 -0.7778
  852MPD2    H312519   4.011   2.296   9.425  1.3128 -0.1129 -1.0501
  852MPD2     N12520   4.327   2.524   9.665  1.0171  0.0532 -0.1113
  852MPD2    H512521   4.346   2.560   9.758  0.1262  1.0051 -0.3061
  852MPD2    N112522   3.915   2.373   9.861 -0.3399 -0.3307 -0.0592
  852MPD2    H712523   3.939   2.434   9.938 -3.0226  0.9111 -0.2079
  853MPD2     C12524   1.585   1.417  12.230  0.4314 -0.0075  0.1192
  853MPD2    C112525   1.574   1.549  12.184 -0.4396 -0.0080 -0.5120
  853MPD2    C212526   1.607   1.583  12.055  0.5121 -0.7597 -0.0754
  853MPD2    C312527   1.628   1.481  11.963 -0.5540 -0.0690 -0.0477
  853MPD2    C412528   1.624   1.348  11.999  0.0225  0.2746 -0.2492
  853MPD2    C512529   1.611   1.319  12.136  0.2423 -0.5153 -0.4053
  853MPD2     H12530   1.618   1.683  12.016 -1.4421 -0.4353  0.1843
  853MPD2    H112531   1.650   1.274  11.923  0.8945 -1.4364  1.7275
  853MPD2    H212532   1.563   1.376  12.328  3.7767  2.4751  1.9107
  853MPD2    H312533   1.625   1.218  12.174 -1.6771 -0.7433 -0.2913
  853MPD2     N12534   1.661   1.507  11.826 -0.5539 -0.6268  0.4883
  853MPD2    H512535   1.675   1.429  11.763 -2.0721  0.1472 -0.7975
  853MPD2    N112536   1.553   1.643  12.288 -0.1682  0.0463  0.1808
  853MPD2    H712537   1.548   1.605  12.382 -0.4766  0.1326  0.1981
  854MPD2     C12538   3.610   2.294  12.509  0.1642  0.0837 -0.1224
  854MPD2    C112539   3.496   2.231  12.570 -0.7938  0.2669 -0.0180
  854MPD2    C212540   3.514   2.131  12.667  0.3311  0.5071  0.0710
  854MPD2    C312541   3.642   2.111  12.719 -0.8964  0.2740  0.3614
  854MPD2    C412542   3.750   2.163  12.651 -0.4984  0.1730 -0.9260
  854MPD2    C512543   3.735   2.262  12.547 -0.0530 -0.5409 -0.4756
  854MPD2     H12544   3.432   2.074  12.709  0.2881  0.5920  0.1031
  854MPD2    H112545   3.847   2.131  12.685 -1.5757  1.2157  3.2161
  854MPD2    H212546   3.585   2.364  12.431  2.1769  2.9386  1.7884
  854MPD2    H312547   3.822   2.297  12.493 -0.4254  1.8381  0.4428
  854MPD2     N12548   3.669   2.017  12.821 -0.1790 -0.4599  0.7189
  854MPD2    H512549   3.770   2.004  12.828 -0.0524 -0.5407 -1.3641
  854MPD2    N112550   3.371   2.275  12.521 -0.1782  0.3321  0.1545
  854MPD2    H712551   3.384   2.341  12.445 -3.6790 -1.3111 -1.8738
  855MPD2     C12552   3.078   1.865  13.474  0.1243 -0.0628 -0.2948
  855MPD2    C112553   3.181   1.815  13.547 -0.2769 -0.1988 -0.7316
  855MPD2    C212554   3.306   1.865  13.527  0.7782  0.4557  0.4680
  855MPD2    C312555   3.329   1.959  13.425 -1.0711 -0.0678 -0.7125
  855MPD2    C412556   3.220   2.022  13.373  0.1190 -0.2130 -0.0699
  855MPD2    C512557   3.090   1.975  13.395 -0.1754  0.3989 -0.7179
  855MPD2     H12558   3.395   1.822  13.572 -0.8926 -3.0574  0.3961
  855MPD2    H112559   3.238   2.103  13.303 -2.1651 -0.6972 -1.1967
  855MPD2    H212560   2.981   1.818  13.488 -0.5220  1.5584  0.7380
  855MPD2    H312561   3.005   2.026  13.352 -0.2052  1.1430  0.2218
  855MPD2     N12562   3.456   1.984  13.364 -0.2270 -0.3930  0.1725
  855MPD2    H512563   3.456   2.035  13.276 -4.0452 -1.5174 -0.4662
  855MPD2    N112564   3.169   1.695  13.625  0.3310  0.9177 -0.3095
  855MPD2    H712565   3.263   1.672  13.656 -0.2659  0.2985  1.0265
  856MPD2     C12566   1.234   2.484  13.483  0.1122  0.2611  0.5107
  856MPD2    C112567   1.249   2.605  13.535  0.3083  0.3802  0.4668
  856MPD2    C212568   1.139   2.667  13.594 -0.3163  0.4153  0.0914
  856MPD2    C312569   1.012   2.607  13.592  0.4730  0.1424  0.4770
  856MPD2    C412570   0.997   2.484  13.539  0.3028 -0.2986 -0.1907
  856MPD2    C512571   1.109   2.423  13.487 -0.1605 -0.3502  0.5706
  856MPD2     H12572   1.145   2.765  13.639 -0.9742 -0.8882  2.9658
  856MPD2    H112573   0.902   2.433  13.550  1.6375 -2.7664 -0.1396
  856MPD2    H212574   1.319   2.440  13.432 -0.7240  0.6823 -1.2477
  856MPD2    H312575   1.090   2.322  13.453 -0.0888 -0.6629  1.4453
  856MPD2     N12576   0.897   2.670  13.654 -0.6199 -0.2305 -0.1246
  856MPD2    H512577   0.809   2.620  13.653 -0.0923 -1.0870 -3.1659
  856MPD2    N112578   1.363   2.674  13.540 -0.2850  0.1085 -0.6982
  856MPD2    H712579   1.359   2.769  13.577 -3.8876 -0.1820 -0.3496
  857MPD2     C12580   2.303   0.370  12.250  0.5490 -0.1332  0.0954
  857MPD2    C112581   2.327   0.314  12.375  0.6890 -0.3917  0.0452
  857MPD2    C212582   2.346   0.396  12.483 -1.1436  0.1513 -0.3350
  857MPD2    C312583   2.362   0.533  12.462  0.1841  0.6764 -0.1922
  857MPD2    C412584   2.352   0.586  12.335  0.4001  0.7178 -0.9456
  857MPD2    C512585   2.321   0.501  12.233  0.1999  0.6594  0.4049
  857MPD2     H12586   2.351   0.346  12.579 -0.7688 -0.1188 -0.4937
  857MPD2    H112587   2.364   0.693  12.325 -1.6173  1.1019  0.7819
  857MPD2    H212588   2.283   0.308  12.163  1.4474 -0.8674  0.4078
  857MPD2    H312589   2.317   0.545  12.134  1.3757  3.6739  1.6836
  857MPD2     N12590   2.400   0.602  12.578 -0.7410  0.5148 -0.5690
  857MPD2    H512591   2.411   0.545  12.661 -1.0831  0.9949 -0.1844
  857MPD2    N112592   2.342   0.174  12.375  0.0419  0.2196  0.1806
  857MPD2    H712593   2.330   0.130  12.285 -0.1569  0.6243  0.0081
  858MPD2     C12594   2.702   4.402  16.604  0.1026  0.5867 -0.3532
  858MPD2    C112595   2.814   4.334  16.648 -0.2869 -0.1013 -0.4471
  858MPD2    C212596   2.858   4.367  16.778  0.3158 -0.3387  0.1792
  858MPD2    C312597   2.798   4.473  16.855  0.1082  0.0941 -0.4762
  858MPD2    C412598   2.679   4.525  16.805  0.2935  0.2020 -0.2815
  858MPD2    C512599   2.634   4.483  16.686 -0.4459 -0.4061 -0.1814
  858MPD2     H12600   2.952   4.325  16.811  1.1617  0.5439 -1.1088
  858MPD2    H112601   2.622   4.596  16.863 -0.9820  0.2602 -1.6014
  858MPD2    H212602   2.654   4.388  16.508  1.1916  2.5126 -1.1758
  858MPD2    H312603   2.537   4.525  16.663 -0.0957 -0.6055 -1.9942
  858MPD2     N12604   2.850   4.513  16.979 -0.0039  0.0789 -0.5173
  858MPD2    H512605   2.794   4.589  17.018  0.2216 -1.2428  2.4179
  858MPD2    N112606   2.893   4.244  16.566  0.1045 -0.5611  0.6359
  858MPD2    H712607   2.976   4.205  16.609  0.9942  0.1055 -0.4946
  859MPD2     C12608   1.597   2.040  15.632  0.2992  0.0432 -0.0984
  859MPD2    C112609   1.565   1.984  15.507  0.7182  0.2024 -0.0196
  859MPD2    C212610   1.507   1.858  15.500  0.4994  0.3272  0.3384
  859MPD2    C312611   1.481   1.788  15.615  0.0200 -0.6106 -0.4688
  859MPD2    C412612   1.521   1.845  15.735 -0.5718  0.2913 -0.1180
  859MPD2    C512613   1.579   1.966  15.746 -0.9561 -0.2749  1.3635
  859MPD2     H12614   1.487   1.816  15.402 -0.5242  2.4244 -0.3500
  859MPD2    H112615   1.516   1.788  15.827 -0.1647  1.2439  0.4992
  859MPD2    H212616   1.647   2.136  15.646  1.1746 -0.3735 -0.3764
  859MPD2    H312617   1.607   2.008  15.842 -2.2192  0.1506  1.5457
  859MPD2     N12618   1.438   1.651  15.609 -0.1135 -0.0421 -0.0365
  859MPD2    H512619   1.397   1.609  15.692  0.1649  1.7187  0.9933
  859MPD2    N112620   1.597   2.060  15.394 -0.3238 -0.8215 -0.4056
  859MPD2    H712621   1.658   2.139  15.413 -2.0072  0.5960 -0.9431
  860MPD2     C12622   0.200   1.186  12.417 -0.4409  0.4222  0.0477
  860MPD2    C112623   0.114   1.235  12.319 -0.0781  0.5546 -1.0005
  860MPD2    C212624   4.708   1.193  12.316  0.6762 -0.0323 -0.4121
  860MPD2    C312625   4.659   1.096  12.406 -0.3048  0.2255  0.8064
  860MPD2    C412626   0.022   1.055  12.505  0.4269  0.0974 -0.6552
  860MPD2    C512627   0.147   1.100  12.508  0.2866  0.2192 -0.2965
  860MPD2     H12628   4.632   1.221  12.245  1.5580 -0.4651 -1.5167
  860MPD2    H112629   4.707   0.987  12.581  0.6411  0.0770 -0.5664
  860MPD2    H212630   0.301   1.222  12.429  0.3916 -1.7483 -0.4504
  860MPD2    H312631   0.219   1.066  12.582 -0.4432 -1.0727 -0.1771
  860MPD2     N12632   4.526   1.057  12.391 -0.0482 -0.1311  0.4395
  860MPD2    H512633   4.483   1.095  12.307 -0.1946 -0.6675  0.2744
  860MPD2    N112634   0.151   1.330  12.220 -0.0118  0.2609 -0.1907
  860MPD2    H712635   0.081   1.360  12.153  0.6731  1.1504 -0.5028
  861MPD2     C12636   3.122   0.172  10.959 -0.5533 -0.0899 -0.1581
  861MPD2    C112637   3.054   0.273  11.029 -0.1282 -0.0466 -0.2420
  861MPD2    C212638   2.955   0.345  10.964 -0.3676 -0.4700 -0.6196
  861MPD2    C312639   2.928   0.321  10.831  0.2073 -0.6788 -0.2824
  861MPD2    C412640   2.990   0.224  10.767 -0.4318 -0.1193 -0.0642
  861MPD2    C512641   3.088   0.150  10.827 -0.0584  0.0968  0.4061
  861MPD2     H12642   2.903   0.415  11.028  1.1728 -0.3797  0.5543
  861MPD2    H112643   2.970   0.195  10.664 -0.2065 -1.9642  0.4213
  861MPD2    H212644   3.193   0.104  11.005 -2.2874 -1.0519  1.0990
  861MPD2    H312645   3.136   0.063  10.784  0.3237  1.0560 -1.0832
  861MPD2     N12646   2.856   0.415  10.754 -0.2451 -0.3357  0.5694
  861MPD2    H512647   2.854   0.397  10.654 -0.6520  1.4041  0.2578
  861MPD2    N112648   3.090   0.311  11.168  0.2735 -0.0292  0.3868
  861MPD2    H712649   3.019   0.365  11.217 -0.2381  0.4321 -0.8526
  862MPD2     C12650   2.352   0.407  10.243 -0.4739 -0.1053  0.0486
  862MPD2    C112651   2.425   0.380  10.358  0.4194  0.1017 -0.1999
  862MPD2    C212652   2.424   0.251  10.407 -0.4277 -0.5877 -0.2444
  862MPD2    C312653   2.355   0.159  10.329  1.0244 -0.1237 -0.1103
  862MPD2    C412654   2.272   0.187  10.222 -0.0840  0.3013  0.2510
  862MPD2    C512655   2.271   0.315  10.182 -0.3566 -0.3813 -0.0999
  862MPD2     H12656   2.490   0.218  10.486  0.3142 -0.6785 -0.9057
  862MPD2    H112657   2.212   0.114  10.170 -0.2408  0.3695  0.3341
  862MPD2    H212658   2.358   0.506  10.200  0.6549  1.0245  2.8171
  862MPD2    H312659   2.207   0.350  10.102  0.1485 -2.6514 -1.4946
  862MPD2     N12660   2.363   0.019  10.361  0.1332 -0.3017  0.2665
  862MPD2    H512661   2.325   4.678  10.292 -2.6481  1.6838 -0.0629
  862MPD2    N112662   2.498   0.465  10.439 -0.0695  0.1108  0.0569
  862MPD2    H712663   2.531   0.421  10.524 -2.2066  2.2756  2.0192
  863MPD2     C12664   1.388   2.785  16.999 -0.7131  0.3107 -0.3154
  863MPD2    C112665   1.422   2.913  17.032 -0.2101 -0.2845 -0.4128
  863MPD2    C212666   1.542   2.942  17.087 -0.4349 -0.0841 -0.1243
  863MPD2    C312667   1.638   2.838  17.111  0.9599  0.0448 -0.1299
  863MPD2    C412668   1.598   2.706  17.088  0.3855  0.4365  0.7145
  863MPD2    C512669   1.468   2.681  17.036  0.4073  0.1952 -0.2516
  863MPD2     H12670   1.564   3.048  17.094  2.4542 -0.6222 -1.2800
  863MPD2    H112671   1.665   2.625  17.113  0.9265  0.8666  0.6615
  863MPD2    H212672   1.289   2.763  16.960 -0.2020  0.5767 -1.7465
  863MPD2    H312673   1.438   2.578  17.024 -0.5848  0.4116  0.3781
  863MPD2     N12674   1.763   2.867  17.168  0.1351 -0.5101 -0.4133
  863MPD2    H512675   1.828   2.792  17.187  1.7899  1.4516  1.6333
  863MPD2    N112676   1.328   3.014  16.995 -0.0516 -0.6097  0.5664
  863MPD2    H712677   1.247   2.986  16.939  0.4776 -0.9687 -0.0233
  864MPD2     C12678   1.766   3.942  17.544 -0.3921  0.5908 -0.6558
  864MPD2    C112679   1.854   3.926  17.445  0.3406  0.0555 -0.3710
  864MPD2    C212680   1.899   4.039  17.373  1.0927 -0.1167  0.0630
  864MPD2    C312681   1.852   4.165  17.404 -0.0011 -0.6661  0.5234
  864MPD2    C412682   1.780   4.177  17.515  0.2675 -0.2085 -0.2167
  864MPD2    C512683   1.724   4.066  17.568 -0.3701 -0.5603  0.4775
  864MPD2     H12684   1.968   4.019  17.292 -0.3020  1.4561 -1.4867
  864MPD2    H112685   1.733   4.271  17.542  0.3387 -0.6981  1.6096
  864MPD2    H212686   1.728   3.867  17.613 -0.6755  0.3795 -1.0415
  864MPD2    H312687   1.642   4.076  17.639 -2.0650  3.3244 -2.0389
  864MPD2     N12688   1.871   4.291  17.331  0.5703  0.1519 -0.4574
  864MPD2    H512689   1.834   4.377  17.368 -1.4149 -0.2358 -1.5393
  864MPD2    N112690   1.881   3.793  17.417 -0.1770 -0.0344  0.1487
  864MPD2    H712691   1.846   3.734  17.492 -0.9727  0.2317 -0.0116
  865MPD2     C12692   1.502   4.352  16.887 -0.2261  0.2427  0.5752
  865MPD2    C112693   1.627   4.408  16.860 -0.4190 -0.0969 -0.4518
  865MPD2    C212694   1.673   4.515  16.929 -0.3864 -0.5871 -0.0473
  865MPD2    C312695   1.594   4.563  17.039 -0.2443  0.9195  0.4848
  865MPD2    C412696   1.475   4.505  17.068  0.0499  0.0975  0.7351
  865MPD2    C512697   1.430   4.396  16.996  0.0560  0.0559  0.2650
  865MPD2     H12698   1.769   4.561  16.909 -0.1027 -0.3213  1.9378
  865MPD2    H112699   1.422   4.542  17.155  0.7053  0.9310  0.7767
  865MPD2    H212700   1.461   4.267  16.834 -0.4708 -0.2856  1.6034
  865MPD2    H312701   1.339   4.347  17.028  0.7471 -1.3576  0.0480
  865MPD2     N12702   1.629   4.677  17.116 -0.1811  0.3473 -0.0749
  865MPD2    H512703   1.550   0.000  17.159  0.2093 -0.9108  2.0251
  865MPD2    N112704   1.704   4.351  16.761 -0.7399  0.8050  0.4572
  865MPD2    H712705   1.673   4.270  16.709  0.0287  0.0903  1.1277
  866MPD2     C12706   3.816   0.495  11.424  0.5558  1.1315  0.2561
  866MPD2    C112707   3.778   0.428  11.309  0.3333 -1.0711  0.1060
  866MPD2    C212708   3.655   0.456  11.254 -0.0856  0.5359  0.1262
  866MPD2    C312709   3.562   0.533  11.320  0.2645  0.0224  0.2053
  866MPD2    C412710   3.593   0.588  11.439 -0.3618 -0.3032 -0.0292
  866MPD2    C512711   3.722   0.572  11.488  0.1353  0.0055 -0.6020
  866MPD2     H12712   3.624   0.400  11.166 -0.5656 -1.9553  1.8849
  866MPD2    H112713   3.513   0.636  11.495  1.4403  0.5837  1.7887
  866MPD2    H212714   3.913   0.481  11.472 -0.1375 -0.1825  1.2610
  866MPD2    H312715   3.741   0.621  11.583  2.3576  0.1117 -1.1021
  866MPD2     N12716   3.432   0.569  11.272 -0.7156  0.6198  0.0574
  866MPD2    H512717   3.377   0.618  11.342 -0.5118  0.4372  0.3496
  866MPD2    N112718   3.870   0.341  11.251  0.7062  0.0871 -0.3329
  866MPD2    H712719   3.969   0.354  11.271  0.7800 -0.7004 -0.2201
  867MPD2     C12720   0.002   4.150  16.828  0.7518 -0.8287 -0.4752
  867MPD2    C112721   0.089   4.079  16.909  0.2436  0.1418  0.2171
  867MPD2    C212722   0.068   4.068  17.046  0.4619 -0.2598 -0.3396
  867MPD2    C312723   4.689   4.144  17.104  0.2381  0.2579  0.7724
  867MPD2    C412724   4.599   4.212  17.024  0.0202 -0.8160  0.6828
  867MPD2    C512725   4.620   4.215  16.889  0.1514  0.0937 -0.0981
  867MPD2     H12726   0.144   4.018  17.106  0.9202  0.5248 -0.2684
  867MPD2    H112727   4.511   4.260  17.066 -0.3140 -0.7447 -0.0858
  867MPD2    H212728   0.019   4.165  16.722 -0.1809 -0.0830 -0.5228
  867MPD2    H312729   4.548   4.254  16.818 -1.5863 -1.9191  0.5631
  867MPD2     N12730   4.662   4.147  17.241 -0.4906 -0.1995 -0.0285
  867MPD2    H512731   4.581   4.201  17.268 -0.9731 -1.4602  1.0060
  867MPD2    N112732   0.212   4.032  16.835  0.8568  0.4581 -0.0784
  867MPD2    H712733   0.207   4.030  16.733  0.2748 -0.0625 -0.0323
  868MPD2     C12734   2.604   3.338  12.682 -0.4482 -0.8863  0.2690
  868MPD2    C112735   2.654   3.244  12.777 -0.2390  0.0345 -0.0724
  868MPD2    C212736   2.624   3.265  12.908  0.5061 -0.6612 -0.1022
  868MPD2    C312737   2.554   3.365  12.949 -0.5935  0.1976 -0.1094
  868MPD2    C412738   2.514   3.461  12.862  0.1333 -0.2876  0.0569
  868MPD2    C512739   2.531   3.442  12.729 -0.1628  0.0802 -0.4651
  868MPD2     H12740   2.677   3.195  12.971 -1.5274 -1.5767  0.6170
  868MPD2    H112741   2.448   3.540  12.896 -1.3631 -1.4132 -0.2205
  868MPD2    H212742   2.621   3.336  12.575  0.0546 -2.4948  0.3800
  868MPD2    H312743   2.491   3.520  12.665  0.6201  1.7975  1.1174
  868MPD2     N12744   2.517   3.354  13.089 -0.9816  0.7620  0.3449
  868MPD2    H512745   2.532   3.262  13.130 -0.8840 -0.3376 -2.1594
  868MPD2    N112746   2.750   3.142  12.739 -0.3887  0.3950  0.8115
  868MPD2    H712747   2.796   3.094  12.815  0.9697  1.0962  0.4330
  869MPD2     C12748   2.388   1.547   1.219  0.5367 -0.5274 -0.4810
  869MPD2    C112749   2.442   1.653   1.292  0.4243 -0.3409 -0.1887
  869MPD2    C212750   2.531   1.739   1.224 -0.2493 -0.2305 -0.1129
  869MPD2    C312751   2.559   1.723   1.092 -0.2454  0.0195 -0.1284
  869MPD2    C412752   2.509   1.612   1.023  0.1719  0.4085 -0.0469
  869MPD2    C512753   2.420   1.528   1.090  0.2714 -0.1382 -0.3599
  869MPD2     H12754   2.571   1.829   1.270 -2.6703  0.5256  0.5102
  869MPD2    H112755   2.538   1.584   0.922 -0.0162  2.2263 -0.6075
  869MPD2    H212756   2.321   1.476   1.267 -0.7040 -0.1835 -1.7040
  869MPD2    H312757   2.396   1.436   1.038 -0.2766  0.3585 -0.9920
  869MPD2     N12758   2.645   1.804   1.019 -0.4181  0.2978  0.1856
  869MPD2    H512759   2.665   1.784   0.921 -0.5126 -1.8103  0.6014
  869MPD2    N112760   2.404   1.658   1.428 -0.2118  0.4866  0.7922
  869MPD2    H712761   2.342   1.584   1.459 -0.1761 -0.3382 -1.1308
  870MPD2     C12762   1.944   0.548   1.219 -0.5065 -0.3385 -0.5110
  870MPD2    C112763   2.054   0.484   1.276 -0.4890 -0.0933  0.5425
  870MPD2    C212764   2.092   0.363   1.227  1.0549  0.0273  0.1872
  870MPD2    C312765   2.025   0.296   1.124  0.1019 -1.1076  0.7902
  870MPD2    C412766   1.918   0.359   1.060  0.3971 -0.4257 -0.0083
  870MPD2    C512767   1.886   0.485   1.111 -0.6294 -0.3762 -0.6299
  870MPD2     H12768   2.160   0.305   1.288  0.7769  0.6010  1.0301
  870MPD2    H112769   1.855   0.314   0.985  1.4553 -2.3188  0.2245
  870MPD2    H212770   1.912   0.642   1.261 -0.5285 -0.4105 -0.3655
  870MPD2    H312771   1.802   0.528   1.059 -0.2030  1.0278 -0.1453
  870MPD2     N12772   2.080   0.176   1.073 -0.2368 -0.2209  0.7025
  870MPD2    H512773   2.180   0.161   1.083  0.3600  1.7494 -2.1089
  870MPD2    N112774   2.122   0.538   1.392  0.0261 -1.0033  0.8392
  870MPD2    H712775   2.182   0.474   1.442 -0.2678 -0.1743  2.2521
  871MPD2     C12776   4.161   4.601  16.441 -0.3320 -0.2984  0.0398
  871MPD2    C112777   4.168   4.563  16.574 -0.2577  0.6458 -0.2525
  871MPD2    C212778   4.239   4.454  16.610  0.2559  0.0628 -0.0061
  871MPD2    C312779   4.303   4.380  16.514 -0.2557  0.3450 -0.3274
  871MPD2    C412780   4.291   4.414  16.381 -0.2636 -0.1104  0.7535
  871MPD2    C512781   4.221   4.525  16.346 -0.1536 -0.6345  0.6597
  871MPD2     H12782   4.246   4.421  16.713  2.8131  0.6954  0.0405
  871MPD2    H112783   4.325   4.354  16.297  0.4443  0.0247  0.9469
  871MPD2    H212784   4.111   4.691  16.409  0.6154  0.0646 -0.4321
  871MPD2    H312785   4.219   4.547  16.240 -0.9510 -1.5053  0.4863
  871MPD2     N12786   4.364   4.260  16.558 -0.2021 -0.1583 -0.0950
  871MPD2    H512787   4.336   4.237  16.653 -0.0398 -2.1634 -0.5217
  871MPD2    N112788   4.097   4.651  16.667 -0.9302  0.1868 -0.0850
  871MPD2    H712789   4.040   0.000  16.623  1.1096  1.2585 -0.9869
  872MPD2     C12790   0.506   2.276  13.574 -0.5747 -0.1224  0.3284
  872MPD2    C112791   0.571   2.193  13.656 -0.8170 -0.1878 -0.6044
  872MPD2    C212792   0.521   2.135  13.774 -1.2577 -0.2177 -0.3856
  872MPD2    C312793   0.402   2.193  13.824  0.1312 -0.6725  0.7447
  872MPD2    C412794   0.343   2.296  13.755 -0.5226 -0.0279  0.0971
  872MPD2    C512795   0.389   2.328  13.630  0.0426  0.1096 -0.2116
  872MPD2     H12796   0.582   2.071  13.837 -0.5019  0.1221 -0.7694
  872MPD2    H112797   0.254   2.350  13.785  1.8996  2.4411  2.7885
  872MPD2    H212798   0.540   2.307  13.476 -0.4468 -1.0934  0.0695
  872MPD2    H312799   0.344   2.410  13.575  1.9270 -0.3927 -2.5248
  872MPD2     N12800   0.335   2.158  13.942  0.3682  0.2860 -0.3103
  872MPD2    H512801   0.261   2.220  13.973  1.8163  1.3096  1.1192
  872MPD2    N112802   0.701   2.162  13.606  0.0617  0.0785 -0.2620
  872MPD2    H712803   0.718   2.195  13.511 -1.5541 -0.2820 -0.6725
  873MPD2     C12804   2.268   2.238   1.028  0.0870 -0.1552 -0.6612
  873MPD2    C112805   2.142   2.213   1.059  0.1125  0.3322 -0.4537
  873MPD2    C212806   2.092   2.092   1.056  0.0535 -0.0306  0.3683
  873MPD2    C312807   2.170   1.984   1.022  0.7622  0.4271  0.4158
  873MPD2    C412808   2.294   2.006   0.976  0.0711  0.3912  0.2305
  873MPD2    C512809   2.350   2.130   0.994  0.1691 -0.4469 -0.0512
  873MPD2     H12810   1.988   2.073   1.081 -0.7009  3.5038  0.0062
  873MPD2    H112811   2.361   1.921   0.969  1.3663  1.3578  0.8234
  873MPD2    H212812   2.299   2.341   1.044  1.4257 -0.7127  0.3322
  873MPD2    H312813   2.456   2.149   0.980 -0.4520  2.5379 -0.7172
  873MPD2     N12814   2.111   1.855   1.001 -0.4030 -0.1081  0.3457
  873MPD2    H512815   2.156   1.794   0.934  1.1299  1.6580 -0.2498
  873MPD2    N112816   2.062   2.329   1.090 -0.3272  0.0330  0.0467
  873MPD2    H712817   2.109   2.418   1.102 -0.0557  0.2334 -2.3946
  874MPD2     C12818   1.602   2.838  16.268  0.1825  0.0830 -0.2876
  874MPD2    C112819   1.644   2.727  16.340  0.3020  0.4693 -0.2701
  874MPD2    C212820   1.769   2.742  16.389  0.6512 -0.1634  0.0977
  874MPD2    C312821   1.859   2.844  16.367 -0.7260 -0.1180 -0.1540
  874MPD2    C412822   1.821   2.946  16.289 -0.0172  0.3180 -0.2315
  874MPD2    C512823   1.690   2.939  16.240  0.6207 -0.5803 -0.1939
  874MPD2     H12824   1.814   2.661  16.446  0.3880 -0.5356 -0.2241
  874MPD2    H112825   1.885   3.029  16.260 -0.1002 -0.3717 -2.4197
  874MPD2    H212826   1.506   2.842  16.218 -2.0193 -0.3771  3.9033
  874MPD2    H312827   1.641   3.011  16.175  0.9386  0.7780  1.0899
  874MPD2     N12828   1.995   2.833  16.413 -0.3693 -0.4274 -0.4027
  874MPD2    H512829   2.024   2.746  16.456  1.6193  0.9767  1.1434
  874MPD2    N112830   1.570   2.609  16.340  0.6037  0.0073 -0.0261
  874MPD2    H712831   1.481   2.604  16.291 -0.0200  0.1091  1.0819
  875MPD2     C12832   2.885   0.532  14.569 -0.0644  0.1771  0.3487
  875MPD2    C112833   2.766   0.592  14.615 -0.1521 -0.3262 -0.0877
  875MPD2    C212834   2.765   0.654  14.737 -0.1791  0.6503  0.7909
  875MPD2    C312835   2.882   0.666  14.808  0.1258 -0.3229  0.2457
  875MPD2    C412836   2.999   0.615  14.761 -0.0288 -0.0736  0.5457
  875MPD2    C512837   2.999   0.536  14.651  0.4670  0.1881  0.0272
  875MPD2     H12838   2.674   0.695  14.780 -0.3779  0.7611  0.2661
  875MPD2    H112839   3.088   0.629  14.821  0.7433 -0.2258 -0.5555
  875MPD2    H212840   2.881   0.465  14.484  3.9122  0.7956 -0.3140
  875MPD2    H312841   3.093   0.506  14.606  0.3377  0.3907 -0.3746
  875MPD2     N12842   2.900   0.726  14.942 -0.3812  0.0796  0.3588
  875MPD2    H512843   2.997   0.721  14.971  0.2986  0.8896 -1.7687
  875MPD2    N112844   2.637   0.582  14.550  0.4010 -0.3540  0.3715
  875MPD2    H712845   2.572   0.646  14.594  0.1069 -0.0894 -0.4404
  876MPD2     C12846   2.027   2.376  15.852  0.0330 -0.2584 -0.1267
  876MPD2    C112847   1.941   2.330  15.759 -0.2890  0.0244  0.1941
  876MPD2    C212848   1.909   2.197  15.750  0.2998  0.5393 -0.4493
  876MPD2    C312849   1.948   2.115  15.854 -0.2376  0.6554  0.1981
  876MPD2    C412850   2.029   2.164  15.953 -0.0171 -0.4810  0.0076
  876MPD2    C512851   2.078   2.285  15.946  0.4710  0.1566  0.5266
  876MPD2     H12852   1.851   2.158  15.667 -0.9773 -0.4428  0.8990
  876MPD2    H112853   2.074   2.112  16.037 -0.5361 -0.5633  0.2319
  876MPD2    H212854   2.044   2.482  15.847 -0.8725 -0.1128 -0.2278
  876MPD2    H312855   2.149   2.312  16.024 -1.4237  1.6186  1.7485
  876MPD2     N12856   1.902   1.976  15.855 -0.0378 -0.4689 -0.0727
  876MPD2    H512857   1.850   1.950  15.772  0.7786  0.1701 -0.7882
  876MPD2    N112858   1.891   2.423  15.662  0.9062  0.3125  0.1396
  876MPD2    H712859   1.915   2.520  15.680  1.0166  0.2477  0.3474
  877MPD2     C12860   1.546   2.523  14.877 -0.5107  0.4517 -0.3368
  877MPD2    C112861   1.638   2.621  14.923  0.1010 -0.3773  1.0139
  877MPD2    C212862   1.715   2.696  14.838  0.7097  0.1301  0.1698
  877MPD2    C312863   1.717   2.672  14.703 -0.0216 -0.7651 -0.2209
  877MPD2    C412864   1.642   2.570  14.656 -0.4586 -0.5470 -0.2258
  877MPD2    C512865   1.560   2.509  14.739  0.2938 -0.3498  0.1516
  877MPD2     H12866   1.776   2.774  14.883  2.5791 -1.1630 -0.1024
  877MPD2    H112867   1.650   2.536  14.554  2.0022  2.9006 -1.1886
  877MPD2    H212868   1.468   2.473  14.933  0.7092  0.2779  1.1987
  877MPD2    H312869   1.500   2.428  14.699  0.2827  0.4565 -1.4703
  877MPD2     N12870   1.807   2.747  14.622 -0.4644 -0.5617  0.4722
  877MPD2    H512871   1.814   2.727  14.523 -0.4921 -0.0037  0.3603
  877MPD2    N112872   1.668   2.650  15.058  0.0338 -0.4962 -0.2059
  877MPD2    H712873   1.753   2.704  15.076 -0.7302  0.9147 -0.8254
  878MPD2     C12874   1.644   1.352  13.249  0.1887 -0.7794 -0.1065
  878MPD2    C112875   1.712   1.468  13.227  0.7086 -1.3377  0.0210
  878MPD2    C212876   1.736   1.549  13.337 -0.2148  0.4905 -0.3488
  878MPD2    C312877   1.709   1.511  13.473  0.3589 -0.0576  0.6021
  878MPD2    C412878   1.635   1.394  13.486  0.3788 -0.6487  0.5367
  878MPD2    C512879   1.604   1.316  13.377 -0.0635 -0.6743 -0.3944
  878MPD2     H12880   1.788   1.643  13.325  0.8970  0.0800  1.1766
  878MPD2    H112881   1.587   1.361  13.577  0.9661 -2.3388  0.2427
  878MPD2    H212882   1.617   1.296  13.160 -1.2134  2.9319 -2.0275
  878MPD2    H312883   1.539   1.232  13.398  0.3057 -0.9047 -0.1662
  878MPD2     N12884   1.750   1.585  13.587 -0.5082  0.0043  0.2707
  878MPD2    H512885   1.814   1.660  13.562  0.5754 -0.3359  1.9991
  878MPD2    N112886   1.745   1.496  13.096  0.8892  0.0549  0.7529
  878MPD2    H712887   1.725   1.431  13.021 -0.9621  1.3048  0.1545
  879MPD2     C12888   2.033   3.256  16.783 -0.6950  0.6921  0.6723
  879MPD2    C112889   2.097   3.145  16.844  0.2342  0.1437 -0.2059
  879MPD2    C212890   2.050   3.021  16.820 -0.3864  0.1099  0.6670
  879MPD2    C312891   1.931   3.001  16.757  1.0179 -0.1112  0.8108
  879MPD2    C412892   1.867   3.112  16.698  0.2875  0.2319  0.0499
  879MPD2    C512893   1.927   3.237  16.700  0.4454  0.1251  0.4197
  879MPD2     H12894   2.092   2.937  16.875 -0.6965 -2.7209 -3.4678
  879MPD2    H112895   1.773   3.108  16.645  0.4664 -0.8243 -0.1792
  879MPD2    H212896   2.069   3.354  16.811  2.0523 -0.9399  2.9882
  879MPD2    H312897   1.874   3.309  16.640  0.8763 -0.0073 -0.1232
  879MPD2     N12898   1.872   2.874  16.743  0.5907 -0.0517 -0.1718
  879MPD2    H512899   1.777   2.870  16.708  0.2624  0.0357  0.7102
  879MPD2    N112900   2.200   3.172  16.937 -0.1541  0.9666 -0.5458
  879MPD2    H712901   2.232   3.268  16.937 -0.5100  1.0837 -1.3691
  880MPD2     C12902   3.681   0.139   0.284  0.5848  0.2632  0.7210
  880MPD2    C112903   3.579   0.074   0.361 -0.2695 -0.1476 -0.5447
  880MPD2    C212904   3.602   4.679   0.424 -0.0185  0.3640  0.5491
  880MPD2    C312905   3.715   4.608   0.400  0.3789 -0.3277 -0.0741
  880MPD2    C412906   3.811   4.656   0.315 -0.3093  0.2800  0.2855
  880MPD2    C512907   3.798   0.061   0.260  0.1693 -0.6230 -0.1945
  880MPD2     H12908   3.522   4.629   0.478  0.8499 -0.5847  0.9645
  880MPD2    H112909   3.899   4.596   0.296 -0.7492  0.2184 -1.6148
  880MPD2    H212910   3.674   0.238   0.241  4.3331  0.2324  0.0992
  880MPD2    H312911   3.880   0.101   0.203 -2.1943  2.9272 -1.1130
  880MPD2     N12912   3.740   4.493   0.481 -0.9647 -0.1740  0.1575
  880MPD2    H512913   3.664   4.480   0.547 -0.3264 -0.4628  0.8292
  880MPD2    N112914   3.462   0.147   0.378 -0.2551 -0.6376 -0.6169
  880MPD2    H712915   3.442   0.223   0.314  0.2983  0.7137  0.8084
  881MPD2     C12916   3.150   0.795  17.620 -0.5731  0.3897  0.1503
  881MPD2    C112917   3.145   0.671  17.560 -0.6722 -0.1156  0.3595
  881MPD2    C212918   3.139   0.560  17.641  0.6027 -0.1227  0.2137
  881MPD2    C312919   3.117   0.572   0.082 -0.6484  0.2117 -0.3106
  881MPD2    C412920   3.098   0.695   0.136 -0.0579  0.1264 -0.1500
  881MPD2    C512921   3.119   0.801   0.054  0.0628  0.2997  0.0286
  881MPD2     H12922   3.157   0.459  17.606 -0.2318 -0.5925  1.1590
  881MPD2    H112923   3.082   0.709   0.243  0.5366  0.1436 -0.0669
  881MPD2    H212924   3.139   0.891  17.569 -0.9912  0.7250  0.8756
  881MPD2    H312925   3.094   0.900   0.090 -2.7002  0.0679 -1.2448
  881MPD2     N12926   3.134   0.456   0.163  0.3152 -0.7771  0.0785
  881MPD2    H512927   3.160   0.373   0.111  0.1828 -1.8673  1.7670
  881MPD2    N112928   3.195   0.663  17.430 -0.2701  0.3687 -0.1465
  881MPD2    H712929   3.209   0.752  17.383  1.2422  0.2284  0.0479
  882MPD2     C12930   2.063   2.383  14.035 -0.2554 -0.0815  0.5713
  882MPD2    C112931   1.970   2.461  14.106  0.5660  0.2615  0.1624
  882MPD2    C212932   1.836   2.418  14.113  0.7328 -0.6181 -0.2728
  882MPD2    C312933   1.787   2.313  14.041 -0.3726  0.0592  0.9837
  882MPD2    C412934   1.878   2.230  13.979  0.4651  0.2872 -0.0540
  882MPD2    C512935   2.015   2.265  13.973 -0.8393 -0.1548  0.2738
  882MPD2     H12936   1.770   2.488  14.163  0.6793  0.2913 -1.6078
  882MPD2    H112937   1.841   2.149  13.918  1.1926  0.9038 -1.3054
  882MPD2    H212938   2.170   2.396  14.024  0.2224 -2.2907  2.7183
  882MPD2    H312939   2.088   2.202  13.923 -1.6939 -0.7196 -0.2650
  882MPD2     N12940   1.648   2.279  14.040  0.7725  0.4063 -0.3631
  882MPD2    H512941   1.618   2.194  13.993  2.4374  0.5485 -1.6733
  882MPD2    N112942   2.018   2.576  14.177 -0.5012 -0.2025  0.4327
  882MPD2    H712943   2.105   2.619  14.147  0.5815 -2.7003  0.0096
  883MPD2     C12944   3.508   2.065  15.989 -0.8588  0.4043 -0.4322
  883MPD2    C112945   3.598   2.092  15.888  0.1787 -1.2254 -0.0587
  883MPD2    C212946   3.694   2.185  15.918 -0.1280 -0.5322  1.2849
  883MPD2    C312947   3.712   2.243  16.047  0.2300 -0.5090  0.1528
  883MPD2    C412948   3.619   2.210  16.141  0.3491 -0.3168  0.1587
  883MPD2    C512949   3.518   2.123  16.115 -0.1787 -0.0484 -0.3378
  883MPD2     H12950   3.768   2.207  15.842 -0.9737 -0.6085  0.4402
  883MPD2    H112951   3.635   2.244  16.243  1.1078 -1.0307  0.2741
  883MPD2    H212952   3.423   1.999  15.973  0.2469 -1.5262  1.7608
  883MPD2    H312953   3.451   2.087  16.192  1.4485 -1.7814  0.2914
  883MPD2     N12954   3.824   2.317  16.078  0.8995  0.6601 -0.2277
  883MPD2    H512955   3.888   2.327  16.000 -1.3550  0.1392 -2.1849
  883MPD2    N112956   3.593   2.038  15.757  0.6909 -0.5073  0.0469
  883MPD2    H712957   3.667   2.071  15.695  1.0354 -0.8499  0.2759
  884MPD2     C12958   0.924   2.957  15.282 -0.2355  0.2141 -0.4050
  884MPD2    C112959   0.881   3.088  15.269  0.7148  0.1315 -0.5788
  884MPD2    C212960   0.758   3.112  15.211 -0.3209  0.0799 -0.4677
  884MPD2    C312961   0.672   3.012  15.172 -0.2050 -0.2777 -0.2413
  884MPD2    C412962   0.712   2.880  15.194  0.3511  0.4801 -0.4391
  884MPD2    C512963   0.835   2.860  15.245 -0.1775  0.3330  0.7625
  884MPD2     H12964   0.731   3.216  15.200  0.6403  0.3285 -0.4344
  884MPD2    H112965   0.648   2.796  15.169 -1.4303  2.8250 -3.7451
  884MPD2    H212966   1.021   2.927  15.320  0.6575  1.4727 -1.7067
  884MPD2    H312967   0.856   2.755  15.261 -0.9173  0.4353  2.3269
  884MPD2     N12968   0.547   3.045  15.118  1.0103  0.1891  0.7115
  884MPD2    H512969   0.534   3.144  15.102  0.0487 -0.2073 -0.9467
  884MPD2    N112970   0.961   3.200  15.304  0.1357 -0.2043 -0.1610
  884MPD2    H712971   0.916   3.288  15.284 -0.0781  0.3877  2.8235
  885MPD2     C12972   3.895   2.743   0.066 -0.4893 -0.1073  0.8092
  885MPD2    C112973   3.947   2.857   0.113  1.0281 -0.1691 -0.1108
  885MPD2    C212974   3.905   2.979   0.069 -0.0543  0.0920 -0.0098
  885MPD2    C312975   3.810   2.982  17.659 -0.6976  0.1874  0.1398
  885MPD2    C412976   3.744   2.862  17.620 -0.9785 -1.0402 -0.7282
  885MPD2    C512977   3.791   2.744  17.671 -0.3888  0.2434  0.4711
  885MPD2     H12978   3.964   3.063   0.103  0.0340  0.9439 -2.2803
  885MPD2    H112979   3.653   2.856  17.562 -0.5148 -4.4193 -1.0754
  885MPD2    H212980   3.926   2.649   0.111 -1.4989 -0.4576  0.7757
  885MPD2    H312981   3.725   2.660  17.655 -0.4053  0.0737  1.4195
  885MPD2     N12982   3.780   3.101  17.593 -0.5115  0.3122  0.1586
  885MPD2    H512983   3.832   3.183  17.622  0.2716  0.6594 -2.2712
  885MPD2    N112984   4.057   2.851   0.205  0.1324  0.1033  0.2031
  885MPD2    H712985   4.092   2.756   0.217  0.4813  0.5791  2.9441
  886MPD2     C12986   0.519   1.197  14.840  0.3792 -0.4621 -0.1104
  886MPD2    C112987   0.577   1.272  14.943  0.4172 -0.1071  0.0819
  886MPD2    C212988   0.591   1.410  14.931  0.3480 -0.2119  0.3137
  886MPD2    C312989   0.551   1.471  14.815  0.4462  0.2609  0.9639
  886MPD2    C412990   0.503   1.393  14.710  0.0365 -0.5254 -0.5823
  886MPD2    C512991   0.477   1.262  14.727 -0.1849  0.2043  0.2178
  886MPD2     H12992   0.610   1.467  15.022 -0.0146  1.1440 -0.4668
  886MPD2    H112993   0.467   1.443  14.621 -0.0839  0.3271 -0.0490
  886MPD2    H212994   0.489   1.094  14.855  0.3890 -0.1201  2.2053
  886MPD2    H312995   0.420   1.211  14.650 -0.9557  0.5632  0.5492
  886MPD2     N12996   0.539   1.608  14.788 -0.5034 -0.2819 -0.2653
  886MPD2    H512997   0.528   1.629  14.689 -0.2370  0.8225 -0.0644
  886MPD2    N112998   0.603   1.225  15.073  0.9070  0.2601 -0.1620
  886MPD2    H712999   0.637   1.291  15.142 -0.1916 -0.5290  1.1183
  887MPD2     C13000   1.122   1.472  15.234  0.3006 -0.0770  0.4077
  887MPD2    C113001   1.042   1.453  15.343 -0.1348  1.4821  0.5471
  887MPD2    C213002   1.039   1.549  15.439  0.2523  0.5317 -0.2559
  887MPD2    C313003   1.117   1.658  15.436 -0.5591 -0.1509 -0.2427
  887MPD2    C413004   1.197   1.685  15.324  0.6007  0.3164  0.3783
  887MPD2    C513005   1.199   1.586  15.224  0.1557  0.0936  0.9130
  887MPD2     H13006   0.987   1.533  15.533 -0.7270  0.5084 -0.7953
  887MPD2    H113007   1.260   1.772  15.311  1.1663 -0.2919 -0.9552
  887MPD2    H213008   1.133   1.394  15.159  2.7771  1.2759 -0.6508
  887MPD2    H313009   1.255   1.606  15.133 -0.9583 -1.1171 -0.0546
  887MPD2     N13010   1.107   1.749  15.545 -0.1498 -0.6070  0.0745
  887MPD2    H513011   1.052   1.725  15.628 -0.9293  0.0839 -0.2414
  887MPD2    N113012   0.973   1.328  15.352 -0.0222  0.6958 -0.0098
  887MPD2    H713013   1.000   1.262  15.280 -0.0728  0.6113  0.0482
  888MPD2     C13014   3.039   1.833  15.277  0.4857  0.1998  0.2814
  888MPD2    C113015   2.949   1.854  15.176 -0.1153  0.4004 -0.4825
  888MPD2    C213016   2.940   1.973  15.116  0.0570 -0.5566 -0.0016
  888MPD2    C313017   3.038   2.076  15.139 -0.5255  0.0476  1.0018
  888MPD2    C413018   3.135   2.047  15.233 -0.0247 -0.2615  0.3787
  888MPD2    C513019   3.128   1.933  15.307 -0.0819 -0.4400 -0.4270
  888MPD2     H13020   2.856   1.985  15.048  0.1888 -0.3290 -0.1270
  888MPD2    H113021   3.210   2.120  15.260  0.0793  0.9793 -3.2729
  888MPD2    H213022   3.026   1.748  15.343  1.4992  1.2878  1.8871
  888MPD2    H313023   3.189   1.916  15.395 -1.4106  2.9368  1.1550
  888MPD2     N13024   3.021   2.203  15.080 -0.1884 -0.5791  0.1056
  888MPD2    H513025   2.938   2.211  15.021  2.2657  0.1679 -3.2843
  888MPD2    N113026   2.836   1.770  15.157 -0.4043  0.7059 -0.2284
  888MPD2    H713027   2.759   1.811  15.107 -0.1594  0.8864 -0.4559
  889MPD2     C13028   2.320   1.336  12.643 -0.1582 -0.2276  0.0319
  889MPD2    C113029   2.392   1.310  12.754 -0.0586  0.4115  0.4299
  889MPD2    C213030   2.388   1.402  12.859  0.6624 -0.1428  0.3749
  889MPD2    C313031   2.328   1.520  12.843 -0.7527 -0.4278 -0.2734
  889MPD2    C413032   2.279   1.554  12.723  0.8496  0.0019 -0.4217
  889MPD2    C513033   2.263   1.458  12.627 -0.4793 -0.3129 -0.4188
  889MPD2     H13034   2.436   1.378  12.954  0.0178  2.4656  1.3586
  889MPD2    H113035   2.244   1.654  12.702  3.8722  0.8549 -1.4046
  889MPD2    H213036   2.328   1.273  12.554  0.4862  0.4523 -0.3907
  889MPD2    H313037   2.216   1.482  12.533  0.0349 -1.0801 -0.8650
  889MPD2     N13038   2.329   1.608  12.953  0.5799 -0.1729 -0.3014
  889MPD2    H513039   2.392   1.576  13.025  0.9035  0.8769 -0.1160
  889MPD2    N113040   2.440   1.174  12.771  0.4852 -0.2767  0.9379
  889MPD2    H713041   2.436   1.111  12.692 -1.7226 -0.3918  1.1233
  890MPD2     C13042   1.603   3.087  15.481 -0.3036  0.6695  0.1958
  890MPD2    C113043   1.687   3.170  15.560  0.1105 -1.4051  0.4419
  890MPD2    C213044   1.749   3.101  15.667 -0.2159 -0.4507  0.1272
  890MPD2    C313045   1.727   2.970  15.696 -0.3327  0.7938 -0.5230
  890MPD2    C413046   1.643   2.897  15.616  0.1445 -0.3206 -0.0147
  890MPD2    C513047   1.587   2.953  15.505 -0.2141 -0.0538  0.1279
  890MPD2     H13048   1.815   3.162  15.727  0.0546  0.0159 -0.6359
  890MPD2    H113049   1.635   2.790  15.630  1.7097 -0.4334  0.0495
  890MPD2    H213050   1.550   3.130  15.397 -0.5453  0.1754  0.0974
  890MPD2    H313051   1.527   2.896  15.435 -0.2930  2.7561 -2.0965
  890MPD2     N13052   1.806   2.906  15.800 -0.0541  0.6535 -0.4049
  890MPD2    H513053   1.871   2.962  15.855  1.2415 -1.0018 -0.2596
  890MPD2    N113054   1.717   3.304  15.534  0.8654  0.1827  0.8853
  890MPD2    H713055   1.670   3.353  15.458 -0.6457 -0.1340  1.6152
  891MPD2     C13056   4.494   1.850  16.290 -0.3395 -0.0221 -0.6847
  891MPD2    C113057   4.429   1.859  16.408  0.0624  0.9308 -0.1965
  891MPD2    C213058   4.469   1.778  16.512 -0.0907 -0.9412  0.0334
  891MPD2    C313059   4.568   1.685  16.503 -0.6917  0.4445  0.3170
  891MPD2    C413060   4.634   1.674  16.380 -0.0818  0.5370 -0.2065
  891MPD2    C513061   4.593   1.756  16.283  0.7179 -0.1378  0.0869
  891MPD2     H13062   4.431   1.798  16.612  0.0550 -0.5911  0.0211
  891MPD2    H113063   4.701   1.590  16.362 -1.1653 -0.2356 -0.5976
  891MPD2    H213064   4.472   1.919  16.209 -0.5533  2.6478  1.6602
  891MPD2    H313065   4.650   1.742  16.192 -0.8088  1.3094 -1.1125
  891MPD2     N13066   4.596   1.613  16.623 -0.1973  0.0376 -0.8135
  891MPD2    H513067   4.546   1.647  16.704 -1.0180  0.2175 -1.4011
  891MPD2    N113068   4.322   1.952  16.404 -0.2103  0.2625  0.1727
  891MPD2    H713069   4.310   2.005  16.319 -0.5194  1.3834  0.9168
  892MPD2     C13070   0.899   2.487  14.611  0.1368  0.2876 -0.1714
  892MPD2    C113071   0.822   2.444  14.504 -0.5724 -0.2172  0.0053
  892MPD2    C213072   0.891   2.415  14.386  0.3283  0.3606  0.5851
  892MPD2    C313073   1.024   2.430  14.379  0.3718 -0.2377 -0.1116
  892MPD2    C413074   1.096   2.484  14.477 -0.7162  0.4225 -0.1930
  892MPD2    C513075   1.035   2.510  14.595 -0.1901 -0.1242  0.5511
  892MPD2     H13076   0.838   2.377  14.299  1.2002 -1.3578  0.8122
  892MPD2    H113077   1.204   2.496  14.474 -0.2990 -3.1612 -0.0840
  892MPD2    H213078   0.859   2.489  14.712  3.4785 -0.7793  1.1808
  892MPD2    H313079   1.087   2.546  14.684 -0.7893  1.3114  0.3252
  892MPD2     N13080   1.101   2.388  14.264  0.3825 -0.2568 -0.0315
  892MPD2    H513081   1.202   2.398  14.269  0.5819 -2.3149 -0.2027
  892MPD2    N113082   0.683   2.417  14.523 -0.1062 -0.0915  0.2534
  892MPD2    H713083   0.626   2.398  14.441  0.3120  0.5040 -0.1645
  893MPD2     C13084   1.664   0.813   1.004  0.6326  0.0221  0.0141
  893MPD2    C113085   1.783   0.779   0.945 -0.0085  0.1442 -0.0248
  893MPD2    C213086   1.784   0.705   0.822 -0.1242 -0.4094 -0.7564
  893MPD2    C313087   1.666   0.652   0.781  0.2448  0.8286 -0.2946
  893MPD2    C413088   1.554   0.675   0.844 -0.6438 -0.1002  0.2613
  893MPD2    C513089   1.554   0.760   0.952  0.7574 -0.1047  0.0362
  893MPD2     H13090   1.876   0.707   0.766  0.3751  0.7074  0.1310
  893MPD2    H113091   1.459   0.636   0.810 -0.8962 -1.1740  2.1907
  893MPD2    H213092   1.664   0.878   1.090 -0.4824 -2.8416  2.1987
  893MPD2    H313093   1.460   0.773   1.005  0.7337  2.3030 -0.6272
  893MPD2     N13094   1.659   0.571   0.669  0.4687  0.0511 -0.0092
  893MPD2    H513095   1.568   0.534   0.643 -0.2843  1.7098  0.2338
  893MPD2    N113096   1.903   0.831   1.001 -0.5212  0.0452  0.2434
  893MPD2    H713097   1.903   0.913   1.060  0.4448  0.2191 -0.0007
  894MPD2     C13098   4.645   3.043   1.983 -0.2584 -0.0755  0.7721
  894MPD2    C113099   4.685   3.158   2.049  1.0660  0.4730  0.5977
  894MPD2    C213100   0.075   3.223   1.999  0.3011 -0.1213  0.1526
  894MPD2    C313101   0.140   3.185   1.880  0.4185 -0.1460 -0.4076
  894MPD2    C413102   0.092   3.073   1.813 -0.3413  0.8075  0.4298
  894MPD2    C513103   4.708   3.005   1.867 -0.0771  0.0236  0.2975
  894MPD2     H13104   0.117   3.307   2.052 -1.2294  0.9473 -0.3328
  894MPD2    H113105   0.142   3.023   1.730 -1.7248  2.5934 -1.5033
  894MPD2    H213106   4.554   2.992   2.015 -1.8541  0.8383 -2.2229
  894MPD2    H313107   4.670   2.912   1.827 -2.9502  0.6445  1.5358
  894MPD2     N13108   0.251   3.268   1.841  0.1638 -0.1531  0.6776
  894MPD2    H513109   0.275   3.343   1.905  2.1991  0.1422 -0.4500
  894MPD2    N113110   4.622   3.228   2.151  0.5931 -1.0655 -0.1670
  894MPD2    H713111   4.656   3.323   2.161 -0.5427 -1.0950  4.1305
  895MPD2     C13112   0.504   1.882  13.226  0.6209 -0.5121 -0.2879
  895MPD2    C113113   0.438   1.775  13.164 -0.3862 -0.5148  0.1238
  895MPD2    C213114   0.378   1.674  13.245 -0.1779 -0.0954 -0.4329
  895MPD2    C313115   0.389   1.676  13.384 -0.4621 -0.2553 -0.7575
  895MPD2    C413116   0.460   1.778  13.442  0.5165 -0.2731 -0.7119
  895MPD2    C513117   0.513   1.880  13.366  0.8891 -0.2140 -0.1383
  895MPD2     H13118   0.352   1.580  13.198 -0.6308 -0.2445  0.1160
  895MPD2    H113119   0.468   1.796  13.548  2.7340 -0.3959 -0.8612
  895MPD2    H213120   0.547   1.966  13.173 -3.9251  1.3850 -0.9972
  895MPD2    H313121   0.578   1.947  13.421 -1.5469  2.6097 -0.6986
  895MPD2     N13122   0.338   1.568  13.463  0.3372  0.0853 -0.3204
  895MPD2    H513123   0.364   1.566  13.561  1.8938  3.8964 -0.6777
  895MPD2    N113124   0.427   1.755  13.019 -0.0365  0.0686 -0.0392
  895MPD2    H713125   0.362   1.679  13.001 -1.9714  1.7906 -0.1621
  896MPD2     C13126   1.703   4.496   2.469  0.4265 -0.2846 -0.7562
  896MPD2    C113127   1.706   4.427   2.352 -0.2641  0.0551 -0.3940
  896MPD2    C213128   1.601   4.344   2.318 -0.4602 -0.2986  0.3446
  896MPD2    C313129   1.496   4.332   2.402 -0.2405  0.3938  0.9869
  896MPD2    C413130   1.499   4.391   2.524 -0.2253  0.1162  0.0519
  896MPD2    C513131   1.605   4.468   2.564 -0.1101 -0.3757 -0.0854
  896MPD2     H13132   1.588   4.282   2.230 -0.2862 -0.0423  0.1390
  896MPD2    H113133   1.419   4.379   2.597 -0.3915  0.3235 -0.1007
  896MPD2    H213134   1.775   4.575   2.489  1.2386 -1.9445  2.7675
  896MPD2    H313135   1.592   4.513   2.662  0.5049  0.6467 -0.4751
  896MPD2     N13136   1.391   4.244   2.364  0.1660  0.1892 -0.3997
  896MPD2    H513137   1.386   4.217   2.267  0.0843  0.4798 -0.4762
  896MPD2    N113138   1.821   4.445   2.264 -0.1697  0.0713 -0.0072
  896MPD2    H713139   1.904   4.493   2.298 -0.6186  0.9612 -0.1475
  897MPD2     C13140   3.471   0.951   9.941 -0.4550  0.5442  0.0402
  897MPD2    C113141   3.444   1.072   9.997  0.2380  0.6333  0.1842
  897MPD2    C213142   3.385   1.071  10.120  0.1654 -0.3597  0.5894
  897MPD2    C313143   3.390   0.961  10.197 -0.2091 -0.1687  0.4200
  897MPD2    C413144   3.427   0.838  10.146  0.3604  0.3093 -0.8509
  897MPD2    C513145   3.474   0.834  10.013  0.4931 -0.2590 -0.2988
  897MPD2     H13146   3.357   1.166  10.163 -2.9534 -0.4441 -1.2731
  897MPD2    H113147   3.414   0.745  10.200  2.3576  1.1499  1.0735
  897MPD2    H213148   3.501   0.949   9.837 -0.8957  0.2093 -0.0784
  897MPD2    H313149   3.487   0.736   9.969  0.7877  0.8544 -2.7152
  897MPD2     N13150   3.322   0.971  10.316 -0.5501 -0.0453  0.0716
  897MPD2    H513151   3.260   1.052  10.322 -0.9927 -0.0089 -4.8556
  897MPD2    N113152   3.469   1.192   9.927 -0.5494  0.1369 -0.3101
  897MPD2    H713153   3.470   1.194   9.826 -0.1990  0.4300 -0.2987
  898MPD2     C13154   1.263   1.449  17.556 -0.1002  0.0233  0.0698
  898MPD2    C113155   1.232   1.586  17.561 -0.2750 -0.1931 -0.1600
  898MPD2    C213156   1.167   1.640  17.454  0.6046 -0.1635 -0.3485
  898MPD2    C313157   1.123   1.565  17.341  0.7551 -0.1694 -0.0636
  898MPD2    C413158   1.160   1.434  17.335 -0.3968  0.0555 -0.2787
  898MPD2    C513159   1.239   1.383  17.435  0.0549 -0.1961 -0.7580
  898MPD2     H13160   1.139   1.745  17.463 -0.9455 -0.5143 -1.1795
  898MPD2    H113161   1.129   1.368  17.255  0.4708 -0.9175  0.1791
  898MPD2    H213162   1.318   1.391  17.630 -3.0178 -1.5925  0.9464
  898MPD2    H313163   1.272   1.280  17.435 -0.8374 -0.4782 -0.0278
  898MPD2     N13164   1.041   1.634  17.241 -0.3133 -0.1758  0.0205
  898MPD2    H513165   1.012   1.730  17.256 -0.4671 -0.1406 -0.4964
  898MPD2    N113166   1.274   1.674  17.665 -1.0530 -0.9128  0.2066
  898MPD2    H713167   1.256   1.772  17.650 -0.5313 -0.9260 -0.5504
  899MPD2     C13168   1.965   2.503  17.663  0.0203 -0.1146  1.2624
  899MPD2    C113169   1.928   2.637  17.683 -0.2049 -0.1064  0.2002
  899MPD2    C213170   1.839   2.670   0.081 -0.3464  0.3072  0.2038
  899MPD2    C313171   1.784   2.577   0.164  0.2111  0.0197  0.2604
  899MPD2    C413172   1.826   2.446   0.149  0.5346 -0.4123  0.2802
  899MPD2    C513173   1.921   2.414   0.061  0.2457 -0.6362  0.9554
  899MPD2     H13174   1.805   2.773   0.088  1.8246  0.9423  1.4867
  899MPD2    H113175   1.787   2.367   0.213 -0.8699 -1.6698 -2.1302
  899MPD2    H213176   2.041   2.474  17.591 -0.8672  4.3635 -1.5208
  899MPD2    H313177   1.954   2.311   0.057 -1.0802 -0.9445 -1.9844
  899MPD2     N13178   1.695   2.603   0.266  0.2356  0.4115  0.4781
  899MPD2    H513179   1.657   2.523   0.317  2.6444 -1.2378 -0.3458
  899MPD2    N113180   1.987   2.734  17.607 -0.5240 -0.4858 -0.4062
  899MPD2    H713181   2.045   2.704  17.530  2.1128  1.5759  0.7877
  900MPD2     C13182   1.817   4.054  12.086  0.1034  0.1247 -0.0873
  900MPD2    C113183   1.706   3.976  12.095 -0.1918 -0.1979  0.2333
  900MPD2    C213184   1.585   4.016  12.036  0.9536  0.2746 -0.2875
  900MPD2    C313185   1.591   4.125  11.953 -0.7464 -0.1161  0.2782
  900MPD2    C413186   1.705   4.208  11.943 -0.9822 -0.1024  0.1576
  900MPD2    C513187   1.818   4.165  12.007  0.6867 -0.2649 -0.6343
  900MPD2     H13188   1.494   3.961  12.057  1.3608  0.1587  1.1405
  900MPD2    H113189   1.710   4.299  11.884  0.2082 -1.9142 -2.5272
  900MPD2    H213190   1.910   4.026  12.133 -0.2870  0.0455  0.6357
  900MPD2    H313191   1.910   4.220  11.987  0.0603  2.2298  3.3536
  900MPD2     N13192   1.464   4.150  11.887  0.0240 -0.2688  0.1714
  900MPD2    H513193   1.386   4.091  11.914  0.5020 -0.3387  1.3916
  900MPD2    N113194   1.720   3.861  12.180  0.5897 -0.0537 -0.7216
  900MPD2    H713195   1.802   3.859  12.239  0.4157  0.3010 -0.4601
  901MPD2     C13196   1.291   2.921  12.331 -0.3514  0.0197  0.3051
  901MPD2    C113197   1.426   2.916  12.305 -0.5856  0.2304 -0.0144
  901MPD2    C213198   1.514   3.023  12.329  0.3782  0.4550 -0.3683
  901MPD2    C313199   1.454   3.144  12.365 -0.5017 -0.0062 -0.1663
  901MPD2    C413200   1.318   3.144  12.395  0.0524 -0.5924 -0.5492
  901MPD2    C513201   1.240   3.038  12.369 -0.8131 -0.7183 -0.6158
  901MPD2     H13202   1.622   3.022  12.322  0.3715  0.1649 -0.4557
  901MPD2    H113203   1.256   3.229  12.420 -1.4908 -1.1877 -2.3454
  901MPD2    H213204   1.223   2.840  12.306  0.4686 -1.7050  3.6567
  901MPD2    H313205   1.133   3.049  12.381 -0.4853  1.5216  0.2763
  901MPD2     N13206   1.536   3.261  12.388  0.2545  0.2862  0.0482
  901MPD2    H513207   1.637   3.251  12.386  0.0794 -1.6506  0.3702
  901MPD2    N113208   1.475   2.791  12.256 -0.3287 -0.2840 -0.2636
  901MPD2    H713209   1.412   2.712  12.253 -0.5337 -0.1573  0.6735
  902MPD2     C13210   0.654   1.846  12.548 -0.2026 -0.3332 -0.1599
  902MPD2    C113211   0.765   1.918  12.515  0.3889 -0.1982  0.4144
  902MPD2    C213212   0.869   1.845  12.480 -0.2132  0.7916  0.0196
  902MPD2    C313213   0.874   1.706  12.478  0.0504 -0.1532 -0.6451
  902MPD2    C413214   0.753   1.637  12.498  0.2168  0.4507 -0.3053
  902MPD2    C513215   0.645   1.706  12.540 -0.2994 -0.9980  0.3026
  902MPD2     H13216   0.960   1.897  12.452  0.4529 -0.7822 -0.7452
  902MPD2    H113217   0.751   1.529  12.494  1.2279  0.4171  0.0579
  902MPD2    H213218   0.560   1.901  12.553 -0.0619 -0.0579 -0.5471
  902MPD2    H313219   0.555   1.648  12.561  0.7114 -2.3766  0.7839
  902MPD2     N13220   0.985   1.629  12.447  0.0917 -0.4076  0.5580
  902MPD2    H513221   0.972   1.530  12.431 -1.4679 -0.1711  0.3723
  902MPD2    N113222   0.771   2.054  12.511 -0.5086  0.2179  0.1243
  902MPD2    H713223   0.858   2.091  12.473  0.1130 -0.1647  1.2028
  903MPD2     C13224   0.914   1.981  12.099  0.7149  0.4621 -0.1249
  903MPD2    C113225   0.899   1.847  12.084  0.0369 -0.3516  0.5798
  903MPD2    C213226   0.779   1.790  12.117  0.1419  0.3580  0.0433
  903MPD2    C313227   0.675   1.868  12.160 -0.1675  0.3796  0.0420
  903MPD2    C413228   0.690   2.009  12.172  0.5281 -0.2819  0.2774
  903MPD2    C513229   0.818   2.060  12.156  0.2654  0.1096  0.9040
  903MPD2     H13230   0.758   1.685  12.099  3.2879 -0.4309  0.8622
  903MPD2    H113231   0.611   2.074  12.207 -0.5400 -1.0654 -0.6824
  903MPD2    H213232   1.002   2.035  12.067  1.2807  1.0087  2.3109
  903MPD2    H313233   0.840   2.164  12.173 -0.0341  0.2731  0.2858
  903MPD2     N13234   0.546   1.808  12.176  0.2443 -0.0655  0.5915
  903MPD2    H513235   0.537   1.715  12.136  0.8090  0.8980 -1.7736
  903MPD2    N113236   1.018   1.773  12.055 -0.3813  0.2346  0.5369
  903MPD2    H713237   1.104   1.826  12.044 -0.6533  0.8414  1.3267
  904MPD2     C13238   4.359   1.133  13.929 -0.3769  0.3437  0.8027
  904MPD2    C113239   4.430   1.249  13.908 -0.1588  0.2088 -0.1547
  904MPD2    C213240   4.560   1.254  13.939  0.4018  0.6250 -0.0931
  904MPD2    C313241   4.633   1.146  13.984 -0.5477 -0.0684 -0.3025
  904MPD2    C413242   4.563   1.029  14.008  0.5381  0.6582  0.0047
  904MPD2    C513243   4.427   1.021  13.982 -0.1793 -0.1334 -0.2771
  904MPD2     H13244   4.612   1.347  13.919  2.0841 -0.6249 -1.5140
  904MPD2    H113245   4.599   0.937  14.053  0.9003 -0.4842 -2.6664
  904MPD2    H213246   4.253   1.122  13.907 -0.1760  1.4726 -0.7016
  904MPD2    H313247   4.371   0.931  14.005  0.9605 -0.9771 -0.8373
  904MPD2     N13248   0.042   1.168  14.025 -0.7170  0.4278 -0.1761
  904MPD2    H513249   0.081   1.261  14.013 -0.7127  0.3418 -0.7935
  904MPD2    N113250   4.365   1.364  13.854 -0.9796  0.3201  0.1770
  904MPD2    H713251   4.425   1.446  13.844 -0.9861  0.1611 -1.2014
  905MPD2     C13252   4.110   1.266  13.292  0.3593 -0.0362  0.5249
  905MPD2    C113253   4.149   1.377  13.363 -0.3263  0.6894 -0.8251
  905MPD2    C213254   4.272   1.378  13.424  0.3630 -0.1585  0.6315
  905MPD2    C313255   4.358   1.274  13.417 -0.0903 -0.6401  0.0845
  905MPD2    C413256   4.328   1.165  13.331 -0.2586 -0.4886 -0.4190
  905MPD2    C513257   4.200   1.163  13.277 -0.1646  0.3273 -0.1165
  905MPD2     H13258   4.318   1.461  13.476 -0.9964  0.7922  0.3088
  905MPD2    H113259   4.392   1.079  13.315 -0.0306 -0.1615 -1.2557
  905MPD2    H213260   4.015   1.263  13.239  0.9385 -0.4730 -0.4884
  905MPD2    H313261   4.176   1.067  13.232 -0.0523  0.6392 -0.8392
  905MPD2     N13262   4.486   1.273  13.484 -0.5196 -0.3720 -0.3910
  905MPD2    H513263   4.556   1.202  13.464  0.4966  0.1860  1.2175
  905MPD2    N113264   4.060   1.496  13.371  0.6382 -0.0123 -0.4105
  905MPD2    H713265   3.986   1.495  13.301  0.6262 -0.1194 -0.3976
  906MPD2     C13266   2.231   1.401  11.185  0.4004 -0.1036  0.1831
  906MPD2    C113267   2.252   1.313  11.076  0.0096 -0.1624  0.0815
  906MPD2    C213268   2.258   1.180  11.105  0.3094  0.1773 -0.1519
  906MPD2    C313269   2.275   1.140  11.237 -0.0003 -0.1324 -1.3566
  906MPD2    C413270   2.257   1.229  11.343 -0.1511  0.1380  0.2926
  906MPD2    C513271   2.236   1.362  11.316 -0.5265 -0.4988  0.4507
  906MPD2     H13272   2.265   1.110  11.023 -2.7599  1.8493 -1.8176
  906MPD2    H113273   2.271   1.198  11.446 -0.0053 -1.7197 -0.2744
  906MPD2    H213274   2.213   1.506  11.167 -1.2070 -0.0119  2.3367
  906MPD2    H313275   2.219   1.436  11.393  0.2181 -0.4964  0.6208
  906MPD2     N13276   2.290   1.001  11.268  0.5954  0.0219  0.0610
  906MPD2    H513277   2.279   0.980  11.366  0.1409 -3.5879 -0.7375
  906MPD2    N113278   2.256   1.354  10.945  0.4617  0.0470  0.0518
  906MPD2    H713279   2.260   1.274  10.883 -1.4186 -0.5436  0.6720
  907MPD2     C13280   1.288   0.425  15.716  0.1806 -0.2152  0.3396
  907MPD2    C113281   1.200   0.320  15.697  0.0329  0.0942 -0.2354
  907MPD2    C213282   1.162   0.249  15.808 -0.5584  0.3763 -0.3724
  907MPD2    C313283   1.231   0.260  15.929 -0.0692 -0.0592  0.1061
  907MPD2    C413284   1.319   0.364  15.949 -0.9165 -0.0200  0.7558
  907MPD2    C513285   1.348   0.452  15.844  0.9925 -0.6560  0.0078
  907MPD2     H13286   1.093   0.168  15.786 -0.5491  0.3088 -0.1590
  907MPD2    H113287   1.359   0.388  16.047  1.2679 -0.2912 -0.0691
  907MPD2    H213288   1.320   0.490  15.635 -1.6606  1.4307  0.9630
  907MPD2    H313289   1.415   0.537  15.844 -1.5808  1.3818  0.3338
  907MPD2     N13290   1.192   0.169  16.027 -0.1382  0.5250 -0.2964
  907MPD2    H513291   1.114   0.109  16.003 -0.2373  1.1568 -1.5558
  907MPD2    N113292   1.135   0.281  15.578  0.4967 -0.2287  0.0529
  907MPD2    H713293   1.054   0.219  15.580  1.5145 -1.5159  1.2779
  908MPD2     C13294   3.312   1.490   9.132  0.2477  0.1409  0.8791
  908MPD2    C113295   3.250   1.402   9.219 -0.5039 -0.6990  0.4157
  908MPD2    C213296   3.282   1.412   9.355 -0.2226 -0.3047  0.1398
  908MPD2    C313297   3.395   1.490   9.399  0.2655  0.8123  0.1333
  908MPD2    C413298   3.460   1.567   9.304  0.0825  0.9231  0.2719
  908MPD2    C513299   3.413   1.569   9.171  0.4353 -0.3932 -0.4348
  908MPD2     H13300   3.227   1.353   9.427 -1.0209 -0.8744 -0.9458
  908MPD2    H113301   3.542   1.634   9.328 -1.8628  3.3221  0.1867
  908MPD2    H213302   3.286   1.495   9.027 -0.6824 -0.6512  1.0631
  908MPD2    H313303   3.460   1.625   9.091  0.2872 -0.6582 -0.7072
  908MPD2     N13304   3.436   1.485   9.531  0.1188 -0.0616 -0.3343
  908MPD2    H513305   3.397   1.408   9.586 -1.4020  1.0077  0.0951
  908MPD2    N113306   3.147   1.317   9.171 -0.5702  0.3650 -0.3581
  908MPD2    H713307   3.098   1.261   9.239 -0.0296  1.2360  0.7500
  909MPD2     C13308   3.982   3.782  11.609 -0.1384 -0.0273 -0.5345
  909MPD2    C113309   4.054   3.899  11.602 -0.4081  0.2577 -0.7031
  909MPD2    C213310   4.034   3.988  11.707  0.1145  0.5627 -0.5440
  909MPD2    C313311   3.941   3.958  11.810 -0.4818 -0.0372  0.5159
  909MPD2    C413312   3.866   3.847  11.808  0.4045 -0.2169 -0.0341
  909MPD2    C513313   3.897   3.764  11.713  0.5796 -0.6480 -0.1369
  909MPD2     H13314   4.093   4.078  11.717  2.6642 -0.8863 -2.4121
  909MPD2    H113315   3.791   3.820  11.882  0.3657 -0.6496 -0.2367
  909MPD2    H213316   3.986   3.703  11.535  0.3712 -0.7599  0.2776
  909MPD2    H313317   3.831   3.677  11.709 -0.5575  0.2201 -0.3712
  909MPD2     N13318   3.921   4.066  11.906 -0.2285 -0.2133  0.8788
  909MPD2    H513319   3.988   4.142  11.910 -0.0500 -0.2007 -2.2436
  909MPD2    N113320   4.140   3.936  11.496  0.4648 -0.1451 -0.1372
  909MPD2    H713321   4.195   4.021  11.500 -0.9588  0.7785 -0.2405
  910MPD2     C13322   1.007   0.765  15.346  0.6430  1.0026  0.6457
  910MPD2    C113323   0.891   0.690  15.382 -0.6248  0.2685  0.7630
  910MPD2    C213324   0.799   0.661  15.282  0.1906  0.1278  0.0878
  910MPD2    C313325   0.808   0.719  15.157  0.3077  0.3153  0.4816
  910MPD2    C413326   0.925   0.795  15.124 -0.7058 -0.5568  0.0635
  910MPD2    C513327   1.019   0.817  15.218  0.0099  0.1744  0.1830
  910MPD2     H13328   0.710   0.604  15.305  1.3389 -0.0746  4.2004
  910MPD2    H113329   0.925   0.833  15.022 -0.5550 -1.3989 -0.2459
  910MPD2    H213330   1.093   0.779  15.410 -0.9613  0.1390  2.9622
  910MPD2    H313331   1.109   0.871  15.189 -0.4943 -0.0997 -1.8456
  910MPD2     N13332   0.689   0.722  15.072 -0.3136  0.0906 -0.1782
  910MPD2    H513333   0.706   0.781  14.991 -1.6503  1.2124  0.3619
  910MPD2    N113334   0.886   0.616  15.505 -0.1367 -0.4400 -0.5627
  910MPD2    H713335   0.811   0.548  15.513  0.9252 -1.7499 -1.5386
  911MPD2     C13336   2.687   1.467  15.942  0.1720  0.1313 -0.3132
  911MPD2    C113337   2.740   1.570  16.021  0.2308 -0.6843 -0.8015
  911MPD2    C213338   2.692   1.697  16.000 -0.0893  0.4103  0.2192
  911MPD2    C313339   2.577   1.723  15.926 -1.3606  0.5862  0.0446
  911MPD2    C413340   2.518   1.615  15.863  1.0313  0.2691  0.2590
  911MPD2    C513341   2.579   1.494  15.859 -0.4133  0.2628  0.1849
  911MPD2     H13342   2.734   1.783  16.050  2.5649 -1.0950  0.5980
  911MPD2    H113343   2.437   1.627  15.793  1.6572 -1.9311 -0.8266
  911MPD2    H213344   2.728   1.367  15.944 -1.2142 -0.4254  0.7408
  911MPD2    H313345   2.556   1.419  15.784 -0.9328  1.9262 -1.3026
  911MPD2     N13346   2.512   1.845  15.910  0.3508  0.0649  0.2231
  911MPD2    H513347   2.427   1.840  15.856  0.1042  3.0542  0.2885
  911MPD2    N113348   2.840   1.535  16.122 -0.2736  0.0298 -0.3246
  911MPD2    H713349   2.860   1.438  16.142  1.3086  0.0854 -1.6168
  912MPD2     C13350   2.148   1.656  15.467 -0.3496 -0.1929 -0.2081
  912MPD2    C113351   2.171   1.694  15.595  0.0686 -0.4945 -0.2217
  912MPD2    C213352   2.192   1.595  15.691 -0.4535 -0.1843 -0.0374
  912MPD2    C313353   2.172   1.464  15.651  0.6287  0.0832  0.3437
  912MPD2    C413354   2.138   1.423  15.523 -0.3113  0.1512 -0.0177
  912MPD2    C513355   2.129   1.525  15.435  0.3425  0.0211  0.4704
  912MPD2     H13356   2.210   1.617  15.795  0.5859  0.9547 -0.4584
  912MPD2    H113357   2.116   1.326  15.480 -1.2197  1.2822 -2.0992
  912MPD2    H213358   2.148   1.726  15.384  0.5502  1.0702  0.8662
  912MPD2    H313359   2.111   1.492  15.333 -2.8670  3.4489 -0.0669
  912MPD2     N13360   2.200   1.375  15.753  0.2719 -0.1400 -0.1607
  912MPD2    H513361   2.223   1.417  15.842  1.8244  2.0979 -1.5948
  912MPD2    N113362   2.186   1.834  15.621 -0.0240  0.1546  0.2179
  912MPD2    H713363   2.190   1.897  15.541 -0.0615 -0.9866 -0.6850
  913MPD2     C13364   3.293   2.874  10.051  0.5782  0.1826  0.7466
  913MPD2    C113365   3.408   2.937  10.091 -0.2179  0.0321 -0.0497
  913MPD2    C213366   3.467   3.039  10.014  0.2201 -0.1668 -0.0434
  913MPD2    C313367   3.405   3.076   9.893 -0.1532  0.5157 -0.4309
  913MPD2    C413368   3.295   3.009   9.852 -0.3296 -0.9762 -0.4039
  913MPD2    C513369   3.232   2.913   9.934 -0.0315 -0.0077 -0.4321
  913MPD2     H13370   3.547   3.104  10.048 -1.6083  0.8782  2.3091
  913MPD2    H113371   3.254   3.042   9.757 -0.2609  2.6528  0.8446
  913MPD2    H213372   3.259   2.790  10.110 -0.0839 -0.3766 -0.4291
  913MPD2    H313373   3.143   2.857   9.906 -0.0265 -0.7672  1.1166
  913MPD2     N13374   3.439   3.188   9.817 -0.5176 -0.0829  0.0929
  913MPD2    H513375   3.417   3.194   9.719 -0.6991  1.7999  0.2437
  913MPD2    N113376   3.458   2.895  10.217 -0.0810 -0.4235 -0.1222
  913MPD2    H713377   3.409   2.820  10.266 -1.1336  0.3647  0.0323
  914MPD2     C13378   1.179   2.226  11.714 -0.0346  0.5501 -0.1039
  914MPD2    C113379   1.225   2.356  11.693 -0.2354 -0.3569  0.2829
  914MPD2    C213380   1.311   2.408  11.787 -0.0951 -0.1697  0.0131
  914MPD2    C313381   1.351   2.334  11.895  0.0665  0.1375 -1.0498
  914MPD2    C413382   1.296   2.211  11.915 -0.4117 -1.0632 -0.0968
  914MPD2    C513383   1.215   2.156  11.825 -0.5849  0.3026 -0.7207
  914MPD2     H13384   1.363   2.503  11.781  0.7860 -0.6833 -0.5156
  914MPD2    H113385   1.330   2.146  11.996  2.2127  0.4515  0.0267
  914MPD2    H213386   1.115   2.181  11.640 -1.1836  0.9571  0.6286
  914MPD2    H313387   1.179   2.055  11.842 -1.7891  0.9928  0.8054
  914MPD2     N13388   1.443   2.387  11.990 -0.0139 -0.6200 -0.1652
  914MPD2    H513389   1.475   2.483  11.979 -1.8790 -0.0170 -0.3601
  914MPD2    N113390   1.186   2.410  11.568 -0.1544  0.0495  0.8191
  914MPD2    H713391   1.128   2.361  11.500  1.1001 -1.0103  0.5120
  915MPD2     C13392   4.154   2.764  15.500  0.0409  0.6233  0.5639
  915MPD2    C113393   4.020   2.782  15.480  0.6070 -0.0283  0.8961
  915MPD2    C213394   3.957   2.886  15.551 -0.5482  0.3350 -0.1399
  915MPD2    C313395   4.024   2.956  15.648  0.4990 -0.3588 -0.4054
  915MPD2    C413396   4.163   2.937  15.659  0.2892  0.7404  0.3638
  915MPD2    C513397   4.227   2.845  15.579 -0.0645 -0.3397 -0.4554
  915MPD2     H13398   3.851   2.901  15.538 -0.6437 -0.5119 -0.3733
  915MPD2    H113399   4.220   2.991  15.734 -0.6633 -0.7940  2.2041
  915MPD2    H213400   4.205   2.683  15.449 -0.2935  0.8466 -0.1264
  915MPD2    H313401   4.333   2.827  15.592  0.3953  2.1381 -0.8984
  915MPD2     N13402   3.941   3.032  15.740  0.0509  0.0320  0.4717
  915MPD2    H513403   3.842   3.014  15.730  0.1052 -1.3659  2.5771
  915MPD2    N113404   3.952   2.695  15.390  0.0027  0.0932  0.3156
  915MPD2    H713405   4.004   2.632  15.330 -0.1036 -0.2944  0.6348
  916MPD2     C13406   1.825   1.531  15.390  0.3699 -0.9768  0.6159
  916MPD2    C113407   1.814   1.458  15.507  0.6584 -0.3613  0.5480
  916MPD2    C213408   1.804   1.324  15.505  0.6561  0.1659  0.2245
  916MPD2    C313409   1.835   1.256  15.385 -0.4393  0.0734  0.8192
  916MPD2    C413410   1.844   1.329  15.267  0.7660 -0.4052  0.0544
  916MPD2    C513411   1.827   1.466  15.270 -0.3258 -0.4809 -0.3905
  916MPD2     H13412   1.771   1.271  15.594 -3.6007 -0.0986 -1.5009
  916MPD2    H113413   1.852   1.279  15.171 -0.8705 -0.3766 -0.0989
  916MPD2    H213414   1.823   1.639  15.398  0.2917 -1.0323  1.2965
  916MPD2    H313415   1.830   1.532  15.183 -1.1344  0.5504  0.3599
  916MPD2     N13416   1.854   1.120  15.395  0.6063 -0.6423  0.4097
  916MPD2    H513417   1.826   1.073  15.481 -0.4794  1.2144  1.0867
  916MPD2    N113418   1.787   1.534  15.616 -0.4806  0.0078  0.6271
  916MPD2    H713419   1.800   1.634  15.606 -1.1197 -0.0829 -1.1374
  917MPD2     C13420   2.606   3.353  10.820 -0.2626 -0.0274  0.4086
  917MPD2    C113421   2.686   3.357  10.928 -0.1816 -0.1531  0.1494
  917MPD2    C213422   2.810   3.427  10.918  0.0850 -0.7460 -0.2345
  917MPD2    C313423   2.855   3.476  10.797 -0.7537 -0.5991 -0.3584
  917MPD2    C413424   2.771   3.462  10.687 -0.1171 -0.7371 -0.6068
  917MPD2    C513425   2.645   3.403  10.699 -0.1550 -0.3831  1.0515
  917MPD2     H13426   2.875   3.430  11.005  0.9706  1.3421 -0.9848
  917MPD2    H113427   2.807   3.478  10.586  0.3653 -0.7770 -0.4432
  917MPD2    H213428   2.515   3.293  10.816 -1.6974  2.2886 -1.4994
  917MPD2    H313429   2.582   3.378  10.614 -2.1312  0.4823  2.2449
  917MPD2     N13430   2.979   3.545  10.776  0.2873  0.2447 -0.7366
  917MPD2    H513431   3.008   3.578  10.685 -0.5704 -3.8414 -2.4734
  917MPD2    N113432   2.645   3.280  11.043  0.1618  0.3113 -0.0101
  917MPD2    H713433   2.557   3.229  11.038  1.4965 -2.1629  1.7775
  918MPD2     C13434   2.705   3.609  12.003 -0.7645 -0.2201  0.3504
  918MPD2    C113435   2.808   3.594  11.917  0.2102 -0.1266  0.2591
  918MPD2    C213436   2.781   3.529  11.803  0.2195 -0.0724  0.1073
  918MPD2    C313437   2.660   3.464  11.782  0.1726 -0.2711 -0.0619
  918MPD2    C413438   2.558   3.478  11.872  0.7051 -0.6095 -0.2354
  918MPD2    C513439   2.578   3.556  11.984  0.5748  0.3109  0.7088
  918MPD2     H13440   2.860   3.528  11.729 -1.8320  0.1963 -2.0762
  918MPD2    H113441   2.464   3.431  11.849  0.5433 -1.0166  1.2575
  918MPD2    H213442   2.717   3.664  12.096 -0.2953 -0.6698  0.5513
  918MPD2    H313443   2.503   3.567  12.061  0.2131 -1.7471  0.6544
  918MPD2     N13444   2.648   3.389  11.664  0.5559  0.0853 -0.1546
  918MPD2    H513445   2.728   3.399  11.603  1.3533  1.9532  1.1919
  918MPD2    N113446   2.937   3.648  11.941  0.3036 -0.3023  0.5975
  918MPD2    H713447   3.000   3.631  11.863  1.0402  1.8562  0.7236
  919MPD2     C13448   3.702   2.512  11.698 -0.2951  0.0612  0.7872
  919MPD2    C113449   3.660   2.413  11.608  0.1873 -0.7974  0.2327
  919MPD2    C213450   3.601   2.446  11.485  0.7123 -0.8360 -0.3672
  919MPD2    C313451   3.582   2.580  11.460 -0.3513 -0.6286  0.0697
  919MPD2    C413452   3.643   2.675  11.535  0.0720 -0.1989 -0.1767
  919MPD2    C513453   3.701   2.642  11.659  0.5223  0.0325 -0.2166
  919MPD2     H13454   3.573   2.368  11.415  0.7904 -0.6119 -0.6465
  919MPD2    H113455   3.642   2.781  11.515 -1.0430 -0.0326  0.7280
  919MPD2    H213456   3.745   2.487  11.795  2.3090 -0.6810 -0.5388
  919MPD2    H313457   3.743   2.724  11.717  1.2845 -0.0838 -0.5974
  919MPD2     N13458   3.512   2.618  11.341 -0.4475  0.2693 -0.0262
  919MPD2    H513459   3.516   2.717  11.321  0.6370  0.5476  1.5494
  919MPD2    N113460   3.666   2.279  11.647  0.3514 -0.7467 -0.0148
  919MPD2    H713461   3.630   2.208  11.583  0.8734 -1.6483  0.6789
  920MPD2     C13462   3.434   3.228  10.554 -0.2185 -0.6205  0.0403
  920MPD2    C113463   3.345   3.138  10.506 -0.2494 -0.3962  0.0417
  920MPD2    C213464   3.314   3.029  10.588  0.8585 -0.1402  0.5738
  920MPD2    C313465   3.367   3.021  10.719  0.0506  0.6246 -0.7289
  920MPD2    C413466   3.453   3.120  10.760 -0.3663 -0.2359  0.0611
  920MPD2    C513467   3.486   3.225  10.682  0.1757 -0.5167 -0.0400
  920MPD2     H13468   3.247   2.953  10.549  0.8703  0.1634 -0.0378
  920MPD2    H113469   3.495   3.116  10.860 -0.4462  0.8243  0.1380
  920MPD2    H213470   3.450   3.314  10.490 -2.5012 -1.5357 -1.7588
  920MPD2    H313471   3.537   3.310  10.725 -0.4904  0.1720 -0.6265
  920MPD2     N13472   3.334   2.913  10.806  0.0736  0.3493  0.4516
  920MPD2    H513473   3.274   2.842  10.765 -1.2343  1.1130  1.0575
  920MPD2    N113474   3.288   3.149  10.375  0.5568 -0.2705  0.3401
  920MPD2    H713475   3.223   3.083  10.333  0.3253  0.2460 -0.1121
  921MPD2     C13476   3.446   2.187  16.547 -0.2617  0.7723  0.3812
  921MPD2    C113477   3.512   2.066  16.540  0.6807  0.0286 -0.0058
  921MPD2    C213478   3.436   1.950  16.543  0.0924 -0.6628 -0.2337
  921MPD2    C313479   3.299   1.955  16.546 -0.4018 -0.0501 -0.1341
  921MPD2    C413480   3.236   2.079  16.554 -0.4768 -0.3078 -1.2062
  921MPD2    C513481   3.313   2.195  16.553 -0.1422 -0.1905 -0.4760
  921MPD2     H13482   3.476   1.850  16.537 -2.4796 -1.7726  1.2286
  921MPD2    H113483   3.129   2.086  16.564 -0.6719 -4.9401  0.0959
  921MPD2    H213484   3.495   2.284  16.542  2.1123 -0.3917  1.0701
  921MPD2    H313485   3.263   2.291  16.560  2.4173  1.1629 -0.6952
  921MPD2     N13486   3.219   1.835  16.537 -0.0958 -0.4855  0.0511
  921MPD2    H513487   3.117   1.837  16.541 -0.0714  0.3742  0.3893
  921MPD2    N113488   3.655   2.076  16.530  0.0565 -0.6293  0.5335
  921MPD2    H713489   3.701   2.166  16.529 -2.2960  0.5559  0.1815
  922MPD2     C13490   4.301   4.569   0.139 -1.0505 -0.5974 -0.4018
  922MPD2    C113491   4.222   4.493   0.218  0.0979  0.0805  0.8489
  922MPD2    C213492   4.195   4.364   0.197  0.3364  0.7987  0.8153
  922MPD2    C313493   4.242   4.306   0.081  0.6966 -0.1217  0.5057
  922MPD2    C413494   4.331   4.377  17.691  0.1038  0.0344  0.0472
  922MPD2    C513495   4.359   4.506   0.029 -0.1137 -0.1678 -0.3298
  922MPD2     H13496   4.132   4.314   0.269  0.5226  0.0172  0.4289
  922MPD2    H113497   4.369   4.337  17.598 -0.2569 -0.2264  0.0101
  922MPD2    H213498   4.336   4.671   0.154 -0.3344 -0.9019 -0.0078
  922MPD2    H313499   4.431   4.559  17.660  0.3084  1.4117  1.5429
  922MPD2     N13500   4.189   4.183   0.054  0.4593 -0.1324  0.0853
  922MPD2    H513501   4.111   4.144   0.107  0.0869 -1.9133 -1.7573
  922MPD2    N113502   4.173   4.558   0.330 -0.5783 -0.5126 -0.3068
  922MPD2    H713503   4.135   4.494   0.399 -1.7880 -2.2554 -2.5885
  923MPD2     C13504   2.237   1.704   9.418 -0.0189  0.3879 -0.2349
  923MPD2    C113505   2.124   1.780   9.439 -0.0140 -0.5287 -0.1466
  923MPD2    C213506   2.026   1.728   9.523 -0.2750 -0.8016 -0.7446
  923MPD2    C313507   2.047   1.612   9.591  0.1967  0.7184  1.0606
  923MPD2    C413508   2.165   1.544   9.579  0.1314  0.7281 -0.4301
  923MPD2    C513509   2.257   1.584   9.485 -0.0541 -0.0907  0.1827
  923MPD2     H13510   1.934   1.784   9.540  2.6441  3.4840  0.7968
  923MPD2    H113511   2.189   1.461   9.645  0.0491 -0.2315 -1.6250
  923MPD2    H213512   2.314   1.744   9.353 -0.1089  2.6542  1.0776
  923MPD2    H313513   2.342   1.520   9.460  0.3659  0.6815 -0.3557
  923MPD2     N13514   1.956   1.560   9.688 -0.7202  0.0392 -0.0614
  923MPD2    H513515   1.970   1.469   9.733 -0.3466  0.5131  0.7790
  923MPD2    N113516   2.105   1.897   9.362  0.1822 -0.3991  0.8613
  923MPD2    H713517   2.180   1.912   9.294 -0.9292  0.0370 -0.2693
  924MPD2     C13518   0.614   4.374  16.018 -0.4822  0.4435  0.4357
  924MPD2    C113519   0.653   4.367  16.153  0.3444  0.1373  0.8983
  924MPD2    C213520   0.783   4.379  16.188  0.4478  0.2980 -0.3090
  924MPD2    C313521   0.880   4.408  16.089 -0.6920 -0.0848  0.0217
  924MPD2    C413522   0.849   4.419  15.959 -0.4165 -0.2677 -0.2568
  924MPD2    C513523   0.718   4.397  15.924  1.0024 -0.4027 -0.2312
  924MPD2     H13524   0.810   4.393  16.292  0.0851  0.6474 -0.2648
  924MPD2    H113525   0.922   4.450  15.885 -1.4180  2.5997 -0.0315
  924MPD2    H213526   0.510   4.365  15.990 -0.2204  0.6175 -0.6110
  924MPD2    H313527   0.701   4.397  15.817 -1.1685  0.7250  0.1228
  924MPD2     N13528   1.010   4.453  16.124 -0.0667  0.3466 -0.6163
  924MPD2    H513529   1.049   4.521  16.060  3.6309 -1.6208 -0.4678
  924MPD2    N113530   0.552   4.352  16.251  0.4286  0.3514  0.5322
  924MPD2    H713531   0.458   4.386  16.233  1.0778  1.0028 -1.5977
  925MPD2     C13532   0.217   1.535  14.533 -0.5575  0.1912 -0.6902
  925MPD2    C113533   0.172   1.659  14.589 -0.1634 -0.3036  0.1770
  925MPD2    C213534   0.103   1.661  14.708 -0.7701  0.1685 -1.0904
  925MPD2    C313535   0.074   1.545  14.778 -0.3196 -0.1172  0.0674
  925MPD2    C413536   0.112   1.423  14.726  0.6156 -0.4379 -0.3480
  925MPD2    C513537   0.188   1.421  14.608 -0.3184  0.1449 -0.3637
  925MPD2     H13538   0.061   1.757  14.737  2.5338  1.4464 -0.5452
  925MPD2    H113539   0.089   1.334  14.783  1.1755  0.5138  1.3519
  925MPD2    H213540   0.277   1.519  14.444  1.2792 -1.4787  0.8427
  925MPD2    H313541   0.237   1.335  14.563  0.3392  1.2751 -1.8288
  925MPD2     N13542   0.014   1.551  14.906  0.0106  0.9081 -1.0570
  925MPD2    H513543   4.721   1.463  14.954 -0.9537 -0.0918 -3.2038
  925MPD2    N113544   0.183   1.783  14.517 -0.2576  0.6009  0.0140
  925MPD2    H713545   0.137   1.864  14.557 -2.1462  0.4869 -1.9070
  926MPD2     C13546   3.413   0.422  13.554  0.0576  1.0065 -0.2138
  926MPD2    C113547   3.336   0.434  13.434 -0.0449  0.2264  0.9835
  926MPD2    C213548   3.404   0.467  13.316 -0.0355  0.7265  0.0646
  926MPD2    C313549   3.538   0.489  13.319  1.2370 -0.1847  0.0209
  926MPD2    C413550   3.611   0.471  13.435 -0.2581  0.1716  0.2205
  926MPD2    C513551   3.553   0.445  13.552 -0.3900 -0.1817 -0.1596
  926MPD2     H13552   3.347   0.482  13.225  0.4565 -0.4054 -0.4297
  926MPD2    H113553   3.717   0.489  13.438  0.0490 -1.9660  2.3498
  926MPD2    H213554   3.359   0.402  13.646 -2.8725 -3.0328 -2.8173
  926MPD2    H313555   3.605   0.434  13.646  0.2368  0.2536 -0.4579
  926MPD2     N13556   3.603   0.525  13.197 -0.4734 -0.4005  0.6389
  926MPD2    H513557   3.703   0.516  13.213 -0.5444 -0.8146  0.8371
  926MPD2    N113558   3.197   0.432  13.431  0.0790 -0.2805  0.2610
  926MPD2    H713559   3.159   0.461  13.342  0.9953  1.4484  0.4452
  927MPD2     C13560   2.610   2.896   0.420 -0.0849  0.2712 -0.9417
  927MPD2    C113561   2.647   3.014   0.379  0.6102  0.3323  0.1037
  927MPD2    C213562   2.753   3.015   0.284  0.3954 -0.1644 -0.5730
  927MPD2    C313563   2.805   2.900   0.230 -0.0531 -0.5896 -0.0979
  927MPD2    C413564   2.761   2.780   0.285 -0.8202  0.0053 -0.3130
  927MPD2    C513565   2.664   2.782   0.378 -0.2145 -0.3401 -0.3834
  927MPD2     H13566   2.794   3.108   0.246  2.7506 -0.5953  0.9217
  927MPD2    H113567   2.800   2.683   0.256 -1.1103  0.1681 -1.2479
  927MPD2    H213568   2.524   2.887   0.485  1.0242 -2.1314  0.1941
  927MPD2    H313569   2.623   2.690   0.417 -1.1690 -0.7054 -2.2621
  927MPD2     N13570   2.900   2.905   0.128  0.5506 -0.7840  0.3098
  927MPD2    H513571   2.931   2.999   0.102 -1.4623 -0.0509  0.5744
  927MPD2    N113572   2.596   3.128   0.445 -0.6876  1.0918  0.0717
  927MPD2    H713573   2.533   3.117   0.524 -1.4693 -0.9385 -0.8176
  928MPD2     C13574   0.695   1.244   0.634 -0.0133  0.6179  0.2349
  928MPD2    C113575   0.776   1.313   0.716 -0.1151 -1.1050  0.3662
  928MPD2    C213576   0.905   1.348   0.681 -0.7648  0.1638  0.0461
  928MPD2    C313577   0.948   1.319   0.553 -0.2142  0.7118 -0.3939
  928MPD2    C413578   0.869   1.249   0.466  0.7206 -0.2665 -0.3319
  928MPD2    C513579   0.746   1.209   0.507  0.2111  0.3039  0.5879
  928MPD2     H13580   0.969   1.394   0.754 -1.1652 -1.4168  1.4037
  928MPD2    H113581   0.895   1.225   0.364  2.1707  1.6876 -0.4283
  928MPD2    H213582   0.594   1.214   0.661 -0.7724  0.9085 -2.3441
  928MPD2    H313583   0.697   1.140   0.439 -0.6476  1.0822  0.4255
  928MPD2     N13584   1.076   1.349   0.511  0.3061 -0.0585  0.3044
  928MPD2    H513585   1.110   1.323   0.419 -2.6092  1.0487 -1.0573
  928MPD2    N113586   0.722   1.360   0.840  0.2910  0.0376 -0.0285
  928MPD2    H713587   0.621   1.368   0.845  0.3495  1.3912 -1.2287
  929MPD2     C13588   1.719   0.956  10.713 -0.0741  0.4287 -0.8488
  929MPD2    C113589   1.598   0.888  10.732  0.2088 -0.2078  0.0721
  929MPD2    C213590   1.491   0.918  10.650  0.0611 -0.1246  0.1831
  929MPD2    C313591   1.497   1.008  10.546  0.1655 -0.2529  0.0883
  929MPD2    C413592   1.616   1.076  10.525  0.0214  0.5478 -0.0528
  929MPD2    C513593   1.722   1.049  10.608 -0.0738  0.0078 -0.1664
  929MPD2     H13594   1.407   0.852  10.670 -0.8849  0.9678 -0.2004
  929MPD2    H113595   1.627   1.153  10.450  1.7125 -0.5337 -0.9220
  929MPD2    H213596   1.809   0.938  10.770 -1.9308 -2.1970  1.2243
  929MPD2    H313597   1.822   1.091  10.601 -0.6807  1.3791 -0.6207
  929MPD2     N13598   1.387   1.023  10.460 -0.2521 -0.2316 -0.1885
  929MPD2    H513599   1.397   1.088  10.383 -0.4054  0.7511  0.6079
  929MPD2    N113600   1.576   0.785  10.827  0.5765  0.0965  0.2707
  929MPD2    H713601   1.491   0.732  10.809  1.0657 -0.1849 -1.2262
  930MPD2     C13602   3.090   3.697  14.193  0.0396 -0.5557  0.5387
  930MPD2    C113603   3.098   3.697  14.057  0.3189  0.3605 -0.4882
  930MPD2    C213604   3.042   3.589  13.987 -0.0109 -0.2761 -0.0105
  930MPD2    C313605   2.975   3.490  14.056  0.3320 -0.5022  0.1015
  930MPD2    C413606   2.971   3.486  14.195  0.1065  0.2111  0.4704
  930MPD2    C513607   3.027   3.595  14.260  0.1902 -0.1243 -0.1057
  930MPD2     H13608   3.040   3.588  13.878  0.8329  2.2067 -0.0435
  930MPD2    H113609   2.914   3.415  14.254  0.8142  0.4827  1.4931
  930MPD2    H213610   3.120   3.777  14.259  0.1622  0.5190 -0.8138
  930MPD2    H313611   3.018   3.604  14.368 -1.3588 -0.2306 -0.2372
  930MPD2     N13612   2.926   3.384  13.981 -0.1670  1.3072 -0.5088
  930MPD2    H513613   2.950   3.397  13.883  0.7947  0.4384 -0.3858
  930MPD2    N113614   3.170   3.798  13.983 -0.2048 -0.3849 -0.8851
  930MPD2    H713615   3.153   3.793  13.883  1.1471  1.0758 -1.1835
  931MPD2     C13616   2.758   3.674   1.102  1.1612  0.0728 -1.0103
  931MPD2    C113617   2.799   3.582   1.005 -0.0491 -0.3648 -0.0924
  931MPD2    C213618   2.883   3.482   1.051  0.8766  0.1432 -0.1054
  931MPD2    C313619   2.905   3.464   1.188 -0.4230 -0.4385 -0.0767
  931MPD2    C413620   2.860   3.556   1.282  0.2520  0.2940  0.6537
  931MPD2    C513621   2.790   3.659   1.237 -0.6145  0.1906 -0.4520
  931MPD2     H13622   2.917   3.401   0.987  1.0389 -2.0113  2.6907
  931MPD2    H113623   2.879   3.539   1.388  4.0218 -0.5694 -0.1633
  931MPD2    H213624   2.699   3.762   1.077 -1.5346 -1.4809 -0.0934
  931MPD2    H313625   2.749   3.727   1.311  1.1410 -0.9937  1.6186
  931MPD2     N13626   2.961   3.343   1.245  0.2061  0.1194 -0.2613
  931MPD2    H513627   2.943   3.348   1.345 -1.1154 -0.4461 -0.4680
  931MPD2    N113628   2.735   3.577   0.882 -0.4551  0.3856  0.1340
  931MPD2    H713629   2.672   3.654   0.862 -0.4774  0.2335 -0.3792
  932MPD2     C13630   4.524   1.798  11.432  0.3664 -0.0703  0.0029
  932MPD2    C113631   4.664   1.803  11.422 -0.3056  0.5602  0.0132
  932MPD2    C213632   0.023   1.707  11.483  0.5558 -0.2990 -0.6560
  932MPD2    C313633   4.684   1.601  11.555 -0.1684 -0.0800 -0.1074
  932MPD2    C413634   4.550   1.591  11.562 -0.0837  0.3448  0.2803
  932MPD2    C513635   4.474   1.686  11.496 -0.4885  1.5967 -0.2150
  932MPD2     H13636   0.130   1.724  11.482  0.4981  0.0878 -0.3837
  932MPD2    H113637   4.494   1.511  11.609 -3.3745  3.8001  2.2324
  932MPD2    H213638   4.463   1.875  11.386 -0.8026 -0.8629  0.2289
  932MPD2    H313639   4.366   1.678  11.508 -0.3231  2.0489  1.6458
  932MPD2     N13640   0.030   1.511  11.632 -0.2165 -0.2074 -0.0803
  932MPD2    H513641   4.698   1.439  11.679 -0.8884 -0.3480 -1.0788
  932MPD2    N113642   0.001   1.916  11.358  0.4449 -1.1381 -0.2289
  932MPD2    H713643   0.102   1.926  11.368  0.9041 -1.7936 -4.1976
  933MPD2     C13644   0.106   1.494   0.894  0.8031  0.0477 -0.3738
  933MPD2    C113645   0.178   1.555   0.989  0.3797 -0.2747  0.1880
  933MPD2    C213646   0.121   1.666   1.058  0.3847 -0.2634  0.2533
  933MPD2    C313647   4.711   1.702   1.037  0.1056 -0.8326 -0.4412
  933MPD2    C413648   4.644   1.637   0.937  0.2829  0.4505 -0.6992
  933MPD2    C513649   4.703   1.530   0.871  0.0989  0.1884 -0.2559
  933MPD2     H13650   0.175   1.731   1.126 -0.2762 -1.0357  1.5149
  933MPD2    H113651   4.550   1.677   0.900  1.5719  1.5205 -2.7989
  933MPD2    H213652   0.157   1.437   0.818  2.1267  0.3195  0.3190
  933MPD2    H313653   4.660   1.496   0.778  0.2564 -0.3422 -0.1382
  933MPD2     N13654   4.667   1.818   1.110 -0.0492  0.2361  0.6960
  933MPD2    H513655   0.020   1.842   1.173  1.8969  0.2056 -1.6587
  933MPD2    N113656   0.308   1.520   1.019  0.3619  0.4065 -0.6435
  933MPD2    H713657   0.356   1.458   0.954 -0.4333  1.0251 -1.8245
  934MPD2     C13658   1.457   3.888   2.493  0.3688 -0.1974  0.2900
  934MPD2    C113659   1.566   3.916   2.418 -0.0454  0.7754  0.2508
  934MPD2    C213660   1.583   3.839   2.295 -0.1432 -1.4165  0.3771
  934MPD2    C313661   1.499   3.735   2.263 -0.6063  0.2954 -0.2603
  934MPD2    C413662   1.384   3.731   2.336  0.2762 -0.0091  0.0422
  934MPD2    C513663   1.364   3.796   2.453 -0.2297  0.2071 -0.1382
  934MPD2     H13664   1.669   3.861   2.233 -0.7112 -0.1843  0.0250
  934MPD2    H113665   1.305   3.670   2.293 -0.2328 -0.3289  1.4292
  934MPD2    H213666   1.444   3.939   2.587  2.2134  1.4341 -0.3546
  934MPD2    H313667   1.275   3.790   2.514 -0.0441  1.3538  0.2422
  934MPD2     N13668   1.502   3.666   2.142  0.4545  1.2097 -0.1089
  934MPD2    H513669   1.419   3.613   2.118  3.0298 -3.1191  0.4249
  934MPD2    N113670   1.668   4.005   2.446  0.5549 -0.4959 -0.0208
  934MPD2    H713671   1.738   4.021   2.375 -0.1501 -1.1684 -0.8744
  935MPD2     C13672   2.258   3.416   1.491 -0.0149 -0.1393  0.0791
  935MPD2    C113673   2.146   3.377   1.428 -1.0514  0.4404  0.7331
  935MPD2    C213674   2.032   3.412   1.503  0.6315 -0.5834  0.9698
  935MPD2    C313675   2.033   3.464   1.628 -0.1144  0.3239  0.0043
  935MPD2    C413676   2.151   3.504   1.687 -0.2495 -0.4555 -0.1383
  935MPD2    C513677   2.263   3.469   1.616 -0.5530  0.2755 -0.1540
  935MPD2     H13678   1.941   3.419   1.444  0.7355 -2.4339  0.5978
  935MPD2    H113679   2.163   3.562   1.778  0.8691 -1.0485  0.0921
  935MPD2    H213680   2.354   3.411   1.440  0.8679  1.4183  1.5753
  935MPD2    H313681   2.363   3.494   1.650 -0.3889  0.9241 -1.1433
  935MPD2     N13682   1.912   3.489   1.694 -0.0269 -0.4492 -0.8194
  935MPD2    H513683   1.914   3.541   1.782  1.1437 -1.7303 -0.0851
  935MPD2    N113684   2.142   3.319   1.297 -0.1560  0.2622 -0.2857
  935MPD2    H713685   2.051   3.286   1.268  1.0214 -2.8254 -0.4573
  936MPD2     C13686   0.665   0.348  12.407 -0.6565  0.4958  0.9658
  936MPD2    C113687   0.678   0.367  12.542 -0.0358 -0.0921  0.8768
  936MPD2    C213688   0.739   0.485  12.589 -0.1096  0.0279  0.2977
  936MPD2    C313689   0.788   0.579  12.500 -0.0843  0.2227  0.3186
  936MPD2    C413690   0.768   0.560  12.369 -0.5414 -0.0810 -0.6664
  936MPD2    C513691   0.705   0.447  12.320 -0.2758  0.2495 -0.0220
  936MPD2     H13692   0.752   0.501  12.695 -0.1566 -0.2002  0.3382
  936MPD2    H113693   0.815   0.626  12.297  2.7039 -0.4116  1.1179
  936MPD2    H213694   0.608   0.267  12.362 -2.4403  2.6032 -0.6019
  936MPD2    H313695   0.684   0.437  12.214  0.5645 -0.1975 -0.1462
  936MPD2     N13696   0.841   0.695  12.563  0.2512  0.1777 -0.5688
  936MPD2    H513697   0.839   0.694  12.665  0.4149 -2.2931 -0.5800
  936MPD2    N113698   0.627   0.281  12.641 -0.1093 -0.3338 -0.2837
  936MPD2    H713699   0.642   0.311  12.737  0.2812  1.0530 -0.7718
  937MPD2     C13700   3.821   1.615  11.382  0.0266  0.7097  0.8086
  937MPD2    C113701   3.820   1.758  11.389 -0.2254  0.8465 -0.8754
  937MPD2    C213702   3.851   1.830  11.278 -0.3457  0.0224 -0.3571
  937MPD2    C313703   3.891   1.762  11.163  0.3530  0.0267  0.0733
  937MPD2    C413704   3.901   1.627  11.163 -0.1396  0.0319 -0.2694
  937MPD2    C513705   3.867   1.551  11.271  0.1458 -0.0749  0.4450
  937MPD2     H13706   3.832   1.936  11.269  1.7006  0.5390  1.4202
  937MPD2    H113707   3.943   1.574  11.078  3.3540  2.3462 -0.0135
  937MPD2    H213708   3.798   1.545  11.461  0.6905 -1.1992 -0.6948
  937MPD2    H313709   3.868   1.442  11.274 -1.1115 -0.1171 -0.8697
  937MPD2     N13710   3.912   1.847  11.053  0.2547 -0.1815  0.0310
  937MPD2    H513711   3.894   1.947  11.054  1.0437 -0.0178 -1.1196
  937MPD2    N113712   3.757   1.831  11.496  0.0071 -0.1686  0.0549
  937MPD2    H713713   3.759   1.932  11.485  0.9731 -0.1331  0.5896
  938MPD2     C13714   1.131   3.399   0.939 -0.2995 -0.7437 -0.7077
  938MPD2    C113715   0.995   3.392   0.955  0.6063 -0.4034 -0.2543
  938MPD2    C213716   0.919   3.280   0.931  0.3990 -0.0385 -0.1305
  938MPD2    C313717   0.982   3.165   0.878 -0.0388 -0.4911 -0.3582
  938MPD2    C413718   1.120   3.161   0.855 -0.4550 -0.0183  0.6217
  938MPD2    C513719   1.186   3.280   0.894  0.7767 -0.9181  0.6974
  938MPD2     H13720   0.814   3.277   0.960  0.4833  0.7006  0.2385
  938MPD2    H113721   1.171   3.074   0.813 -1.8697 -0.1555 -0.8259
  938MPD2    H213722   1.191   3.481   0.975 -1.8093  0.1196 -0.1531
  938MPD2    H313723   1.294   3.278   0.889  0.6356 -0.2777 -2.6872
  938MPD2     N13724   0.910   3.050   0.838 -0.4418  0.4074  0.1582
  938MPD2    H513725   0.954   2.962   0.816  0.5650  1.3740 -1.7578
  938MPD2    N113726   0.926   3.500   1.013  0.1662 -0.6426 -0.1746
  938MPD2    H713727   0.835   3.475   1.049 -0.3195 -0.8593 -1.5558
  939MPD2     C13728   2.350   4.490   1.117 -0.2653 -0.3478  0.1363
  939MPD2    C113729   2.253   4.413   1.053 -0.1231  1.1904 -1.0085
  939MPD2    C213730   2.286   4.334   0.946  0.0121 -0.4889  0.3200
  939MPD2    C313731   2.423   4.330   0.903  0.1952 -0.4891 -0.2734
  939MPD2    C413732   2.517   4.399   0.974  0.1218 -0.7320 -0.0588
  939MPD2    C513733   2.477   4.487   1.075 -0.2716  1.1126  0.7489
  939MPD2     H13734   2.206   4.280   0.898  2.3587 -1.1232 -2.8821
  939MPD2    H113735   2.620   4.399   0.940  0.9757 -0.2854  2.5288
  939MPD2    H213736   2.328   4.553   1.202 -0.8911  0.2063 -0.4367
  939MPD2    H313737   2.552   4.550   1.123  3.7142 -3.5185  0.6625
  939MPD2     N13738   2.458   4.237   0.798  0.2762  0.6188  0.1966
  939MPD2    H513739   2.382   4.181   0.761  0.5538 -1.0347  2.1280
  939MPD2    N113740   2.119   4.441   1.093  0.6904 -0.1529 -0.4114
  939MPD2    H713741   2.113   4.508   1.169 -0.8795 -0.1958 -0.5138
  940MPD2     C13742   1.114   0.417  12.660 -0.0268  0.0617 -0.5139
  940MPD2    C113743   1.202   0.383  12.760  0.1291 -0.0007  0.3634
  940MPD2    C213744   1.326   0.447  12.763 -0.4599  0.0757 -0.7206
  940MPD2    C313745   1.367   0.533  12.662 -0.4659 -0.2979 -0.1657
  940MPD2    C413746   1.266   0.571  12.576  0.5840  0.2264  0.0567
  940MPD2    C513747   1.141   0.517  12.573 -0.2127 -0.5896 -1.5195
  940MPD2     H13748   1.398   0.422  12.839  0.1362  0.2215 -1.2352
  940MPD2    H113749   1.291   0.637  12.494  4.0515 -1.9443 -0.6343
  940MPD2    H213750   1.010   0.385  12.663 -0.4190  1.3346 -0.4680
  940MPD2    H313751   1.066   0.541  12.499  1.2754 -0.9665 -3.1599
  940MPD2     N13752   1.497   0.595  12.648 -0.4961 -0.4049 -0.1352
  940MPD2    H513753   1.504   0.654  12.566 -0.9266  2.3725  1.8503
  940MPD2    N113754   1.163   0.277  12.843 -0.1296 -0.5585 -0.3085
  940MPD2    H713755   1.077   0.233  12.811 -0.1728  0.7794 -2.0058
  941MPD2     C13756   0.217   3.882   9.525 -0.2205  0.4635  0.8034
  941MPD2    C113757   0.119   3.943   9.600  0.3553 -0.3611  0.1247
  941MPD2    C213758   0.030   3.865   9.665  0.2607  0.5789 -0.1373
  941MPD2    C313759   0.017   3.734   9.648  0.8261  1.0785 -0.0871
  941MPD2    C413760   0.104   3.672   9.566 -0.2676 -0.0457  0.6308
  941MPD2    C513761   0.204   3.745   9.510  0.6778  0.0235 -0.2800
  941MPD2     H13762   4.682   3.912   9.732 -0.5492 -2.1241  0.9072
  941MPD2    H113763   0.089   3.573   9.524 -1.1164 -0.0256  0.8898
  941MPD2    H213764   0.298   3.925   9.467 -1.4985  1.4254 -0.2682
  941MPD2    H313765   0.273   3.695   9.443  0.9925  0.7044 -0.4605
  941MPD2     N13766   4.636   3.648   9.702 -0.1194 -0.1874  0.0426
  941MPD2    H513767   4.629   3.550   9.676 -0.8350  0.1417 -1.0317
  941MPD2    N113768   0.108   4.083   9.614 -0.2226 -0.1595  0.6584
  941MPD2    H713769   0.032   4.114   9.674 -2.0125 -0.5538 -1.3895
  942MPD2     C13770   0.255   2.356   9.630  0.3835  0.1351 -0.6774
  942MPD2    C113771   0.393   2.341   9.605 -0.2698 -1.2058 -0.4387
  942MPD2    C213772   0.434   2.209   9.624 -0.4068  0.0348  0.1978
  942MPD2    C313773   0.347   2.101   9.649 -0.0697  0.0911  0.3731
  942MPD2    C413774   0.209   2.124   9.658  0.3466  0.0569 -0.4659
  942MPD2    C513775   0.171   2.252   9.654 -0.6586 -0.0883  0.3494
  942MPD2     H13776   0.538   2.191   9.598 -0.3130 -0.5213  0.9575
  942MPD2    H113777   0.137   2.046   9.681 -0.6011  1.5934  1.8444
  942MPD2    H213778   0.202   2.450   9.633 -0.2632 -0.2577  0.3155
  942MPD2    H313779   0.064   2.272   9.658 -0.8668 -0.6162 -2.6416
  942MPD2     N13780   0.387   1.967   9.657 -0.0368 -0.0189 -0.0477
  942MPD2    H513781   0.314   1.896   9.663  2.9929 -3.0800  0.6518
  942MPD2    N113782   0.477   2.445   9.565 -0.1076  0.0545  0.1623
  942MPD2    H713783   0.574   2.430   9.539  0.2753  0.2448  1.5071
  943MPD2     C13784   4.133   0.271   9.744 -0.6901  0.6409  1.1189
  943MPD2    C113785   4.135   0.154   9.818 -0.5213 -0.1963  1.1472
  943MPD2    C213786   4.159   0.164   9.957 -0.6741 -0.8516  0.6802
  943MPD2    C313787   4.172   0.283  10.022 -1.0080  0.0066  0.7913
  943MPD2    C413788   4.160   0.397   9.943 -0.1296 -0.2117 -0.1530
  943MPD2    C513789   4.142   0.393   9.806 -0.1444 -0.3470  1.2016
  943MPD2     H13790   4.162   0.070  10.011  0.5725 -0.5261  1.1816
  943MPD2    H113791   4.167   0.494   9.992  4.6492  0.0483 -1.3258
  943MPD2    H213792   4.111   0.269   9.638  1.0647  1.0718  0.7470
  943MPD2    H313793   4.142   0.486   9.750  3.2371 -1.5380 -0.8134
  943MPD2     N13794   4.189   0.288  10.169  0.0427 -0.2950 -0.7420
  943MPD2    H513795   4.188   0.383  10.206  1.2328 -0.5645 -0.0354
  943MPD2    N113796   4.126   0.033   9.738  0.3284 -0.3966 -0.4662
  943MPD2    H713797   4.114   0.039   9.638  1.3526  2.6727 -0.4016
  944MPD2     C13798   3.583   3.564  10.493  0.2747  0.1468 -0.3653
  944MPD2    C113799   3.713   3.623  10.472  0.6676 -0.2661 -0.1704
  944MPD2    C213800   3.774   3.692  10.576  1.5458 -0.2157  0.5317
  944MPD2    C313801   3.715   3.702  10.694  0.5162 -0.9494  0.0543
  944MPD2    C413802   3.589   3.641  10.718  0.1921 -0.5668  0.0504
  944MPD2    C513803   3.522   3.574  10.613  0.3856  0.3698  0.1951
  944MPD2     H13804   3.866   3.743  10.550  1.6698  0.3190  2.0342
  944MPD2    H113805   3.535   3.654  10.810 -2.3952 -0.6183 -1.4620
  944MPD2    H213806   3.520   3.517  10.419  0.2295 -0.8017  0.2759
  944MPD2    H313807   3.424   3.534  10.638  1.2136 -0.6122  1.8599
  944MPD2     N13808   3.776   3.782  10.794  0.4239  0.2205 -0.1511
  944MPD2    H513809   3.844   3.852  10.767  0.2750  0.0761 -0.9059
  944MPD2    N113810   3.764   3.611  10.341  0.2977  0.1970  0.1554
  944MPD2    H713811   3.716   3.543  10.282  1.3120 -0.5790  0.2178
    1TCq1    O113812   2.226   3.808  14.342 -0.0113 -0.3964  0.2257
    1TCq1    C113813   2.136   3.715  14.388 -1.0892  0.2606  0.2429
    1TCq1    O213814   2.047   3.658  14.328  0.2675 -0.2700  0.3202
    1TCq1    C213815   2.163   3.718  14.534 -0.3263 -0.8622  0.4710
    1TCq1    C313816   2.162   3.599  14.602 -0.3309 -0.7770 -0.7953
    1TCq1    C413817   2.130   3.607  14.734  0.0733  0.1917  0.0975
    1TCq1    C513818   2.114   3.725  14.802 -0.0866 -0.1863 -0.0768
    1TCq1    C613819   2.126   3.840  14.731 -0.0160 -1.0785  0.1117
    1TCq1    C713820   2.162   3.842  14.596  0.0397  0.1360  0.4589
    1TCq1    C813821   2.098   3.967  14.805  0.3032 -0.4074 -0.5843
    1TCq1    O413822   2.138   3.967  14.922  0.6569 -0.4297  0.3361
    1TCq1    C913823   2.125   3.479  14.815  0.2829  0.7187  0.1029
    1TCq1    O513824   2.116   3.495  14.943  0.0204  0.9907 -0.2739
    1TCq1    O613825   2.155   3.375  14.749 -0.1413 -0.0943 -0.1792
    1TCq1    H113826   2.301   3.839  14.397 -0.1920 -0.0449  0.2735
    1TCq1    H213827   2.171   3.501  14.557 -1.6844 -1.1620 -0.2220
    1TCq1    H313828   2.071   3.734  14.901 -1.4372  0.1726 -0.6913
    1TCq1    H413829   2.170   3.933  14.539 -1.1944  0.6271  1.0817
    2MPD2     C13830   2.005   4.473  14.849  0.2815  1.0111  0.0137
    2MPD2    C113831   1.996   4.435  14.716  0.3871  0.1000 -0.5506
    2MPD2    C213832   2.017   4.309  14.680 -0.2375 -0.7501 -0.0185
    2MPD2    C313833   2.040   4.209  14.779 -0.1328 -0.5342  0.1248
    2MPD2    C413834   2.049   4.248  14.912  0.4237  0.6401 -0.3862
    2MPD2    C513835   2.025   4.377  14.948 -0.2710 -0.7005  0.1665
    2MPD2     H13836   2.019   4.276  14.577 -1.7890 -0.1823 -0.2296
    2MPD2    H113837   2.078   4.171  14.983 -0.6056  0.0928 -0.5525
    2MPD2    H213838   1.987   4.577  14.870  1.8083  0.7084  2.7725
    2MPD2    H313839   2.046   4.402  15.052 -1.6327 -3.5249  1.1401
    2MPD2     N13840   2.062   4.076  14.729  0.7458 -0.1025  0.2837
    2MPD2    H513841   2.019   4.056  14.639  2.5070 -1.3947 -0.2611
    2MPD2    N113842   1.960   4.541  14.625  0.6025 -0.1694 -0.5373
    2MPD2    H713843   1.950   4.632  14.670  0.3573  0.7136 -2.4040
    3TMC2    C113844   1.955   4.671  14.435  0.6614 -0.3039 -0.5469
    3TMC2    C213845   1.971   0.060  14.519  0.4719  0.3422 -0.1994
    3TMC2    C313846   1.972   0.180  14.457 -0.3268 -0.3749 -0.2369
    3TMC2    C413847   1.932   4.674  14.295 -0.5094 -0.3913 -0.4866
    3TMC2    C513848   1.921   0.074  14.245  0.0865  0.3437 -0.1164
    3TMC2    C613849   1.941   0.195  14.323  0.0659 -0.0865  0.4994
    3TMC2     C13850   1.946   4.538  14.495 -0.6257  0.8096 -0.5755
    3TMC2     O13851   1.909   4.442  14.430 -0.2577 -0.0818 -0.1629
    3TMC2     H13852   1.987   0.052  14.626  0.0336  0.6529 -0.1111
    3TMC2    H113853   1.931   4.582  14.236 -0.5439  0.5256 -1.9230
    3TMC2    H213854   1.919   0.291  14.277 -1.5071 -1.6326 -1.9557
    3TMC2    C713855   1.873   0.071  14.102  0.5155  0.3591 -0.1208
    3TMC2    C813856   1.983   0.307  14.526 -0.2231 -0.5096 -0.0637
    3TMC2    O113857   1.819   4.693  14.059  0.0698  0.4393  0.1719
    3TMC2    O213858   1.950   0.416  14.483  0.9417 -0.2281 -0.1156
    3TMC2    O513859   2.042   0.287  14.643 -0.4041 -0.6310 -0.1540
    3TMC2    H513860   2.094   0.204  14.653  0.2238 -0.3945 -1.3855
    4MPD2     C13861   1.204   1.141  13.753 -0.2826  0.0425  0.4355
    4MPD2    C113862   1.207   1.029  13.673 -0.8023 -0.5342  0.3031
    4MPD2    C213863   1.328   0.974  13.638 -0.4926  0.5009  0.4590
    4MPD2    C313864   1.447   1.034  13.690  0.4957  0.1085 -0.3219
    4MPD2    C413865   1.432   1.149  13.765 -0.3216 -0.4274 -0.4424
    4MPD2    C513866   1.310   1.194  13.810  0.4108  0.4143  0.3114
    4MPD2     H13867   1.337   0.881  13.583 -2.4501  0.2661  0.5359
    4MPD2    H113868   1.516   1.199  13.810 -1.6419  1.3360  0.0599
    4MPD2    H213869   1.107   1.182  13.778  0.5783  2.3272  0.0565
    4MPD2    H313870   1.318   1.283  13.871 -2.1477  0.7845  0.1234
    4MPD2     N13871   1.574   0.978  13.667  0.1185 -0.8123  0.3646
    4MPD2    H513872   1.580   0.887  13.623  0.1690 -0.9103  0.5722
    4MPD2    N113873   1.082   0.975  13.633 -0.3661  0.3960  0.5057
    4MPD2    H713874   0.999   1.024  13.665 -1.3466 -1.4980  0.9330
    5TCq2    C113875   1.691   1.047  13.684  0.3555 -0.2220 -0.3660
    5TCq2    O213876   1.713   1.162  13.710  0.4430  0.5717  0.3940
    5TCq2    C213877   1.801   0.961  13.661  0.9420 -0.0466  0.1853
    5TCq2    C313878   1.924   1.018  13.631 -0.5351  0.0323 -1.2923
    5TCq2    C413879   2.032   0.940  13.650 -0.3549 -0.0877  0.0494
    5TCq2    C513880   2.033   0.813  13.703 -0.3919  0.4547 -0.4286
    5TCq2    C613881   1.913   0.762  13.731  0.2620  0.9742 -0.6462
    5TCq2    C713882   1.792   0.831  13.707  0.3096  0.1383  0.2813
    5TCq2    C813883   1.911   0.635  13.799  0.2206 -0.6759  0.1769
    5TCq2    O413884   2.016   0.597  13.848  0.0767 -0.2768  0.1511
    5TCq2    C913885   2.153   0.997  13.594  0.3496  0.8043 -0.2361
    5TCq2    O513886   2.146   1.075  13.492 -0.2710  0.5800  0.9171
    5TCq2    O613887   2.261   0.933  13.621  0.0763 -0.4249  0.6701
    5TCq2    H213888   1.933   1.112  13.577 -0.0449  0.7012 -0.0562
    5TCq2    H313889   2.129   0.765  13.716 -0.7555 -0.2617 -0.4262
    5TCq2    H413890   1.699   0.794  13.749 -0.4654  3.1660  1.1950
    6MPD1     C13891   0.919   2.392  12.884 -0.0474 -0.0471 -0.0477
    6MPD1    C113892   1.012   2.299  12.830 -0.4015  0.0111 -0.1955
    6MPD1    C213893   0.987   2.165  12.836 -0.3297  0.0066  0.4157
    6MPD1    C313894   0.870   2.117  12.898 -0.0885  0.0643  0.6715
    6MPD1    C413895   0.791   2.209  12.968  0.3591 -0.1216 -0.5403
    6MPD1    C513896   0.820   2.346  12.955 -0.0094 -0.2399 -0.4603
    6MPD1     H13897   1.061   2.111  12.778  0.4110  0.7606  0.6622
    6MPD1    H113898   0.701   2.174  13.016  0.7374  0.0452  0.2928
    6MPD1    H213899   0.942   2.498  12.887 -3.8056  0.7620 -0.7777
    6MPD1    H313900   0.769   2.421  13.014 -0.1350  1.5307 -2.8676
    6MPD1     N13901   0.830   1.988  12.897  0.2748  0.7960  0.0689
    6MPD1    H513902   0.738   1.970  12.938  0.6938  2.1444  1.6435
    6MPD1    N113903   1.108   2.354  12.747  0.3506  0.2242 -0.1257
    6MPD1    H613904   1.131   2.446  12.783  0.0276  0.0935  0.4080
    6MPD1    H713905   1.193   2.297  12.748  0.9036  1.0190 -1.3661
    7MPD2     C13906   0.595   1.434  13.149 -0.2710  0.4816 -0.3043
    7MPD2    C113907   0.669   1.428  13.262 -0.1532  0.9250 -0.3150
    7MPD2    C213908   0.677   1.317  13.346 -0.0316  0.5993 -0.0345
    7MPD2    C313909   0.584   1.208  13.319 -0.1411  0.1653 -0.3212
    7MPD2    C413910   0.510   1.218  13.197  0.1137  1.1215  0.0572
    7MPD2    C513911   0.518   1.330  13.116  0.1877  0.1067 -0.0546
    7MPD2     H13912   0.743   1.302  13.430  0.3570 -0.8226 -0.5935
    7MPD2    H113913   0.457   1.129  13.165  1.7390 -0.3049  1.3527
    7MPD2    H213914   0.587   1.508  13.071 -0.3809 -0.0570 -0.8089
    7MPD2    H313915   0.439   1.332  13.041  1.1104  1.0784 -1.0009
    7MPD2     N13916   0.590   1.078  13.380 -0.6419 -0.5909 -0.1033
    7MPD2    H513917   0.543   1.005  13.328  0.9838 -0.6757 -1.4823
    7MPD2    N113918   0.736   1.546  13.307 -0.2517  1.0504  0.3455
    7MPD2    H713919   0.755   1.548  13.406  1.6482 -2.3663  0.0486
    8TMC3    C113920   0.709   0.920  13.484 -0.2175 -0.3184 -0.1206
    8TMC3    C213921   0.822   0.913  13.563  0.3284 -0.4967  0.6416
    8TMC3    C313922   0.930   0.841  13.519 -0.0264 -0.3520 -0.2310
    8TMC3    C413923   0.705   0.853  13.365  0.3360 -0.0231  1.0081
    8TMC3    C513924   0.812   0.779  13.325 -0.5028 -0.1582  0.2543
    8TMC3    C613925   0.914   0.759  13.410 -0.6566 -0.5316 -0.0192
    8TMC3     C13926   0.650   1.046  13.496  0.3607 -0.2811 -0.3070
    8TMC3     O13927   0.668   1.115  13.594  0.5965  0.0387 -0.1650
    8TMC3     H13928   0.829   0.979  13.648 -1.1119  0.2208  0.2001
    8TMC3    H113929   0.610   0.842  13.313  1.4206 -0.3877 -0.8945
    8TMC3    H213930   1.009   0.718  13.378  0.3197  1.4526  0.3467
    8TMC3    C713931   0.855   0.835  13.205  0.7098 -0.6141  0.1927
    8TMC3    C813932   1.062   0.860  13.569  0.8001  0.1373  0.0353
    8TMC3    O113933   0.972   0.875  13.196 -0.6829 -0.3064  0.1759
    8TMC3    O213934   1.143   0.780  13.527  0.5564  0.0557 -0.6383
    9TMC3    C113935   0.832   1.765  12.904  0.4787  0.0340 -0.7562
    9TMC3    C213936   0.888   1.645  12.848 -0.5733  0.7276 -0.5719
    9TMC3    C313937   0.901   1.535  12.930 -0.4528  0.0132 -0.3627
    9TMC3    C413938   0.797   1.770  13.039 -0.0916 -0.1368 -0.0707
    9TMC3    C513939   0.812   1.656  13.112  0.1239 -0.5409 -0.2153
    9TMC3    C613940   0.873   1.547  13.059 -0.4882  0.1967 -0.1308
    9TMC3     C13941   0.902   1.879  12.858  0.3756  0.1319  0.6862
    9TMC3     O13942   1.003   1.870  12.786 -0.5698  0.0219 -0.2880
    9TMC3     H13943   0.948   1.654  12.758  0.4096 -0.1433  0.0045
    9TMC3    H113944   0.753   1.853  13.092  1.1936  1.0001 -0.7760
    9TMC3    H213945   0.883   1.463  13.128  0.6698  0.4278 -0.0142
    9TMC3    C713946   0.772   1.663  13.249  0.1171 -0.9168 -0.1442
    9TMC3    C813947   0.841   1.410  12.868  0.8475 -0.2071 -0.2444
    9TMC3    O113948   0.817   1.757  13.306 -0.2121 -0.4589  0.0291
    9TMC3    O213949   0.808   1.417  12.752  0.0023  0.1406 -0.5002
   10MPD2     C13950   0.648   0.932  12.921 -0.1979 -0.4508  0.2202
   10MPD2    C113951   0.747   0.945  13.019 -0.2742 -0.2095  0.5062
   10MPD2    C213952   0.822   1.060  13.015 -0.3528  0.0199 -0.2937
   10MPD2    C313953   0.793   1.169  12.929 -0.6682  0.1250  0.4391
   10MPD2    C413954   0.696   1.147  12.834 -0.2989 -0.0277 -0.4996
   10MPD2    C513955   0.617   1.034  12.836 -0.0791  0.1215  0.0561
   10MPD2     H13956   0.901   1.069  13.089 -1.0506 -0.4926  0.5113
   10MPD2    H113957   0.680   1.234  12.770  0.3167 -1.0603 -2.0491
   10MPD2    H213958   0.589   0.844  12.901 -0.8722  0.0685 -0.0422
   10MPD2    H313959   0.544   1.014  12.759 -0.6207 -0.0468  0.6191
   10MPD2     N13960   0.860   1.295  12.950 -0.2935 -0.2798 -0.0644
   10MPD2    H513961   0.923   1.312  13.027 -1.2720  0.1351  0.6403
   10MPD2    N113962   0.751   0.841  13.117 -0.3820  0.3070 -0.0402
   10MPD2    H713963   0.684   0.765  13.123  0.5255 -0.2946  2.4569
   11MPD2     C13964   1.754   0.157  13.847  0.3210  0.7139 -0.4998
   11MPD2    C113965   1.827   0.239  13.929 -0.0249 -0.3075 -0.2761
   11MPD2    C213966   1.841   0.367  13.895 -0.2306  0.5821 -0.6451
   11MPD2    C313967   1.785   0.428  13.783  0.5396  0.0155 -0.4585
   11MPD2    C413968   1.703   0.345  13.707 -0.3313  0.1686 -0.2610
   11MPD2    C513969   1.687   0.215  13.744  0.6168 -0.3634  0.1189
   11MPD2     H13970   1.896   0.426  13.968  0.8081 -3.0469  1.4992
   11MPD2    H113971   1.650   0.368  13.616  1.5091 -0.9692 -1.6220
   11MPD2    H213972   1.736   0.053  13.874 -2.4780  1.0368 -1.1622
   11MPD2    H313973   1.639   0.149  13.673 -0.5363 -0.7503  1.2710
   11MPD2     N13974   1.798   0.567  13.755 -0.7532  0.0678 -0.3002
   11MPD2    H513975   1.727   0.613  13.698 -3.0998 -0.0937  2.4616
   11MPD2    N113976   1.892   0.191  14.042 -0.0317  0.0148 -0.1055
   11MPD2    H713977   1.955   0.253  14.092 -0.1817  2.9494 -3.5528
    1MPD1     C13978   3.610   1.788  17.163 -0.2858  0.6167  0.1398
    1MPD1    C113979   3.660   1.736  17.041  0.0298  0.3302 -0.1245
    1MPD1    C213980   3.787   1.770  17.002  0.6625 -0.9946  0.3558
    1MPD1    C313981   3.847   1.876  17.069 -0.0039 -1.1106 -0.4862
    1MPD1    C413982   3.789   1.946  17.173 -0.1844  0.0345 -0.3192
    1MPD1    C513983   3.672   1.896  17.219  0.5300 -0.4750 -0.4464
    1MPD1     H13984   3.836   1.724  16.917  0.3880  1.9505 -1.3521
    1MPD1    H113985   3.837   2.033  17.216  0.4506 -0.6309  0.2999
    1MPD1    H213986   3.525   1.736  17.206 -0.0390 -1.0633 -1.3955
    1MPD1    H313987   3.624   1.943  17.304  1.8668  0.0290  0.0347
    1MPD1     N13988   3.975   1.924  17.032 -0.1612  0.0978  0.5255
    1MPD1    H513989   4.000   2.009  17.082 -2.3986  1.4527 -0.6872
    1MPD1    N113990   3.600   1.626  16.986  0.1359 -0.0694  0.2891
    1MPD1    H613991   3.628   1.615  16.889 -0.7803  1.1007 -0.1033
    1MPD1    H713992   3.498   1.634  16.990 -0.0401 -2.4184  0.9447
    2MPD1     C13993   4.176   2.772  17.106  0.2918  0.4308  0.1398
    2MPD1    C113994   4.073   2.707  17.041 -0.0905 -0.0205  0.0348
    2MPD1    C213995   4.079   2.567  17.013  1.0072  0.2691  0.4680
    2MPD1    C313996   4.192   2.493  17.053  0.1283 -0.4501 -0.6702
    2MPD1    C413997   4.294   2.557  17.114  0.1743 -0.0771 -0.2259
    2MPD1    C513998   4.288   2.695  17.138 -0.2843  0.3361  0.6123
    2MPD1     H13999   3.998   2.513  16.966  2.1989 -0.2579 -0.9963
    2MPD1    H114000   4.376   2.511  17.168 -0.4574 -0.1834  0.6490
    2MPD1    H214001   4.180   2.880  17.112  1.4284  0.4922 -1.8065
    2MPD1    H314002   4.370   2.736  17.195  0.1617  0.3566 -0.0338
    2MPD1     N14003   4.195   2.353  17.018 -0.5624  0.2086 -0.4332
    2MPD1    H514004   4.124   2.328  16.950  1.3308 -0.3120 -2.2122
    2MPD1    N114005   3.973   2.794  16.992 -0.7092 -0.1168  0.1175
    2MPD1    H614006   3.880   2.751  16.997 -0.6783 -0.1618  0.3082
    2MPD1    H714007   3.959   2.888  17.027  2.3754 -0.0271  1.1210
    3TMC3    C114008   4.302   2.159  16.978  0.6803 -0.0192  0.2541
    3TMC3    C214009   4.416   2.096  16.954  0.6292  0.3261 -0.6358
    3TMC3    C314010   4.410   1.963  16.914 -0.1968  0.5468  0.4775
    3TMC3    C414011   4.184   2.094  16.977 -0.2938 -0.7769  0.2135
    3TMC3    C514012   4.186   1.964  16.934  0.1287 -0.8589 -0.7372
    3TMC3    C614013   4.296   1.898  16.887  0.7876  0.1124  0.9105
    3TMC3     C14014   4.299   2.274  17.056  0.2494  0.0476  0.6041
    3TMC3     O14015   4.394   2.295  17.130  0.0533  0.0891  0.9188
    3TMC3     H14016   4.512   2.139  16.982  0.9767 -1.1424  0.4399
    3TMC3    H114017   4.088   2.137  17.004  0.9574  1.8663  0.4244
    3TMC3    H214018   4.298   1.798  16.846  2.3151  1.0739 -1.4249
    3TMC3    C714019   4.068   1.872  16.941 -0.2432  0.4520  0.1503
    3TMC3    C814020   4.541   1.899  16.892 -0.4960 -0.0167 -0.2314
    3TMC3    O114021   4.058   1.764  16.881  0.5789 -0.1103 -0.4557
    3TMC3    O214022   4.542   1.778  16.866  0.5749 -0.1161 -0.2795
    4MPD1     C14023   0.306   1.903  16.752 -0.2074 -0.6419 -0.0292
    4MPD1    C114024   0.259   2.030  16.756  0.8677  0.3277  0.1120
    4MPD1    C214025   0.134   2.042  16.793  0.5468  0.3576 -0.1105
    4MPD1    C314026   0.055   1.939  16.841 -0.4539 -0.4060 -0.0796
    4MPD1    C414027   0.109   1.810  16.841 -0.2037  0.2240  1.5971
    4MPD1    C514028   0.239   1.799  16.799 -0.5436  0.3561 -0.1093
    4MPD1     H14029   0.095   2.143  16.804 -0.1287  0.1902 -0.9868
    4MPD1    H114030   0.062   1.722  16.882  0.1874 -0.6180  0.2197
    4MPD1    H214031   0.405   1.875  16.720  0.8897 -0.6138  3.3482
    4MPD1    H314032   0.292   1.705  16.811 -0.7334  0.1190 -1.0893
    4MPD1     N14033   4.645   1.980  16.864  0.0729  1.2991 -0.1745
    4MPD1    H514034   4.628   2.080  16.861 -0.8253  1.1622  0.4416
    4MPD1    N114035   0.348   2.131  16.715  0.2315 -0.0204 -0.0351
    4MPD1    H614036   0.379   2.117  16.619  0.0487  2.4868 -0.4728
    4MPD1    H714037   0.302   2.222  16.711 -0.0042 -0.1461 -0.2017
    1TCq1    O114038   1.411   1.612  11.183 -0.5696  1.2026  0.6371
    1TCq1    C114039   1.284   1.651  11.170  0.4876 -0.4918  0.4217
    1TCq1    O214040   1.190   1.604  11.232  0.4431  0.0125 -0.0051
    1TCq1    C214041   1.264   1.707  11.032 -0.7937 -0.7018  0.0714
    1TCq1    C314042   1.165   1.656  10.951 -0.5621  0.8285  0.0389
    1TCq1    C414043   1.155   1.724  10.826  0.7074 -0.2099  0.3670
    1TCq1    C514044   1.261   1.786  10.773  0.1819 -0.4054 -0.3349
    1TCq1    C614045   1.360   1.828  10.852  0.0644  0.2121  0.0757
    1TCq1    C714046   1.365   1.783  10.983  0.0325 -0.1874 -0.1270
    1TCq1    C814047   1.475   1.892  10.795  0.5423  1.1617  0.3816
    1TCq1    O414048   1.548   1.962  10.864  0.0688  0.1863 -0.0108
    1TCq1    C914049   1.068   1.666  10.726 -0.1016 -0.0836  0.5948
    1TCq1    O514050   0.985   1.581  10.768  0.4397  0.2887  0.5158
    1TCq1    O614051   1.058   1.722  10.617 -0.5879 -0.2044 -0.2938
    1TCq1    H114052   1.477   1.657  11.126  0.3273 -0.6842  0.1673
    1TCq1    H214053   1.089   1.592  10.995  0.3687 -1.2489 -1.3896
    1TCq1    H314054   1.251   1.831  10.675  1.9943  0.5111 -0.1151
    1TCq1    H414055   1.455   1.803  11.039 -0.4187 -2.2149  1.3282
    2MPD1     C14056   1.806   1.938  10.408 -0.2035  0.6393  0.3996
    2MPD1    C114057   1.717   1.841  10.370 -0.0616  0.0081 -0.4158
    2MPD1    C214058   1.610   1.818  10.453 -0.7997  0.0195 -0.1249
    2MPD1    C314059   1.595   1.884  10.573 -0.0960  0.2917 -0.1890
    2MPD1    C414060   1.690   1.976  10.610 -0.0138  0.4186  0.0644
    2MPD1    C514061   1.792   2.010  10.526 -0.3551  0.3087 -0.0497
    2MPD1     H14062   1.533   1.744  10.431 -1.0646  0.1851  0.2555
    2MPD1    H114063   1.680   2.040  10.697 -1.9151  1.4441 -0.9026
    2MPD1    H214064   1.894   1.958  10.349 -1.0772  1.6845 -0.5479
    2MPD1    H314065   1.864   2.090  10.542  0.4112 -0.4665  0.3822
    2MPD1     N14066   1.487   1.850  10.663 -0.1057 -0.4111  0.6081
    2MPD1    H514067   1.425   1.776  10.631  1.3177 -0.6527 -1.6328
    2MPD1    N114068   1.762   1.749  10.273 -0.1629  0.3252  0.3958
    2MPD1    H614069   1.681   1.721  10.218  0.4857 -4.2230  1.7282
    2MPD1    H714070   1.821   1.794  10.204  0.0224 -3.1463 -1.7135
    1TCq1    O114071   3.298   2.865   0.373  0.3023 -0.0463  0.7692
    1TCq1    C114072   3.200   2.784   0.336 -0.0136 -0.5577 -0.8303
    1TCq1    O214073   3.210   2.694   0.249  0.1307  0.4272  0.1178
    1TCq1    C214074   3.125   2.767   0.458  0.7637 -0.4492 -0.6204
    1TCq1    C314075   3.091   2.877   0.534  0.9106  0.1439 -0.1322
    1TCq1    C414076   2.984   2.867   0.606 -0.0450 -0.0945  0.0162
    1TCq1    C514077   2.899   2.763   0.596  0.5868  0.4874 -0.0479
    1TCq1    C614078   2.952   2.646   0.548 -0.1564 -0.2294 -0.1934
    1TCq1    C714079   3.065   2.648   0.472  0.5104  0.4722  0.3918
    1TCq1    C814080   2.872   2.527   0.573 -0.7119  0.5687 -0.2463
    1TCq1    O414081   2.777   2.530   0.653 -0.1802  0.2811  0.2960
    1TCq1    C914082   2.927   2.991   0.650  0.3684 -0.4458 -0.1947
    1TCq1    O514083   2.830   2.998   0.728  1.1841  0.0123 -0.0499
    1TCq1    O614084   3.006   3.092   0.655  0.0735  0.0014  0.0850
    1TCq1    H114085   3.296   2.890   0.468  1.3950 -1.1577  1.0878
    1TCq1    H214086   3.138   2.973   0.517  0.7546  0.3470  0.5748
    1TCq1    H314087   2.808   2.758   0.655 -1.8788 -1.2772 -3.9300
    1TCq1    H414088   3.115   2.558   0.439 -0.9671 -0.4166  0.5826
    2MPD1     C14089   2.758   2.032   0.486 -0.0396 -0.4531 -0.4108
    2MPD1    C114090   2.881   2.055   0.426 -0.1867  0.4745  0.1662
    2MPD1    C214091   2.932   2.182   0.437 -0.2718 -0.4416  0.6903
    2MPD1    C314092   2.871   2.279   0.513  0.0123 -0.5816 -0.6614
    2MPD1    C414093   2.766   2.249   0.594 -0.3701 -0.6888  0.1628
    2MPD1    C514094   2.702   2.129   0.570 -0.2519  0.1588 -0.6773
    2MPD1     H14095   3.016   2.206   0.373  0.0094 -0.2199  1.1377
    2MPD1    H114096   2.732   2.309   0.678 -0.7194  0.7139 -0.9817
    2MPD1    H214097   2.715   1.935   0.467 -0.7893 -0.5842  1.9878
    2MPD1    H314098   2.612   2.096   0.620  0.2049  2.9517  1.9916
    2MPD1     N14099   2.924   2.415   0.506  0.1302  0.0004 -0.2876
    2MPD1    H514100   2.993   2.430   0.433  1.4170  1.0372  1.1637
    2MPD1    N114101   2.929   1.964   0.331 -0.1541 -0.6734  0.3229
    2MPD1    H614102   3.027   1.984   0.310 -0.4844  0.5252 -0.1266
    2MPD1    H714103   2.914   1.867   0.357 -2.7154 -0.2215  0.5793
    1MPD1     C14104   2.692   1.150  12.141  0.0858  0.0572  0.2173
    1MPD1    C114105   2.792   1.100  12.062  0.5079 -0.2093  0.5262
    1MPD1    C214106   2.866   1.190  11.978  0.0835  0.7373  0.5197
    1MPD1    C314107   2.814   1.319  11.956  0.0458 -0.0596  0.4259
    1MPD1    C414108   2.719   1.363  12.042 -0.7728  0.2577  0.9487
    1MPD1    C514109   2.652   1.278  12.127  0.5860  0.1368  0.2697
    1MPD1     H14110   2.947   1.143  11.923  0.1683  1.4129  0.0561
    1MPD1    H114111   2.670   1.460  12.036 -1.3857  0.1947  4.9292
    1MPD1    H214112   2.633   1.088  12.207 -0.7214 -0.1802 -0.7258
    1MPD1    H314113   2.575   1.321  12.189  1.9159 -1.3110  2.9423
    1MPD1     N14114   2.872   1.401  11.856 -0.4194 -0.1492 -0.3995
    1MPD1    H514115   2.949   1.367  11.800  1.4937  0.1830  2.0308
    1MPD1    N114116   2.821   0.965  12.063  0.0959 -0.0881  0.2231
    1MPD1    H614117   2.841   0.932  11.968  2.1799 -0.7748  0.9065
    1MPD1    H714118   2.741   0.916  12.102  0.0996 -0.1750  0.1230
    2MPD1     C14119   2.957   2.699  10.115  0.9980 -0.1045  0.4494
    2MPD1    C114120   2.846   2.680  10.191 -0.5349 -0.2354  0.3731
    2MPD1    C214121   2.793   2.556  10.209  0.0720  0.1258  0.7979
    2MPD1    C314122   2.842   2.449  10.140  0.4272 -0.4346  0.6253
    2MPD1    C414123   2.951   2.464  10.054 -0.3897  0.1876  0.0518
    2MPD1    C514124   3.006   2.591  10.049 -0.2286  0.6330 -0.1389
    2MPD1     H14125   2.728   2.541  10.294  1.3352  1.2377  1.9449
    2MPD1    H114126   2.996   2.382  10.000  3.2278  1.7200  0.7597
    2MPD1    H214127   3.010   2.794  10.119  0.9007 -0.0056 -0.6175
    2MPD1    H314128   3.089   2.606   9.981  1.2900 -0.8519  1.3855
    2MPD1     N14129   2.806   2.313  10.159  0.0587 -0.0427  0.0686
    2MPD1    H514130   2.850   2.233  10.115 -0.2058 -0.6841  0.9760
    2MPD1    N114131   2.809   2.785  10.275 -0.0211 -0.3598  0.1475
    2MPD1    H614132   2.717   2.772  10.316  0.1471 -0.7776  0.3843
    2MPD1    H714133   2.812   2.879  10.234 -1.5620 -0.0298  0.7979
    3MPD1     C14134   2.300   2.097  10.956  0.4580 -1.0036  0.2041
    3MPD1    C114135   2.290   2.204  10.872 -0.3678  0.1503  0.4225
    3MPD1    C214136   2.345   2.197  10.739 -0.1272 -0.6652  0.1784
    3MPD1    C314137   2.406   2.078  10.692 -0.4564  0.3537  0.0060
    3MPD1    C414138   2.418   1.969  10.778  1.0102 -0.3895 -0.0955
    3MPD1    C514139   2.374   1.983  10.912  0.6491  0.1749 -0.7621
    3MPD1     H14140   2.356   2.284  10.676  0.3340  0.7217  2.1790
    3MPD1    H114141   2.479   1.881  10.757  2.8042  0.7199  0.4137
    3MPD1    H214142   2.272   2.106  11.061 -2.0727 -0.7574 -0.4873
    3MPD1    H314143   2.374   1.897  10.977 -0.7207  0.0060 -0.9699
    3MPD1     N14144   2.467   2.065  10.565 -0.6030  0.6618  0.2203
    3MPD1    H514145   2.469   2.155  10.518 -1.3916 -0.6155 -2.2591
    3MPD1    N114146   2.254   2.327  10.927  0.0318  0.1108  0.0129
    3MPD1    H614147   2.195   2.325  11.009  2.5236 -0.9011  1.7861
    3MPD1    H714148   2.203   2.384  10.859 -2.5527 -0.4371  1.5441
    4MPD2     C14149   2.894   2.054  11.331 -0.3569  0.1137 -0.0203
    4MPD2    C114150   3.010   1.991  11.372  0.4250 -0.3621 -0.1121
    4MPD2    C214151   3.118   1.988  11.285 -0.1569 -0.0763 -0.2520
    4MPD2    C314152   3.132   2.058  11.166 -0.0178 -0.3080  0.8734
    4MPD2    C414153   3.022   2.132  11.129  0.7805 -0.4746 -0.5457
    4MPD2    C514154   2.912   2.131  11.216  0.0935 -0.1114 -0.2550
    4MPD2     H14155   3.198   1.921  11.315 -0.3637  0.0165  0.5113
    4MPD2    H114156   3.024   2.184  11.034  1.8723  0.5766  0.0480
    4MPD2    H214157   2.800   2.045  11.384  0.7807 -1.9358  1.6506
    4MPD2    H314158   2.828   2.185  11.172  1.9105  0.8188 -2.5612
    4MPD2     N14159   3.242   2.034  11.074 -0.3656  0.0676  0.8854
    4MPD2    H514160   3.240   2.089  10.988 -0.1620  0.6264  1.2378
    4MPD2    N114161   3.019   1.930  11.500  0.3521  0.5766  0.0936
    4MPD2    H714162   3.103   1.876  11.519  0.6518  0.8570 -0.4296
    5TMC3    C114163   2.973   1.839  11.711 -0.4750  0.1608 -0.2211
    5TMC3    C214164   2.880   1.743  11.744 -0.2084 -0.3650  0.1398
    5TMC3    C314165   2.926   1.617  11.754 -0.5391  0.0238 -0.6391
    5TMC3    C414166   3.105   1.803  11.687 -0.0720  0.2686 -0.1835
    5TMC3    C514167   3.144   1.673  11.692 -0.2082  0.1375  0.1170
    5TMC3    C614168   3.058   1.574  11.723 -0.0671  0.2563 -0.0480
    5TMC3     C14169   2.925   1.918  11.599  0.1564  1.0499  0.0060
    5TMC3     O14170   2.801   1.927  11.585  0.3774 -0.9053 -0.5442
    5TMC3     H14171   2.773   1.758  11.752 -0.2831 -0.2444 -1.0912
    5TMC3    H114172   3.179   1.883  11.682 -1.2145  1.1511 -3.0960
    5TMC3    H214173   3.087   1.470  11.732  0.9809  0.6444  1.1084
    5TMC3    C714174   3.237   1.650  11.579  0.2559  0.1190 -0.3224
    5TMC3    C814175   2.826   1.523  11.810  0.1560 -0.3198  0.2337
    5TMC3    O114176   3.241   1.751  11.506  0.0394  0.1159  0.3650
    5TMC3    O214177   2.710   1.565  11.813  0.1561 -0.6057 -0.2023
    6TMC3    C114178   2.686   2.132  10.263 -0.5698  0.2226 -0.1390
    6TMC3    C214179   2.573   2.088  10.327  0.4474 -0.3903 -0.5516
    6TMC3    C314180   2.577   1.964  10.380  0.3480  0.4600 -0.2058
    6TMC3    C414181   2.799   2.055  10.243  0.8340  0.4783 -1.1916
    6TMC3    C514182   2.797   1.931  10.297 -0.4295  0.6684 -0.6334
    6TMC3    C614183   2.690   1.884  10.370  0.3448 -0.5075  0.1061
    6TMC3     C14184   2.709   2.274  10.246  0.6617 -0.1357  0.0789
    6TMC3     O14185   2.642   2.339  10.325  0.2137 -0.0109 -0.6514
    6TMC3     H14186   2.489   2.155  10.334  2.7307  2.4899 -0.5557
    6TMC3    H114187   2.898   2.094  10.222  0.1844  2.2652 -0.9387
    6TMC3    H214188   2.696   1.799  10.437  2.4872 -3.0514 -3.3013
    6TMC3    C714189   2.931   1.896  10.337  0.0542  0.1263  0.5737
    6TMC3    C814190   2.497   1.951  10.501  0.1852  0.3388  0.2803
    6TMC3    O114191   2.990   1.987  10.397 -0.4558  0.2942  0.5035
    6TMC3    O214192   2.481   1.833  10.527  0.6063 -0.0686 -0.4602
    7MPD2     C14193   3.501   1.392  11.212 -0.2973 -0.1320  0.7700
    7MPD2    C114194   3.489   1.526  11.240  0.7205 -0.1184  0.1888
    7MPD2    C214195   3.421   1.576  11.351  0.0827  0.3774  0.2859
    7MPD2    C314196   3.359   1.486  11.435  0.3431  0.2327  0.2764
    7MPD2    C414197   3.395   1.356  11.425 -0.3759 -0.7445 -0.0660
    7MPD2    C514198   3.456   1.306  11.315 -0.0529 -0.3990  0.1913
    7MPD2     H14199   3.413   1.683  11.361 -0.3978  0.3919 -0.2241
    7MPD2    H114200   3.355   1.287  11.499 -1.7053 -0.2579 -0.3227
    7MPD2    H214201   3.551   1.350  11.125  1.3092  0.0683  1.6065
    7MPD2    H314202   3.473   1.200  11.299 -0.7061 -0.4459 -0.1729
    7MPD2     N14203   3.273   1.523  11.551  0.8170 -0.0650 -0.8065
    7MPD2    H514204   3.259   1.454  11.624 -1.2549  1.0461 -0.1483
    7MPD2    N114205   3.533   1.623  11.150  0.2156  0.6424 -0.1400
    7MPD2    H714206   3.511   1.719  11.177  1.1018 -0.0807  3.1643
    8TMC3    C114207   3.564   1.739  10.955 -0.0605 -0.0042  0.0082
    8TMC3    C214208   3.501   1.726  10.837  0.3070  0.4548 -0.2168
    8TMC3    C314209   3.423   1.831  10.792  0.1461  0.3043 -0.4954
    8TMC3    C414210   3.550   1.843  11.035 -0.0061  0.2770  0.1134
    8TMC3    C514211   3.454   1.936  10.998 -0.2452 -0.4959  0.0987
    8TMC3    C614212   3.399   1.939  10.876  0.1946 -0.1446  0.4437
    8TMC3     C14213   3.581   1.609  11.023  0.5548 -0.0450 -0.3646
    8TMC3     O14214   3.624   1.522  10.948 -0.0402 -0.7372  0.3975
    8TMC3     H14215   3.507   1.631  10.785 -1.5515 -0.3584  1.0472
    8TMC3    H114216   3.603   1.855  11.128 -1.1531 -0.0253  0.8046
    8TMC3    H214217   3.337   2.021  10.840  2.5749  0.5404 -2.0858
    8TMC3    C714218   3.355   1.964  11.108  0.8226  0.7518  0.4519
    8TMC3    C814219   3.321   1.816  10.685 -0.0918 -0.4853 -0.2039
    8TMC3    O114220   3.386   1.895  11.204  0.0204 -0.2467 -0.9605
    8TMC3    O214221   3.218   1.878  10.707  0.4824 -0.0367 -0.3084
    9MPD2     C14222   3.329   1.594  10.399 -0.3088  1.1270  0.2666
    9MPD2    C114223   3.287   1.698  10.473 -0.6437  0.3173 -0.9830
    9MPD2    C214224   3.165   1.757  10.432  0.6369 -0.0243  0.0443
    9MPD2    C314225   3.095   1.711  10.323 -0.2446 -0.3767  0.4717
    9MPD2    C414226   3.142   1.602  10.256 -0.2514 -0.5131  0.0104
    9MPD2    C514227   3.261   1.552  10.286  0.0114  0.7665  1.1850
    9MPD2     H14228   3.118   1.833  10.493 -0.7015 -1.7320  1.1365
    9MPD2    H114229   3.097   1.567  10.164 -1.9406 -0.0042  0.6549
    9MPD2    H214230   3.423   1.551  10.431 -1.5220 -1.5847  0.2918
    9MPD2    H314231   3.305   1.470  10.230  0.1163  0.6577  1.4265
    9MPD2     N14232   2.983   1.783  10.279  0.5871 -0.3550 -0.3723
    9MPD2    H514233   2.937   1.739  10.200 -1.7867  0.1266  0.7428
    9MPD2    N114234   3.355   1.731  10.589 -0.1368 -0.0831 -0.0861
    9MPD2    H714235   3.452   1.701  10.592  0.0021  0.4707  1.0741
    1MPD1     C14236   2.845   0.792  16.315  1.0796  1.0291  0.2843
    1MPD1    C114237   2.747   0.879  16.286 -0.3631  0.1225  0.5931
    1MPD1    C214238   2.625   0.864  16.336  0.1723 -0.4906 -0.7909
    1MPD1    C314239   2.594   0.760  16.422  0.2839  0.5354 -0.2423
    1MPD1    C414240   2.696   0.676  16.454  0.0175  0.1779  0.4419
    1MPD1    C514241   2.822   0.702  16.414  0.2909 -0.0590 -0.3319
    1MPD1     H14242   2.550   0.931  16.295  0.8131  1.5827  1.4583
    1MPD1    H114243   2.674   0.588  16.513  0.8158 -2.0632 -2.6397
    1MPD1    H214244   2.942   0.799  16.266  0.9911 -0.7033 -0.1601
    1MPD1    H314245   2.899   0.632  16.444  0.2942 -0.2317 -0.7443
    1MPD1     N14246   2.466   0.734  16.475 -0.1304  0.2507  0.2458
    1MPD1    H514247   2.470   0.660  16.544 -0.7920 -1.1039 -1.2006
    1MPD1    N114248   2.768   0.963  16.181 -0.2888  0.2548 -0.5874
    1MPD1    H614249   2.867   0.977  16.160 -0.4632 -0.2699 -1.7775
    1MPD1    H714250   2.726   1.054  16.196  0.6622  0.3771  1.3378
    2MPD1     C14251   1.745   1.131  16.035 -0.0945  0.9852  0.2081
    2MPD1    C114252   1.876   1.169  16.062 -0.0722  0.4126  0.5190
    2MPD1    C214253   1.946   1.096  16.162  0.3963 -0.6244 -0.3914
    2MPD1    C314254   1.874   1.021  16.254  0.7782 -0.1797 -0.8606
    2MPD1    C414255   1.732   1.011  16.244  0.1271  0.3229  0.0124
    2MPD1    C514256   1.674   1.061  16.129  0.2771 -0.3939  0.3807
    2MPD1     H14257   2.050   1.106  16.188  0.1133  0.7458  0.2204
    2MPD1    H114258   1.678   0.953  16.317  2.7218  0.2255  1.8595
    2MPD1    H214259   1.687   1.165  15.950  0.1325 -1.9865 -1.1486
    2MPD1    H314260   1.575   1.035  16.094  0.7681 -1.4450 -0.2373
    2MPD1     N14261   1.942   0.949  16.350 -0.4861 -0.6576 -0.4108
    2MPD1    H514262   2.042   0.967  16.360 -0.7533  0.5088  0.1402
    2MPD1    N114263   1.929   1.251  15.967  0.4439 -0.5350 -0.3737
    2MPD1    H614264   1.854   1.302  15.919  3.3259  0.8286 -3.4104
    2MPD1    H714265   1.997   1.314  16.009 -2.7249  1.5140  1.7039
    3TCq2    C114266   1.893   0.863  16.450  0.1390 -1.1166  0.4233
    3TCq2    O214267   1.784   0.811  16.469  0.1564 -0.2435 -0.1138
    3TCq2    C214268   2.000   0.802  16.531  0.0643 -0.4947 -0.1522
    3TCq2    C314269   1.977   0.672  16.567  0.6889  0.3876 -0.2608
    3TCq2    C414270   2.085   0.601  16.603 -0.6428  0.2126  0.3988
    3TCq2    C514271   2.208   0.644  16.573  0.1674 -0.6152  0.7680
    3TCq2    C614272   2.236   0.769  16.532 -0.0885 -0.1449 -0.8351
    3TCq2    C714273   2.124   0.856  16.512  0.1860 -0.0112  0.0714
    3TCq2    C814274   2.352   0.812  16.455 -0.3063  0.2249 -0.6676
    3TCq2    O414275   2.325   0.904  16.378  0.2470  0.0619  0.0180
    3TCq2    C914276   2.059   0.478  16.671  0.0488  0.3570  0.3373
    3TCq2    O514277   1.943   0.441  16.688 -0.1037 -0.4357  0.1974
    3TCq2    O614278   2.158   0.404  16.686  0.1830  0.1130 -0.4436
    3TCq2    H214279   1.881   0.622  16.571  1.8740 -1.9885 -1.3873
    3TCq2    H314280   2.290   0.574  16.587 -0.0447 -1.0758 -0.3438
    3TCq2    H414281   2.139   0.963  16.507 -3.0126  0.4179 -0.3994
    1TCq1    O114282   0.056   3.228  12.726  0.3020  0.6947 -0.3697
    1TCq1    C114283   0.050   3.359  12.745 -0.6041 -0.2090 -0.3276
    1TCq1    O214284   0.137   3.423  12.807 -0.4577 -0.0439 -0.1005
    1TCq1    C214285   4.658   3.419  12.685 -0.5280 -0.4451  0.5271
    1TCq1    C314286   4.538   3.373  12.721  0.6417  0.0944  0.1260
    1TCq1    C414287   4.424   3.432  12.676  0.9722  0.7114  0.0238
    1TCq1    C514288   4.425   3.549  12.610 -0.2125 -0.1894  0.1185
    1TCq1    C614289   4.553   3.609  12.601  0.0956 -0.3580  0.0626
    1TCq1    C714290   4.668   3.544  12.635  0.4203 -0.1734  0.0277
    1TCq1    C814291   4.554   3.734  12.521 -0.2621 -0.4193 -0.2143
    1TCq1    O414292   4.471   3.756  12.435  0.6346 -0.1967 -0.3116
    1TCq1    C914293   4.298   3.364  12.696  0.7840  0.6853 -0.2036
    1TCq1    O514294   4.298   3.253  12.768  0.3243 -0.1647 -0.1003
    1TCq1    O614295   4.209   3.403  12.616  0.1906  0.0611  0.1004
    1TCq1    H114296   4.699   3.200  12.676 -0.7934 -0.9894  2.2997
    1TCq1    H214297   4.542   3.274  12.767 -1.3679  1.3797  3.0427
    1TCq1    H314298   4.340   3.598  12.564 -1.8327 -2.1220  1.0811
    1TCq1    H414299   0.041   3.586  12.608  0.1314  2.4023  3.1643
    2MPD2     C14300   4.676   3.948  12.349  1.0082 -0.5327  0.2449
    2MPD2    C114301   4.709   3.920  12.476  0.2456 -0.4740 -0.0310
    2MPD2    C214302   0.082   3.996  12.537  0.5610  0.4630  0.2122
    2MPD2    C314303   0.166   4.083  12.462 -0.1586 -0.1319 -0.5403
    2MPD2    C414304   0.122   4.119  12.335 -0.8433  0.1984 -0.8874
    2MPD2    C514305   0.010   4.052  12.279 -0.0478  1.2644 -0.3264
    2MPD2     H14306   0.104   3.973  12.640  0.6823 -2.5783 -0.4716
    2MPD2    H114307   0.172   4.190  12.270  0.7578 -1.0397 -1.0211
    2MPD2    H214308   4.613   3.877  12.296  2.4858 -0.9804 -0.9183
    2MPD2    H314309   4.712   4.067  12.174  2.2810  1.5194 -0.7470
    2MPD2     N14310   0.285   4.131  12.525  0.5425 -0.7622  0.2912
    2MPD2    H514311   0.293   4.113  12.625 -0.2104 -0.9178  0.3237
    2MPD2    N114312   4.661   3.812  12.552 -0.2245 -0.0245  0.1202
    2MPD2    H714313   4.706   3.800  12.642 -0.5661  0.6703  0.3825
    3TCq1    O114314   0.576   4.480  12.950  0.2901 -0.8583  0.3066
    3TCq1    C114315   0.484   4.414  12.880 -0.6458 -0.1331 -0.4405
    3TCq1    O214316   0.370   4.413  12.915 -0.7201 -0.1960  0.2322
    3TCq1    C214317   0.527   4.369  12.750 -0.4770  0.3816 -0.7386
    3TCq1    C314318   0.655   4.369  12.713  0.4346  0.4387  0.1574
    3TCq1    C414319   0.696   4.306  12.598 -0.2836 -0.0695  0.3056
    3TCq1    C514320   0.604   4.245  12.520  0.8901 -0.7288 -0.1934
    3TCq1    C614321   0.470   4.259  12.545 -0.0128 -0.7287  0.4245
    3TCq1    C714322   0.434   4.323  12.663  0.3167 -0.7820 -0.7024
    3TCq1    C814323   0.376   4.205  12.457 -0.2029 -0.6804 -0.3629
    3TCq1    O414324   0.407   4.183  12.341  0.5337  0.2042 -0.1234
    3TCq1    C914325   0.835   4.296  12.569  0.0296  0.1033 -0.4254
    3TCq1    O514326   0.886   4.225  12.480  0.2947  0.3981 -0.5033
    3TCq1    O614327   0.905   4.389  12.615  0.3439 -0.1274 -0.5671
    3TCq1    H114328   0.670   4.476  12.920  0.2990 -0.6865  0.3124
    3TCq1    H214329   0.735   4.374  12.786  0.0262  0.2651  0.6151
    3TCq1    H314330   0.646   4.193  12.435  1.9153  0.3090 -0.3143
    3TCq1    H414331   0.332   4.334  12.700  0.5026 -1.1114 -0.0979
    1MPD2     C14332   3.590   0.379  15.397  0.6011 -0.5129 -0.9353
    1MPD2    C114333   3.683   0.308  15.320 -0.2347 -0.7132  0.3041
    1MPD2    C214334   3.799   0.270  15.387  0.4244  0.0885  0.5052
    1MPD2    C314335   3.826   0.300  15.519  0.6323  0.6445  0.4443
    1MPD2    C414336   3.732   0.357  15.593 -0.2006 -0.0527  0.1094
    1MPD2    C514337   3.615   0.403  15.527  0.0304 -0.2775 -0.0639
    1MPD2     H14338   3.874   0.220  15.327 -1.6337  0.1789 -2.1426
    1MPD2    H114339   3.736   0.376  15.699  2.1155 -0.3981  0.0982
    1MPD2    H214340   3.489   0.401  15.363  0.1014  1.4227  1.7847
    1MPD2    H314341   3.536   0.447  15.587  1.1095  1.9956 -0.3043
    1MPD2     N14342   3.956   0.265  15.561  0.7432 -0.8585  0.2099
    1MPD2    H514343   4.016   0.231  15.486  0.2052 -0.1793 -0.5242
    1MPD2    N114344   3.651   0.269  15.188 -0.3324  0.4476  0.0721
    1MPD2    H714345   3.562   0.305  15.155 -1.0784 -1.5672 -0.0764
    2TMC3    C114346   3.695   0.215  14.970  0.0397  0.3834  0.0343
    2TMC3    C214347   3.780   0.141  14.896 -0.3468 -0.0479  0.2745
    2TMC3    C314348   3.843   0.194  14.787  0.4222  0.2283 -0.0182
    2TMC3    C414349   3.669   0.345  14.936  0.0092  0.4881  0.0202
    2TMC3    C514350   3.727   0.383  14.817 -0.5100  0.1676  0.7372
    2TMC3    C614351   3.814   0.315  14.742 -0.6306 -0.0007 -0.0415
    2TMC3     C14352   3.724   0.184  15.108 -0.4255  0.2959  0.7781
    2TMC3     O14353   3.828   0.122  15.132  0.3190  0.0424 -0.0331
    2TMC3     H14354   3.790   0.036  14.921  1.3596 -0.3881 -1.7428
    2TMC3    H114355   3.600   0.405  14.995 -0.1847 -2.1269  2.4718
    2TMC3    H214356   3.857   0.342  14.647  0.7181 -0.7896  0.3429
    2TMC3    C714357   3.678   0.503  14.750  0.5004  0.1558  0.1285
    2TMC3    C814358   3.981   0.153  14.770  0.5393  0.0063  0.3708
    2TMC3    O114359   3.565   0.540  14.777 -0.1643 -0.0930  0.0487
    2TMC3    O214360   4.046   0.190  14.671 -0.1358 -0.0935 -0.4976
    3TCq1    O114361   4.533   1.346  14.288  0.3849 -0.0978 -0.5686
    3TCq1    C114362   4.408   1.322  14.245  0.4067 -0.5040  0.2827
    3TCq1    O214363   4.334   1.394  14.179  0.6021  0.2623  0.3126
    3TCq1    C214364   4.371   1.194  14.296  0.0228  1.1553  0.4362
    3TCq1    C314365   4.462   1.099  14.335 -0.1500  0.3459  0.0115
    3TCq1    C414366   4.423   0.992  14.413  0.0482  0.5189  0.0523
    3TCq1    C514367   4.288   0.969  14.437 -0.1333  0.0070  0.4258
    3TCq1    C614368   4.197   1.058  14.387  0.0359  0.4456 -0.3593
    3TCq1    C714369   4.240   1.171  14.325 -0.2886  0.1394  0.5624
    3TCq1    C814370   4.055   1.037  14.391 -0.8598  0.1146 -0.4135
    3TCq1    O414371   3.977   1.129  14.367  0.0522  0.3684  0.3276
    3TCq1    C914372   4.518   0.895  14.460  0.7324  0.1578  0.3759
    3TCq1    O514373   4.637   0.918  14.434  0.1499  0.5445 -0.1448
    3TCq1    O614374   4.481   0.823  14.555  0.1850 -0.9186 -0.2116
    3TCq1    H114375   4.560   1.280  14.355  1.7615  0.0640 -0.9493
    3TCq1    H214376   4.568   1.106  14.312 -0.0082 -0.9101  0.2835
    3TCq1    H314377   4.264   0.878  14.490  0.5260 -1.0106 -1.0274
    3TCq1    H414378   4.173   1.250  14.294  0.2844  0.8323  1.0887
    4MPD2     C14379   3.778   0.934  14.480 -0.2964  0.2611 -0.9136
    4MPD2    C114380   3.898   0.860  14.490 -0.1820  0.3556 -0.4293
    4MPD2    C214381   3.899   0.740  14.563 -0.0357  0.6930 -0.5429
    4MPD2    C314382   3.780   0.692  14.624  0.1928  0.5727  0.0817
    4MPD2    C414383   3.666   0.765  14.609  1.0173  0.0061  0.3662
    4MPD2    C514384   3.662   0.890  14.539  0.2343  0.1387  0.4551
    4MPD2     H14385   3.989   0.680  14.554  0.3016  1.5317 -2.5686
    4MPD2    H114386   3.577   0.728  14.660  0.9394 -3.1516 -2.0289
    4MPD2    H214387   3.774   1.031  14.431  0.6559 -0.3216 -2.1341
    4MPD2    H314388   3.574   0.952  14.524  1.3971  2.0681  1.5642
    4MPD2     N14389   3.781   0.572  14.690 -0.2555 -0.5477  0.2667
    4MPD2    H514390   3.867   0.517  14.686  0.6517  0.9793 -1.0223
    4MPD2    N114391   4.021   0.916  14.445  0.2720  0.2086  0.2981
    4MPD2    H714392   4.098   0.850  14.458  0.3711  0.3628  0.4926
    5TMC2    C114393   4.287   0.188  15.487 -0.8596  0.0356 -0.0353
    5TMC2    C214394   4.323   0.077  15.546  0.3398  0.3251  0.1555
    5TMC2    C314395   4.270   0.034  15.665 -0.6891  0.0464  0.2146
    5TMC2    C414396   4.197   0.263  15.556 -0.2301  0.9805  0.2282
    5TMC2    C514397   4.142   0.217  15.676  0.2984  0.2650  0.3222
    5TMC2    C614398   4.167   0.095  15.723  0.8250 -0.5464 -0.5740
    5TMC2     C14399   4.239   0.163  15.350 -0.6413 -0.0551  0.3017
    5TMC2     O14400   4.132   0.213  15.325  1.0235 -0.2939  0.7287
    5TMC2     H14401   4.399   0.019  15.495  1.5516  1.2382  0.9165
    5TMC2    H114402   4.179   0.365  15.522 -1.8749  0.6502  0.0732
    5TMC2    H214403   4.098   0.039  15.786  1.1839  0.7474  0.9532
    5TMC2    C714404   4.007   0.273  15.687  0.2784  0.9933  0.1491
    5TMC2    C814405   4.330   4.639  15.718  0.8144 -0.5764 -0.0922
    5TMC2    O114406   3.951   0.277  15.800 -0.5718  0.5158  0.5335
    5TMC2    O214407   4.421   4.583  15.659  0.2827 -0.9957  0.0587
    5TMC2    O514408   4.289   4.612  15.848  0.1124  0.0473 -0.2912
    5TMC2    H514409   4.214   4.660  15.890  1.0908  0.1019  1.3946
    6MPD2     C14410   4.266   0.073  14.850 -0.1079 -0.3099  0.2639
    6MPD2    C114411   4.164   0.094  14.937 -0.7655 -0.2385 -0.1252
    6MPD2    C214412   4.184   0.095  15.071  0.1868  0.1807  0.2319
    6MPD2    C314413   4.304   0.092  15.128 -0.8682  0.2888 -1.1130
    6MPD2    C414414   4.412   0.075  15.041 -0.3993  0.6505 -0.5556
    6MPD2    C514415   4.391   0.068  14.904 -0.5430 -0.8894 -0.0096
    6MPD2     H14416   4.098   0.107  15.136 -1.7119 -0.3297 -2.1811
    6MPD2    H114417   4.514   0.074  15.079 -0.4461 -1.1133 -0.4701
    6MPD2    H214418   4.254   0.062  14.743  0.7113  1.1740  0.0116
    6MPD2    H314419   4.472   0.067  14.832 -2.1044  1.1823 -1.7992
    6MPD2     N14420   4.334   0.119  15.262 -0.1712  0.1339 -0.0439
    6MPD2    H514421   4.428   0.097  15.294 -0.3858 -1.0953 -0.2534
    6MPD2    N114422   4.030   0.121  14.897  0.0412  0.2619 -0.0403
    6MPD2    H714423   3.960   0.128  14.970  1.4386  0.9075  1.2399
  945NH3     N114424   3.976   0.287   0.928 -0.5487 -0.0950  0.5277
  945NH3     H214425   3.884   0.284   0.886  0.2586  0.7299 -1.2700
  945NH3     H314426   4.015   0.367   0.881  0.2735 -0.0682  1.2447
  945NH3     H414427   3.965   0.328   1.020  0.1847  0.0725  0.5444
  946SOD     NA14428   3.543   3.317  15.244  0.0387 -0.7454  0.0866
  947SOD     NA14429   1.346   4.218  14.389 -0.1209  0.2252  0.4896
  948SOD     NA14430   0.680   4.688  13.385  0.1730  0.0342  0.3746
  949SOD     NA14431   3.948   1.003  10.287  0.2936  0.1896 -0.1104
  950SOD     NA14432   0.980   3.665  11.533 -0.0065 -0.0729 -0.1780
  951SOD     NA14433   1.200   2.319  17.400 -0.3865  0.3453  0.2195
  952SOD     NA14434   0.759   4.404  11.484 -0.3955  0.4632 -0.2010
  953SOD     NA14435   2.917   3.175   0.841 -0.1179  0.3610 -0.2324
  954SOD     NA14436   0.131   0.965  15.264 -0.3390 -0.6448  0.2322
  955SOD     NA14437   1.414   4.441  11.342  0.0191 -0.0762 -0.6519
  956SOD     NA14438   4.539   4.187   9.959  0.5249 -0.3623 -0.2806
  957SOD     NA14439   2.199   4.080   7.096  0.0078 -0.2197  0.0439
  958SOD     NA14440   2.143   0.133   1.737 -0.5246 -0.1053  0.2139
  959SOD     NA14441   1.971   0.172  16.111 -0.2146  0.3453  0.5424
  960SOD     NA14442   4.511   4.448  10.094  0.0641  0.8122 -0.2337
  961SOD     NA14443   4.012   2.691   1.296  0.1123 -0.0642 -0.1116
  962SOD     NA14444   1.054   3.276  12.104  0.4969 -0.1945  0.2745
  963SOD     NA14445   0.102   3.772   8.989 -0.7263 -0.2807  0.2181
  964SOD     NA14446   4.586   0.029  10.009 -0.6732  0.0054  0.4163
  965SOD     NA14447   1.969   4.068   0.917  0.0159 -0.2608  0.2060
  966SOD     NA14448   2.338   3.220  14.357  0.5401  0.1039  0.2484
  967SOD     NA14449   0.182   0.126  16.875  0.1066  0.1810 -0.1417
  968SOD     NA14450   0.290   3.572   1.257 -0.0086  0.2573  0.2181
  969SOD     NA14451   0.947   3.589  11.923  0.1418 -0.2252 -0.6619
  970SOD     NA14452   3.494   0.393  10.854  0.0606  0.5837  0.5522
  971SOD     NA14453   1.613   0.821  15.831  0.2358 -1.0231 -0.3086
  972SOD     NA14454   3.433   3.721  11.328 -0.2926  0.1211 -0.3259
  973SOD     NA14455   0.537   2.220   4.818  0.0943  0.2486  0.0776
  974SOD     NA14456   3.479   2.469  13.618  0.2405  0.2512  0.2221
  975SOD     NA14457   1.741   3.047   2.105  0.1276  0.4700 -0.4447
  976SOD     NA14458   1.110   4.267  12.553 -0.0301  0.1671 -0.0537
  977SOD     NA14459   1.609   4.516  11.674  0.2978 -0.4830  0.3062
  978SOD     NA14460   1.527   0.502  16.892  0.2988 -0.2062 -0.3482
  979SOD     NA14461   1.169   4.639  11.359  0.5869 -0.5600  0.2701
  980SOD     NA14462   4.087   3.817  12.609 -0.1485 -0.1802 -0.1211
  981SOD     NA14463   2.897   3.845   1.969  0.1541 -0.2459  0.2242
  982SOD     NA14464   2.615   2.711   1.025 -0.2230  0.1487  0.1392
  983SOD     NA14465   0.005   0.798  14.630 -0.3022  0.1929 -0.2910
  984SOD     NA14466   3.788   0.586  10.564 -0.1286  0.0106  0.1900
  985SOD     NA14467   3.832   1.471  10.887 -0.1766  0.3851 -0.3311
  986SOD     NA14468   2.307   4.525   0.193  0.3622  0.1428  0.2362
  987SOD     NA14469   1.224   1.289   1.360 -0.1182  0.1093  0.0427
  988SOD     NA14470   0.593   3.318   0.706  0.0284 -0.2419 -0.0527
  989SOD     NA14471   3.571   3.543  11.090  0.0292 -0.0218 -0.3019
  990SOD     NA14472   4.372   2.940   4.741  0.0936  0.3738 -0.0241
  991SOD     NA14473   0.761   4.235   8.256  0.1303  0.1289 -0.1218
  992SOD     NA14474   0.061   0.825  14.310 -0.0182  0.4555  0.0393
  993SOD     NA14475   0.113   4.120   4.218 -0.2825 -0.2568  0.1555
  994SOD     NA14476   3.794   3.682  13.247 -0.1626 -0.1335  0.3150
  995SOD     NA14477   4.426   0.611  14.557  0.2966 -0.1153 -0.1963
  996SOD     NA14478   0.900   2.154   8.818 -0.1170  0.5196  0.1623
  997SOD     NA14479   0.876   1.608  10.557 -0.3058 -0.0285  0.2604
  998SOD     NA14480   3.173   1.345   5.178 -0.6375  0.1785 -0.2849
  999SOD     NA14481   1.035   1.976   9.769 -0.7539  0.3911  0.1564
 1000SOD     NA14482   3.865   3.400  11.154  0.2043  0.1771  0.2655
 1001SOD     NA14483   0.915   4.303  12.279  0.1921 -0.3627 -0.1502
 1002SOD     NA14484   0.102   2.271  12.237  0.1807  0.3188  0.0978
 1003SOD     NA14485   1.228   0.370   0.141  0.0267 -0.1234  0.2190
 1004SOD     NA14486   2.199   1.294  13.536  0.2200 -0.7178  0.4607
 1005SOD     NA14487   2.821   4.093  13.100 -0.4673  0.1735  0.6683
 1006SOD     NA14488   3.466   2.136   2.375 -0.2825 -0.5694 -0.0866
 1007SOD     NA14489   0.693   3.795   2.790  0.7910 -0.9742  0.1027
 1008SOD     NA14490   1.971   2.057  14.302  0.2438 -0.2728  0.3831
 1009SOD     NA14491   2.284   3.451  16.464  0.3515  0.0046  0.0034
 1010SOD     NA14492   1.491   0.315  13.171  0.2515 -0.3937  0.3904
 1011SOD     NA14493   1.583   2.880  14.123 -0.0658  0.2679 -0.3305
 1012SOL     OW14494   3.374   1.180   9.642 -0.2006  0.3742  0.3829
 1012SOL    HW114495   3.279   1.165   9.645 -0.2369  0.7123  0.9804
 1012SOL    HW214496   3.398   1.164   9.551 -0.3507  0.6837  0.2871
 1013SOL     OW14497   1.440   0.613   9.405 -1.0556  0.0557 -0.1573
 1013SOL    HW114498   1.451   0.549   9.334  1.4944  0.6096 -0.2866
 1013SOL    HW214499   1.506   0.574   9.462 -1.0104  0.4068  0.0289
 1014SOL     OW14500   0.446   4.498   7.362  0.1069 -0.1778  0.2533
 1014SOL    HW114501   0.514   4.490   7.429  0.8556  3.6102 -0.0475
 1014SOL    HW214502   0.408   4.585   7.377  0.6416 -0.1648  1.4929
 1015SOL     OW14503   1.799   1.239   2.846 -0.2438  0.5361 -0.4869
 1015SOL    HW114504   1.789   1.144   2.839  0.9905  0.3014  1.1509
 1015SOL    HW214505   1.755   1.250   2.761 -0.7824 -1.0371 -0.4126
 1016SOL     OW14506   0.237   3.848  15.515 -0.1037 -0.3051 -0.3330
 1016SOL    HW114507   0.184   3.927  15.525  1.2818  0.6905 -0.7658
 1016SOL    HW214508   0.217   3.830  15.423 -0.9880  1.4164 -0.4761
 1017SOL     OW14509   3.159   3.513   1.417 -0.3259  0.5496 -0.1908
 1017SOL    HW114510   3.119   3.508   1.330  0.5532  4.3382 -0.8197
 1017SOL    HW214511   3.176   3.606   1.433 -0.5097  0.7592 -1.1779
 1018SOL     OW14512   1.354   4.204   4.322 -0.0138 -0.1260 -0.5682
 1018SOL    HW114513   1.389   4.129   4.275 -0.7575  0.3024 -1.8090
 1018SOL    HW214514   1.373   4.272   4.257  0.2182 -0.5257 -0.9124
 1019SOL     OW14515   1.132   0.699   4.261 -0.0364  0.2416  0.1060
 1019SOL    HW114516   1.040   0.718   4.280 -0.4021 -0.0536 -1.3648
 1019SOL    HW214517   1.127   0.657   4.176  0.9031  0.0130  0.1564
 1020SOL     OW14518   0.345   3.580   2.793  0.4785 -0.0354 -0.2390
 1020SOL    HW114519   0.378   3.600   2.880 -0.3553 -1.6492  0.4405
 1020SOL    HW214520   0.277   3.516   2.811 -1.2348  1.4218 -1.5307
 1021SOL     OW14521   2.668   1.449  12.411 -0.3585 -0.3143 -1.0416
 1021SOL    HW114522   2.587   1.408  12.381 -0.7947 -0.5054  0.4063
 1021SOL    HW214523   2.641   1.540  12.401 -1.6233 -0.7000 -1.0660
 1022SOL     OW14524   3.190   2.537  16.682 -0.7721  0.0386  0.1226
 1022SOL    HW114525   3.256   2.503  16.743 -0.9834 -0.1369  0.2541
 1022SOL    HW214526   3.195   2.633  16.691 -1.8385 -0.1447  2.6239
 1023SOL     OW14527   2.576   1.769   4.371 -0.1044  0.2308 -0.2968
 1023SOL    HW114528   2.486   1.759   4.338  0.2983 -0.9311 -1.0453
 1023SOL    HW214529   2.589   1.682   4.409 -2.1584 -0.3194 -0.8236
 1024SOL     OW14530   2.240   1.743   3.152  0.3796 -0.5253  0.5828
 1024SOL    HW114531   2.313   1.790   3.192 -0.6551  0.4550  1.2991
 1024SOL    HW214532   2.271   1.755   3.062  0.6834  2.3503  1.0734
 1025SOL     OW14533   3.228   1.289   7.265  0.3210 -0.1687 -0.0410
 1025SOL    HW114534   3.322   1.297   7.276  0.2085 -2.0100  2.4581
 1025SOL    HW214535   3.198   1.361   7.321  0.6890 -0.9245  1.1424
 1026SOL     OW14536   3.828   4.391   6.406 -0.0744  0.5779  0.2055
 1026SOL    HW114537   3.733   4.379   6.416 -0.2435  0.8272 -1.0928
 1026SOL    HW214538   3.833   4.378   6.311  0.2500 -0.8552  0.4325
 1027SOL     OW14539   2.401   0.214  13.047  0.3272  0.0103  0.3433
 1027SOL    HW114540   2.326   0.238  13.101 -1.0214  1.7027 -2.2758
 1027SOL    HW214541   2.468   0.281  13.061  0.3292  0.3577 -1.3603
 1028SOL     OW14542   1.819   3.251   4.590 -0.2685  0.5746  0.6834
 1028SOL    HW114543   1.899   3.274   4.543  1.0893  0.3789  2.8811
 1028SOL    HW214544   1.834   3.261   4.684  0.5749  0.2574  0.5879
 1029SOL     OW14545   4.407   4.122   3.433 -0.6407 -0.2713 -0.3794
 1029SOL    HW114546   4.407   4.158   3.522  0.1842  1.3489 -1.0192
 1029SOL    HW214547   4.500   4.127   3.410 -0.4883 -2.3361 -0.1988
 1030SOL     OW14548   0.817   0.793   1.825  0.4838 -0.4188  0.1926
 1030SOL    HW114549   0.733   0.836   1.839 -0.4199 -1.8697 -0.8067
 1030SOL    HW214550   0.883   0.851   1.861 -0.2987 -0.3422  1.4863
 1031SOL     OW14551   4.633   2.185  12.142  0.2365  0.3617  0.4044
 1031SOL    HW114552   4.616   2.172  12.048  1.3220  1.5942  0.0453
 1031SOL    HW214553   4.561   2.132  12.177  0.9531 -1.6212 -1.1105
 1032SOL     OW14554   4.265   4.144   4.583 -0.2260  0.3190  0.5125
 1032SOL    HW114555   4.226   4.088   4.650  1.4518 -2.6478 -1.0045
 1032SOL    HW214556   4.303   4.211   4.639 -1.6511 -0.1140  1.9986
 1033SOL     OW14557   2.110   0.744   3.488  0.2314 -0.4469 -0.0848
 1033SOL    HW114558   2.095   0.788   3.404  1.3410 -0.5870 -0.3661
 1033SOL    HW214559   2.018   0.743   3.513  0.3126 -0.6944  0.1992
 1034SOL     OW14560   3.566   2.788   3.328 -0.3922  0.3516 -0.5902
 1034SOL    HW114561   3.493   2.735   3.298  0.8211 -0.3713 -2.2223
 1034SOL    HW214562   3.532   2.876   3.316 -1.5100  0.1165  0.8545
 1035SOL     OW14563   3.140   4.072   3.198  0.4879 -0.2011 -0.2416
 1035SOL    HW114564   3.069   4.026   3.244 -1.4136  0.3069 -2.6683
 1035SOL    HW214565   3.194   4.099   3.272  0.3826 -1.7640  0.4120
 1036SOL     OW14566   1.573   0.697  15.358 -0.2526 -0.5245 -0.0607
 1036SOL    HW114567   1.497   0.707  15.415 -0.5056  0.5582 -0.5784
 1036SOL    HW214568   1.577   0.788  15.329  0.5306  1.0698  5.0226
 1037SOL     OW14569   2.808   2.163   7.718 -0.5235 -0.8157 -0.6275
 1037SOL    HW114570   2.712   2.167   7.708 -0.4836  0.2127 -0.5505
 1037SOL    HW214571   2.832   2.091   7.776 -1.5467 -1.3166 -0.8048
 1038SOL     OW14572   1.605   2.692  14.243  0.5917  0.0492 -0.1472
 1038SOL    HW114573   1.677   2.640  14.280  0.0195 -1.1587 -0.7239
 1038SOL    HW214574   1.572   2.636  14.172  0.7668  0.2860 -0.4162
 1039SOL     OW14575   2.261   2.294   3.081 -0.6662  0.2130  0.1761
 1039SOL    HW114576   2.253   2.214   3.133 -0.0601  1.2662  1.9019
 1039SOL    HW214577   2.194   2.285   3.013 -1.5950 -1.4536  1.3024
 1040SOL     OW14578   1.655   3.797   1.126  0.2186  0.6044 -0.5514
 1040SOL    HW114579   1.580   3.841   1.087  2.4255  3.2608 -1.7623
 1040SOL    HW214580   1.646   3.831   1.215  1.2820 -1.0877  0.1976
 1041SOL     OW14581   3.937   2.277   7.796  0.3657  0.1558 -0.4497
 1041SOL    HW114582   3.984   2.198   7.820  0.3320  0.5566  0.9748
 1041SOL    HW214583   4.002   2.324   7.744 -0.8411  0.9972 -1.2127
 1042SOL     OW14584   0.137   2.859   7.519 -0.3667  0.5837  0.4908
 1042SOL    HW114585   0.201   2.787   7.526  0.2757  1.2428  1.4142
 1042SOL    HW214586   0.127   2.886   7.611 -0.9427  1.4967  0.1520
 1043SOL     OW14587   2.436   3.355   7.651  0.4806  0.1666  0.7059
 1043SOL    HW114588   2.408   3.384   7.738  0.7232  0.7111  0.6031
 1043SOL    HW214589   2.456   3.264   7.674 -1.6571 -0.7211 -0.8657
 1044SOL     OW14590   1.279   4.550   9.010 -0.0465 -0.2127  0.5063
 1044SOL    HW114591   1.193   4.548   9.051 -0.8250 -1.3751 -1.2029
 1044SOL    HW214592   1.288   4.460   8.978  1.8678  1.2176 -2.9650
 1045SOL     OW14593   0.236   2.740   8.231 -0.3016 -0.4927  0.0844
 1045SOL    HW114594   0.327   2.725   8.256  0.4975  1.4280 -1.7078
 1045SOL    HW214595   0.228   2.692   8.149  0.4842 -0.6963  0.1271
 1046SOL     OW14596   4.109   1.722   8.277  0.0364 -0.0827 -0.3546
 1046SOL    HW114597   4.050   1.794   8.254 -1.4670 -1.1239  0.1772
 1046SOL    HW214598   4.056   1.644   8.255  1.8688 -0.7148 -2.5169
 1047SOL     OW14599   2.793   3.298   2.724 -0.1426 -0.4958  0.2623
 1047SOL    HW114600   2.740   3.238   2.672 -0.6622 -0.8295  1.1625
 1047SOL    HW214601   2.837   3.254   2.796 -1.2975 -1.5620  0.3187
 1048SOL     OW14602   4.358   4.634   4.145 -0.4193 -0.2964 -0.8833
 1048SOL    HW114603   4.452   4.623   4.163 -0.7993  0.4894  1.4706
 1048SOL    HW214604   4.340   0.004   4.131  0.2797 -0.3612 -2.2436
 1049SOL     OW14605   2.712   0.824   1.578 -0.0658  0.2154  0.1530
 1049SOL    HW114606   2.699   0.904   1.628 -0.3458 -0.9088  1.8689
 1049SOL    HW214607   2.721   0.862   1.491 -0.4782 -0.5921 -0.2460
 1050SOL     OW14608   4.187   2.820   7.617  0.2552 -0.2479 -0.3261
 1050SOL    HW114609   4.097   2.844   7.596 -0.1197  0.2521  1.9566
 1050SOL    HW214610   4.173   2.763   7.692 -1.3102  1.2810  0.5378
 1051SOL     OW14611   3.030   1.783   5.952  0.8048  0.9211  0.2158
 1051SOL    HW114612   2.999   1.868   5.922 -1.8586 -0.0993  0.1406
 1051SOL    HW214613   3.119   1.811   5.977  0.3232  1.9919  0.7081
 1052SOL     OW14614   2.758   4.566  17.638  0.0989 -0.3116 -0.1052
 1052SOL    HW114615   2.744   4.628   0.016  0.9607  0.7188 -0.8424
 1052SOL    HW214616   2.669   4.538  17.617 -0.1384 -0.2205  0.7958
 1053SOL     OW14617   1.306   0.459  17.635  0.3934 -0.2340  0.5818
 1053SOL    HW114618   1.343   0.519  17.570  0.4986 -1.7438 -0.7527
 1053SOL    HW214619   1.387   0.424  17.672  0.0625 -1.3926  0.1853
 1054SOL     OW14620   3.435   2.300   9.128 -0.1299 -0.2855  0.0571
 1054SOL    HW114621   3.528   2.321   9.137  0.1321 -0.4233 -2.4509
 1054SOL    HW214622   3.409   2.375   9.181  1.0023 -0.2282  0.5305
 1055SOL     OW14623   1.596   2.407   0.443  0.5851 -0.4893 -0.5340
 1055SOL    HW114624   1.599   2.317   0.411 -1.3394  0.0104 -2.1142
 1055SOL    HW214625   1.520   2.399   0.500  1.1910  0.2831  0.3830
 1056SOL     OW14626   0.029   1.509   9.475 -0.2254  0.1915  0.4569
 1056SOL    HW114627   4.658   1.508   9.491 -0.1406  0.0425  0.9470
 1056SOL    HW214628   0.025   1.501   9.379  0.8858 -0.5965  0.4666
 1057SOL     OW14629   1.371   1.007   7.060  0.3977  0.0943 -0.4517
 1057SOL    HW114630   1.286   1.049   7.075  0.5480  0.6282 -1.1299
 1057SOL    HW214631   1.402   1.064   6.990  2.1589 -1.2404 -0.7327
 1058SOL     OW14632   0.015   4.002  14.627 -0.0081  0.2229 -0.5121
 1058SOL    HW114633   4.674   4.072  14.638 -0.0436 -0.5855  4.1089
 1058SOL    HW214634   0.041   3.979  14.716 -0.0790  2.7804  0.1689
 1059SOL     OW14635   1.055   3.055   6.432  0.2238  0.1577  0.3774
 1059SOL    HW114636   1.125   3.072   6.369 -0.1862  2.4756  0.5513
 1059SOL    HW214637   0.976   3.060   6.378  1.0243  1.6572 -0.6369
 1060SOL     OW14638   1.505   1.105  10.224  0.0354 -0.0639  0.5314
 1060SOL    HW114639   1.597   1.131  10.225  0.0677 -0.2197  1.5743
 1060SOL    HW214640   1.482   1.147  10.141  1.6607 -1.1624 -0.4696
 1061SOL     OW14641   4.059   2.669   6.943  0.0855  0.9433 -0.6855
 1061SOL    HW114642   4.091   2.616   7.016  1.6229  0.7247 -1.5249
 1061SOL    HW214643   4.123   2.738   6.927 -0.1356  1.1393 -0.7304
 1062SOL     OW14644   1.718   2.245   6.404 -0.1757  0.1844 -0.6877
 1062SOL    HW114645   1.690   2.169   6.454  2.3304  1.4239  2.6096
 1062SOL    HW214646   1.677   2.303   6.468 -0.0842 -2.2318  1.5540
 1063SOL     OW14647   1.471   0.443   7.414  0.1066  0.2122 -0.0307
 1063SOL    HW114648   1.480   0.395   7.331  0.1497 -1.3339  0.8664
 1063SOL    HW214649   1.487   0.373   7.478 -0.8628 -1.9331 -2.1026
 1064SOL     OW14650   3.170   0.728  13.613  0.2107  0.3043  0.1542
 1064SOL    HW114651   3.139   0.813  13.643 -0.4483 -0.5969  2.0363
 1064SOL    HW214652   3.231   0.754  13.544 -1.1344  1.1084 -0.7189
 1065SOL     OW14653   3.029   2.433   1.545 -0.0803 -0.1597  0.8619
 1065SOL    HW114654   3.071   2.489   1.480  1.8640 -0.1469  2.1282
 1065SOL    HW214655   3.026   2.348   1.502  1.4770 -0.0377  0.4857
 1066SOL     OW14656   0.337   0.302  13.437 -0.6909  0.3904  0.1918
 1066SOL    HW114657   0.352   0.287  13.530 -1.4246 -1.3038  0.0268
 1066SOL    HW214658   0.422   0.315  13.394 -1.1471  1.4809 -0.3974
 1067SOL     OW14659   3.525   4.714  12.466 -0.1559  0.2086  0.3071
 1067SOL    HW114660   3.553   4.671  12.386  1.5281  0.7506  0.6170
 1067SOL    HW214661   3.541   0.082  12.439  1.1628 -0.5710 -1.5127
 1068SOL     OW14662   0.173   1.818   6.886  0.4581 -0.2408  0.1130
 1068SOL    HW114663   0.208   1.734   6.854  1.7416 -0.4088  2.0186
 1068SOL    HW214664   0.206   1.816   6.975 -0.2207 -0.9948  0.3554
 1069SOL     OW14665   3.365   4.471   3.370  0.8589  0.5563 -0.5295
 1069SOL    HW114666   3.388   4.553   3.326  0.9358  1.8565  1.9794
 1069SOL    HW214667   3.283   4.450   3.325  0.2706 -2.3085  1.9088
 1070SOL     OW14668   4.205   2.815  10.104 -0.2328 -0.3760 -0.6643
 1070SOL    HW114669   4.189   2.891  10.047 -1.0638  0.7024  1.0146
 1070SOL    HW214670   4.241   2.858  10.182  2.4080  0.9338 -2.5766
 1071SOL     OW14671   1.499   4.591  12.368  0.0960  0.2636  0.0113
 1071SOL    HW114672   1.514   4.669  12.314  2.2909  0.0780  0.3715
 1071SOL    HW214673   1.471   4.629  12.451  0.9427 -1.6202  1.1402
 1072SOL     OW14674   4.482   2.647   8.410  0.0180  0.6941  0.2182
 1072SOL    HW114675   4.552   2.592   8.375  0.5811  1.7968 -0.4082
 1072SOL    HW214676   4.497   2.648   8.505 -2.4338 -0.5459  0.6152
 1073SOL     OW14677   3.274   0.161   6.161  0.2735 -0.0725 -0.3323
 1073SOL    HW114678   3.367   0.180   6.165  0.5953 -1.7998  0.3907
 1073SOL    HW214679   3.236   0.245   6.136 -0.4662  0.0955  1.3794
 1074SOL     OW14680   1.901   3.119   3.131 -0.3430 -0.2428 -0.3797
 1074SOL    HW114681   1.960   3.046   3.152  0.8346  0.4645 -1.2827
 1074SOL    HW214682   1.858   3.140   3.214  2.0177 -2.7587  1.5066
 1075SOL     OW14683   3.521   2.661   0.398  0.3094 -0.2075  0.3186
 1075SOL    HW114684   3.480   2.662   0.311  1.6482  2.8986 -0.2778
 1075SOL    HW214685   3.487   2.575   0.423 -3.4682  0.9634 -0.7158
 1076SOL     OW14686   1.792   4.084   2.168  0.3119 -0.6545 -0.2343
 1076SOL    HW114687   1.746   4.022   2.110 -0.0555 -0.9607  0.3770
 1076SOL    HW214688   1.754   4.163   2.129  0.9255  0.0055  0.5221
 1077SOL     OW14689   0.303   2.252  17.575 -0.4226  0.0166  0.1099
 1077SOL    HW114690   0.245   2.267  17.501  1.3609 -0.0205 -1.3080
 1077SOL    HW214691   0.249   2.270  17.651 -1.4290  1.2806 -0.9129
 1078SOL     OW14692   3.647   2.587   7.343 -0.3058 -0.5342  0.1767
 1078SOL    HW114693   3.554   2.576   7.326 -0.7879 -0.5295  2.9456
 1078SOL    HW214694   3.651   2.664   7.399  0.4350  0.5957 -1.4059
 1079SOL     OW14695   2.946   4.414   4.264  0.1527 -0.2028  0.4521
 1079SOL    HW114696   3.041   4.410   4.258 -0.0820 -3.3073 -1.1354
 1079SOL    HW214697   2.925   4.399   4.172 -1.2434  1.1759  0.5320
 1080SOL     OW14698   2.577   0.055   0.474  0.1860  0.4232  0.0406
 1080SOL    HW114699   2.544   0.015   0.555  2.9613 -1.2245  0.3864
 1080SOL    HW214700   2.661   0.088   0.507  1.2737 -0.5903 -1.6776
 1081SOL     OW14701   0.611   2.498  10.759 -0.5173  0.2563  0.5304
 1081SOL    HW114702   0.655   2.529  10.680  1.9512 -0.1189  1.7345
 1081SOL    HW214703   0.525   2.470  10.729 -0.5033  1.2483 -0.4019
 1082SOL     OW14704   4.035   4.232   5.955  0.5708  0.0654 -0.1831
 1082SOL    HW114705   4.113   4.194   5.995  0.7907 -0.3355 -0.9913
 1082SOL    HW214706   3.968   4.239   6.023 -1.1778 -0.1345 -1.8848
 1083SOL     OW14707   4.512   0.311   2.505 -0.0905 -0.4377 -0.0859
 1083SOL    HW114708   4.538   0.283   2.593  1.7690  0.2060 -0.4392
 1083SOL    HW214709   4.423   0.337   2.528  0.6124  0.4866  1.5597
 1084SOL     OW14710   0.081   0.409  10.180 -0.0438  0.5564  0.2834
 1084SOL    HW114711   0.151   0.402  10.115 -0.7483 -3.9636  0.0146
 1084SOL    HW214712   0.081   0.504  10.193  1.2468  0.6975 -0.7348
 1085SOL     OW14713   3.192   0.674   0.495 -0.2895  0.4204 -0.5228
 1085SOL    HW114714   3.149   0.592   0.471  0.5207  0.7080 -2.9158
 1085SOL    HW214715   3.227   0.690   0.408  0.0365 -4.1857 -1.2153
 1086SOL     OW14716   1.166   2.708   3.529 -0.3609 -0.5804 -0.0207
 1086SOL    HW114717   1.137   2.646   3.597  0.4233 -1.5962 -0.5984
 1086SOL    HW214718   1.216   2.649   3.473  0.8386 -0.2311  0.6772
 1087SOL     OW14719   0.412   0.842   0.203 -0.0033 -0.2905 -0.2173
 1087SOL    HW114720   0.400   0.852   0.297  1.6112 -1.2362  0.1048
 1087SOL    HW214721   0.326   0.818   0.170 -0.1814 -1.2706  0.9638
 1088SOL     OW14722   2.121   3.516   7.410 -0.3629 -0.5026  0.0634
 1088SOL    HW114723   2.169   3.534   7.491 -1.6650 -1.3101  1.0091
 1088SOL    HW214724   2.180   3.463   7.357  1.0884  0.5130  0.6381
 1089SOL     OW14725   4.459   3.307  15.463  0.6684 -0.5791 -0.4152
 1089SOL    HW114726   4.398   3.367  15.507 -0.0969 -0.5262 -1.5431
 1089SOL    HW214727   4.452   3.332  15.371  2.8926  0.3637 -0.3332
 1090SOL     OW14728   0.139   2.527   2.564 -0.2119 -0.0801 -0.3386
 1090SOL    HW114729   0.232   2.546   2.566 -0.7251  2.4514  0.0067
 1090SOL    HW214730   0.133   2.476   2.483  0.4637  0.3495 -0.6527
 1091SOL     OW14731   3.660   2.915   7.982 -0.1518  0.0534  0.3316
 1091SOL    HW114732   3.657   3.007   8.011 -0.6300  0.5123 -1.1855
 1091SOL    HW214733   3.633   2.861   8.056  1.5263  0.4391  1.2149
 1092SOL     OW14734   0.660   4.157   3.689 -0.7058 -0.4912  0.0191
 1092SOL    HW114735   0.630   4.071   3.659  1.7224 -1.0910 -0.7140
 1092SOL    HW214736   0.726   4.121   3.748  0.0889  0.8838 -0.0394
 1093SOL     OW14737   2.209   0.561   7.986 -0.6724 -0.1700 -0.6085
 1093SOL    HW114738   2.261   0.483   8.000 -0.0167  0.0803 -1.6984
 1093SOL    HW214739   2.118   0.530   7.981 -0.3074 -1.5452  1.2977
 1094SOL     OW14740   3.457   2.435   1.091 -0.3015 -0.1761 -0.6021
 1094SOL    HW114741   3.538   2.483   1.077 -0.0303  0.0505  1.7190
 1094SOL    HW214742   3.411   2.504   1.137  3.5023  2.4312 -0.7366
 1095SOL     OW14743   3.990   2.295   8.973 -0.5241  0.0290 -0.0797
 1095SOL    HW114744   4.039   2.222   8.935 -0.3968 -0.8357  1.7241
 1095SOL    HW214745   4.032   2.370   8.931  1.1957 -0.1299  1.3393
 1096SOL     OW14746   3.954   4.551   1.443 -0.3291  0.8269  0.1811
 1096SOL    HW114747   4.023   4.605   1.480  0.5742  0.2367 -0.6260
 1096SOL    HW214748   3.983   4.471   1.487  0.2186  1.3850  0.8282
 1097SOL     OW14749   1.360   0.496   2.129  0.3845 -0.0359 -0.0300
 1097SOL    HW114750   1.370   0.445   2.048 -0.7301  0.7005 -0.6409
 1097SOL    HW214751   1.450   0.498   2.163 -0.2382 -1.7727  1.6934
 1098SOL     OW14752   2.602   2.511   7.486  0.0111 -0.0924  0.2746
 1098SOL    HW114753   2.618   2.521   7.392 -3.0381 -0.3087 -0.2626
 1098SOL    HW214754   2.628   2.597   7.520 -1.1179 -0.3792  1.8396
 1099SOL     OW14755   0.181   2.535  11.971 -0.4183  0.4094  0.3756
 1099SOL    HW114756   0.236   2.457  11.966 -0.7899  0.0997  1.0841
 1099SOL    HW214757   0.249   2.601  11.987  0.1331 -0.4298  1.4721
 1100SOL     OW14758   4.256   4.168  11.926 -0.4464  0.0890  0.0048
 1100SOL    HW114759   4.285   4.249  11.883 -0.3960  0.3870  0.6022
 1100SOL    HW214760   4.320   4.156  11.996 -2.1446 -0.8874  1.4081
 1101SOL     OW14761   1.288   1.132  14.914  0.4862 -0.3698  0.3274
 1101SOL    HW114762   1.346   1.085  14.974  0.5832  0.7102  1.0885
 1101SOL    HW214763   1.324   1.221  14.917  2.7977 -1.3517  1.9583
 1102SOL     OW14764   3.238   2.825   4.897 -0.4228  0.1130  0.2228
 1102SOL    HW114765   3.319   2.781   4.925 -1.8254 -2.9934 -0.5085
 1102SOL    HW214766   3.271   2.901   4.849  0.0469 -1.6959 -2.3138
 1103SOL     OW14767   4.695   3.601   6.786  0.5051 -0.1076  0.1522
 1103SOL    HW114768   0.006   3.512   6.795  1.2713  0.4449  2.8884
 1103SOL    HW214769   4.619   3.590   6.729  0.6098  0.1781 -0.0461
 1104SOL     OW14770   0.736   0.130  11.098  0.2047 -0.1360  0.0107
 1104SOL    HW114771   0.749   0.040  11.127 -0.3432 -0.1491  0.2084
 1104SOL    HW214772   0.823   0.171  11.103  0.6885 -1.3081  1.1709
 1105SOL     OW14773   4.510   3.832   5.000  0.1238 -0.0686  0.6212
 1105SOL    HW114774   4.496   3.738   4.985  0.3758  0.0759 -0.4754
 1105SOL    HW214775   4.604   3.832   4.983 -0.3172 -1.5488 -1.7510
 1106SOL     OW14776   4.126   1.961   3.139 -0.7106 -0.2378  0.2991
 1106SOL    HW114777   4.114   1.957   3.044 -0.1830 -0.2391  0.2353
 1106SOL    HW214778   4.155   2.051   3.146 -2.9352  0.5229 -0.3054
 1107SOL     OW14779   0.856   3.344  16.059 -0.3297  0.4655  0.2540
 1107SOL    HW114780   0.899   3.369  16.140 -0.6204  0.0985  0.5210
 1107SOL    HW214781   0.916   3.279  16.022  0.7518  1.8414 -0.4018
 1108SOL     OW14782   1.010   4.327   3.333 -0.5864 -0.6127 -0.4847
 1108SOL    HW114783   1.015   4.314   3.427  0.7193 -1.0183 -0.6140
 1108SOL    HW214784   0.965   4.243   3.324  1.6756 -1.8532 -0.0441
 1109SOL     OW14785   4.477   4.055   4.450 -0.0215 -0.4189  0.3949
 1109SOL    HW114786   4.407   4.103   4.494  1.0041  0.8952  0.5988
 1109SOL    HW214787   4.495   3.975   4.500  1.9025 -1.0123 -1.2316
 1110SOL     OW14788   4.356   0.447   1.038  0.0636  0.0172 -0.1221
 1110SOL    HW114789   4.388   0.370   1.086  2.1212  1.1564  0.3337
 1110SOL    HW214790   4.280   0.482   1.083 -1.5968 -2.2648 -1.1438
 1111SOL     OW14791   1.462   1.935   3.809 -0.5405  0.2801  0.0865
 1111SOL    HW114792   1.548   1.973   3.828  0.0466 -0.0996 -1.8775
 1111SOL    HW214793   1.487   1.858   3.759  1.8292  0.1237  1.5257
 1112SOL     OW14794   2.975   2.066   6.262 -0.1289 -0.0657 -0.6678
 1112SOL    HW114795   2.893   2.017   6.254 -1.0901  1.0170  2.8077
 1112SOL    HW214796   3.039   2.003   6.293 -0.4296  0.0540  0.1944
 1113SOL     OW14797   2.681   3.390   1.529 -0.6533  0.0325  0.2546
 1113SOL    HW114798   2.696   3.302   1.495  1.4323  1.1359 -1.6083
 1113SOL    HW214799   2.725   3.382   1.614 -0.6479  0.5023  0.2924
 1114SOL     OW14800   4.409   2.461  15.474  0.0087  0.6407 -0.2044
 1114SOL    HW114801   4.459   2.428  15.548  1.1841  0.9866 -0.8305
 1114SOL    HW214802   4.474   2.528  15.450  0.8499 -0.0522  0.1209
 1115SOL     OW14803   4.016   2.844  13.018  0.9581  0.2058 -0.6655
 1115SOL    HW114804   3.945   2.836  12.954  1.8203  0.6333 -1.6880
 1115SOL    HW214805   3.967   2.873  13.095  0.4278 -1.0295 -0.5328
 1116SOL     OW14806   1.039   3.113   7.318 -0.7010 -0.3315 -0.1829
 1116SOL    HW114807   1.076   3.161   7.245  1.6966 -0.8903  0.6627
 1116SOL    HW214808   0.981   3.181   7.352 -4.1034 -1.6648 -3.2326
 1117SOL     OW14809   4.721   0.215   9.003 -0.1948  0.5805 -0.6031
 1117SOL    HW114810   4.712   0.161   9.082  1.9538  3.4300  1.6214
 1117SOL    HW214811   0.081   0.174   8.976 -0.8021 -1.2073  0.2794
 1118SOL     OW14812   3.907   1.288   9.950 -0.3201 -0.1617  0.2179
 1118SOL    HW114813   3.891   1.209  10.003  0.0958  1.4011  2.6865
 1118SOL    HW214814   3.924   1.353  10.018  1.4290  0.8155 -1.1575
 1119SOL     OW14815   1.132   1.014   0.322 -0.1293 -0.0131 -0.2290
 1119SOL    HW114816   1.110   1.106   0.308  0.3640  0.3796  1.5560
 1119SOL    HW214817   1.153   0.983   0.234  0.9737 -0.5704  0.2369
 1120SOL     OW14818   4.014   2.620  10.028 -0.0377  0.7073 -0.4469
 1120SOL    HW114819   3.985   2.685   9.964 -0.1306  0.6993 -0.4119
 1120SOL    HW214820   4.079   2.679  10.068  0.8577 -0.2517 -0.4971
 1121SOL     OW14821   1.337   3.688   6.156  0.2346 -0.2106 -0.2672
 1121SOL    HW114822   1.400   3.759   6.168 -0.0028  0.1660 -1.2282
 1121SOL    HW214823   1.389   3.610   6.136 -0.5290 -0.5809 -0.8283
 1122SOL     OW14824   3.867   0.394   8.868  0.2656 -0.1893 -1.4780
 1122SOL    HW114825   3.894   0.317   8.918 -1.8031  0.3929  0.5674
 1122SOL    HW214826   3.828   0.358   8.789  0.8595  1.6376 -2.6071
 1123SOL     OW14827   1.044   0.955   3.117  0.2602 -0.4400 -0.6834
 1123SOL    HW114828   1.031   0.998   3.032 -3.3697  0.5029  0.3352
 1123SOL    HW214829   1.119   0.902   3.090 -1.8288 -3.7251 -0.0474
 1124SOL     OW14830   4.096   1.279   6.667 -0.2218  0.2456 -0.2510
 1124SOL    HW114831   4.044   1.327   6.603 -1.1732  2.1631  1.9415
 1124SOL    HW214832   4.056   1.192   6.675  0.9272 -0.2019  0.6702
 1125SOL     OW14833   4.464   3.418  10.890 -0.1330 -0.4978  0.1047
 1125SOL    HW114834   4.500   3.498  10.851  1.3828 -0.1380  2.2348
 1125SOL    HW214835   4.525   3.353  10.854  1.1850  0.2509  0.9864
 1126SOL     OW14836   4.695   4.400   4.436  0.0591 -0.2813  0.0942
 1126SOL    HW114837   4.685   4.404   4.531  1.9717  3.4223  0.1573
 1126SOL    HW214838   4.719   4.309   4.417  1.1015 -0.2577  1.2696
 1127SOL     OW14839   4.679   0.443   0.394 -0.4787 -0.3718  0.7704
 1127SOL    HW114840   4.669   0.503   0.468 -1.5702  1.6956 -1.0308
 1127SOL    HW214841   4.591   0.407   0.386 -1.3989  2.3261 -1.6266
 1128SOL     OW14842   2.554   3.629   4.583  0.3322  0.4641 -0.4460
 1128SOL    HW114843   2.634   3.593   4.545  0.9418  1.2266  0.1240
 1128SOL    HW214844   2.520   3.551   4.628  0.6393  1.3273  1.2676
 1129SOL     OW14845   1.384   4.157  13.764  0.2406 -0.0055 -0.0549
 1129SOL    HW114846   1.352   4.132  13.678  2.1972  0.6234 -0.9705
 1129SOL    HW214847   1.332   4.235  13.782 -2.5352 -2.4594  2.3603
 1130SOL     OW14848   2.695   2.597  15.492  0.5738 -0.4126 -0.2224
 1130SOL    HW114849   2.613   2.568  15.531  1.2233 -1.7685  0.1529
 1130SOL    HW214850   2.678   2.691  15.490  0.2235 -0.4755 -0.1576
 1131SOL     OW14851   4.691   1.152   5.229  0.4915 -0.3615  0.1363
 1131SOL    HW114852   4.669   1.068   5.189 -2.1319  0.7904 -0.8263
 1131SOL    HW214853   4.610   1.151   5.280  0.7828 -0.3882  0.5969
 1132SOL     OW14854   0.087   4.398   6.619  0.0839 -0.0838  0.2990
 1132SOL    HW114855   0.002   4.414   6.577 -1.1022 -2.5927  1.7103
 1132SOL    HW214856   0.147   4.417   6.548 -2.1098  1.4333 -1.1530
 1133SOL     OW14857   1.265   2.223   5.016 -0.2314  0.0179 -0.2983
 1133SOL    HW114858   1.274   2.248   4.924  0.0622  2.2142  0.3165
 1133SOL    HW214859   1.180   2.178   5.008 -0.9136  1.0064  1.3766
 1134SOL     OW14860   3.548   3.337   6.450 -0.2584  0.1268  0.3712
 1134SOL    HW114861   3.475   3.380   6.407 -0.1896 -1.8635 -1.7165
 1134SOL    HW214862   3.501   3.274   6.505  0.3631 -2.5604 -2.2033
 1135SOL     OW14863   4.403   2.915  17.366 -0.2574 -0.3967 -0.4417
 1135SOL    HW114864   4.439   2.828  17.383  0.2003 -0.1865 -0.3198
 1135SOL    HW214865   4.319   2.896  17.406 -0.3744  1.2530  0.1174
 1136SOL     OW14866   1.361   2.948  14.088 -0.3144  0.1789 -0.2019
 1136SOL    HW114867   1.266   2.943  14.089 -0.3217  0.3877 -0.0925
 1136SOL    HW214868   1.373   3.042  14.098  0.5161  0.2296 -1.6202
 1137SOL     OW14869   3.606   3.257  12.686 -0.0849  0.3533  0.0283
 1137SOL    HW114870   3.531   3.198  12.693 -0.6073  1.1292  0.8538
 1137SOL    HW214871   3.570   3.325  12.629 -1.5656  0.6078  1.2594
 1138SOL     OW14872   2.298   4.005   6.818  0.3969 -0.3960  0.3710
 1138SOL    HW114873   2.301   4.063   6.742 -2.5230  0.3824  0.8229
 1138SOL    HW214874   2.378   4.024   6.866 -1.2928  0.8654  2.6849
 1139SOL     OW14875   4.560   1.218   8.963  0.0494  0.5481 -0.2372
 1139SOL    HW114876   4.569   1.285   8.895  0.2680  2.8727  2.0902
 1139SOL    HW214877   4.466   1.209   8.978 -0.0263 -0.1919 -1.1871
 1140SOL     OW14878   3.111   1.986   9.365  0.2353  0.4191  0.0949
 1140SOL    HW114879   3.174   1.920   9.393  0.8192 -0.0671 -2.2999
 1140SOL    HW214880   3.123   2.063   9.421 -0.5527  0.2878  0.4364
 1141SOL     OW14881   3.477   0.597  10.732  0.0398  0.2449  0.4424
 1141SOL    HW114882   3.499   0.530  10.668 -0.6851 -0.6299  1.1181
 1141SOL    HW214883   3.522   0.674  10.696  0.2022 -0.0326  0.0523
 1142SOL     OW14884   0.350   3.336  13.186 -0.3929 -0.3077 -0.7518
 1142SOL    HW114885   0.358   3.431  13.189 -1.6623 -0.2916  2.2764
 1142SOL    HW214886   0.268   3.326  13.235 -0.5947 -1.3702 -1.3088
 1143SOL     OW14887   2.504   0.572   0.965 -0.4479  0.2589 -0.0247
 1143SOL    HW114888   2.589   0.616   0.965 -0.0939 -0.4107  0.4869
 1143SOL    HW214889   2.506   0.547   1.057 -1.8421 -0.4160 -0.1768
 1144SOL     OW14890   0.987   0.114  14.511  0.0794  0.1543  0.4579
 1144SOL    HW114891   1.001   0.208  14.502  1.1246  0.1921  2.4691
 1144SOL    HW214892   0.897   0.113  14.545  1.1420 -1.0499  3.2353
 1145SOL     OW14893   2.117   2.892   6.647 -0.3376 -0.4192  0.3688
 1145SOL    HW114894   2.200   2.881   6.600  0.1214  3.3725  0.2795
 1145SOL    HW214895   2.152   2.890   6.736 -0.2423 -1.0072  0.3154
 1146SOL     OW14896   4.128   1.930   7.193  0.4492  0.9214  0.3046
 1146SOL    HW114897   4.208   1.952   7.241  0.4080  0.0345  0.7658
 1146SOL    HW214898   4.079   2.010   7.214  3.4787  2.4168  1.7953
 1147SOL     OW14899   4.715   1.988   6.126  0.7892  0.0923  0.3984
 1147SOL    HW114900   4.719   1.980   6.222  1.0877  0.6135  0.4256
 1147SOL    HW214901   0.083   1.962   6.109  1.1281  2.5966 -1.5791
 1148SOL     OW14902   4.342   3.418   6.070  0.7499 -0.4564 -0.4741
 1148SOL    HW114903   4.418   3.475   6.082  0.0352  0.2657  0.5383
 1148SOL    HW214904   4.271   3.482   6.067 -0.0149 -1.1637  2.8819
 1149SOL     OW14905   1.911   0.468  11.549  0.7693  0.4277  0.1483
 1149SOL    HW114906   1.847   0.464  11.478 -0.1639 -0.3528  1.0356
 1149SOL    HW214907   1.953   0.383  11.539 -1.8255 -0.8644  0.1841
 1150SOL     OW14908   0.029   3.331  15.331 -0.0167 -0.3504  0.4572
 1150SOL    HW114909   0.085   3.282  15.392  3.4397  0.2219 -2.2481
 1150SOL    HW214910   0.099   3.335  15.266 -2.1132  0.2720 -1.7466
 1151SOL     OW14911   0.481   2.168   6.749 -0.1907  0.1599 -0.6749
 1151SOL    HW114912   0.553   2.120   6.789  1.0061  2.4389 -0.1029
 1151SOL    HW214913   0.414   2.145   6.813 -0.8629  1.1982 -1.0022
 1152SOL     OW14914   1.366   3.917   8.378  0.8913  0.3301 -0.2327
 1152SOL    HW114915   1.405   3.940   8.462 -1.2037  0.0598  0.8058
 1152SOL    HW214916   1.438   3.863   8.345 -0.0869 -0.3989 -1.1695
 1153SOL     OW14917   0.335   0.015   8.542 -0.7754  0.0207 -0.3050
 1153SOL    HW114918   0.289   0.082   8.593  0.4230 -0.0496  0.8631
 1153SOL    HW214919   0.396   0.064   8.487 -1.0607  0.5258 -0.1716
 1154SOL     OW14920   4.250   0.228  17.549 -0.0625  0.0969 -0.5284
 1154SOL    HW114921   4.251   0.138  17.515 -0.9167 -0.8104  1.8651
 1154SOL    HW214922   4.167   0.259  17.513  0.4967  1.2385 -0.8458
 1155SOL     OW14923   2.547   1.244   4.302 -0.0392 -0.0944 -0.2260
 1155SOL    HW114924   2.459   1.280   4.309  0.1845  0.7026 -1.6104
 1155SOL    HW214925   2.526   1.155   4.275 -1.0709 -0.3870  1.5034
 1156SOL     OW14926   1.370   1.915   8.535  0.8711  0.1457  0.0673
 1156SOL    HW114927   1.349   1.823   8.518  1.1483 -0.0783  0.9312
 1156SOL    HW214928   1.434   1.904   8.606  0.2704 -0.8620  0.4545
 1157SOL     OW14929   4.188   1.955   1.597  0.2356  0.1756  0.1562
 1157SOL    HW114930   4.265   1.996   1.557 -0.9526  0.5517 -1.7245
 1157SOL    HW214931   4.205   1.983   1.687 -1.5737  2.6754 -0.2947
 1158SOL     OW14932   1.955   1.761  13.486  0.3876 -0.0568  0.6585
 1158SOL    HW114933   1.981   1.718  13.405 -0.6175  0.1592  0.2142
 1158SOL    HW214934   1.968   1.849  13.450  1.8142  0.7299  3.0567
 1159SOL     OW14935   3.111   1.145   4.766  0.3240  0.0727  0.1922
 1159SOL    HW114936   3.090   1.100   4.848 -0.6014 -0.8550 -0.5547
 1159SOL    HW214937   3.201   1.173   4.780  0.2252 -0.4298  1.9396
 1160SOL     OW14938   0.005   1.916   2.488  0.4050 -0.0977  0.0980
 1160SOL    HW114939   0.057   1.850   2.441  2.8412  0.8337  1.5026
 1160SOL    HW214940   4.645   1.893   2.445  0.6924 -1.7337  0.4161
 1161SOL     OW14941   1.758   4.243  10.655  0.5715 -0.2621  0.3351
 1161SOL    HW114942   1.782   4.321  10.706 -2.4097  0.8683  0.0388
 1161SOL    HW214943   1.833   4.234  10.597 -0.9591 -1.1099 -1.5269
 1162SOL     OW14944   0.456   4.248   2.902  0.3516  0.4640  0.3572
 1162SOL    HW114945   0.485   4.336   2.926  0.7326  0.5192 -0.2985
 1162SOL    HW214946   0.406   4.213   2.975  0.1897  0.5982  0.3109
 1163SOL     OW14947   4.707   1.157  14.499  0.0580  0.3115  0.6725
 1163SOL    HW114948   0.074   1.150  14.466 -0.1254  0.4740  0.1402
 1163SOL    HW214949   4.675   1.075  14.461 -1.3196  1.0506  0.2569
 1164SOL     OW14950   1.770   4.265  16.056 -0.1057  0.0959  0.0908
 1164SOL    HW114951   1.697   4.311  16.015 -0.3083 -1.3384 -1.1300
 1164SOL    HW214952   1.845   4.320  16.031 -1.8613  1.3768 -2.4349
 1165SOL     OW14953   2.612   3.103   6.182 -0.4061  0.5932 -0.4207
 1165SOL    HW114954   2.596   3.104   6.276  0.8165  1.0839 -0.2149
 1165SOL    HW214955   2.648   3.190   6.165  0.6625  0.0803 -0.8185
 1166SOL     OW14956   3.444   3.917   3.928  0.3399 -0.1646 -0.3123
 1166SOL    HW114957   3.508   3.958   3.986 -0.6425 -0.1929  0.7764
 1166SOL    HW214958   3.414   3.994   3.880  0.4172  0.0877  0.0490
 1167SOL     OW14959   4.499   3.740   6.523  0.7002  0.1694  0.2434
 1167SOL    HW114960   4.513   3.830   6.494 -2.0681 -0.0033 -1.6652
 1167SOL    HW214961   4.405   3.753   6.539  0.4729 -0.0747 -0.8584
 1168SOL     OW14962   1.962   2.060  15.380 -0.2797  0.3168  0.4080
 1168SOL    HW114963   1.971   2.155  15.366 -1.9873  0.1966 -1.4211
 1168SOL    HW214964   2.053   2.030  15.382 -1.0774 -1.9756  1.6011
 1169SOL     OW14965   3.659   2.996  15.680  0.2946 -0.4883  0.4441
 1169SOL    HW114966   3.587   3.026  15.735 -0.5557 -0.2992 -0.7624
 1169SOL    HW214967   3.610   2.930  15.631 -0.5201 -0.0875  0.7274
 1170SOL     OW14968   0.866   0.795   4.319  0.0684  0.0180  0.3073
 1170SOL    HW114969   0.891   0.868   4.376  0.2819 -1.0755  1.6263
 1170SOL    HW214970   0.787   0.828   4.277  0.8127 -0.9718 -1.8632
 1171SOL     OW14971   0.133   2.330   3.853  0.0914  0.3534  0.9402
 1171SOL    HW114972   0.090   2.247   3.831 -0.5366  1.2759 -1.3099
 1171SOL    HW214973   0.108   2.372   3.770 -0.3668 -0.3034  0.7466
 1172SOL     OW14974   3.558   4.474   1.889  0.1603 -0.1696  0.8011
 1172SOL    HW114975   3.558   4.552   1.944 -1.1514  0.4959 -0.1488
 1172SOL    HW214976   3.470   4.441   1.910  0.6255 -1.4354  0.7695
 1173SOL     OW14977   4.570   3.287   0.353  0.3476  0.1437  0.4981
 1173SOL    HW114978   4.657   3.248   0.362  0.6384  0.7786  0.4699
 1173SOL    HW214979   4.575   3.328   0.267  1.2814 -0.9985  0.0074
 1174SOL     OW14980   3.490   3.710   0.125  0.0914 -0.1988  0.0274
 1174SOL    HW114981   3.490   3.805   0.113 -0.0706  0.0791  2.2182
 1174SOL    HW214982   3.448   3.702   0.210 -1.2575  0.6396 -0.5690
 1175SOL     OW14983   3.888   1.189  10.404  0.5207 -0.0473  0.1834
 1175SOL    HW114984   3.903   1.174  10.498  3.1715 -3.0903 -0.7304
 1175SOL    HW214985   3.793   1.202  10.407  0.1139 -3.0765  1.1250
 1176SOL     OW14986   3.564   2.857   6.158 -0.2504  0.0044 -0.3672
 1176SOL    HW114987   3.528   2.940   6.127  2.7434  1.2297 -0.6212
 1176SOL    HW214988   3.613   2.823   6.084  2.1174  0.9506  0.7499
 1177SOL     OW14989   2.126   2.843   5.975  0.1106 -0.5097  0.3832
 1177SOL    HW114990   2.159   2.755   5.994  1.6648  0.0317  0.2274
 1177SOL    HW214991   2.186   2.899   6.025 -0.5449 -0.5442  1.1960
 1178SOL     OW14992   4.063   3.778   5.618 -0.0797  0.1964 -0.1131
 1178SOL    HW114993   4.088   3.845   5.553 -1.1355  1.7838  1.1251
 1178SOL    HW214994   3.980   3.749   5.581 -1.2330  0.8237  2.0141
 1179SOL     OW14995   3.870   3.561   7.316 -0.0346 -0.2557  0.6805
 1179SOL    HW114996   3.884   3.656   7.315 -0.6571 -0.1980 -2.5963
 1179SOL    HW214997   3.958   3.528   7.300 -0.5856 -2.1868  1.6527
 1180SOL     OW14998   0.949   2.238   5.096 -1.3902 -0.0177 -0.4561
 1180SOL    HW114999   0.974   2.188   5.174 -1.2733 -0.4106 -0.7417
 1180SOL    HW215000   0.939   2.170   5.029  0.6099  0.0128 -0.7797
 1181SOL     OW15001   1.768   1.026   7.537  0.5233  0.5812  0.3346
 1181SOL    HW115002   1.785   1.104   7.483  1.9985 -1.5105 -2.2827
 1181SOL    HW215003   1.732   1.068   7.615  1.4697 -0.0941  1.1278
 1182SOL     OW15004   2.820   3.399  13.270 -0.1224  0.0700  0.4159
 1182SOL    HW115005   2.860   3.347  13.339  1.9832  0.2265 -0.6985
 1182SOL    HW215006   2.830   3.482  13.315 -0.0317 -0.6322  1.6830
 1183SOL     OW15007   1.063   1.728  13.441  0.2615 -0.7470  0.0818
 1183SOL    HW115008   0.981   1.754  13.400  0.0638 -1.4312  0.0600
 1183SOL    HW215009   1.122   1.746  13.367 -0.0826 -1.7813 -0.4299
 1184SOL     OW15010   0.056   0.677   7.391  0.0578  0.1994 -0.4402
 1184SOL    HW115011   0.083   0.696   7.301 -1.4355 -2.7012 -1.5259
 1184SOL    HW215012   0.078   0.752   7.447 -2.5058 -1.4659  2.8168
 1185SOL     OW15013   2.083   3.976   2.765 -0.3922 -0.9303  0.4401
 1185SOL    HW115014   2.171   3.944   2.742 -0.1190 -0.3086  0.6190
 1185SOL    HW215015   2.115   4.060   2.798 -1.1679 -0.5261  0.1449
 1186SOL     OW15016   2.341   3.778  10.945  0.0749  0.1475  0.6128
 1186SOL    HW115017   2.346   3.691  10.984 -1.3824 -0.7924 -1.3404
 1186SOL    HW215018   2.282   3.823  11.007 -1.4081 -1.5544  0.4340
 1187SOL     OW15019   0.676   3.959   6.358 -0.2899 -0.1304 -0.3397
 1187SOL    HW115020   0.609   3.989   6.295 -0.2972  0.9507  0.1815
 1187SOL    HW215021   0.659   4.021   6.429  1.9973  1.3237 -1.0752
 1188SOL     OW15022   3.436   3.509   5.566 -0.6095  0.2669 -0.5957
 1188SOL    HW115023   3.437   3.581   5.503 -2.0738  0.4949 -0.3567
 1188SOL    HW215024   3.499   3.554   5.623 -2.4600  1.2855  0.6183
 1189SOL     OW15025   3.068   3.193   0.424 -0.3024 -0.1929 -0.2168
 1189SOL    HW115026   3.029   3.177   0.509  2.2707 -3.6746  0.3064
 1189SOL    HW215027   3.123   3.270   0.437  0.1552 -0.8234  1.5692
 1190SOL     OW15028   1.311   1.854   9.165 -0.0188  0.8214 -0.6278
 1190SOL    HW115029   1.233   1.898   9.131 -0.8129  0.2523  0.4979
 1190SOL    HW215030   1.376   1.925   9.166  2.0188 -1.0544  0.0206
 1191SOL     OW15031   1.046   0.521   4.675 -0.1247 -0.1421  0.4335
 1191SOL    HW115032   1.043   0.446   4.735  0.0620  1.0039  1.8523
 1191SOL    HW215033   1.101   0.490   4.603  1.1359 -1.1901  1.8517
 1192SOL     OW15034   1.464   3.199  15.056  0.0771 -0.2029  0.3294
 1192SOL    HW115035   1.518   3.241  14.988  0.0553 -0.8825 -0.1110
 1192SOL    HW215036   1.378   3.211  15.017  0.9093  0.1840 -1.3954
 1193SOL     OW15037   4.619   0.352   9.880 -0.7776 -0.3911  0.3401
 1193SOL    HW115038   4.688   0.290   9.903  0.7751  1.8184  1.6854
 1193SOL    HW215039   4.600   0.408   9.956 -2.3136 -0.0289 -0.3067
 1194SOL     OW15040   1.266   1.972   6.903 -0.1243 -0.5711 -0.1551
 1194SOL    HW115041   1.267   1.943   6.811 -0.3069  0.1516 -0.3855
 1194SOL    HW215042   1.225   1.901   6.951 -0.1378  1.0067  2.1454
 1195SOL     OW15043   2.453   0.154   6.350 -0.0340  0.1514 -0.1960
 1195SOL    HW115044   2.535   0.166   6.302 -0.7623  1.6361 -1.0813
 1195SOL    HW215045   2.479   0.218   6.416 -1.8549 -0.0839  0.7571
 1196SOL     OW15046   1.445   1.922   7.141  0.3005 -0.0704 -0.1959
 1196SOL    HW115047   1.369   1.966   7.179  1.2583  1.5095 -0.0962
 1196SOL    HW215048   1.448   1.966   7.055 -1.8723 -2.0538 -1.2790
 1197SOL     OW15049   0.145   3.856   8.784 -0.5309 -0.1119 -0.0088
 1197SOL    HW115050   0.223   3.892   8.741  1.7195 -2.8514  1.7727
 1197SOL    HW215051   0.116   3.796   8.715  1.3963 -0.9660 -0.0548
 1198SOL     OW15052   3.099   0.309  13.154 -0.1535 -0.1997  0.0022
 1198SOL    HW115053   3.183   0.286  13.115 -0.7410  1.8841 -2.5149
 1198SOL    HW215054   3.044   0.344  13.084 -1.2946  0.0105  1.0162
 1199SOL     OW15055   4.124   2.849   9.013 -0.0828 -0.3957  0.3469
 1199SOL    HW115056   4.172   2.805   9.083  0.1263 -1.3036 -0.3678
 1199SOL    HW215057   4.061   2.896   9.069 -0.3693 -0.1765 -0.1580
 1200SOL     OW15058   0.307   3.894  17.425  0.3291  0.0962  0.0775
 1200SOL    HW115059   0.256   3.817  17.451  0.7952 -0.9645 -2.1230
 1200SOL    HW215060   0.244   3.928  17.361  1.1419  2.2925  0.4602
 1201SOL     OW15061   3.960   1.994   5.421  0.6087 -0.0715  0.6140
 1201SOL    HW115062   3.955   2.089   5.409  1.8401 -0.3014 -1.8286
 1201SOL    HW215063   3.967   1.974   5.327  0.9550 -0.7149  0.7789
 1202SOL     OW15064   2.170   2.832   3.734  0.2453  0.5869 -0.2510
 1202SOL    HW115065   2.205   2.749   3.700  3.1129  1.6465  0.1321
 1202SOL    HW215066   2.125   2.873   3.660  0.7182 -2.2065 -2.1010
 1203SOL     OW15067   4.243   0.064   1.250 -0.2728 -0.0588 -0.9467
 1203SOL    HW115068   4.200   0.077   1.166  2.0402 -0.4655 -2.1737
 1203SOL    HW215069   4.326   0.030   1.218  0.6301  0.1232  1.1742
 1204SOL     OW15070   2.004   1.892   7.641 -0.1020 -0.4486 -0.5711
 1204SOL    HW115071   2.038   1.885   7.731 -1.6076 -1.5073 -0.0942
 1204SOL    HW215072   2.048   1.970   7.608 -2.0264  0.7415 -0.3422
 1205SOL     OW15073   4.010   0.738   6.934 -0.0782  0.0536 -0.2157
 1205SOL    HW115074   4.099   0.768   6.917  0.3102 -1.0260 -0.0579
 1205SOL    HW215075   3.977   0.803   6.996  0.1184  0.4449 -0.5238
 1206SOL     OW15076   4.444   1.777   9.535 -0.2232 -0.0100 -0.0904
 1206SOL    HW115077   4.370   1.724   9.506 -1.0866  1.1934 -0.1224
 1206SOL    HW215078   4.487   1.718   9.596 -0.4931  0.0907  0.1929
 1207SOL     OW15079   2.930   0.736  12.240 -0.1202 -0.4800  0.5340
 1207SOL    HW115080   2.941   0.645  12.269  2.9163 -0.5763 -0.8209
 1207SOL    HW215081   2.864   0.722  12.172 -0.3539 -2.7506  1.2342
 1208SOL     OW15082   1.235   3.978   1.264  0.6261 -0.2523 -0.2810
 1208SOL    HW115083   1.318   3.988   1.310 -0.2368  0.8926  1.0292
 1208SOL    HW215084   1.273   3.968   1.177 -0.9080  0.3243 -1.0280
 1209SOL     OW15085   1.735   0.824   7.345 -0.2310  0.0190  0.4606
 1209SOL    HW115086   1.691   0.894   7.296 -0.5897 -1.7942 -1.8281
 1209SOL    HW215087   1.757   0.870   7.426  0.4598  2.3895 -1.0800
 1210SOL     OW15088   1.327   3.178   2.297  0.3249  0.4879  0.0425
 1210SOL    HW115089   1.279   3.174   2.380  1.9241  0.8685  0.9751
 1210SOL    HW215090   1.261   3.136   2.241  0.1872  0.8887 -0.0988
 1211SOL     OW15091   0.674   3.023  17.036 -0.7302  0.2824 -0.2134
 1211SOL    HW115092   0.666   3.116  17.013 -3.5084  0.8206  2.9838
 1211SOL    HW215093   0.768   3.007  17.036 -0.7783  0.0123  0.8771
 1212SOL     OW15094   3.938   2.406   8.647  0.5385 -0.3410 -0.4242
 1212SOL    HW115095   3.978   2.439   8.566  1.7358  0.7942  0.6264
 1212SOL    HW215096   4.000   2.418   8.718  0.6975 -1.2462 -0.4133
 1213SOL     OW15097   2.318   2.738  16.909 -0.3989  0.1398  0.7371
 1213SOL    HW115098   2.284   2.823  16.937  0.3142  0.3747  0.8997
 1213SOL    HW215099   2.242   2.698  16.865 -2.2379  0.9172  3.2114
 1214SOL     OW15100   0.937   1.148  11.803 -0.6884  0.2166  0.1072
 1214SOL    HW115101   0.946   1.191  11.889  1.4195  0.2528 -0.1254
 1214SOL    HW215102   0.905   1.060  11.824  0.3441  0.0812  1.1308
 1215SOL     OW15103   0.280   2.060   5.146 -0.3367 -0.5203  0.0733
 1215SOL    HW115104   0.293   1.971   5.178 -0.5692 -0.3916  0.5321
 1215SOL    HW215105   0.247   2.097   5.228  1.8513 -1.0836  1.2201
 1216SOL     OW15106   0.393   3.058  10.185  0.7170 -0.4199  0.2803
 1216SOL    HW115107   0.473   3.047  10.134 -0.1339 -0.5550 -1.0372
 1216SOL    HW215108   0.329   3.075  10.116 -0.0622  1.5834  1.4956
 1217SOL     OW15109   4.387   1.575   4.193  0.8266  0.0374 -0.4242
 1217SOL    HW115110   4.392   1.667   4.167 -3.0121  0.4865  0.3612
 1217SOL    HW215111   4.342   1.538   4.116  1.3543  0.3663 -0.8912
 1218SOL     OW15112   0.493   2.221   6.320 -0.2953 -0.4508 -0.1222
 1218SOL    HW115113   0.438   2.175   6.383  1.2207 -1.9830  0.0977
 1218SOL    HW215114   0.572   2.220   6.375  0.1031  1.3909 -0.6486
 1219SOL     OW15115   1.154   3.174  16.429 -0.0918 -0.7038 -0.0557
 1219SOL    HW115116   1.063   3.199  16.415 -0.0150  0.0883  0.8840
 1219SOL    HW215117   1.178   3.236  16.497 -0.0403 -0.7986  0.0124
 1220SOL     OW15118   3.147   2.879  10.324  0.6939  0.6152  0.0743
 1220SOL    HW115119   3.065   2.863  10.372  1.1027 -0.5631  0.3696
 1220SOL    HW215120   3.185   2.791  10.324 -0.2412  0.2124  0.3869
 1221SOL     OW15121   2.124   1.934  12.252  0.3219  0.0034 -0.6944
 1221SOL    HW115122   2.128   1.947  12.158 -1.9323 -0.1597 -0.8024
 1221SOL    HW215123   2.038   1.974  12.261  0.3418  0.0361 -0.6441
 1222SOL     OW15124   2.913   1.936   4.869  0.1200 -0.0548  0.2059
 1222SOL    HW115125   2.846   1.918   4.935  1.9273 -2.5010  1.3791
 1222SOL    HW215126   2.977   1.993   4.911  1.6992 -0.7503 -1.2836
 1223SOL     OW15127   0.955   4.278   6.666 -0.3813  0.1981 -0.5143
 1223SOL    HW115128   0.864   4.299   6.682 -0.9344 -0.8371 -2.2269
 1223SOL    HW215129   1.001   4.337   6.726  1.3482  1.0863 -2.6991
 1224SOL     OW15130   0.696   2.756   6.034  0.0875 -0.2257  0.3850
 1224SOL    HW115131   0.644   2.734   5.957 -0.2162  0.4805  0.3921
 1224SOL    HW215132   0.781   2.717   6.013 -0.4860 -1.2430 -0.0548
 1225SOL     OW15133   2.967   3.519   2.965  0.7124 -0.0567 -0.4668
 1225SOL    HW115134   2.892   3.462   2.984 -0.6150  1.9671  0.4689
 1225SOL    HW215135   2.938   3.610   2.955 -0.4667 -0.4930 -0.9362
 1226SOL     OW15136   2.179   0.208  15.171  0.5660 -0.1005 -0.0431
 1226SOL    HW115137   2.084   0.204  15.163  0.6512 -2.3803  0.0712
 1226SOL    HW215138   2.201   0.170  15.086  0.6224 -0.5244  0.1592
 1227SOL     OW15139   4.511   3.831  14.531 -0.4553 -0.0584  0.0607
 1227SOL    HW115140   4.601   3.863  14.543 -0.2832 -0.1287 -1.0056
 1227SOL    HW215141   4.525   3.739  14.556  1.1694  0.3831  0.7591
 1228SOL     OW15142   0.596   3.895   6.645  0.4886  0.2141 -0.0351
 1228SOL    HW115143   0.529   3.917   6.581  2.4441 -2.6388 -3.0938
 1228SOL    HW215144   0.616   3.803   6.626 -0.7129 -0.1934  0.7355
 1229SOL     OW15145   4.120   2.970  12.695  0.9174  0.0373 -0.1137
 1229SOL    HW115146   4.072   3.047  12.726  0.1135 -0.6323  0.3056
 1229SOL    HW215147   4.062   2.894  12.697 -0.8029  1.2850 -2.9116
 1230SOL     OW15148   1.202   1.084  17.607 -0.1112 -0.3253  0.2630
 1230SOL    HW115149   1.279   1.051  17.559 -0.2841  1.2825 -1.1199
 1230SOL    HW215150   1.223   1.076   0.007  0.9721 -0.9309 -0.0371
 1231SOL     OW15151   3.521   4.008   2.287  0.1415  0.5691  0.2686
 1231SOL    HW115152   3.511   4.064   2.363  0.5020  2.0374 -0.7675
 1231SOL    HW215153   3.437   4.008   2.241 -0.7811 -1.6330  1.9562
 1232SOL     OW15154   4.002   3.522   5.272 -0.0986  0.1351 -0.2003
 1232SOL    HW115155   4.071   3.582   5.302  1.1388 -0.4478 -1.8711
 1232SOL    HW215156   4.022   3.525   5.179 -0.8903  0.1769 -0.3660
 1233SOL     OW15157   1.190   2.509  17.300 -0.1793  0.0737  0.5597
 1233SOL    HW115158   1.170   2.529  17.208  0.4334 -0.6302  0.2739
 1233SOL    HW215159   1.166   2.594  17.338  0.2739  0.1789  0.6013
 1234SOL     OW15160   1.623   3.286  10.484  0.9336  0.1343 -0.5620
 1234SOL    HW115161   1.624   3.232  10.405 -0.4666  1.2596 -1.3474
 1234SOL    HW215162   1.585   3.225  10.548  1.9309 -1.9548 -1.9422
 1235SOL     OW15163   1.261   0.336   3.503  0.3771 -0.2165 -0.0121
 1235SOL    HW115164   1.347   0.298   3.484  0.1432 -1.3662  1.2871
 1235SOL    HW215165   1.228   0.280   3.573  0.0722  0.7901  0.6586
 1236SOL     OW15166   0.019   2.765   1.575 -0.5358 -0.8994  1.0974
 1236SOL    HW115167   0.082   2.836   1.563 -1.3327 -0.4411 -0.3566
 1236SOL    HW215168   0.078   2.691   1.590  0.5604 -0.3421 -0.4686
 1237SOL     OW15169   0.841   1.791   2.825 -0.0426  0.1407  0.5832
 1237SOL    HW115170   0.917   1.828   2.781  0.6342 -0.5772  1.1498
 1237SOL    HW215171   0.773   1.810   2.760 -1.6460 -1.2404  1.8456
 1238SOL     OW15172   1.422   0.660   8.987 -0.7737 -0.3867 -0.0335
 1238SOL    HW115173   1.475   0.722   9.037  0.0448 -0.7907 -0.3927
 1238SOL    HW215174   1.408   0.595   9.055 -0.2136 -0.7424 -0.2564
 1239SOL     OW15175   4.419   2.797  16.387  0.2753 -0.0632 -0.1834
 1239SOL    HW115176   4.361   2.866  16.420  0.6520 -0.4088  1.2236
 1239SOL    HW215177   4.441   2.823  16.298  1.6971  0.4424  0.3181
 1240SOL     OW15178   3.074   2.973   6.770 -0.3871 -0.0173  0.0201
 1240SOL    HW115179   3.011   2.961   6.700  1.4125  1.0539 -1.7954
 1240SOL    HW215180   3.058   3.057   6.813  0.7782  0.2194  0.0052
 1241SOL     OW15181   0.106   4.407   7.272 -0.2767  0.2410 -0.0441
 1241SOL    HW115182   0.125   4.314   7.267 -1.2518  0.0693 -0.5568
 1241SOL    HW215183   0.014   4.415   7.247  0.1423  0.6619 -1.4173
 1242SOL     OW15184   2.645   4.313   3.789  0.0023  0.1574  0.2358
 1242SOL    HW115185   2.561   4.333   3.749 -0.2346  1.5697  1.4500
 1242SOL    HW215186   2.704   4.289   3.718 -0.2064  0.9867 -0.2173
 1243SOL     OW15187   3.984   1.178   1.379  0.0675 -0.0569  0.0344
 1243SOL    HW115188   3.967   1.104   1.320 -1.8922  0.0420  0.4643
 1243SOL    HW215189   3.979   1.249   1.316  1.5332  0.7028  0.7786
 1244SOL     OW15190   0.005   2.141   3.267  0.4384  0.2898 -0.6578
 1244SOL    HW115191   4.662   2.148   3.197 -0.2172  1.2151  0.0629
 1244SOL    HW215192   4.691   2.064   3.310 -1.0719  1.0218 -0.6276
 1245SOL     OW15193   2.403   2.074   1.630 -0.3695  0.3609  0.4500
 1245SOL    HW115194   2.459   2.002   1.601 -0.6994  0.3935 -0.2928
 1245SOL    HW215195   2.353   2.081   1.548 -0.7667  1.5477  0.7879
 1246SOL     OW15196   3.788   1.962   5.170  0.1299  0.6843 -0.0404
 1246SOL    HW115197   3.742   2.025   5.115  1.7427  2.0918  0.2050
 1246SOL    HW215198   3.723   1.892   5.167  0.7211  0.1750 -0.9510
 1247SOL     OW15199   2.814   3.262   6.080  0.2519 -0.0679 -0.2687
 1247SOL    HW115200   2.906   3.275   6.059  0.2869 -2.7613 -1.7236
 1247SOL    HW215201   2.783   3.283   5.992 -1.0085  3.4740  1.0068
 1248SOL     OW15202   0.811   3.276   3.162  0.1830  0.3500  0.1987
 1248SOL    HW115203   0.737   3.337   3.168 -0.8374 -0.8276 -0.3865
 1248SOL    HW215204   0.871   3.331   3.212 -0.4266  0.3088  0.9798
 1249SOL     OW15205   0.210   0.599   8.554 -0.1120 -0.5207 -0.2883
 1249SOL    HW115206   0.246   0.513   8.530 -0.2422 -0.7994  0.5252
 1249SOL    HW215207   0.124   0.600   8.511 -1.9670 -1.4745  3.3934
 1250SOL     OW15208   1.005   0.360  10.143  0.0738 -0.0548 -0.0649
 1250SOL    HW115209   1.047   0.316  10.216 -4.1796 -2.2924  1.0210
 1250SOL    HW215210   0.964   0.287  10.096  0.1102 -0.1459  0.0455
 1251SOL     OW15211   3.787   4.622  10.732 -0.0220  0.0288 -0.0417
 1251SOL    HW115212   3.882   4.622  10.739 -0.1454  3.1442  1.4660
 1251SOL    HW215213   3.774   4.716  10.743  0.4918  0.2818 -1.5468
 1252SOL     OW15214   2.901   3.087   3.903 -0.1539 -0.0467  0.2352
 1252SOL    HW115215   2.934   3.014   3.850  0.6653  0.8204 -0.4497
 1252SOL    HW215216   2.882   3.042   3.985  1.0852 -0.4721  0.2967
 1253SOL     OW15217   4.641   0.408  17.368 -0.0497 -0.1191  0.5997
 1253SOL    HW115218   4.558   0.446  17.398  0.2478 -2.3180  4.2004
 1253SOL    HW215219   4.692   0.397  17.448  1.4011  2.4286  0.0094
 1254SOL     OW15220   4.003   0.099   5.216  0.1063  0.4130 -0.2215
 1254SOL    HW115221   3.979   0.120   5.306 -0.5370  2.3163 -0.8407
 1254SOL    HW215222   3.919   0.077   5.176 -1.6225  2.0845  2.4748
 1255SOL     OW15223   4.136   1.273   4.746  0.3990 -0.2480 -0.3131
 1255SOL    HW115224   4.227   1.246   4.761  0.2651  1.3027  3.3816
 1255SOL    HW215225   4.136   1.346   4.808  0.5014  0.6927 -1.4123
 1256SOL     OW15226   2.057   4.713   5.078 -0.4191  0.3994 -0.3475
 1256SOL    HW115227   2.030   0.076   5.111  2.3624  0.5147  1.5415
 1256SOL    HW215228   1.997   4.666   5.136  0.5844 -0.1833  0.2144
 1257SOL     OW15229   0.764   3.456   0.632 -0.3752  0.1573  0.1239
 1257SOL    HW115230   0.828   3.506   0.682  0.3875 -0.8573  0.1482
 1257SOL    HW215231   0.785   3.462   0.539 -4.1679  1.5943 -0.6746
 1258SOL     OW15232   4.643   3.857   5.993 -0.4241 -0.6666 -0.0446
 1258SOL    HW115233   4.719   3.900   5.956 -0.4368 -2.7540 -2.5494
 1258SOL    HW215234   4.667   3.766   5.974  0.7168 -0.3992  0.1540
 1259SOL     OW15235   1.044   1.095   6.586 -0.5201  0.1754 -0.3686
 1259SOL    HW115236   1.118   1.085   6.647 -1.0774 -2.6344 -0.1555
 1259SOL    HW215237   1.050   1.014   6.536  0.7860 -0.3177  0.5734
 1260SOL     OW15238   1.173   2.354   4.584  0.1480 -0.3472  0.0052
 1260SOL    HW115239   1.242   2.324   4.524  1.2194  0.1187  0.9835
 1260SOL    HW215240   1.221   2.366   4.666 -0.4317  0.2559  0.2593
 1261SOL     OW15241   0.845   3.944   9.631  0.3270  0.4095 -0.0690
 1261SOL    HW115242   0.761   3.917   9.595  1.1338  0.3603 -1.9220
 1261SOL    HW215243   0.872   3.867   9.682  1.2736  1.5005  1.0717
 1262SOL     OW15244   1.437   3.961  13.114 -0.0219 -0.1073  0.4453
 1262SOL    HW115245   1.423   3.894  13.182  5.0465 -1.1083  0.4737
 1262SOL    HW215246   1.346   3.983  13.093 -0.5901 -1.9067  0.9462
 1263SOL     OW15247   3.773   1.251   4.205 -0.0177 -0.1118 -0.5909
 1263SOL    HW115248   3.776   1.327   4.147  3.0225 -0.1898 -0.5668
 1263SOL    HW215249   3.768   1.297   4.288  0.1130 -1.3985  0.1207
 1264SOL     OW15250   1.724   0.185   1.685  0.0336  0.1376 -0.4116
 1264SOL    HW115251   1.722   0.117   1.617 -2.1383 -1.6798  1.4821
 1264SOL    HW215252   1.694   0.134   1.760  0.6389 -3.1930 -2.3847
 1265SOL     OW15253   2.714   3.704  12.828 -0.3506 -0.1680 -0.5721
 1265SOL    HW115254   2.778   3.659  12.773  0.4668 -2.0604  1.9249
 1265SOL    HW215255   2.639   3.713  12.769 -2.1966  1.2947  1.9863
 1266SOL     OW15256   4.665   4.282   1.360 -0.3593 -0.6404 -0.1829
 1266SOL    HW115257   4.632   4.286   1.450 -0.9886 -1.1312 -0.3859
 1266SOL    HW215258   4.699   4.370   1.349 -0.3225 -0.2968  2.7141
 1267SOL     OW15259   2.224   1.094  10.798  0.0340  0.2136  0.0523
 1267SOL    HW115260   2.188   1.092  10.709  0.1402  0.1688  0.0111
 1267SOL    HW215261   2.258   1.006  10.815 -3.6757 -0.7088  2.8357
 1268SOL     OW15262   4.550   4.669   7.604  0.2854  0.2795  0.2550
 1268SOL    HW115263   4.530   4.582   7.571  0.0331  0.7937 -0.9510
 1268SOL    HW215264   4.642   4.664   7.632 -0.2116 -2.2573  1.3997
 1269SOL     OW15265   0.260   3.694  17.176  0.2010  0.1270 -0.3190
 1269SOL    HW115266   0.173   3.679  17.211  0.5158 -2.2696 -0.5733
 1269SOL    HW215267   0.236   3.744  17.098  2.0229 -0.1529 -1.0744
 1270SOL     OW15268   1.855   3.396  15.989  0.0115 -0.1922  0.0954
 1270SOL    HW115269   1.832   3.389  15.896  0.8574 -0.8945 -0.0593
 1270SOL    HW215270   1.800   3.468  16.019 -1.2618 -0.6951 -1.0377
 1271SOL     OW15271   2.911   1.115   3.660 -0.2023 -0.6666  0.0373
 1271SOL    HW115272   2.944   1.178   3.725  0.1603  0.0310 -0.8124
 1271SOL    HW215273   2.966   1.135   3.584 -0.2703 -0.6694 -0.0129
 1272SOL     OW15274   1.360   3.183   3.133  0.0613 -0.0933 -0.2305
 1272SOL    HW115275   1.375   3.159   3.042 -0.1041 -0.4114 -0.1747
 1272SOL    HW215276   1.385   3.275   3.126  0.9416 -0.2048  1.5614
 1273SOL     OW15277   0.523   2.321  15.076  0.4146  0.5468 -0.5293
 1273SOL    HW115278   0.446   2.366  15.043  0.2766  1.0764  0.5185
 1273SOL    HW215279   0.525   2.343  15.169 -0.5229  0.0572 -0.3907
 1274SOL     OW15280   0.903   3.511  17.601  0.1681  0.5680 -0.5009
 1274SOL    HW115281   0.970   3.480  17.540 -0.1220  1.2844 -1.1960
 1274SOL    HW215282   0.862   3.587  17.559 -0.6639 -1.0169 -2.5606
 1275SOL     OW15283   0.720   2.677   5.431 -0.2022  0.3525  0.1401
 1275SOL    HW115284   0.769   2.629   5.364 -0.0373  0.5100  0.1469
 1275SOL    HW215285   0.710   2.612   5.500  1.3202 -0.8247 -0.7384
 1276SOL     OW15286   3.444   1.949   8.317  0.4978  0.3938 -0.3035
 1276SOL    HW115287   3.477   1.935   8.228 -1.6369 -0.0768 -1.0236
 1276SOL    HW215288   3.488   2.031   8.339  1.8070 -0.1872 -0.8106
 1277SOL     OW15289   1.078   0.909   9.012 -0.0780  0.3896 -0.6812
 1277SOL    HW115290   1.055   0.946   9.097 -0.7666  1.5487 -1.3736
 1277SOL    HW215291   1.160   0.959   9.001  0.6040 -0.4277  0.6314
 1278SOL     OW15292   0.607   3.354  15.950  0.4621 -0.4904 -0.7573
 1278SOL    HW115293   0.702   3.358  15.963  0.5024  1.3154 -1.6769
 1278SOL    HW215294   0.609   3.258  15.951  3.6725 -0.4392 -2.4534
 1279SOL     OW15295   1.311   3.389  12.670  0.5810 -0.2140 -0.0458
 1279SOL    HW115296   1.342   3.452  12.735  2.3667 -3.7272  2.5127
 1279SOL    HW215297   1.346   3.411  12.583  1.3030 -0.2818  0.2336
 1280SOL     OW15298   0.807   4.536   3.363 -0.2802  0.2749  0.1624
 1280SOL    HW115299   0.861   4.613   3.350  0.2813  0.0940  1.4809
 1280SOL    HW215300   0.865   4.470   3.325 -0.3446  0.8197 -0.8966
 1281SOL     OW15301   4.702   2.464  12.207  0.0795 -0.3326  0.1912
 1281SOL    HW115302   0.032   2.541  12.227  1.5380 -0.6349 -2.5840
 1281SOL    HW215303   4.669   2.496  12.123  3.2138 -0.3659 -1.0321
 1282SOL     OW15304   0.784   0.350  14.340  0.3711  0.2015 -0.0630
 1282SOL    HW115305   0.756   0.303  14.418 -1.9173  1.1623 -0.3256
 1282SOL    HW215306   0.870   0.378  14.373  0.5178 -1.0492  0.6225
 1283SOL     OW15307   4.454   3.452  13.204  0.1022 -0.7877 -0.7410
 1283SOL    HW115308   4.535   3.402  13.189 -0.9870 -2.5222 -0.9060
 1283SOL    HW215309   4.392   3.422  13.137 -0.6059 -0.4781 -0.2216
 1284SOL     OW15310   3.113   4.556  12.031  0.0544  0.4245  0.0653
 1284SOL    HW115311   3.111   4.627  12.095  0.3333  1.1997 -0.7934
 1284SOL    HW215312   3.073   4.603  11.959 -0.4740  0.3036  0.2778
 1285SOL     OW15313   3.743   3.177   7.268  0.1493 -0.1307  0.1945
 1285SOL    HW115314   3.733   3.105   7.205  0.0625 -0.3322  0.4393
 1285SOL    HW215315   3.833   3.161   7.297  0.4275  0.2397 -0.4702
 1286SOL     OW15316   1.952   1.984   5.269 -0.9172  0.1686 -0.1225
 1286SOL    HW115317   1.964   1.933   5.349  1.0607  1.3982  0.3661
 1286SOL    HW215318   1.893   2.052   5.302 -0.0809  0.7670  0.1522
 1287SOL     OW15319   3.033   0.133   4.404 -0.4236  0.1310 -0.3096
 1287SOL    HW115320   2.979   0.098   4.333  0.3721  0.8330 -1.2610
 1287SOL    HW215321   2.986   0.217   4.407  0.3713  0.5323  1.2754
 1288SOL     OW15322   1.606   2.602   8.951  0.2040  0.0736  0.0726
 1288SOL    HW115323   1.658   2.681   8.937  2.5142 -1.3288  0.6101
 1288SOL    HW215324   1.675   2.546   8.989  0.3746 -0.1453 -0.5649
 1289SOL     OW15325   4.403   2.242   4.905 -0.3213  1.1959  0.1326
 1289SOL    HW115326   4.456   2.318   4.883 -2.0508  2.6287  0.9360
 1289SOL    HW215327   4.403   2.210   4.815 -0.0983  0.4039  0.4173
 1290SOL     OW15328   4.393   3.181  17.320  0.3764 -0.0178  0.2964
 1290SOL    HW115329   4.408   3.210  17.230 -1.8256  1.9769  0.5673
 1290SOL    HW215330   4.391   3.086  17.326 -0.6283  0.1565  2.8306
 1291SOL     OW15331   0.171   1.189   4.112  0.2724 -0.1966  0.6575
 1291SOL    HW115332   0.205   1.270   4.074 -1.6766  0.7257  0.8763
 1291SOL    HW215333   0.191   1.207   4.204  0.4101 -1.5275  0.8840
 1292SOL     OW15334   4.583   3.295  10.359  0.1085  0.0331 -0.3181
 1292SOL    HW115335   4.525   3.263  10.428 -0.2881 -1.0602 -1.1592
 1292SOL    HW215336   4.524   3.291  10.284 -0.7535  1.2742  0.2883
 1293SOL     OW15337   2.667   4.637   8.599  0.1372  0.1972 -0.2986
 1293SOL    HW115338   2.750   4.596   8.575  0.1319 -1.2565  2.1552
 1293SOL    HW215339   2.662   4.715   8.543  1.6719 -0.6896 -1.6918
 1294SOL     OW15340   1.743   1.228   7.732  0.2672 -0.3326 -0.4379
 1294SOL    HW115341   1.799   1.275   7.793 -0.5525  0.5602 -0.3705
 1294SOL    HW215342   1.661   1.271   7.755  0.5344 -0.0562  0.0130
 1295SOL     OW15343   1.116   3.322   3.491  0.5644  0.3443 -0.2031
 1295SOL    HW115344   1.134   3.293   3.581 -1.9040  1.4264  0.6288
 1295SOL    HW215345   1.124   3.242   3.439 -0.1465  2.2069 -3.1683
 1296SOL     OW15346   1.520   4.179  13.279 -0.3781 -0.3182 -0.1228
 1296SOL    HW115347   1.480   4.115  13.220  1.7548 -0.2936 -1.6208
 1296SOL    HW215348   1.592   4.124  13.311  0.7371  1.3473  0.2467
 1297SOL     OW15349   0.552   2.797   4.846  0.0924 -0.3526 -0.2346
 1297SOL    HW115350   0.509   2.858   4.908 -0.1010 -0.0646 -0.6510
 1297SOL    HW215351   0.618   2.756   4.902 -2.0726 -1.9767  1.1511
 1298SOL     OW15352   2.546   3.782  16.376  0.6765 -0.3733 -0.1073
 1298SOL    HW115353   2.495   3.701  16.373  2.2307 -1.2393 -2.9777
 1298SOL    HW215354   2.608   3.766  16.306  1.8266 -1.2808  1.1245
 1299SOL     OW15355   0.916   3.646   5.151 -0.3147  0.0481 -0.0004
 1299SOL    HW115356   0.864   3.632   5.071  0.1870  0.7528 -0.4510
 1299SOL    HW215357   0.850   3.643   5.220  1.6584 -1.7633  1.7897
 1300SOL     OW15358   2.210   1.167   8.132 -0.2666  0.3118 -0.4804
 1300SOL    HW115359   2.187   1.131   8.046  1.2546  1.5290 -1.4065
 1300SOL    HW215360   2.278   1.108   8.164  0.9691  1.3739 -1.1554
 1301SOL     OW15361   4.552   0.369   2.800 -0.3011  0.2156  0.0200
 1301SOL    HW115362   4.597   0.322   2.870 -0.9812 -1.9888 -1.0280
 1301SOL    HW215363   4.466   0.377   2.841 -0.8436 -0.7252 -0.9415
 1302SOL     OW15364   0.994   2.031   7.002  0.2592  0.3811  1.0101
 1302SOL    HW115365   0.998   1.939   7.026 -1.8651 -0.7193 -2.8296
 1302SOL    HW215366   1.001   2.030   6.906 -0.7982 -0.3086  0.9422
 1303SOL     OW15367   3.019   2.259  13.990 -0.5388  0.3358  0.1188
 1303SOL    HW115368   3.048   2.349  14.000  1.3449 -0.2799  0.3027
 1303SOL    HW215369   3.032   2.255  13.896  1.8484  3.0361  0.3212
 1304SOL     OW15370   1.135   3.783   5.449  0.3901  0.2339  0.2044
 1304SOL    HW115371   1.092   3.806   5.366  0.6257  2.1692  0.6160
 1304SOL    HW215372   1.152   3.690   5.431 -0.6643 -0.1086  0.9812
 1305SOL     OW15373   0.131   2.985   2.896 -0.3812  0.2603 -0.4488
 1305SOL    HW115374   0.059   2.922   2.896  0.9445 -1.2116  0.6672
 1305SOL    HW215375   0.159   2.983   2.987 -1.1902  0.2885 -0.2003
 1306SOL     OW15376   1.196   3.630  13.715 -0.2502 -0.1913  0.1521
 1306SOL    HW115377   1.229   3.663  13.798 -0.2931  1.5184 -0.5063
 1306SOL    HW215378   1.188   3.535  13.729  1.0739 -0.3594 -0.2269
 1307SOL     OW15379   3.260   3.606   4.369  0.2168 -0.1393 -0.7627
 1307SOL    HW115380   3.177   3.652   4.362 -0.2260 -0.2597  3.6224
 1307SOL    HW215381   3.292   3.639   4.453  1.9751  0.3839 -1.6271
 1308SOL     OW15382   2.449   0.324   0.626  0.1610  0.0054 -0.6561
 1308SOL    HW115383   2.392   0.398   0.608  3.1401  2.8000  1.5876
 1308SOL    HW215384   2.399   0.249   0.594 -1.1769  0.4919  0.3085
 1309SOL     OW15385   4.263   0.938   3.555 -0.2992 -0.2195  0.3732
 1309SOL    HW115386   4.276   0.859   3.607  1.2228  1.0529  1.9736
 1309SOL    HW215387   4.225   0.989   3.627 -1.3137 -0.3349 -0.0941
 1310SOL     OW15388   3.005   4.003   4.662  0.1529 -0.2218  0.0478
 1310SOL    HW115389   3.027   4.011   4.755 -0.5343 -0.0217  0.1920
 1310SOL    HW215390   2.948   3.927   4.664  0.5193 -0.4403  2.5310
 1311SOL     OW15391   1.388   2.422   3.664  0.4014 -0.1751 -0.3801
 1311SOL    HW115392   1.371   2.413   3.570  1.6624  0.1787 -0.6364
 1311SOL    HW215393   1.436   2.504   3.658  1.3316 -0.7783 -1.2598
 1312SOL     OW15394   0.027   2.442   7.318 -0.5376 -0.0031  0.1384
 1312SOL    HW115395   4.679   2.377   7.316 -0.7064  0.1972 -0.3140
 1312SOL    HW215396   0.031   2.466   7.411 -3.3950 -0.1759  0.3158
 1313SOL     OW15397   4.084   0.943   0.381  0.8118 -0.0879 -0.1757
 1313SOL    HW115398   4.021   0.960   0.451 -1.3257  0.0510 -2.1382
 1313SOL    HW215399   4.027   0.896   0.320  0.1600 -0.4161  0.6819
 1314SOL     OW15400   3.732   4.430   3.709  0.0018  0.2588  0.2984
 1314SOL    HW115401   3.789   4.481   3.651 -1.2739  0.1210 -1.0762
 1314SOL    HW215402   3.798   4.366   3.734  1.2808  1.4411 -0.0192
 1315SOL     OW15403   4.087   2.307   3.427  0.1602  0.0426 -0.3101
 1315SOL    HW115404   4.147   2.234   3.440 -0.2861  0.4326  3.6918
 1315SOL    HW215405   4.014   2.285   3.484  0.9556  1.6905  1.3339
 1316SOL     OW15406   1.069   2.604  13.951  0.1098 -0.0019 -0.1695
 1316SOL    HW115407   1.144   2.644  13.908 -0.7163  1.3477 -0.3624
 1316SOL    HW215408   1.083   2.520  13.908 -2.5204 -0.3328 -0.4114
 1317SOL     OW15409   2.966   1.616  12.440  0.1081 -0.7600  0.8254
 1317SOL    HW115410   2.990   1.612  12.533 -1.3020  0.7716  1.2553
 1317SOL    HW215411   2.883   1.662  12.447  0.2990 -1.0287  5.2140
 1318SOL     OW15412   0.565   1.466   1.554  0.7098  0.7215 -0.2305
 1318SOL    HW115413   0.504   1.393   1.551  1.3701  0.1916 -0.8916
 1318SOL    HW215414   0.646   1.434   1.515 -0.2209 -1.5343 -0.2966
 1319SOL     OW15415   2.122   3.832  16.973  0.0826  0.4121 -0.4639
 1319SOL    HW115416   2.064   3.816  17.047  3.5476  1.3510  2.4148
 1319SOL    HW215417   2.079   3.909  16.936 -1.4365 -1.0372 -1.7512
 1320SOL     OW15418   0.023   3.176   7.636  0.0323  0.1336  0.2150
 1320SOL    HW115419   0.105   3.222   7.656  1.5795 -3.4934  2.3623
 1320SOL    HW215420   0.051   3.092   7.674 -1.6307 -0.4300  0.1867
 1321SOL     OW15421   2.905   4.004   8.411  0.6683  0.2309  0.4283
 1321SOL    HW115422   2.944   4.003   8.324 -0.1870 -3.3033  0.1064
 1321SOL    HW215423   2.846   3.930   8.396 -0.0168  0.6096  1.2488
 1322SOL     OW15424   3.726   1.543   4.566  0.0014  0.2220 -0.0378
 1322SOL    HW115425   3.760   1.621   4.610 -2.2537  0.6002  1.0377
 1322SOL    HW215426   3.637   1.572   4.548 -0.8710 -0.8626  2.5296
 1323SOL     OW15427   2.617   2.584   5.301  0.2160  0.5593 -0.0881
 1323SOL    HW115428   2.697   2.633   5.279 -0.8182  2.4423  0.2951
 1323SOL    HW215429   2.654   2.521   5.363 -0.8399 -1.0165 -1.1037
 1324SOL     OW15430   0.713   3.610   2.933 -0.1221 -0.5365  0.6113
 1324SOL    HW115431   0.785   3.620   2.995  0.5326 -0.8510 -0.0995
 1324SOL    HW215432   0.651   3.567   2.992  0.4781 -0.3579  1.3706
 1325SOL     OW15433   0.612   0.040  13.723 -0.0568  0.1260  0.0499
 1325SOL    HW115434   0.611   4.670  13.702 -0.1735  0.1564 -0.0779
 1325SOL    HW215435   0.657   0.044  13.808 -0.3501  0.1655  0.2037
 1326SOL     OW15436   0.998   3.075   8.330  0.5025 -0.2752  0.4597
 1326SOL    HW115437   1.079   3.111   8.292 -0.3972  0.4165 -0.7880
 1326SOL    HW215438   1.036   3.030   8.406  1.7689 -1.0827 -0.6444
 1327SOL     OW15439   3.757   3.804   6.083 -0.4455 -0.8291 -0.2643
 1327SOL    HW115440   3.763   3.747   6.007 -0.9460 -0.1207 -0.8355
 1327SOL    HW215441   3.691   3.754   6.131  1.0155 -0.4224  2.1526
 1328SOL     OW15442   0.398   2.064   4.243  0.1151 -0.2691  0.0020
 1328SOL    HW115443   0.461   2.027   4.304 -2.6534 -1.5255  2.0699
 1328SOL    HW215444   0.323   2.086   4.298 -0.0892 -1.1501  0.0632
 1329SOL     OW15445   4.131   2.362   5.929  0.6354 -0.1996 -0.3313
 1329SOL    HW115446   4.055   2.417   5.911  2.0230  1.9295  0.4033
 1329SOL    HW215447   4.179   2.414   5.993  1.8022 -1.6551 -0.0427
 1330SOL     OW15448   3.626   2.879   4.775  0.8072 -0.2919 -0.2071
 1330SOL    HW115449   3.592   2.897   4.863  1.3355 -1.4884  0.2542
 1330SOL    HW215450   3.710   2.839   4.796  0.2491 -1.4567 -0.1568
 1331SOL     OW15451   0.692   2.431  15.288  0.0092  0.4234 -0.0818
 1331SOL    HW115452   0.708   2.351  15.339  1.1896  1.2985  0.9058
 1331SOL    HW215453   0.784   2.450  15.267 -0.9407  1.1383 -3.5583
 1332SOL     OW15454   2.641   0.357   4.661  0.8546 -0.4085 -0.2426
 1332SOL    HW115455   2.564   0.356   4.604 -0.0333  2.5855  0.9469
 1332SOL    HW215456   2.611   0.294   4.727  0.7054  0.5454  0.5823
 1333SOL     OW15457   0.172   0.854   0.917 -0.2398 -0.4831  0.0515
 1333SOL    HW115458   0.221   0.862   0.998 -0.3476 -0.8003  0.1500
 1333SOL    HW215459   0.132   0.769   0.938 -0.1390 -0.0989  1.8124
 1334SOL     OW15460   3.232   2.188   5.628 -0.3276 -0.2276  0.2004
 1334SOL    HW115461   3.258   2.106   5.586 -1.0734 -0.0522 -0.6039
 1334SOL    HW215462   3.258   2.164   5.717  2.4477  3.3632  0.3401
 1335SOL     OW15463   0.344   3.843  12.170  0.8110 -0.1728  0.6252
 1335SOL    HW115464   0.309   3.828  12.258  0.3177 -1.1885  0.2529
 1335SOL    HW215465   0.379   3.758  12.143  0.6910 -0.4579  1.3630
 1336SOL     OW15466   2.921   3.457   7.196 -0.6074 -0.1043  0.1956
 1336SOL    HW115467   2.998   3.510   7.173  0.1621 -0.7539  1.3062
 1336SOL    HW215468   2.864   3.520   7.240 -0.5998 -2.0571  2.9901
 1337SOL     OW15469   1.246   2.123   5.585 -0.2449 -0.2960 -0.1147
 1337SOL    HW115470   1.197   2.042   5.595 -2.0247  0.7891 -0.0424
 1337SOL    HW215471   1.308   2.100   5.516  0.5959  0.4123  0.4072
 1338SOL     OW15472   1.128   1.813  14.990 -0.1531 -0.0225  0.1682
 1338SOL    HW115473   1.186   1.879  15.028 -0.3645 -1.5216  3.1106
 1338SOL    HW215474   1.073   1.870  14.937 -1.0549 -1.1816 -0.1502
 1339SOL     OW15475   1.225   4.408  13.811 -0.5898 -0.2556  0.5910
 1339SOL    HW115476   1.274   4.489  13.798 -1.2452 -0.2990 -2.1365
 1339SOL    HW215477   1.208   4.412  13.905 -1.0796  2.9030  0.3676
 1340SOL     OW15478   3.868   3.002   6.832  0.6086  0.4572  0.6544
 1340SOL    HW115479   3.949   2.996   6.781  0.9251  1.4468  1.0420
 1340SOL    HW215480   3.853   3.096   6.823  0.2179  0.3346  0.0421
 1341SOL     OW15481   0.658   2.760   8.710  0.0787  0.3333 -0.5509
 1341SOL    HW115482   0.734   2.722   8.754  0.9532  0.6527 -1.7918
 1341SOL    HW215483   0.586   2.714   8.754 -0.5642  0.9675 -0.9290
 1342SOL     OW15484   3.381   1.085   7.892 -0.4734 -0.2069  0.0986
 1342SOL    HW115485   3.297   1.120   7.863 -1.0133 -1.5851 -0.0072
 1342SOL    HW215486   3.367   0.997   7.858  0.9884 -0.8039  1.0581
 1343SOL     OW15487   3.973   3.148   8.217 -0.5118  0.4230 -0.0585
 1343SOL    HW115488   3.893   3.139   8.164 -2.1202 -2.8989  2.8603
 1343SOL    HW215489   3.951   3.100   8.297  0.8098  2.0096  1.2370
 1344SOL     OW15490   3.812   4.234   7.710 -0.0612 -0.3355  0.3573
 1344SOL    HW115491   3.884   4.250   7.649 -0.4060 -0.6331 -0.1309
 1344SOL    HW215492   3.859   4.200   7.786 -0.8995  1.0603  1.4868
 1345SOL     OW15493   1.984   0.915   7.709  0.1979  0.0908 -0.0776
 1345SOL    HW115494   2.016   0.825   7.716  0.6784  0.2363 -0.3767
 1345SOL    HW215495   1.892   0.911   7.682 -0.2433 -1.9293  1.8206
 1346SOL     OW15496   2.667   0.796   2.122 -0.2222  0.8007  0.1017
 1346SOL    HW115497   2.600   0.833   2.180  0.4052  0.3697  1.1028
 1346SOL    HW215498   2.639   0.704   2.121 -1.5606  1.2170 -1.1849
 1347SOL     OW15499   0.954   0.255  16.909 -0.2708 -0.6114 -0.1543
 1347SOL    HW115500   0.924   0.335  16.953 -0.4569 -1.3561  1.0545
 1347SOL    HW215501   0.878   0.237  16.852 -1.1730 -0.0236  0.8655
 1348SOL     OW15502   2.809   2.466   7.950 -0.2568  0.4160  0.5073
 1348SOL    HW115503   2.890   2.431   7.988 -0.0178  0.7247  0.2834
 1348SOL    HW215504   2.752   2.390   7.960 -0.2218  0.6929  2.7669
 1349SOL     OW15505   3.666   2.412   8.533  0.7239  0.4678 -0.0484
 1349SOL    HW115506   3.755   2.397   8.566  0.4311 -0.2866  0.4073
 1349SOL    HW215507   3.658   2.507   8.535  1.1982  0.5216 -0.8802
 1350SOL     OW15508   2.275   0.771   3.752  0.4925  0.4008 -0.0131
 1350SOL    HW115509   2.255   0.810   3.667 -1.0398  0.7167  0.4991
 1350SOL    HW215510   2.197   0.718   3.767  0.6016  0.0180 -0.8058
 1351SOL     OW15511   4.254   1.288  11.500 -0.3428  0.1559 -0.1328
 1351SOL    HW115512   4.234   1.317  11.589 -1.5027  0.3521 -0.4559
 1351SOL    HW215513   4.238   1.194  11.499 -0.7231  0.2283 -1.2431
 1352SOL     OW15514   1.923   1.158   8.254  0.1853 -0.1551  0.0441
 1352SOL    HW115515   1.971   1.075   8.261 -1.2118 -0.8954  0.8209
 1352SOL    HW215516   2.002   1.208   8.234  0.4977 -0.3788  0.7027
 1353SOL     OW15517   3.419   4.226   8.765  0.3672 -0.3502  0.3536
 1353SOL    HW115518   3.366   4.280   8.705  1.5721  1.3916  0.8550
 1353SOL    HW215519   3.480   4.283   8.811  0.8730 -0.4575 -0.1877
 1354SOL     OW15520   0.317   0.474   5.420  0.6618  0.4826 -0.2218
 1354SOL    HW115521   0.226   0.457   5.446  0.2540  2.4939 -0.3772
 1354SOL    HW215522   0.360   0.430   5.494 -0.8678  0.1595  0.4656
 1355SOL     OW15523   1.078   2.576  15.355 -0.0390 -0.0894 -0.2608
 1355SOL    HW115524   1.163   2.544  15.325  0.2076 -0.7801  1.2056
 1355SOL    HW215525   1.029   2.529  15.288  1.3245  1.1774 -2.1589
 1356SOL     OW15526   3.591   0.824   5.236  0.0095  0.2589 -0.0164
 1356SOL    HW115527   3.563   0.772   5.311  0.2967 -1.3630 -1.0147
 1356SOL    HW215528   3.577   0.766   5.161  2.5198 -0.1085 -0.2075
 1357SOL     OW15529   2.873   3.354   6.607 -0.6766 -0.3878 -0.4002
 1357SOL    HW115530   2.798   3.409   6.582 -0.3440  0.0217 -0.4978
 1357SOL    HW215531   2.907   3.356   6.518  1.7689 -2.7475  0.4832
 1358SOL     OW15532   4.598   3.140   8.627  0.3841 -0.0056  0.3386
 1358SOL    HW115533   4.630   3.084   8.698 -2.2787 -0.5256  1.1244
 1358SOL    HW215534   4.588   3.073   8.559 -1.1702  1.1747 -0.6007
 1359SOL     OW15535   4.607   2.269  16.159  0.0469  0.0800  0.0900
 1359SOL    HW115536   4.652   2.352  16.175 -0.9123  0.5794  0.2395
 1359SOL    HW215537   4.642   2.204  16.219 -0.9925  0.0532  0.6607
 1360SOL     OW15538   2.567   2.148   8.966 -0.1901  0.3322  0.9799
 1360SOL    HW115539   2.476   2.166   8.988 -1.3378 -1.9079 -1.8926
 1360SOL    HW215540   2.557   2.063   8.923 -1.0011  0.9611 -0.0607
 1361SOL     OW15541   4.542   0.910   8.801  0.3602  0.0103  0.1168
 1361SOL    HW115542   4.558   0.876   8.889  1.0395 -0.7726 -0.3052
 1361SOL    HW215543   4.567   0.833   8.749 -2.5077  0.0718 -1.3405
 1362SOL     OW15544   3.664   1.839   2.049 -0.2950 -0.2883 -0.4862
 1362SOL    HW115545   3.756   1.837   2.078 -0.3560  1.4859 -0.2106
 1362SOL    HW215546   3.662   1.832   1.953 -0.6213  0.5550 -0.5424
 1363SOL     OW15547   1.614   2.109  16.831  0.0531  0.2676  0.0863
 1363SOL    HW115548   1.523   2.079  16.843 -0.0144  0.4068 -0.0751
 1363SOL    HW215549   1.663   2.041  16.785  0.1270 -0.0960  0.6946
 1364SOL     OW15550   4.203   4.298  10.255 -0.7810 -1.0844 -0.1274
 1364SOL    HW115551   4.132   4.296  10.321  0.7411  1.5674  1.5890
 1364SOL    HW215552   4.275   4.323  10.312 -1.5234 -1.7817  1.1269
 1365SOL     OW15553   4.064   0.398   4.391 -0.1946  0.3227  0.0184
 1365SOL    HW115554   4.117   0.319   4.391 -0.0888  0.3898  2.0790
 1365SOL    HW215555   4.089   0.449   4.314 -1.2533 -0.7377 -1.0189
 1366SOL     OW15556   3.667   2.321   1.850 -0.4438  0.1562 -0.4127
 1366SOL    HW115557   3.613   2.243   1.861  1.4674 -1.1988 -0.6564
 1366SOL    HW215558   3.755   2.298   1.880 -0.0415  2.0486 -0.1162
 1367SOL     OW15559   0.274   1.535   6.891  0.2568  0.0504 -0.2607
 1367SOL    HW115560   0.257   1.514   6.983 -0.0953 -2.0415 -0.7905
 1367SOL    HW215561   0.198   1.491   6.852 -0.2118  0.1375  0.5550
 1368SOL     OW15562   3.613   0.979   2.242  0.9637 -0.1017  0.4028
 1368SOL    HW115563   3.654   0.953   2.325  1.0341 -0.2094  0.3349
 1368SOL    HW215564   3.656   0.924   2.176  0.9783 -1.4190  1.5081
 1369SOL     OW15565   0.858   0.903  14.793 -0.3089  0.7131 -0.6723
 1369SOL    HW115566   0.858   0.981  14.848 -0.5046  0.0580  0.2577
 1369SOL    HW215567   0.951   0.904  14.770 -0.1547 -4.0219 -0.2969
 1370SOL     OW15568   2.280   1.758  17.063  0.1158 -0.5287 -0.4255
 1370SOL    HW115569   2.368   1.760  17.101 -0.8863 -1.6583  1.9267
 1370SOL    HW215570   2.273   1.666  17.087  3.4394 -0.3308  1.2858
 1371SOL     OW15571   4.515   0.377   0.756 -0.2822  0.1295 -0.1700
 1371SOL    HW115572   4.532   0.471   0.760  0.7879 -0.0179 -1.6166
 1371SOL    HW215573   4.575   0.344   0.823  2.9770  0.3013 -3.0065
 1372SOL     OW15574   4.000   0.671   2.427 -0.1456  0.4596 -0.3055
 1372SOL    HW115575   4.030   0.606   2.491 -0.4540  1.7079  1.1151
 1372SOL    HW215576   4.001   0.745   2.488  1.3982 -1.6081  2.1859
 1373SOL     OW15577   0.767   3.019   2.846 -0.1123 -0.2094 -0.0373
 1373SOL    HW115578   0.755   3.114   2.839 -0.2788  0.0065  3.0563
 1373SOL    HW215579   0.758   2.994   2.754  1.0486  3.9023 -1.2922
 1374SOL     OW15580   1.569   1.547   6.074  0.1148 -0.0025  0.5006
 1374SOL    HW115581   1.589   1.639   6.088  2.6025 -0.6292  1.0125
 1374SOL    HW215582   1.481   1.536   6.111 -0.8354  0.1620 -1.6944
 1375SOL     OW15583   2.918   0.466   8.531  0.4154 -0.2552  0.3429
 1375SOL    HW115584   2.842   0.433   8.483  0.8455  0.0524 -0.5430
 1375SOL    HW215585   2.922   0.412   8.610 -0.8297 -0.9957 -0.0991
 1376SOL     OW15586   3.567   3.050   1.838 -0.2127 -0.0554 -0.4215
 1376SOL    HW115587   3.545   2.957   1.847 -0.1233  0.0442  0.9165
 1376SOL    HW215588   3.517   3.076   1.761  1.8021  5.8082  0.2704
 1377SOL     OW15589   1.671   4.332  10.398 -0.2212 -0.5099 -0.0818
 1377SOL    HW115590   1.686   4.426  10.406  0.4594 -0.6632  0.3600
 1377SOL    HW215591   1.676   4.301  10.488 -0.7255 -0.3255  0.0115
 1378SOL     OW15592   2.089   2.365   4.085  0.6616 -0.4192  0.1183
 1378SOL    HW115593   2.096   2.454   4.119 -0.4546 -0.4780  0.5053
 1378SOL    HW215594   2.183   2.349   4.074  0.0839 -3.9848  0.4298
 1379SOL     OW15595   1.102   2.406   3.045 -0.4388  0.2149  0.4255
 1379SOL    HW115596   1.153   2.486   3.033  2.6477 -1.7884  0.0772
 1379SOL    HW215597   1.127   2.381   3.135 -0.8454 -0.3502  0.3791
 1380SOL     OW15598   2.783   4.708   7.484 -0.0100 -0.0182  0.1680
 1380SOL    HW115599   2.757   4.692   7.394  2.5840 -0.8092 -0.4312
 1380SOL    HW215600   2.717   0.048   7.515  0.9542  1.1196 -0.0799
 1381SOL     OW15601   1.357   2.036  16.826  0.1278 -0.3715  0.1800
 1381SOL    HW115602   1.364   1.968  16.760  1.0259  1.0773 -1.1970
 1381SOL    HW215603   1.261   2.038  16.833  0.2658  0.8590  1.6476
 1382SOL     OW15604   2.746   3.123   0.983  0.3980  0.0979 -0.0866
 1382SOL    HW115605   2.720   3.192   1.045  1.8979 -0.1251  0.7664
 1382SOL    HW215606   2.696   3.048   1.015 -1.5365  1.3163 -0.1906
 1383SOL     OW15607   0.270   2.234  13.356  0.0191 -0.0472 -0.5945
 1383SOL    HW115608   0.331   2.247  13.283  0.5092  1.2353  0.0223
 1383SOL    HW215609   0.246   2.142  13.354  0.2880 -0.1930  3.3842
 1384SOL     OW15610   0.661   0.753   4.705  0.0927 -0.0373  0.3031
 1384SOL    HW115611   0.655   0.670   4.754  2.6846 -0.8053 -0.6741
 1384SOL    HW215612   0.756   0.761   4.700  0.0662 -0.8990 -1.4285
 1385SOL     OW15613   0.904   1.055   4.030  0.2585 -0.5872 -0.1257
 1385SOL    HW115614   0.972   1.077   4.093 -2.6419  0.9027  2.4931
 1385SOL    HW215615   0.938   1.097   3.951  2.0700  2.1899  2.1478
 1386SOL     OW15616   0.498   1.954   7.319 -0.6336 -0.3837 -0.3653
 1386SOL    HW115617   0.453   2.018   7.374 -0.4893 -0.8890  0.3437
 1386SOL    HW215618   0.581   1.970   7.362  0.1430 -2.5106 -1.0480
 1387SOL     OW15619   1.673   3.448   6.963  0.2885 -0.5981  0.2092
 1387SOL    HW115620   1.617   3.412   6.893  1.0996  0.8581 -1.1706
 1387SOL    HW215621   1.627   3.420   7.043  0.5842 -1.7383 -0.0198
 1388SOL     OW15622   0.448   0.685   3.965 -0.0789  0.9982 -0.1188
 1388SOL    HW115623   0.516   0.732   3.917 -0.5050 -1.2295 -2.8960
 1388SOL    HW215624   0.398   0.636   3.900  0.5259  0.8053 -0.4330
 1389SOL     OW15625   1.493   0.086  13.144 -0.4609  0.0812 -0.0549
 1389SOL    HW115626   1.438   0.008  13.149 -1.0402  0.3363 -2.3292
 1389SOL    HW215627   1.580   0.048  13.145 -1.7374 -2.8345 -0.3085
 1390SOL     OW15628   1.009   0.846   1.330 -0.1562  0.6532  0.4381
 1390SOL    HW115629   0.953   0.805   1.264  0.3791  1.1979 -0.3491
 1390SOL    HW215630   1.021   0.781   1.400 -2.5937 -0.0217  0.2327
 1391SOL     OW15631   1.654   1.183   9.009  0.3802  0.2656 -0.6742
 1391SOL    HW115632   1.710   1.190   8.932  1.1897  1.7127  0.0384
 1391SOL    HW215633   1.707   1.231   9.073 -1.6314  0.1068  1.1316
 1392SOL     OW15634   2.952   4.347   3.526 -0.2851  0.5904  0.1549
 1392SOL    HW115635   2.907   4.425   3.558  0.0481  0.6727  0.4196
 1392SOL    HW215636   2.881   4.282   3.530  0.4031 -0.1896 -0.1428
 1393SOL     OW15637   3.501   0.739  14.963 -0.0778 -0.4784 -0.2367
 1393SOL    HW115638   3.577   0.791  14.993 -0.4402 -0.7355  1.1307
 1393SOL    HW215639   3.543   0.666  14.918  2.8804 -0.3229  2.2745
 1394SOL     OW15640   2.226   4.229   5.631  0.5237  0.2377 -1.0263
 1394SOL    HW115641   2.236   4.254   5.539  1.9399 -0.4380 -1.0590
 1394SOL    HW215642   2.165   4.156   5.620 -1.8246  2.2936 -1.7408
 1395SOL     OW15643   1.621   1.166   9.401  0.1812  0.4823  0.0222
 1395SOL    HW115644   1.628   1.236   9.336  1.8387  0.2771 -0.0176
 1395SOL    HW215645   1.624   1.209   9.487 -0.3231 -0.2462  0.4148
 1396SOL     OW15646   2.311   4.132   6.106  0.3253  0.2916  0.2234
 1396SOL    HW115647   2.315   4.042   6.073 -1.1793 -0.1005  1.1410
 1396SOL    HW215648   2.318   4.126   6.201  0.8547 -0.1264  0.1595
 1397SOL     OW15649   3.181   0.767   7.437  0.0903 -0.4384 -0.8697
 1397SOL    HW115650   3.262   0.722   7.458 -0.6575 -1.5216 -0.3403
 1397SOL    HW215651   3.160   0.811   7.520  2.1018  1.0278 -1.1439
 1398SOL     OW15652   2.261   2.893   2.391 -0.2593  0.2326 -0.7279
 1398SOL    HW115653   2.195   2.875   2.324  0.5140 -1.5712 -0.9977
 1398SOL    HW215654   2.323   2.828   2.359  1.7813  1.8042  0.0671
 1399SOL     OW15655   3.527   0.481   1.776 -0.2902 -0.1677  0.1101
 1399SOL    HW115656   3.492   0.570   1.770  0.2060 -0.1593 -2.5683
 1399SOL    HW215657   3.489   0.447   1.857  0.1676 -0.0328  0.3821
 1400SOL     OW15658   3.000   0.416   3.919 -0.2117 -0.1345 -0.5254
 1400SOL    HW115659   2.913   0.453   3.904  0.2791  1.2221 -0.0699
 1400SOL    HW215660   2.983   0.322   3.927  0.5832 -0.2608 -0.3006
 1401SOL     OW15661   1.048   3.987   7.725  0.1669 -0.0646  0.0215
 1401SOL    HW115662   1.136   3.994   7.761 -0.0838 -3.1271  1.1465
 1401SOL    HW215663   0.992   4.014   7.798 -0.7991 -1.0934 -0.3469
 1402SOL     OW15664   3.158   0.366   9.724 -0.0289  0.6134 -0.2375
 1402SOL    HW115665   3.068   0.362   9.757  0.6542 -0.0070  1.5696
 1402SOL    HW215666   3.190   0.349   9.813  0.1004 -0.8346 -0.5640
 1403SOL     OW15667   2.123   1.745   8.819 -0.0703  0.3259  0.6969
 1403SOL    HW115668   2.130   1.831   8.860  0.5057  1.3421 -1.5459
 1403SOL    HW215669   2.216   1.728   8.802 -1.1036 -0.8565 -3.6502
 1404SOL     OW15670   1.318   0.981   7.391 -0.1254  0.1970  0.6703
 1404SOL    HW115671   1.319   1.059   7.446 -0.4136 -0.0462  1.0200
 1404SOL    HW215672   1.259   1.019   7.325 -1.1578  2.1687  2.7251
 1405SOL     OW15673   2.556   2.209   2.175 -0.1807  0.2510  0.7976
 1405SOL    HW115674   2.528   2.134   2.228  3.6163  0.2633  2.8270
 1405SOL    HW215675   2.645   2.217   2.210 -0.3809 -0.1534  1.3863
 1406SOL     OW15676   2.318   4.081   3.209  0.4791 -0.1177  0.9321
 1406SOL    HW115677   2.250   4.083   3.142  0.4649  0.3733  0.9609
 1406SOL    HW215678   2.279   4.126   3.283 -2.0085  0.3630 -0.6546
 1407SOL     OW15679   4.669   2.814   2.278 -0.3131 -0.4368  0.1951
 1407SOL    HW115680   4.655   2.784   2.188 -0.2152  0.0557  0.0191
 1407SOL    HW215681   4.639   2.905   2.271 -0.1752 -0.3946  0.1653
 1408SOL     OW15682   0.579   1.613   6.234 -0.1102 -0.0711 -0.2399
 1408SOL    HW115683   0.672   1.612   6.258  0.1329 -1.4182 -1.2245
 1408SOL    HW215684   0.548   1.679   6.296  0.2906  0.3655 -0.5082
 1409SOL     OW15685   0.538   1.156   2.311  0.7791 -0.5676 -0.4837
 1409SOL    HW115686   0.583   1.224   2.261 -2.8842  0.2897 -2.6255
 1409SOL    HW215687   0.471   1.131   2.248 -0.9005  0.3573  0.9392
 1410SOL     OW15688   1.139   0.156   1.991  0.4559 -0.2004  0.2975
 1410SOL    HW115689   1.172   0.067   1.980  0.8488 -0.1274  0.8975
 1410SOL    HW215690   1.151   0.166   2.086 -2.4332 -0.1175  0.6656
 1411SOL     OW15691   1.120   2.414   8.027  0.5521  0.3883 -0.8237
 1411SOL    HW115692   1.049   2.395   7.966 -2.0637  0.7039  2.1340
 1411SOL    HW215693   1.104   2.340   8.086  0.2006  1.2687  0.1970
 1412SOL     OW15694   2.782   2.757  12.934 -0.1071 -0.1032  0.5368
 1412SOL    HW115695   2.875   2.770  12.949  0.3454 -2.8169  0.0830
 1412SOL    HW215696   2.778   2.670  12.895 -2.7551 -0.5878  1.8434
 1413SOL     OW15697   4.407   3.421   5.396 -0.1330 -0.1470  0.1047
 1413SOL    HW115698   4.388   3.391   5.307  3.0403  0.5193 -0.8070
 1413SOL    HW215699   4.412   3.336   5.440  1.7066 -0.3622 -0.5227
 1414SOL     OW15700   4.347   0.606  14.349  0.2332  0.7203  1.0977
 1414SOL    HW115701   4.387   0.660  14.280 -0.1034 -0.6985 -0.1958
 1414SOL    HW215702   4.256   0.614  14.321  0.7265 -1.5294 -1.1290
 1415SOL     OW15703   1.433   0.782   7.763  0.9787 -0.0805  0.2944
 1415SOL    HW115704   1.445   0.687   7.763  0.8696 -0.0969 -0.2934
 1415SOL    HW215705   1.426   0.790   7.668 -0.1190  0.0232  0.3925
 1416SOL     OW15706   4.676   0.092   4.406  0.4291 -0.0147 -0.1049
 1416SOL    HW115707   4.663   0.104   4.500 -0.6509  0.8224 -0.3690
 1416SOL    HW215708   4.712   0.174   4.373 -0.2544 -0.5037 -2.0973
 1417SOL     OW15709   2.154   1.918   7.869  0.2517  0.3662  0.1497
 1417SOL    HW115710   2.215   1.882   7.933  1.7392  1.3768 -0.6822
 1417SOL    HW215711   2.216   1.977   7.826 -1.0915  2.9406  1.7522
 1418SOL     OW15712   2.927   2.440   7.660 -0.2991  0.2250 -0.0821
 1418SOL    HW115713   2.873   2.407   7.587 -0.6045 -0.7742  0.5904
 1418SOL    HW215714   2.883   2.413   7.740  0.0959 -0.5364 -0.1225
 1419SOL     OW15715   2.680   2.020   3.885 -0.0045 -0.2914  0.3151
 1419SOL    HW115716   2.712   2.101   3.846 -0.4134 -0.0474  0.4902
 1419SOL    HW215717   2.724   2.036   3.969 -1.7536  3.8558  0.4328
 1420SOL     OW15718   2.815   3.933  14.744  0.4490 -0.1340 -0.4728
 1420SOL    HW115719   2.738   3.974  14.706 -0.6116 -1.4024  0.2774
 1420SOL    HW215720   2.808   3.946  14.839 -1.2235 -2.8877 -0.1881
 1421SOL     OW15721   0.918   1.703  15.737 -0.3113 -0.2238 -0.1601
 1421SOL    HW115722   0.905   1.747  15.821 -1.3260  0.1551 -0.5069
 1421SOL    HW215723   0.904   1.610  15.752  1.2154 -0.7187 -1.8739
 1422SOL     OW15724   2.968   1.272  11.572 -0.1854  0.3230  0.2751
 1422SOL    HW115725   3.008   1.324  11.502  2.6884 -0.8126  1.0486
 1422SOL    HW215726   3.043   1.255  11.630 -0.7588 -0.9376  0.6479
 1423SOL     OW15727   3.990   4.281   2.896  0.3786  0.3817  0.4608
 1423SOL    HW115728   3.954   4.224   2.965 -0.3126 -1.1818 -1.1884
 1423SOL    HW215729   3.930   4.257   2.825  0.2238  2.4737 -0.1095
 1424SOL     OW15730   2.267   3.544  15.489  0.7837  0.4596  0.3322
 1424SOL    HW115731   2.302   3.559  15.576 -0.2237  1.1758  0.6118
 1424SOL    HW215732   2.224   3.629  15.474 -0.4416 -0.6057 -2.3263
 1425SOL     OW15733   2.142   3.279   7.651  0.4171  0.4331  0.7433
 1425SOL    HW115734   2.232   3.302   7.628  0.3848 -0.5710 -0.4080
 1425SOL    HW215735   2.157   3.185   7.659  2.6587  0.8354  1.2713
 1426SOL     OW15736   0.448   2.706   4.576 -0.0500 -0.3603 -0.4406
 1426SOL    HW115737   0.459   2.739   4.665  0.5514 -0.7702 -0.3617
 1426SOL    HW215738   0.534   2.663   4.570  0.9714  1.7999 -1.5080
 1427SOL     OW15739   3.352   0.517   4.886  0.0061 -0.3174  0.4087
 1427SOL    HW115740   3.288   0.537   4.819 -0.3870  1.7256  1.4175
 1427SOL    HW215741   3.398   0.439   4.854  1.2393  0.6109 -0.0611
 1428SOL     OW15742   3.683   0.754   6.621  0.2363  0.2757  0.2392
 1428SOL    HW115743   3.669   0.677   6.676  2.0462  1.0152  1.7447
 1428SOL    HW215744   3.595   0.792   6.623 -0.8996 -2.3205 -0.7241
 1429SOL     OW15745   3.270   2.753  11.694 -0.8565 -0.0307  0.3557
 1429SOL    HW115746   3.301   2.666  11.668  0.0067  0.0582  1.0647
 1429SOL    HW215747   3.206   2.761  11.623 -0.2649  0.2554 -0.1385
 1430SOL     OW15748   4.322   1.072   8.336  0.2537 -0.4207  0.1581
 1430SOL    HW115749   4.348   1.143   8.394  2.7337 -0.4700 -0.8857
 1430SOL    HW215750   4.301   1.003   8.398 -1.5391  1.1638  1.2939
 1431SOL     OW15751   0.924   1.359   4.175 -0.1214  0.8638 -0.1015
 1431SOL    HW115752   0.987   1.287   4.175  0.0628  1.0060 -3.3079
 1431SOL    HW215753   0.896   1.358   4.083  0.0090  0.8555 -0.1410
 1432SOL     OW15754   4.220   0.354   6.578 -0.1938  0.1967  0.3370
 1432SOL    HW115755   4.202   0.441   6.611 -3.0295  0.3320 -1.5697
 1432SOL    HW215756   4.137   0.312   6.602 -1.2219  0.7781 -2.2110
 1433SOL     OW15757   2.717   0.549   5.044 -0.2401 -0.0210  0.2821
 1433SOL    HW115758   2.724   0.481   5.111 -0.4488 -0.2358  0.0865
 1433SOL    HW215759   2.656   0.614   5.079 -0.6398  0.2647 -0.9601
 1434SOL     OW15760   4.260   2.971   9.294  0.6886  0.2589 -0.5504
 1434SOL    HW115761   4.228   2.884   9.321 -0.9875  1.1202  0.2721
 1434SOL    HW215762   4.210   3.026   9.354 -0.4121 -0.1976 -1.0524
 1435SOL     OW15763   2.599   1.456   5.954 -0.2773 -0.1027  0.7388
 1435SOL    HW115764   2.594   1.549   5.977 -1.7531 -0.0992  0.4005
 1435SOL    HW215765   2.563   1.449   5.865  1.7528  0.0170 -0.0956
 1436SOL     OW15766   2.963   0.783   4.703 -0.2726 -0.5486  0.3690
 1436SOL    HW115767   2.890   0.722   4.685  0.4738 -1.2317 -0.3451
 1436SOL    HW215768   2.958   0.788   4.798  2.6084 -1.5812  0.5596
 1437SOL     OW15769   3.678   0.210   2.418 -0.2488  0.0470 -0.0782
 1437SOL    HW115770   3.668   0.158   2.339  1.9207  2.5009 -1.9715
 1437SOL    HW215771   3.726   0.285   2.383  2.5499 -1.6675  0.0177
 1438SOL     OW15772   4.222   3.632   8.902  0.0127 -0.1512  0.0219
 1438SOL    HW115773   4.281   3.566   8.940  0.4618  1.2253  1.7141
 1438SOL    HW215774   4.172   3.651   8.982 -0.4221  1.3114 -0.6001
 1439SOL     OW15775   1.886   2.222   7.184  0.5275 -0.6081 -0.2875
 1439SOL    HW115776   1.813   2.261   7.135 -0.0873 -1.0116  0.3076
 1439SOL    HW215777   1.965   2.258   7.143  0.1340  1.3462  0.6650
 1440SOL     OW15778   2.812   2.815  16.457  0.7732 -0.2853  0.1876
 1440SOL    HW115779   2.865   2.773  16.524  0.4354 -0.4619  0.3410
 1440SOL    HW215780   2.772   2.742  16.411 -0.0781 -0.2233  0.8314
 1441SOL     OW15781   3.610   3.826   3.476 -0.0783 -1.2047  0.3118
 1441SOL    HW115782   3.547   3.773   3.429 -1.7197  0.3904  0.7137
 1441SOL    HW215783   3.549   3.876   3.531  0.3356  0.7114 -0.9685
 1442SOL     OW15784   3.930   2.403   5.043 -0.1311  0.2784 -0.0256
 1442SOL    HW115785   4.008   2.352   5.021 -1.4081 -1.5368 -0.3389
 1442SOL    HW215786   3.955   2.490   5.012  0.2530 -0.4622 -1.8030
 1443SOL     OW15787   1.658   1.051  15.632 -0.3225 -0.4997 -0.0556
 1443SOL    HW115788   1.743   1.070  15.672  0.7612 -2.6284 -1.3478
 1443SOL    HW215789   1.598   1.059  15.707  1.2164  4.2170  0.6181
 1444SOL     OW15790   1.982   1.736   9.133  0.2359 -0.1194  0.8853
 1444SOL    HW115791   1.942   1.788   9.063  0.0585  0.0981  1.1473
 1444SOL    HW215792   2.069   1.730   9.093 -0.1130  1.0023 -0.0526
 1445SOL     OW15793   0.527   3.400  14.780 -0.1735  0.7405 -0.3234
 1445SOL    HW115794   0.550   3.387  14.688 -2.1202 -1.7736 -0.4552
 1445SOL    HW215795   0.508   3.308  14.795  0.8922  0.4427 -0.7425
 1446SOL     OW15796   2.445   1.679   2.288 -0.0836 -0.4552  0.0629
 1446SOL    HW115797   2.366   1.703   2.241 -0.0884  1.4910  1.0877
 1446SOL    HW215798   2.510   1.657   2.221  0.7339  0.3989  0.5745
 1447SOL     OW15799   0.161   3.566  15.934  0.0725  0.1053  0.4023
 1447SOL    HW115800   0.141   3.609  15.851  0.1959  0.8676  0.7711
 1447SOL    HW215801   0.224   3.620  15.981 -2.3456  2.6612  0.6858
 1448SOL     OW15802   4.619   2.500  15.878  0.2057  0.5261  0.5375
 1448SOL    HW115803   4.539   2.528  15.922 -0.5929  0.4861 -0.8944
 1448SOL    HW215804   4.637   2.585  15.839 -0.2707  1.3923  2.2155
 1449SOL     OW15805   2.491   2.023  17.037  0.6503  0.0072 -0.7903
 1449SOL    HW115806   2.515   1.950  16.980  0.8751 -0.4231 -0.1352
 1449SOL    HW215807   2.565   2.021  17.097 -0.3231 -0.6804  0.3828
 1450SOL     OW15808   1.591   0.639  13.561 -0.0284 -0.0157 -0.7490
 1450SOL    HW115809   1.637   0.631  13.478  1.1749 -0.6592 -0.0129
 1450SOL    HW215810   1.504   0.661  13.526  0.0903 -0.1286 -1.1147
 1451SOL     OW15811   0.601   4.465   7.570  0.0231  0.0741 -0.0148
 1451SOL    HW115812   0.615   4.371   7.574  2.5092  0.4483 -0.0310
 1451SOL    HW215813   0.630   4.486   7.659 -1.6333  1.0404  0.2992
 1452SOL     OW15814   1.561   1.507   8.161 -0.1072 -0.8247 -0.2282
 1452SOL    HW115815   1.633   1.564   8.188 -1.3317  1.2968 -1.4618
 1452SOL    HW215816   1.604   1.423   8.179  2.5717  0.8489  1.2135
 1453SOL     OW15817   1.283   3.275   4.245 -0.2599  0.0992 -0.1127
 1453SOL    HW115818   1.298   3.235   4.330  1.6500 -0.9117 -0.9237
 1453SOL    HW215819   1.247   3.358   4.276  2.2447  1.3371 -0.5044
 1454SOL     OW15820   1.380   3.982  14.713 -0.2008 -0.2962 -0.0288
 1454SOL    HW115821   1.372   4.000  14.619 -0.9452  3.2629  0.7113
 1454SOL    HW215822   1.288   3.960  14.732 -0.7778  1.9224 -0.2344
 1455SOL     OW15823   0.197   0.572  17.302  0.5384  0.3222  0.1531
 1455SOL    HW115824   0.184   0.652  17.353 -1.6372  1.2479 -1.8939
 1455SOL    HW215825   0.209   0.520  17.382  1.2447 -0.4290 -0.4318
 1456SOL     OW15826   2.060   3.281   8.644 -0.4812  0.6748 -0.0674
 1456SOL    HW115827   2.080   3.190   8.667  0.1600  0.4613 -1.4949
 1456SOL    HW215828   2.102   3.327   8.717  0.1524 -1.3237  0.8302
 1457SOL     OW15829   4.654   1.523   5.879 -0.6655 -0.4337  0.2580
 1457SOL    HW115830   4.636   1.586   5.950  0.2603 -1.5311  1.4642
 1457SOL    HW215831   4.572   1.507   5.832  0.7993  0.7164 -2.6443
 1458SOL     OW15832   2.960   0.231   9.485  0.4563 -0.1296 -0.7834
 1458SOL    HW115833   2.871   0.206   9.462 -1.1434  2.0385  3.0097
 1458SOL    HW215834   2.969   0.187   9.570  1.7367 -0.0582 -0.8860
 1459SOL     OW15835   2.974   1.114   5.774 -0.8132  0.6101 -0.2296
 1459SOL    HW115836   2.947   1.186   5.831 -1.6829  2.4360 -2.9652
 1459SOL    HW215837   2.945   1.150   5.690 -0.9681  0.5364 -0.2071
 1460SOL     OW15838   1.685   3.955   7.538 -0.2037 -0.2585  0.4292
 1460SOL    HW115839   1.669   4.046   7.512 -0.3262 -0.4457 -0.1396
 1460SOL    HW215840   1.673   3.970   7.632 -1.4416 -1.1825  0.4123
 1461SOL     OW15841   1.270   1.634  14.854  0.0097  0.1375  0.6678
 1461SOL    HW115842   1.239   1.685  14.779  0.6533  2.7521  2.1847
 1461SOL    HW215843   1.241   1.696  14.921 -0.1892  0.0141  0.6952
 1462SOL     OW15844   3.506   0.273   4.555 -0.3004 -0.2120  0.3135
 1462SOL    HW115845   3.519   0.287   4.649 -0.9623  0.2385  0.3362
 1462SOL    HW215846   3.411   0.265   4.557 -0.3289  0.1735  0.4710
 1463SOL     OW15847   0.691   4.718  16.300  0.6390 -0.4245 -0.3788
 1463SOL    HW115848   0.680   4.703  16.394 -0.8693  1.7702 -0.2116
 1463SOL    HW215849   0.768   0.052  16.313  0.4153 -1.0828  3.7700
 1464SOL     OW15850   3.539   2.219  12.193 -0.3415 -0.3446  0.2011
 1464SOL    HW115851   3.449   2.234  12.163 -0.6014  1.0385  1.6285
 1464SOL    HW215852   3.546   2.125  12.207  0.2176  0.2280  3.9325
 1465SOL     OW15853   4.699   0.419   3.924 -0.6803  0.0380  0.2863
 1465SOL    HW115854   4.631   0.434   3.990  1.0874  0.5524  1.9785
 1465SOL    HW215855   4.678   0.499   3.876  1.8400  0.9221  0.6986
 1466SOL     OW15856   0.532   1.902   6.346  0.7927  0.0610  0.3383
 1466SOL    HW115857   0.558   1.928   6.258  0.0327  1.7073  0.6005
 1466SOL    HW215858   0.619   1.885   6.383  1.5933  3.0838 -0.1975
 1467SOL     OW15859   3.260   2.689   7.961 -0.0343  0.5873  0.2825
 1467SOL    HW115860   3.238   2.608   8.007  1.4242 -0.4817 -0.8848
 1467SOL    HW215861   3.309   2.651   7.888 -1.5886  0.4971 -0.7122
 1468SOL     OW15862   1.721   3.677   9.451 -0.2165  0.4830 -0.2714
 1468SOL    HW115863   1.721   3.687   9.547  1.6819  0.5345 -0.2832
 1468SOL    HW215864   1.630   3.692   9.425  0.0431 -2.0186 -2.4962
 1469SOL     OW15865   4.577   1.829   4.358 -0.6074  0.3306  0.0608
 1469SOL    HW115866   4.588   1.762   4.291  1.3353 -0.5881  1.2765
 1469SOL    HW215867   4.538   1.780   4.431 -1.8441 -0.9312 -1.4540
 1470SOL     OW15868   3.062   2.737   5.877  0.4999 -0.2834 -0.2227
 1470SOL    HW115869   3.082   2.813   5.931 -0.9883  0.8949 -1.3353
 1470SOL    HW215870   3.139   2.733   5.820 -0.7068  0.5750 -1.9230
 1471SOL     OW15871   0.015   1.952   4.902  0.0383 -0.2117 -0.0301
 1471SOL    HW115872   0.023   2.005   4.981  1.9112  0.0238 -0.3739
 1471SOL    HW215873   0.015   1.866   4.943 -1.0946  0.7093  1.9022
 1472SOL     OW15874   3.993   1.984   3.749 -0.4455  0.7485  0.9796
 1472SOL    HW115875   4.056   2.056   3.758  1.5252 -1.0451  1.6173
 1472SOL    HW215876   3.959   2.002   3.662 -1.0101  0.6994  1.1907
 1473SOL     OW15877   3.009   4.593   2.855  1.0977 -0.3005 -0.1598
 1473SOL    HW115878   2.981   4.534   2.924  0.2474 -1.8548 -1.8369
 1473SOL    HW215879   3.037   4.672   2.901 -1.6022 -0.5801  1.9629
 1474SOL     OW15880   1.272   4.311  17.289 -0.3374  1.0372 -0.1136
 1474SOL    HW115881   1.367   4.300  17.285 -0.3182  0.7061  1.2786
 1474SOL    HW215882   1.258   4.234  17.344  2.7855  1.1026  0.7530
 1475SOL     OW15883   0.493   3.306  17.146 -0.6364  0.7992  0.1589
 1475SOL    HW115884   0.567   3.333  17.202  0.1455  0.0698 -0.5223
 1475SOL    HW215885   0.534   3.287  17.062 -1.5712 -0.7575  0.0593
 1476SOL     OW15886   1.428   1.059   3.716  0.2325 -0.2181 -0.4815
 1476SOL    HW115887   1.446   0.972   3.680 -0.8116 -0.2121 -1.0077
 1476SOL    HW215888   1.338   1.048   3.746  0.0381 -0.9331 -1.3378
 1477SOL     OW15889   3.585   4.361   7.731 -0.1253  0.6765 -0.3926
 1477SOL    HW115890   3.668   4.316   7.719 -0.2742  0.4192 -0.4515
 1477SOL    HW215891   3.598   4.414   7.810  0.7511 -4.1514  2.7075
 1478SOL     OW15892   3.344   2.658   6.240 -0.6052  0.3372 -0.6278
 1478SOL    HW115893   3.411   2.724   6.220  0.6938 -0.5904  0.6787
 1478SOL    HW215894   3.340   2.591   6.172 -0.6205 -1.0360  0.7317
 1479SOL     OW15895   2.683   1.398   4.090  0.2653 -0.5038  0.1138
 1479SOL    HW115896   2.654   1.421   4.001  2.1930 -2.1905 -0.9559
 1479SOL    HW215897   2.597   1.378   4.126  0.3540 -0.0925  0.5469
 1480SOL     OW15898   0.542   4.698   1.912 -0.2470  0.2948  0.2796
 1480SOL    HW115899   0.590   0.047   1.871  0.5870 -0.7456 -0.5697
 1480SOL    HW215900   0.609   4.630   1.918 -1.3099 -0.6760  1.3605
 1481SOL     OW15901   1.378   1.194   8.505  0.5540 -0.4481 -0.0982
 1481SOL    HW115902   1.346   1.227   8.589  2.5093 -1.7194  1.1569
 1481SOL    HW215903   1.470   1.168   8.515  0.1097 -1.9472  0.1794
 1482SOL     OW15904   4.316   2.861   1.497  0.3462  0.4177  0.4208
 1482SOL    HW115905   4.256   2.928   1.463  0.2330  1.0869  1.9235
 1482SOL    HW215906   4.252   2.791   1.506  0.2467  0.5764  0.9042
 1483SOL     OW15907   0.090   3.197  11.658 -0.3430 -0.4349  0.2848
 1483SOL    HW115908   0.159   3.162  11.714  0.3149  1.3124  0.5847
 1483SOL    HW215909   0.024   3.130  11.672  0.7305 -1.5379  0.1021
 1484SOL     OW15910   2.656   0.524  12.265  0.5505 -0.4137  0.1551
 1484SOL    HW115911   2.725   0.464  12.239  1.2359  0.4177  0.0612
 1484SOL    HW215912   2.596   0.470  12.317  0.2939  0.2957  0.5955
 1485SOL     OW15913   3.354   2.119   6.508 -0.0432 -0.1913 -0.0376
 1485SOL    HW115914   3.413   2.059   6.461  1.2568  0.1869  1.0874
 1485SOL    HW215915   3.383   2.116   6.599  0.8342  0.7666 -0.2811
 1486SOL     OW15916   2.658   1.386   7.078  0.1663  0.4406  0.3766
 1486SOL    HW115917   2.705   1.337   7.010  1.1696  1.2928  0.4675
 1486SOL    HW215918   2.679   1.478   7.061 -2.0074  0.6148 -1.5159
 1487SOL     OW15919   2.074   0.510   8.827 -0.0222 -0.5991 -0.2617
 1487SOL    HW115920   1.986   0.547   8.826  0.0870 -0.3151  0.4961
 1487SOL    HW215921   2.086   0.504   8.732 -1.4451 -2.5343 -0.3083
 1488SOL     OW15922   2.324   2.072   5.486  0.4361  0.2800  0.0057
 1488SOL    HW115923   2.313   2.149   5.431 -0.5935 -0.6189 -1.0254
 1488SOL    HW215924   2.342   2.119   5.568 -0.6581  2.0771 -0.7875
 1489SOL     OW15925   3.179   1.624  11.026 -0.2174  0.0254  0.0112
 1489SOL    HW115926   3.116   1.681  10.981  0.0931  0.0974 -0.3337
 1489SOL    HW215927   3.139   1.624  11.113 -1.4316  0.3812 -0.5453
 1490SOL     OW15928   4.610   2.041   1.950  0.6544 -0.5187 -0.4833
 1490SOL    HW115929   4.654   2.023   1.867 -0.4600  0.2919 -1.2426
 1490SOL    HW215930   4.590   1.949   1.968 -1.0752  0.1769  1.1593
 1491SOL     OW15931   3.385   0.772   4.625 -0.2006 -0.3979 -0.0500
 1491SOL    HW115932   3.299   0.752   4.590 -0.4144 -0.2005  0.3671
 1491SOL    HW215933   3.438   0.733   4.555 -2.2454  3.0246 -3.4808
 1492SOL     OW15934   3.265   1.794   3.246  0.0975 -0.6704  0.1924
 1492SOL    HW115935   3.201   1.757   3.185  0.2371  1.0943 -1.0401
 1492SOL    HW215936   3.252   1.728   3.314 -0.7210 -0.8603 -0.1503
 1493SOL     OW15937   3.978   4.188   2.144 -0.2157 -0.5949  0.4080
 1493SOL    HW115938   3.978   4.098   2.112  1.2921 -0.4392 -0.0434
 1493SOL    HW215939   3.912   4.221   2.083  1.6639  1.9256 -0.2741
 1494SOL     OW15940   2.282   0.826  13.167 -0.6031 -0.2596  0.0160
 1494SOL    HW115941   2.314   0.736  13.162 -0.1450 -0.0566 -0.5986
 1494SOL    HW215942   2.338   0.851  13.241 -0.1378 -0.7164 -0.1851
 1495SOL     OW15943   2.130   4.584   7.369 -0.2562  0.3644 -0.2346
 1495SOL    HW115944   2.222   4.558   7.365 -0.7115 -1.3223  0.3529
 1495SOL    HW215945   2.133   4.661   7.425 -0.7469  0.9053 -0.9464
 1496SOL     OW15946   2.142   3.198  11.852  0.2475 -0.0558  0.0830
 1496SOL    HW115947   2.118   3.230  11.939  2.1693 -0.0669  0.6201
 1496SOL    HW215948   2.221   3.145  11.867  0.4262 -0.4679 -2.4119
 1497SOL     OW15949   1.351   0.826   8.792  0.2736  0.1039  0.1716
 1497SOL    HW115950   1.303   0.769   8.731 -0.4009 -1.3820  2.0696
 1497SOL    HW215951   1.375   0.770   8.866  1.5078 -0.7094 -0.8397
 1498SOL     OW15952   1.116   3.635   8.486 -0.1351  0.1652  0.7144
 1498SOL    HW115953   1.211   3.637   8.492 -0.2342  1.3158  1.9606
 1498SOL    HW215954   1.094   3.545   8.463  1.3894 -0.6255  2.3549
 1499SOL     OW15955   3.307   0.399   7.297 -0.3892  0.5292  0.4279
 1499SOL    HW115956   3.220   0.424   7.328 -0.4354  1.6782 -0.6200
 1499SOL    HW215957   3.328   0.328   7.358 -0.9073 -0.5684 -0.6689
 1500SOL     OW15958   3.351   2.535   8.614  0.0159 -0.5543  0.6823
 1500SOL    HW115959   3.385   2.608   8.665  1.0489 -0.7949  0.3413
 1500SOL    HW215960   3.421   2.470   8.623 -0.5361 -1.5203 -1.9736
 1501SOL     OW15961   0.156   3.327   7.880 -0.0417  0.4547  0.7489
 1501SOL    HW115962   0.236   3.276   7.893 -0.0369  0.4760  0.8030
 1501SOL    HW215963   0.109   3.294   7.957 -0.0612  0.1305  0.5964
 1502SOL     OW15964   2.664   0.901   3.333 -0.0075  0.2464  0.2583
 1502SOL    HW115965   2.625   0.971   3.386 -0.1987  0.8115 -0.6395
 1502SOL    HW215966   2.583   0.856   3.309 -0.3986  1.0155  0.1546
 1503SOL     OW15967   4.473   0.693   8.279  0.2842 -0.2249  0.5346
 1503SOL    HW115968   4.392   0.738   8.252  0.1149 -0.4862  0.6086
 1503SOL    HW215969   4.522   0.695   8.197 -1.4935  1.3762 -0.5171
 1504SOL     OW15970   4.348   3.952   0.516 -0.3646  0.1973 -0.1578
 1504SOL    HW115971   4.301   4.011   0.574 -0.6532 -2.2092  2.0895
 1504SOL    HW215972   4.381   4.004   0.443 -2.5923  0.0170 -1.2790
 1505SOL     OW15973   3.352   3.773   8.915  0.6170  0.2456  0.5778
 1505SOL    HW115974   3.276   3.748   8.863 -0.2265 -1.5978  2.6707
 1505SOL    HW215975   3.366   3.687   8.954 -0.0048 -0.1792 -0.1436
 1506SOL     OW15976   0.617   3.094  15.981 -0.1270 -0.0571  0.1747
 1506SOL    HW115977   0.686   3.066  15.921 -0.1524 -1.4208  0.7709
 1506SOL    HW215978   0.555   3.051  15.923 -0.8949  2.1309 -0.6058
 1507SOL     OW15979   3.844   4.473   2.419 -0.1330 -0.0770 -0.3287
 1507SOL    HW115980   3.809   4.388   2.391 -1.5321 -0.0642  1.3819
 1507SOL    HW215981   3.828   4.479   2.513  0.4982 -0.3759 -0.1942
 1508SOL     OW15982   0.198   0.232   1.275  0.0680  0.6302 -0.2735
 1508SOL    HW115983   0.239   0.312   1.308  0.0944  1.2728 -1.8781
 1508SOL    HW215984   0.235   0.214   1.189  0.2799  2.1878 -0.5167
 1509SOL     OW15985   3.076   1.291   7.597 -0.3339  0.0077  0.2507
 1509SOL    HW115986   3.074   1.386   7.586 -0.8298  0.1748  1.6914
 1509SOL    HW215987   2.982   1.275   7.602 -0.2230 -0.8069 -0.3341
 1510SOL     OW15988   2.658   2.432  13.473  0.1302  0.2567 -0.6052
 1510SOL    HW115989   2.663   2.450  13.379 -1.9213  2.2262 -0.3069
 1510SOL    HW215990   2.564   2.431  13.491  0.1807  0.5696 -0.3328
 1511SOL     OW15991   4.498   0.196   7.692 -0.4260 -0.7096 -0.2252
 1511SOL    HW115992   4.511   0.112   7.648 -1.4489 -0.6153 -0.6995
 1511SOL    HW215993   4.459   0.242   7.618  0.3690  0.1674 -0.0918
 1512SOL     OW15994   4.245   2.662   5.429 -0.3583 -0.1613 -0.4053
 1512SOL    HW115995   4.183   2.723   5.470 -1.2603 -1.2439 -0.1542
 1512SOL    HW215996   4.275   2.608   5.502 -1.1046 -1.3458 -0.9773
 1513SOL     OW15997   3.650   4.568   3.922 -0.1478 -0.0728 -0.0462
 1513SOL    HW115998   3.660   4.490   3.977  2.4303  1.2772  1.4517
 1513SOL    HW215999   3.698   4.529   3.849 -0.1326 -0.9061  0.4174
 1514SOL     OW16000   3.755   2.640   3.987 -0.0573  0.4696 -0.3231
 1514SOL    HW116001   3.746   2.724   4.032 -2.2017 -0.4914  1.0795
 1514SOL    HW216002   3.696   2.589   4.043  2.2242 -1.8034  0.0021
 1515SOL     OW16003   2.379   3.879   2.425  0.7985  0.6518 -0.6768
 1515SOL    HW116004   2.452   3.821   2.404  0.0042 -1.4310  2.1957
 1515SOL    HW216005   2.428   3.961   2.430  0.6888  0.5835  1.6662
 1516SOL     OW16006   3.198   1.061   2.741 -0.5169 -0.1370 -0.4688
 1516SOL    HW116007   3.269   1.009   2.778  0.7789  0.9075 -1.4405
 1516SOL    HW216008   3.134   1.048   2.810 -0.9178 -0.5198 -0.9180
 1517SOL     OW16009   1.521   2.076   4.410 -0.1596  0.1169 -0.4688
 1517SOL    HW116010   1.546   2.056   4.320 -0.8837 -0.4862 -0.5331
 1517SOL    HW216011   1.533   1.987   4.443 -1.4370  0.1260  0.0009
 1518SOL     OW16012   0.025   1.971  16.094 -0.8315 -0.0633  0.0553
 1518SOL    HW116013   0.012   1.996  16.186  0.5745 -0.0332  0.2458
 1518SOL    HW216014   0.061   1.882  16.103  3.2110  1.5839  0.0202
 1519SOL     OW16015   1.396   1.424   1.269  0.2648 -0.1892  0.1237
 1519SOL    HW116016   1.429   1.411   1.180 -0.0890 -1.0665  0.1116
 1519SOL    HW216017   1.474   1.421   1.323  1.1405  0.7227 -1.0995
 1520SOL     OW16018   1.202   0.528   5.963 -0.4911 -0.2406  0.5248
 1520SOL    HW116019   1.246   0.444   5.953  0.2000  0.0458  1.0985
 1520SOL    HW216020   1.277   0.587   5.975 -0.3015 -0.5743  0.9752
 1521SOL     OW16021   1.557   0.111  12.238 -0.2761  0.1266  0.7198
 1521SOL    HW116022   1.567   0.196  12.280 -0.6069  0.0811  0.8873
 1521SOL    HW216023   1.495   0.118  12.166  1.5070 -1.8560 -1.0211
 1522SOL     OW16024   2.650   2.193   8.652  0.1472 -0.0679 -0.5044
 1522SOL    HW116025   2.623   2.114   8.698  1.3776 -1.2899 -1.8638
 1522SOL    HW216026   2.745   2.200   8.663  0.0149  1.4571 -0.3213
 1523SOL     OW16027   4.198   0.743  10.773 -0.5508  0.1207  0.3656
 1523SOL    HW116028   4.177   0.658  10.812  0.2960 -0.4166 -0.3649
 1523SOL    HW216029   4.196   0.718  10.681  2.0373 -3.0314  1.1815
 1524SOL     OW16030   4.055   0.535   7.481 -0.0316 -0.0463 -0.1389
 1524SOL    HW116031   4.043   0.615   7.430  2.3347  0.6860  0.4758
 1524SOL    HW216032   4.132   0.545   7.537  0.4802  1.3377 -1.1020
 1525SOL     OW16033   3.473   0.719   4.370 -0.2060  0.1263 -0.4960
 1525SOL    HW116034   3.416   0.704   4.295 -0.8030  0.9542 -0.2031
 1525SOL    HW216035   3.533   0.644   4.372 -0.7576 -0.3577 -2.6534
 1526SOL     OW16036   0.794   2.493   7.920 -0.9623 -0.3883 -0.0432
 1526SOL    HW116037   0.832   2.434   7.985  1.9195  0.3037 -1.0831
 1526SOL    HW216038   0.721   2.522   7.975 -0.3422  0.0818  0.5489
 1527SOL     OW16039   1.861   3.557   7.225 -0.1320  0.3375  0.3428
 1527SOL    HW116040   1.949   3.523   7.238  0.1506  1.0494  0.2522
 1527SOL    HW216041   1.871   3.649   7.247 -0.8063  0.2567  0.9755
 1528SOL     OW16042   0.790   4.073  14.115 -0.4910  0.1603  0.0747
 1528SOL    HW116043   0.811   4.134  14.045 -0.0049 -0.6415 -0.4821
 1528SOL    HW216044   0.846   3.995  14.114 -0.9991 -0.2445  1.9265
 1529SOL     OW16045   2.842   0.274  10.081  0.3370  1.2247 -0.8752
 1529SOL    HW116046   2.858   0.309   9.993 -1.7827  0.0665 -1.7317
 1529SOL    HW216047   2.827   0.354  10.131 -0.2521  0.6318 -0.1195
 1530SOL     OW16048   3.275   1.282   8.721  0.3553  0.0334  0.3662
 1530SOL    HW116049   3.314   1.204   8.761  0.8139  0.3828  0.6022
 1530SOL    HW216050   3.233   1.320   8.798 -0.9448 -0.9887  0.1515
 1531SOL     OW16051   4.265   3.147   6.413 -0.5702  0.4843 -0.3005
 1531SOL    HW116052   4.273   3.061   6.453 -1.9244  0.5400  0.1090
 1531SOL    HW216053   4.283   3.212   6.481 -0.3817 -0.9101  0.9712
 1532SOL     OW16054   1.713   1.132   5.385 -0.6940 -0.5894  0.6404
 1532SOL    HW116055   1.698   1.038   5.401  0.0884 -0.9794 -0.8644
 1532SOL    HW216056   1.695   1.135   5.291  1.0990 -0.3937  0.3026
 1533SOL     OW16057   4.133   3.040   0.688 -0.5383 -0.1292  0.3471
 1533SOL    HW116058   4.055   2.984   0.683 -0.4954 -0.2653  1.2672
 1533SOL    HW216059   4.099   3.107   0.629  1.2303 -0.0295 -0.5476
 1534SOL     OW16060   3.916   0.653  15.661 -0.1434 -0.0246 -0.7937
 1534SOL    HW116061   3.879   0.605  15.587 -1.2682  0.0719 -0.2874
 1534SOL    HW216062   4.009   0.649  15.636  0.0040 -3.8506  0.3862
 1535SOL     OW16063   3.252   0.992   4.553 -0.3002  0.2739 -0.5129
 1535SOL    HW116064   3.326   0.940   4.586 -2.2821 -1.9948  0.3306
 1535SOL    HW216065   3.247   1.055   4.625  1.9872 -0.2645  0.1317
 1536SOL     OW16066   2.613   1.927   7.506  0.1176  0.1715 -0.6084
 1536SOL    HW116067   2.683   1.906   7.568  0.1017 -1.6681 -1.2238
 1536SOL    HW216068   2.640   2.005   7.459  1.7987 -0.4275 -0.6100
 1537SOL     OW16069   0.840   0.208  16.384  0.1392 -0.5385 -0.3378
 1537SOL    HW116070   0.783   0.254  16.446 -0.7074  0.1762 -1.6377
 1537SOL    HW216071   0.906   0.180  16.447 -0.0376  1.2385  0.6367
 1538SOL     OW16072   4.050   3.116   4.073  0.0367  0.1980  0.2822
 1538SOL    HW116073   4.079   3.161   3.994  0.1633  0.1577  0.3052
 1538SOL    HW216074   4.128   3.127   4.127  1.6108 -0.4906 -1.8580
 1539SOL     OW16075   3.418   3.086  12.845 -0.2348  0.3725 -0.2924
 1539SOL    HW116076   3.328   3.116  12.855 -0.3866  0.0038 -0.6020
 1539SOL    HW216077   3.448   3.119  12.931 -0.1612 -1.9570  0.5673
 1540SOL     OW16078   3.509   0.167   7.080  0.1390  0.2137  0.3547
 1540SOL    HW116079   3.560   0.220   7.141 -0.2110  0.2726  0.5981
 1540SOL    HW216080   3.519   0.080   7.119  1.6331  0.0370 -0.4204
 1541SOL     OW16081   2.188   1.044   5.050 -0.0715  0.1504  0.0828
 1541SOL    HW116082   2.132   1.108   5.006 -3.1759 -2.6970 -0.1364
 1541SOL    HW216083   2.201   0.976   4.983 -0.0160 -0.6470  0.9066
 1542SOL     OW16084   1.437   0.089   9.699  0.0759 -0.1170  0.4295
 1542SOL    HW116085   1.502   0.157   9.682 -0.8887  0.9229  0.8325
 1542SOL    HW216086   1.408   0.127   9.782 -1.4469 -0.0692 -0.1244
 1543SOL     OW16087   4.370   4.438  17.048 -0.0120  0.7101 -0.1177
 1543SOL    HW116088   4.355   4.525  17.010 -1.5625  1.4413  2.2070
 1543SOL    HW216089   4.350   4.447  17.141 -0.7582 -1.0929 -0.0899
 1544SOL     OW16090   1.783   2.652   5.495 -0.3885 -0.3126  0.0692
 1544SOL    HW116091   1.846   2.625   5.429 -0.1975  1.5245 -0.4970
 1544SOL    HW216092   1.834   2.727   5.527  0.9576 -0.7123 -1.1973
 1545SOL     OW16093   4.470   0.955   1.155  0.1596 -0.0036 -0.1805
 1545SOL    HW116094   4.529   0.880   1.160 -0.6435 -0.7690 -2.0731
 1545SOL    HW216095   4.530   1.028   1.138  0.1758 -0.0881 -0.4951
 1546SOL     OW16096   0.559   2.577   7.421 -0.0224  0.5899  0.1310
 1546SOL    HW116097   0.584   2.577   7.328 -0.4570 -1.1000  0.0063
 1546SOL    HW216098   0.632   2.526   7.456  0.8200  0.9925 -1.0172
 1547SOL     OW16099   4.103   4.580   6.990 -0.7156 -0.0545  0.3609
 1547SOL    HW116100   4.154   4.660   6.990  0.0771 -0.5519 -0.6074
 1547SOL    HW216101   4.035   4.595   7.056  0.8188  1.2446  1.6178
 1548SOL     OW16102   3.980   0.762   7.325  0.3051 -0.1112  0.5146
 1548SOL    HW116103   3.889   0.789   7.337  0.9369  1.3302  1.9363
 1548SOL    HW216104   4.014   0.802   7.245 -0.3271  1.1477  0.8663
 1549SOL     OW16105   4.665   1.828   5.375 -0.0851 -0.0944 -0.1114
 1549SOL    HW116106   4.654   1.855   5.467 -3.9070  1.0859 -0.8835
 1549SOL    HW216107   4.619   1.744   5.375 -0.2664  0.0089 -0.9898
 1550SOL     OW16108   4.058   4.052   9.230  0.0509  0.3151 -0.0879
 1550SOL    HW116109   4.099   4.120   9.284  0.9453  2.0599 -2.9282
 1550SOL    HW216110   4.092   3.972   9.271  0.7077  1.2474  1.1884
 1551SOL     OW16111   1.020   1.931  17.318 -0.6278 -0.1825 -0.1395
 1551SOL    HW116112   0.953   1.952  17.383 -0.5398  1.8692 -0.7017
 1551SOL    HW216113   1.080   1.990  17.364 -0.9652 -0.7028  0.9694
 1552SOL     OW16114   0.606   1.954  15.190  0.0799 -0.2623  0.1470
 1552SOL    HW116115   0.634   2.010  15.263 -0.5114  0.6637 -0.3377
 1552SOL    HW216116   0.681   1.894  15.189  0.9746  0.8151  1.2682
 1553SOL     OW16117   4.210   1.866   3.947 -0.7620  0.4070 -0.1478
 1553SOL    HW116118   4.130   1.868   3.893 -0.5757  0.9647 -0.4037
 1553SOL    HW216119   4.267   1.822   3.885  1.0653  1.4460  0.7897
 1554SOL     OW16120   1.002   0.303   0.104 -0.6321 -0.1880  0.1547
 1554SOL    HW116121   0.945   0.346   0.168  0.3571  2.4224 -0.7058
 1554SOL    HW216122   0.957   0.315   0.020 -2.0958  0.9044  1.0909
 1555SOL     OW16123   0.799   0.388   0.255  0.1628 -0.0351  0.0170
 1555SOL    HW116124   0.765   0.300   0.270 -0.4223  0.3734  1.0928
 1555SOL    HW216125   0.723   0.444   0.270  0.3759 -0.7946  3.9572
 1556SOL     OW16126   2.215   2.216  12.991  0.0976 -0.3553 -0.0286
 1556SOL    HW116127   2.247   2.305  12.977 -0.2696 -0.2007  0.1044
 1556SOL    HW216128   2.284   2.158  12.960 -0.7973 -1.8877  0.8345
 1557SOL     OW16129   3.109   4.214   8.737 -0.3059  0.0911 -0.7123
 1557SOL    HW116130   3.034   4.219   8.796 -0.3384 -0.2963 -0.7196
 1557SOL    HW216131   3.179   4.202   8.803 -0.0109 -1.0785 -1.2304
 1558SOL     OW16132   3.932   2.422   0.382 -0.4632 -0.1251 -0.6157
 1558SOL    HW116133   3.886   2.505   0.370  0.6573  0.4428 -1.0394
 1558SOL    HW216134   4.024   2.444   0.396 -0.5990 -0.5015  0.8696
 1559SOL     OW16135   2.775   0.464   7.450 -0.0563 -0.3313  0.2527
 1559SOL    HW116136   2.695   0.516   7.458  0.6319  0.9050 -0.8053
 1559SOL    HW216137   2.756   0.405   7.377 -1.5316  0.0745  0.3129
 1560SOL     OW16138   3.327   1.804   5.024  0.1067 -0.5148 -0.1288
 1560SOL    HW116139   3.386   1.798   4.948  0.3721  2.0452 -0.1213
 1560SOL    HW216140   3.250   1.776   4.975 -0.9544 -0.3634  1.4907
 1561SOL     OW16141   1.617   1.995   7.417 -0.6084  0.5874  0.6989
 1561SOL    HW116142   1.712   2.010   7.413 -1.1133  3.4348 -0.0765
 1561SOL    HW216143   1.591   2.072   7.367  0.4920  1.6475  1.7301
 1562SOL     OW16144   3.660   0.322  16.080 -0.0655 -0.1214  0.0495
 1562SOL    HW116145   3.594   0.300  16.146  0.0166 -0.3688  0.0460
 1562SOL    HW216146   3.598   0.359  16.017 -0.8748 -3.0206 -0.8111
 1563SOL     OW16147   0.794   1.559   5.472  0.0056 -0.2170  0.5253
 1563SOL    HW116148   0.745   1.500   5.414 -1.4510  0.1402  1.3835
 1563SOL    HW216149   0.882   1.524   5.477 -0.0268 -0.4450 -0.5303
 1564SOL     OW16150   0.791   1.720   7.607  0.1398 -0.6120  0.0446
 1564SOL    HW116151   0.837   1.772   7.673  0.2876  0.1541 -0.6620
 1564SOL    HW216152   0.831   1.634   7.619 -2.7474 -1.7388  1.6487
 1565SOL     OW16153   1.470   2.421  13.802 -0.0715  0.1452  0.5633
 1565SOL    HW116154   1.376   2.401  13.799  0.3728 -1.9168 -0.2467
 1565SOL    HW216155   1.455   2.498  13.856 -1.2705  0.5095 -0.2780
 1566SOL     OW16156   1.472   1.474   5.808 -0.5977 -0.8731  0.2150
 1566SOL    HW116157   1.528   1.506   5.737  0.0580  0.9160  1.5398
 1566SOL    HW216158   1.508   1.509   5.889 -1.0172 -0.1295  0.0886
 1567SOL     OW16159   4.197   3.194   7.484 -0.6102  0.0301  0.2478
 1567SOL    HW116160   4.170   3.185   7.576  1.2940 -2.2931  0.5617
 1567SOL    HW216161   4.290   3.187   7.504  0.2441  0.5574 -3.7109
 1568SOL     OW16162   1.419   0.023  12.577 -0.3399 -0.2816 -0.3479
 1568SOL    HW116163   1.458   0.075  12.648  1.8617 -1.5644 -0.6069
 1568SOL    HW216164   1.360   0.088  12.540 -0.6896 -0.0306  0.6678
 1569SOL     OW16165   0.918   2.547   3.245  0.3895  0.3566  0.3756
 1569SOL    HW116166   0.874   2.478   3.195 -1.3156  0.3511  1.8798
 1569SOL    HW216167   0.999   2.510   3.279  0.1834 -2.0535 -1.7706
 1570SOL     OW16168   2.720   4.696   2.468  0.2817  0.4356  0.3076
 1570SOL    HW116169   2.671   4.629   2.515  0.2900  1.1851  1.3846
 1570SOL    HW216170   2.706   4.671   2.377  2.0284  1.3370 -0.2144
 1571SOL     OW16171   3.610   3.609   2.782  0.5579 -0.5689 -0.1995
 1571SOL    HW116172   3.632   3.549   2.711 -0.5982  0.8915 -1.7754
 1571SOL    HW216173   3.535   3.661   2.753  1.4831  0.7258 -0.2197
 1572SOL     OW16174   4.655   0.785  17.616 -0.0898 -0.0622 -0.1448
 1572SOL    HW116175   4.604   0.717  17.659  0.2997  0.0632  0.5033
 1572SOL    HW216176   4.587   0.810  17.552 -1.4808 -0.4749  1.1724
 1573SOL     OW16177   2.854   2.033   9.223 -0.1524 -0.0554  0.2988
 1573SOL    HW116178   2.846   2.098   9.154 -0.3466  0.5632  0.8956
 1573SOL    HW216179   2.948   2.016   9.227 -0.2020 -0.2609  0.7025
 1574SOL     OW16180   0.793   3.752  17.487 -0.0743  0.7274 -0.3200
 1574SOL    HW116181   0.707   3.721  17.514 -0.5887  1.5267 -1.0162
 1574SOL    HW216182   0.781   3.748  17.392  0.2388 -1.8579 -0.2441
 1575SOL     OW16183   0.540   3.180   6.251  0.2106 -0.2038  0.3023
 1575SOL    HW116184   0.457   3.226   6.252 -0.2461 -0.9904 -3.0683
 1575SOL    HW216185   0.565   3.210   6.339  1.1008  0.6578 -0.2416
 1576SOL     OW16186   1.370   4.721  10.100 -0.5073  0.2700  0.3583
 1576SOL    HW116187   1.314   4.644  10.111 -1.2966  1.0247  1.6456
 1576SOL    HW216188   1.459   4.690  10.083  0.8097  3.5967  1.0442
 1577SOL     OW16189   3.888   2.571  16.699  0.6530  0.2115 -0.4261
 1577SOL    HW116190   3.968   2.617  16.722 -0.7373  1.4377  1.9330
 1577SOL    HW216191   3.840   2.590  16.780  1.9408  0.4573  0.2795
 1578SOL     OW16192   2.781   3.445  17.519 -0.1736  0.2173 -0.4375
 1578SOL    HW116193   2.690   3.474  17.515  0.1544  1.3135  0.2472
 1578SOL    HW216194   2.786   3.457  17.614  0.1179  1.9886 -0.6910
 1579SOL     OW16195   2.316   0.443   3.206  0.0210  0.5585 -0.3739
 1579SOL    HW116196   2.320   0.519   3.264 -0.5903  1.1455 -1.1024
 1579SOL    HW216197   2.226   0.461   3.178  0.2148  0.6687 -0.9169
 1580SOL     OW16198   0.762   1.763   3.201  0.6320 -0.0089  0.6210
 1580SOL    HW116199   0.813   1.749   3.281  0.9590 -1.7970  0.1114
 1580SOL    HW216200   0.742   1.856   3.203 -1.0340 -0.3403 -0.3897
 1581SOL     OW16201   0.300   4.149  15.450  0.3675 -0.0255  0.2055
 1581SOL    HW116202   0.266   4.234  15.479  2.1351  0.2604  1.4139
 1581SOL    HW216203   0.233   4.088  15.481 -0.6204  0.6951 -0.5307
 1582SOL     OW16204   0.936   4.376  12.063 -0.2225  0.7756  0.9256
 1582SOL    HW116205   0.876   4.421  12.004  0.3710 -1.0251 -1.0536
 1582SOL    HW216206   1.009   4.438  12.052  0.9844 -0.7912  0.0638
 1583SOL     OW16207   2.777   1.470   3.105 -0.0555  0.0139  0.2403
 1583SOL    HW116208   2.856   1.486   3.156  0.7606 -3.9763  0.2151
 1583SOL    HW216209   2.803   1.399   3.046 -0.7106 -0.9202  1.0828
 1584SOL     OW16210   1.480   2.857  15.974 -0.1070  0.8362  0.0046
 1584SOL    HW116211   1.417   2.830  15.907 -0.2573  0.4097  0.3186
 1584SOL    HW216212   1.502   2.946  15.948 -0.1909  0.3278 -1.8205
 1585SOL     OW16213   4.337   3.999   6.627 -0.0431  0.3654 -0.4731
 1585SOL    HW116214   4.294   3.949   6.697 -2.4652  2.0481 -0.7478
 1585SOL    HW216215   4.419   4.033   6.662 -0.1585  1.8110 -1.6032
 1586SOL     OW16216   2.061   3.277   4.495 -0.1314  0.4754  0.1329
 1586SOL    HW116217   2.072   3.201   4.439  2.0431  0.6716  0.2989
 1586SOL    HW216218   2.062   3.353   4.436  0.9958  1.7866  1.8370
 1587SOL     OW16219   3.236   0.120  10.127 -0.0513  0.8737  0.2996
 1587SOL    HW116220   3.266   0.032  10.151  1.7373  1.1742 -0.8538
 1587SOL    HW216221   3.229   0.161  10.213 -0.4177 -1.8917  1.5622
 1588SOL     OW16222   0.326   1.730   2.911 -0.4143  0.4446 -0.1771
 1588SOL    HW116223   0.420   1.735   2.926 -0.5673 -1.7812  1.4916
 1588SOL    HW216224   0.310   1.666   2.841  0.0765  2.5359 -2.2020
 1589SOL     OW16225   2.793   4.217   5.697  0.5251  0.3893  0.4001
 1589SOL    HW116226   2.704   4.211   5.732  0.2366  0.2497 -0.3550
 1589SOL    HW216227   2.769   4.271   5.622  0.2149  1.3351  1.1851
 1590SOL     OW16228   3.536   1.537   3.237 -0.1306  0.1399  0.0797
 1590SOL    HW116229   3.539   1.628   3.206  1.7918  0.0349 -0.0551
 1590SOL    HW216230   3.472   1.498   3.178  0.3517  0.0071 -0.3612
 1591SOL     OW16231   1.277   4.603   2.172  0.0875  0.0347 -0.0374
 1591SOL    HW116232   1.253   4.691   2.201 -2.2608 -0.3716 -0.7471
 1591SOL    HW216233   1.233   4.544   2.234 -2.1475  0.3352 -1.3561
 1592SOL     OW16234   4.060   0.147   5.471  0.2238  0.4594 -0.2556
 1592SOL    HW116235   4.054   0.241   5.454  0.9808  0.2895 -1.4620
 1592SOL    HW216236   4.061   0.138   5.566  1.1918 -0.5034 -0.3670
 1593SOL     OW16237   3.335   1.904   3.680  0.4532 -0.3955  0.2523
 1593SOL    HW116238   3.280   1.879   3.754 -1.2153  0.2314 -0.7759
 1593SOL    HW216239   3.369   1.816   3.661  2.2629  0.4072 -0.2336
 1594SOL     OW16240   1.547   2.591   6.447 -0.5597 -0.6353  0.3370
 1594SOL    HW116241   1.607   2.517   6.435  1.0956  0.5615  1.2208
 1594SOL    HW216242   1.606   2.665   6.431 -0.1508 -1.1935 -0.7270
 1595SOL     OW16243   0.584   4.598  12.460  0.0154  0.0415 -0.5403
 1595SOL    HW116244   0.526   4.562  12.392 -0.0686 -1.2880  0.2317
 1595SOL    HW216245   0.544   4.684  12.469  1.7392  0.9265 -1.2814
 1596SOL     OW16246   2.136   3.934   9.151 -0.9039 -0.8521  0.0546
 1596SOL    HW116247   2.217   3.941   9.201 -1.5768 -0.0979  1.0381
 1596SOL    HW216248   2.078   3.991   9.202  1.2947  1.2119  0.2409
 1597SOL     OW16249   0.726   4.358   2.573 -0.2035  0.0588  0.0774
 1597SOL    HW116250   0.741   4.292   2.506  1.3318 -0.1457  0.6280
 1597SOL    HW216251   0.723   4.312   2.657  2.3880  3.9879  2.3647
 1598SOL     OW16252   0.976   1.837   7.410 -0.3198  0.0313 -0.2206
 1598SOL    HW116253   0.940   1.906   7.355 -3.3100 -0.3157  1.2692
 1598SOL    HW216254   0.942   1.759   7.366 -2.5861  0.5150  0.6303
 1599SOL     OW16255   3.040   1.508   5.071 -0.7996 -0.2044 -0.6792
 1599SOL    HW116256   3.037   1.538   4.980  1.4538  0.2212 -0.6017
 1599SOL    HW216257   2.958   1.460   5.080 -0.8517  0.1649  0.7674
 1600SOL     OW16258   2.370   0.269   8.931  0.3023  0.0584 -0.3027
 1600SOL    HW116259   2.407   0.198   8.879  1.8111  0.9594 -0.4829
 1600SOL    HW216260   2.443   0.302   8.984 -1.1024  0.3116  1.4334
 1601SOL     OW16261   3.603   1.945   2.366 -0.3323 -0.2320  0.2165
 1601SOL    HW116262   3.645   1.915   2.447  2.8297  0.6860 -1.0973
 1601SOL    HW216263   3.555   1.866   2.343  0.1148 -0.6962  0.8770
 1602SOL     OW16264   2.033   4.118   0.178  0.5294 -0.2732  0.4087
 1602SOL    HW116265   2.115   4.088   0.218 -1.0791 -2.1363  2.3047
 1602SOL    HW216266   2.060   4.137   0.088  0.0068 -0.5589  0.1944
 1603SOL     OW16267   3.592   3.912  15.227  0.0328  0.4023  0.0785
 1603SOL    HW116268   3.664   3.849  15.225  1.5988  2.1647  0.1087
 1603SOL    HW216269   3.519   3.853  15.213  2.1704 -2.1132 -0.4216
 1604SOL     OW16270   2.228   4.457   5.274 -0.6414  0.0799 -0.4459
 1604SOL    HW116271   2.291   4.496   5.334  0.1752 -1.1643 -0.4910
 1604SOL    HW216272   2.255   4.492   5.189 -0.5306  1.1960  0.0485
 1605SOL     OW16273   3.179   0.391   8.907  0.2299 -0.6461 -0.7104
 1605SOL    HW116274   3.171   0.479   8.943 -0.9624 -0.4254 -1.5217
 1605SOL    HW216275   3.149   0.340   8.982 -2.4220 -0.4284 -1.6187
 1606SOL     OW16276   1.626   3.092  10.302  0.0899  0.2756  0.4979
 1606SOL    HW116277   1.693   3.107  10.236 -0.5549  0.9324 -0.0190
 1606SOL    HW216278   1.587   3.010  10.273  1.7652 -1.0921  2.1731
 1607SOL     OW16279   0.462   1.380  15.312  0.4071 -0.2382 -0.0185
 1607SOL    HW116280   0.395   1.437  15.274 -0.3448 -1.1768 -0.0975
 1607SOL    HW216281   0.536   1.439  15.300  0.2989 -0.2038 -0.5114
 1608SOL     OW16282   0.969   4.163  17.176 -0.0875 -0.4058  0.4141
 1608SOL    HW116283   1.049   4.155  17.124  0.0747 -0.5226  0.6806
 1608SOL    HW216284   0.973   4.086  17.233 -0.7079  0.3723  1.5068
 1609SOL     OW16285   2.033   4.064   6.685  0.4316  0.5738  0.0329
 1609SOL    HW116286   2.000   4.063   6.595  0.7647 -0.6850 -0.0803
 1609SOL    HW216287   2.053   4.157   6.698 -0.1388  0.7800 -0.6085
 1610SOL     OW16288   1.266   3.575   7.616  0.3690  0.0441  0.4020
 1610SOL    HW116289   1.333   3.636   7.585  1.3390 -1.5712 -0.6822
 1610SOL    HW216290   1.191   3.633   7.611 -0.3003 -0.9609 -1.1986
 1611SOL     OW16291   4.619   2.963   3.760 -0.1305 -0.0719 -0.5360
 1611SOL    HW116292   4.603   3.042   3.708  0.6988 -0.5276 -1.4723
 1611SOL    HW216293   4.609   2.900   3.688  0.3615 -1.9096  1.0126
 1612SOL     OW16294   1.189   2.393   3.290 -0.0949  0.3563 -0.0224
 1612SOL    HW116295   1.152   2.395   3.378 -0.9463  0.1618 -0.3768
 1612SOL    HW216296   1.244   2.316   3.301 -1.3606 -0.7655 -1.3767
 1613SOL     OW16297   0.329   1.125   2.129  0.1609  0.1996  0.0044
 1613SOL    HW116298   0.318   1.164   2.043 -0.6186  0.4063  0.1981
 1613SOL    HW216299   0.276   1.191   2.173 -0.6888 -0.6408  0.2476
 1614SOL     OW16300   4.652   2.063   7.377 -0.4855  0.2753 -0.3690
 1614SOL    HW116301   4.677   2.082   7.287  0.1479  0.8567 -0.0679
 1614SOL    HW216302   0.003   2.098   7.428  1.4463 -2.8184 -1.0320
 1615SOL     OW16303   2.394   1.143  16.547  0.5777 -0.1414  0.0263
 1615SOL    HW116304   2.476   1.128  16.594  1.9310  1.2952 -1.8912
 1615SOL    HW216305   2.414   1.086  16.472  1.4488 -1.1971  1.0676
 1616SOL     OW16306   4.112   1.837   2.625  0.3517  0.1917 -0.2911
 1616SOL    HW116307   4.021   1.833   2.657  0.0254  0.6799 -1.1664
 1616SOL    HW216308   4.154   1.754   2.649  1.0198  0.9025  0.9922
 1617SOL     OW16309   3.892   0.411   3.023  0.7647 -0.0360 -0.8035
 1617SOL    HW116310   3.798   0.399   3.033  0.7633  1.7596  1.3245
 1617SOL    HW216311   3.914   0.351   2.952  0.1323 -0.0380 -0.9973
 1618SOL     OW16312   4.495   3.606   8.529 -0.0865 -0.0440  0.3002
 1618SOL    HW116313   4.474   3.628   8.620  0.4605 -1.4528  0.7545
 1618SOL    HW216314   4.483   3.512   8.532 -0.4841  0.0455  1.3612
 1619SOL     OW16315   3.918   1.019   4.234  0.4968 -0.1500 -0.5096
 1619SOL    HW116316   3.933   1.032   4.328  1.2574 -1.1270 -0.4948
 1619SOL    HW216317   3.871   1.099   4.213 -0.3727  0.0307  2.1652
 1620SOL     OW16318   1.730   4.069   7.246  0.3732 -0.1137  0.2130
 1620SOL    HW116319   1.638   4.093   7.245  0.7969  1.5216 -0.6604
 1620SOL    HW216320   1.748   4.089   7.338  1.5907  0.5989 -0.1725
 1621SOL     OW16321   0.495   0.651   0.739 -0.0247  0.1316 -0.2590
 1621SOL    HW116322   0.405   0.622   0.730 -0.9899  2.4473  1.9024
 1621SOL    HW216323   0.534   0.567   0.715  1.2966  0.3844  0.9787
 1622SOL     OW16324   1.707   0.007  16.395  0.4279 -0.4849  0.1049
 1622SOL    HW116325   1.635   0.038  16.341  2.8530  1.7968 -1.8048
 1622SOL    HW216326   1.769   0.077  16.374  0.8348 -0.4259  1.4784
 1623SOL     OW16327   2.906   3.513  10.030  0.4965 -0.6492 -0.3054
 1623SOL    HW116328   2.887   3.576   9.960 -0.8632  0.3085  0.9395
 1623SOL    HW216329   2.836   3.453  10.005 -0.0042 -0.0799 -0.2587
 1624SOL     OW16330   4.635   0.592   5.787  0.5997  0.1114  0.4396
 1624SOL    HW116331   4.604   0.601   5.697  0.7541 -0.7782  0.3038
 1624SOL    HW216332   4.714   0.645   5.776 -1.2280  2.4369 -1.5091
 1625SOL     OW16333   1.853   3.571   5.000 -0.0341  0.5919 -0.4799
 1625SOL    HW116334   1.925   3.582   5.062 -0.3950 -0.7574  0.1712
 1625SOL    HW216335   1.798   3.517   5.056 -0.0940  1.3233  0.1725
 1626SOL     OW16336   3.507   1.360   5.543  0.1593 -0.6654 -0.3107
 1626SOL    HW116337   3.554   1.318   5.615  0.3082 -0.8938 -0.5406
 1626SOL    HW216338   3.418   1.343   5.575  1.6075 -2.6862  2.5976
 1627SOL     OW16339   3.265   2.606   6.561 -0.0188  0.0621  0.0528
 1627SOL    HW116340   3.294   2.531   6.509  0.0291  0.6330 -0.7449
 1627SOL    HW216341   3.349   2.627   6.603 -0.9556  0.5701  1.6587
 1628SOL     OW16342   2.656   3.890   1.497  0.2889  0.3941 -0.0393
 1628SOL    HW116343   2.588   3.842   1.450 -1.2343  0.2938  2.2758
 1628SOL    HW216344   2.662   3.844   1.581  2.2663  1.2500  0.2814
 1629SOL     OW16345   0.408   3.560   0.226 -0.0899  0.5384 -1.0056
 1629SOL    HW116346   0.367   3.576   0.311  0.1284 -0.5949 -0.6954
 1629SOL    HW216347   0.330   3.565   0.171  1.2896 -1.1562 -3.0865
 1630SOL     OW16348   1.167   1.664  11.562 -0.0848  0.0502 -0.4752
 1630SOL    HW116349   1.214   1.696  11.639 -0.6059  0.1725 -0.2047
 1630SOL    HW216350   1.093   1.625  11.610 -0.5803  1.8433  0.2001
 1631SOL     OW16351   0.185   0.953   1.911  0.6101 -0.2902  0.5587
 1631SOL    HW116352   0.092   0.972   1.919  1.1465  3.1868 -1.7149
 1631SOL    HW216353   0.219   1.038   1.938  0.0575 -0.0632  0.5242
 1632SOL     OW16354   3.304   0.484  14.844  0.3876  0.2424 -0.0877
 1632SOL    HW116355   3.283   0.548  14.776 -0.2667  0.4079  0.2692
 1632SOL    HW216356   3.398   0.499  14.833  0.3837 -0.9948 -1.6865
 1633SOL     OW16357   0.604   0.131  14.262  0.1271 -0.4916  0.3598
 1633SOL    HW116358   0.690   0.171  14.274  0.9387 -1.5814 -1.9586
 1633SOL    HW216359   0.632   0.044  14.290 -1.3840 -0.7120  1.1764
 1634SOL     OW16360   2.883   1.253   4.211  0.5712  0.0245  0.8176
 1634SOL    HW116361   2.795   1.289   4.201  0.6403  0.1253  0.5716
 1634SOL    HW216362   2.862   1.163   4.237  0.0508  0.6524  2.5654
 1635SOL     OW16363   1.668   2.477   2.976 -0.2032 -0.0066 -0.4994
 1635SOL    HW116364   1.683   2.395   3.023  0.9617  1.8813  2.4734
 1635SOL    HW216365   1.592   2.515   3.022 -0.8387 -1.1069 -0.6500
 1636SOL     OW16366   3.579   3.999   0.095  0.0935  0.0460  0.3016
 1636SOL    HW116367   3.571   4.078   0.043  1.4822  1.3261  2.0478
 1636SOL    HW216368   3.573   4.031   0.185 -0.7553 -0.3901  0.3979
 1637SOL     OW16369   2.911   0.644   3.103  0.3781 -0.2220  0.1150
 1637SOL    HW116370   2.877   0.628   3.191 -2.0368  1.9471 -0.3962
 1637SOL    HW216371   2.891   0.562   3.058  2.0420  0.8733 -2.6420
 1638SOL     OW16372   4.486   2.745   1.679  0.2829  0.0233 -0.3195
 1638SOL    HW116373   4.433   2.805   1.626  0.8877 -0.8035 -1.8608
 1638SOL    HW216374   4.572   2.742   1.638  1.5564  0.9971  2.3151
 1639SOL     OW16375   4.251   3.306   3.437  0.6850  0.1451  0.1444
 1639SOL    HW116376   4.156   3.295   3.432  0.2810  2.8811  1.9995
 1639SOL    HW216377   4.268   3.231   3.494  2.6513  1.0051  0.6763
 1640SOL     OW16378   0.223   2.396  16.941 -0.5538  0.1967 -0.5449
 1640SOL    HW116379   0.254   2.363  16.857  1.1234 -0.2362  0.2480
 1640SOL    HW216380   0.273   2.476  16.959 -3.4807  1.8863  0.0878
 1641SOL     OW16381   2.677   0.296   2.740  0.3400  0.0572  0.4810
 1641SOL    HW116382   2.609   0.273   2.804  0.5110 -0.6731  0.4088
 1641SOL    HW216383   2.720   0.211   2.748 -1.5780 -1.1175 -1.4430
 1642SOL     OW16384   1.844   3.271   9.038  0.4969 -0.1010  0.1446
 1642SOL    HW116385   1.802   3.310   9.114  0.1189 -1.0032  0.4030
 1642SOL    HW216386   1.858   3.343   8.977  2.3268 -0.4926  0.1033
 1643SOL     OW16387   2.949   2.237   1.343 -0.1478  0.2271  0.6110
 1643SOL    HW116388   2.873   2.193   1.381  0.1757  0.0524  1.0567
 1643SOL    HW216389   2.907   2.312   1.302  2.1143  0.3071 -1.5399
 1644SOL     OW16390   4.274   1.530   7.244 -0.6898 -0.1543  0.3247
 1644SOL    HW116391   4.328   1.510   7.167 -1.9567 -0.4899 -0.4925
 1644SOL    HW216392   4.317   1.609   7.278  3.6257 -1.1876 -2.6625
 1645SOL     OW16393   0.420   0.678   5.278 -0.4560  0.0518  0.6736
 1645SOL    HW116394   0.386   0.706   5.193  1.8258 -0.5107 -0.4304
 1645SOL    HW216395   0.363   0.613   5.317 -0.8924  0.2821  0.4185
 1646SOL     OW16396   3.905   0.723   9.388 -0.1491  0.3376  0.2981
 1646SOL    HW116397   3.911   0.782   9.312 -0.2984 -0.2944 -0.2039
 1646SOL    HW216398   3.997   0.707   9.410  0.0814 -0.8994 -1.5034
 1647SOL     OW16399   0.392   1.645  10.825 -0.4333 -0.1269 -0.2468
 1647SOL    HW116400   0.328   1.648  10.754  0.7922  2.9182 -1.2479
 1647SOL    HW216401   0.365   1.576  10.885 -0.1086  0.0096  0.0565
 1648SOL     OW16402   4.602   1.511   7.693  0.2267 -0.2312 -0.4050
 1648SOL    HW116403   4.529   1.453   7.712  1.3180 -1.5696 -0.3645
 1648SOL    HW216404   4.584   1.589   7.746  1.4739 -0.4746  0.3716
 1649SOL     OW16405   4.147   4.185   4.322 -0.1271 -0.4754  0.1649
 1649SOL    HW116406   4.222   4.244   4.330  2.1256 -3.4254  0.8385
 1649SOL    HW216407   4.169   4.138   4.402  1.4042  1.8227  1.1121
 1650SOL     OW16408   0.050   3.815   9.209 -0.4397 -0.1437  0.3195
 1650SOL    HW116409   4.697   3.835   9.264 -1.8262 -0.6919 -1.3903
 1650SOL    HW216410   0.102   3.760   9.268  0.0800  0.9765  0.9264
 1651SOL     OW16411   2.557   3.547   6.851 -0.3529  0.1691 -0.1868
 1651SOL    HW116412   2.651   3.526   6.853 -0.6446 -1.0915  0.2435
 1651SOL    HW216413   2.551   3.642   6.859 -1.8915 -0.0413  1.0545
 1652SOL     OW16414   4.181   3.052   5.364 -0.0416 -0.0263  0.1835
 1652SOL    HW116415   4.266   3.011   5.350  0.5446  1.3105 -0.2115
 1652SOL    HW216416   4.203   3.116   5.433 -1.3826 -0.9611  1.4726
 1653SOL     OW16417   3.809   0.549   5.245 -0.7377  0.3208  0.5309
 1653SOL    HW116418   3.820   0.631   5.197  2.0055 -1.9454 -2.7716
 1653SOL    HW216419   3.869   0.500   5.188  0.5885  1.1720  1.1808
 1654SOL     OW16420   1.794   1.552   1.953  0.3941  0.3370 -0.3843
 1654SOL    HW116421   1.703   1.549   1.981  0.1621  0.9113 -1.0674
 1654SOL    HW216422   1.835   1.481   2.003  0.3410 -0.0517 -0.8895
 1655SOL     OW16423   2.112   3.468   2.190 -0.0375  0.0293  0.3591
 1655SOL    HW116424   2.030   3.492   2.232 -2.3300 -1.1806 -3.4625
 1655SOL    HW216425   2.077   3.420   2.115  2.6878 -1.7960  0.2287
 1656SOL     OW16426   1.177   4.632   1.894 -0.1406 -0.0746  0.2986
 1656SOL    HW116427   1.236   4.591   1.831  0.1232 -0.0697  0.5400
 1656SOL    HW216428   1.174   4.564   1.962  3.0697  0.2920  0.8088
 1657SOL     OW16429   2.833   1.601  11.378  0.3854 -0.2080  0.4907
 1657SOL    HW116430   2.762   1.666  11.387  0.4009 -0.0466 -0.4681
 1657SOL    HW216431   2.784   1.520  11.370 -2.8240  1.9898 -2.5166
 1658SOL     OW16432   3.245   0.669  12.596 -0.0238 -0.2547 -0.1618
 1658SOL    HW116433   3.160   0.627  12.609  0.7273 -1.0511  2.0373
 1658SOL    HW216434   3.257   0.710  12.681 -1.0315  0.6442 -0.4500
 1659SOL     OW16435   1.610   1.614   7.687 -0.0666  0.4875 -0.2845
 1659SOL    HW116436   1.633   1.641   7.598 -1.6126  0.6952 -0.6255
 1659SOL    HW216437   1.613   1.697   7.734  2.4489  0.5414 -0.5646
 1660SOL     OW16438   1.946   0.611   8.105 -0.1766 -0.1909  0.1359
 1660SOL    HW116439   1.938   0.577   8.194 -0.8062  2.4356  1.0960
 1660SOL    HW216440   1.860   0.653   8.102  0.4829  1.1041 -0.5340
 1661SOL     OW16441   1.141   3.597   6.013 -0.1151 -0.5520  0.0452
 1661SOL    HW116442   1.209   3.625   6.074 -1.0683 -0.0370  0.8604
 1661SOL    HW216443   1.075   3.666   6.016  1.5378  0.9497  2.2677
 1662SOL     OW16444   4.472   0.322   3.580  0.2239  0.1771 -0.2374
 1662SOL    HW116445   4.470   0.274   3.497  0.6465 -1.2039  0.5402
 1662SOL    HW216446   4.536   0.385   3.549 -0.2077  1.5214  1.5801
 1663SOL     OW16447   0.304   0.134   4.315  0.1642  0.2175  0.1450
 1663SOL    HW116448   0.378   0.104   4.261  1.0637  0.1812  1.3898
 1663SOL    HW216449   0.292   0.219   4.273 -2.6420  0.3238  1.1991
 1664SOL     OW16450   0.884   3.330   0.135 -0.6584  0.2649  0.1879
 1664SOL    HW116451   0.897   3.376   0.053  2.0302 -1.2832 -0.2597
 1664SOL    HW216452   0.974   3.316   0.163 -1.2804  0.5784  2.3342
 1665SOL     OW16453   1.625   1.129   5.672 -0.0367 -0.4063  0.4369
 1665SOL    HW116454   1.614   1.150   5.579 -2.2247 -0.8458  0.6022
 1665SOL    HW216455   1.683   1.054   5.676 -0.1200 -0.4497  0.7999
 1666SOL     OW16456   0.546   4.251   0.621 -0.4299 -0.1083 -0.2422
 1666SOL    HW116457   0.619   4.232   0.681  0.8453 -0.1411 -1.7860
 1666SOL    HW216458   0.536   4.343   0.645  1.0353 -0.0203  0.0743
 1667SOL     OW16459   2.043   1.211   6.252 -0.1496  0.1069 -0.1467
 1667SOL    HW116460   2.036   1.291   6.304 -0.4422 -1.3773  2.0987
 1667SOL    HW216461   1.952   1.183   6.257  0.0629 -0.5330  0.1177
 1668SOL     OW16462   3.307   0.832   5.308  0.2362 -0.0017 -0.2345
 1668SOL    HW116463   3.279   0.784   5.231  0.0023 -0.2301 -0.0077
 1668SOL    HW216464   3.388   0.871   5.277  0.2460 -0.7653 -1.1360
 1669SOL     OW16465   0.695   1.487   6.672  0.4036 -0.0760  0.1926
 1669SOL    HW116466   0.684   1.489   6.767 -1.5054  1.0984 -0.0666
 1669SOL    HW216467   0.787   1.462   6.664 -0.3070 -2.5589 -0.4383
 1670SOL     OW16468   0.394   4.128   8.026 -0.0468  0.3530  0.0197
 1670SOL    HW116469   0.298   4.126   8.022  0.0151 -0.4024 -0.9655
 1670SOL    HW216470   0.416   4.063   8.093  1.7426  2.4322  1.4562
 1671SOL     OW16471   2.356   0.740   4.940 -0.1917  0.1938 -0.5915
 1671SOL    HW116472   2.394   0.661   4.900  0.2433  0.0453  0.1203
 1671SOL    HW216473   2.317   0.707   5.020  1.0436 -2.7447 -1.2134
 1672SOL     OW16474   0.332   0.250  15.075 -0.3643  0.6481  0.3864
 1672SOL    HW116475   0.266   0.186  15.102  2.0173 -1.3069  1.5599
 1672SOL    HW216476   0.327   0.243  14.979 -1.3938 -2.2266  0.6341
 1673SOL     OW16477   0.807   0.133   1.640 -0.3468 -0.0562  0.0113
 1673SOL    HW116478   0.765   0.082   1.571 -0.4612  0.7677 -0.5337
 1673SOL    HW216479   0.872   0.066   1.659 -1.2770 -0.5045  1.6300
 1674SOL     OW16480   4.448   0.481   4.965  0.1203  0.4175  0.5230
 1674SOL    HW116481   4.540   0.509   4.960  0.2481  0.2648  2.0421
 1674SOL    HW216482   4.450   0.386   4.959 -0.1927  0.3310  1.7569
 1675SOL     OW16483   2.889   3.796   0.663 -0.1811 -0.7901 -0.0020
 1675SOL    HW116484   2.907   3.708   0.694  0.0666 -0.0744  1.9241
 1675SOL    HW216485   2.809   3.781   0.611  0.4707 -1.0129 -0.9420
 1676SOL     OW16486   3.844   4.128   5.218 -0.3899  0.2133 -0.1888
 1676SOL    HW116487   3.825   4.184   5.143 -1.4119 -0.9278 -0.7771
 1676SOL    HW216488   3.845   4.188   5.293  0.3329 -1.2744  0.9934
 1677SOL     OW16489   3.106   0.817   6.846  0.1826 -0.2410  0.9337
 1677SOL    HW116490   3.095   0.726   6.817  1.1659  1.0851 -3.6261
 1677SOL    HW216491   3.047   0.811   6.921 -1.8357 -2.7761 -0.8296
 1678SOL     OW16492   1.151   4.080  15.431  0.5747  0.1895 -0.7494
 1678SOL    HW116493   1.183   4.044  15.514  0.5397 -0.8004 -1.1603
 1678SOL    HW216494   1.098   4.009  15.395 -0.3387  0.5402 -0.0678
 1679SOL     OW16495   0.158   3.427   5.031  0.4232  0.5471  0.0390
 1679SOL    HW116496   0.080   3.375   5.051  1.6527 -1.5993 -0.8190
 1679SOL    HW216497   0.215   3.369   5.082  1.4007 -0.2128 -1.9338
 1680SOL     OW16498   0.398   1.872   4.030 -0.1868  0.5298 -0.1486
 1680SOL    HW116499   0.445   1.937   3.978  0.7238  0.5110  0.6524
 1680SOL    HW216500   0.372   1.935   4.097  0.8862  0.0170  0.7626
 1681SOL     OW16501   1.658   3.268   2.774 -0.1881 -0.0924 -0.2953
 1681SOL    HW116502   1.682   3.345   2.824  0.6595  0.5261 -1.6569
 1681SOL    HW216503   1.678   3.283   2.681 -0.9086  0.0847 -0.4265
 1682SOL     OW16504   1.063   0.267   8.759 -0.5484  0.0096  0.3600
 1682SOL    HW116505   1.069   0.254   8.854 -0.4651  2.1210  0.6540
 1682SOL    HW216506   1.002   0.340   8.755 -2.5192 -1.5621  1.5862
 1683SOL     OW16507   2.784   2.724   7.555 -0.1767  0.0439 -0.6362
 1683SOL    HW116508   2.828   2.680   7.628 -0.3747 -1.6514 -1.5355
 1683SOL    HW216509   2.853   2.738   7.491 -0.4710 -0.3411 -1.0334
 1684SOL     OW16510   1.287   1.329   5.603  0.2293  0.3252  0.1085
 1684SOL    HW116511   1.380   1.337   5.582 -0.0219  0.9761 -0.7249
 1684SOL    HW216512   1.287   1.357   5.694 -3.1189 -1.2855  0.5879
 1685SOL     OW16513   3.426   0.406   1.100  0.3427 -0.3266  0.1842
 1685SOL    HW116514   3.422   0.417   1.195 -1.8527  2.7156 -0.2436
 1685SOL    HW216515   3.406   0.496   1.072  0.6181 -0.6593 -1.0927
 1686SOL     OW16516   0.409   0.230   3.223  0.4436 -0.2822  0.4720
 1686SOL    HW116517   0.359   0.312   3.224  1.9725  0.6619 -1.6725
 1686SOL    HW216518   0.440   0.234   3.314 -0.6948 -1.8510  0.9239
 1687SOL     OW16519   3.066   2.374   9.618 -0.3276 -0.9509  0.1379
 1687SOL    HW116520   3.119   2.297   9.596 -1.3675 -2.1046  1.7285
 1687SOL    HW216521   3.130   2.431   9.662 -2.2479  0.8563  0.5838
 1688SOL     OW16522   2.680   2.541  16.376  0.4433  0.9141  0.3630
 1688SOL    HW116523   2.655   2.454  16.343 -0.8320  0.8235  1.5444
 1688SOL    HW216524   2.663   2.527  16.469 -0.7273 -0.9717 -0.1213
 1689SOL     OW16525   2.212   3.216  14.548 -0.2939 -0.2489  0.1647
 1689SOL    HW116526   2.182   3.289  14.602 -1.0781 -0.2048 -0.3356
 1689SOL    HW216527   2.235   3.148  14.612 -1.1792 -0.7211 -0.0241
 1690SOL     OW16528   0.448   3.206   5.392  0.0096 -0.7287 -0.3549
 1690SOL    HW116529   0.379   3.168   5.446 -0.5498 -1.1586 -1.3643
 1690SOL    HW216530   0.502   3.225   5.468 -0.0529 -0.2031 -0.4424
 1691SOL     OW16531   0.663   2.697  14.935 -0.0881 -0.0135 -0.3698
 1691SOL    HW116532   0.611   2.663  14.862  1.2496 -0.2418 -1.2294
 1691SOL    HW216533   0.600   2.755  14.977 -0.0806  0.4816 -1.0427
 1692SOL     OW16534   1.100   0.122  12.129  0.1195  0.3791  0.2757
 1692SOL    HW116535   1.133   0.205  12.164 -3.1276  0.7089  2.5966
 1692SOL    HW216536   1.053   0.148  12.050  1.5257  0.7277 -0.4369
 1693SOL     OW16537   1.161   4.504   8.342 -0.6738  0.0681  0.4881
 1693SOL    HW116538   1.103   4.430   8.323  0.3581 -0.6857  0.2624
 1693SOL    HW216539   1.132   4.517   8.432 -1.3608  1.0794  0.1125
 1694SOL     OW16540   1.458   2.328   9.039 -0.8087  0.6061 -0.1566
 1694SOL    HW116541   1.481   2.362   9.125  0.7257 -1.2284  0.1616
 1694SOL    HW216542   1.497   2.241   9.035 -0.6779  0.7158 -1.2244
 1695SOL     OW16543   0.573   1.213   8.577 -0.6442  0.1808  0.6259
 1695SOL    HW116544   0.521   1.199   8.656  0.4366  0.7854  1.4412
 1695SOL    HW216545   0.550   1.302   8.551 -1.6372 -0.6958 -1.5089
 1696SOL     OW16546   2.439   2.409  17.033 -0.1326  0.2670  0.0619
 1696SOL    HW116547   2.375   2.433  17.100  0.8339 -0.5704  1.2710
 1696SOL    HW216548   2.382   2.387  16.959 -0.9742  0.6717  0.5804
 1697SOL     OW16549   2.584   0.170   2.983  0.1954  0.4472 -0.3101
 1697SOL    HW116550   2.641   0.150   3.057  0.1456 -0.6762 -0.5886
 1697SOL    HW216551   2.540   0.088   2.963  1.7259 -0.1180 -1.3059
 1698SOL     OW16552   3.724   0.639   8.899 -0.4811  0.2449 -0.0119
 1698SOL    HW116553   3.742   0.549   8.873  1.2597  0.7412 -0.4777
 1698SOL    HW216554   3.666   0.669   8.828  0.0500 -0.3994 -0.7166
 1699SOL     OW16555   4.402   0.718   0.015 -0.8030  0.3636 -0.4001
 1699SOL    HW116556   4.322   0.672  17.681 -2.3546  2.9470 -0.2806
 1699SOL    HW216557   4.415   0.693   0.106 -0.0732 -0.1171 -0.6459
 1700SOL     OW16558   1.197   3.527   9.384 -0.1008  0.4503 -0.5457
 1700SOL    HW116559   1.138   3.472   9.334 -0.1382  0.4857 -0.5410
 1700SOL    HW216560   1.137   3.590   9.425  0.7678  0.9477 -0.0253
 1701SOL     OW16561   1.151   0.334   7.554  0.2630  0.4060 -1.1471
 1701SOL    HW116562   1.059   0.359   7.565 -0.0482 -1.1211 -0.0917
 1701SOL    HW216563   1.165   0.276   7.629  0.2659  1.0997 -0.6109
 1702SOL     OW16564   0.684   0.326   7.664 -0.1236  0.3939 -0.0405
 1702SOL    HW116565   0.616   0.277   7.618  0.6594 -0.3457 -0.4072
 1702SOL    HW216566   0.698   0.399   7.605 -2.1044  1.6058  1.0115
 1703SOL     OW16567   2.663   2.395   9.019  0.4405  0.0328  0.3368
 1703SOL    HW116568   2.754   2.374   9.038  1.0829 -0.0349 -2.8425
 1703SOL    HW216569   2.624   2.308   9.007 -0.8897  0.9472 -1.9722
 1704SOL     OW16570   0.556   1.041   6.885 -0.7131  0.1430 -0.9739
 1704SOL    HW116571   0.615   1.099   6.934  0.9568 -1.9317 -0.5128
 1704SOL    HW216572   0.620   0.987   6.837  3.5814  2.1514  2.4837
 1705SOL     OW16573   1.832   3.980   8.411 -0.1332  0.3981  0.3741
 1705SOL    HW116574   1.843   4.002   8.504  0.1180 -0.0782  0.4573
 1705SOL    HW216575   1.863   4.057   8.365 -1.3337 -0.1482 -1.3356
 1706SOL     OW16576   1.421   2.276   6.396 -0.0682 -0.9286  0.1211
 1706SOL    HW116577   1.404   2.349   6.337  0.8393  0.9507  2.1748
 1706SOL    HW216578   1.401   2.321   6.478 -0.7388  2.3008 -1.8212
 1707SOL     OW16579   1.707   2.670  13.165  0.1563 -0.4974  0.3151
 1707SOL    HW116580   1.768   2.652  13.094  0.8166 -1.3391  1.0833
 1707SOL    HW216581   1.625   2.640  13.127  0.7426  0.8994 -2.0138
 1708SOL     OW16582   0.239   0.186   0.995 -0.2133 -0.1542  0.1155
 1708SOL    HW116583   0.327   0.172   0.960 -0.2103  1.3130 -0.4577
 1708SOL    HW216584   0.201   0.194   0.907 -0.6337 -1.2092  0.1991
 1709SOL     OW16585   1.490   3.810   6.459 -0.1658 -0.0243  0.3670
 1709SOL    HW116586   1.438   3.887   6.477 -1.6329 -0.5894 -1.4593
 1709SOL    HW216587   1.570   3.820   6.511  0.7736 -0.3692 -0.9897
 1710SOL     OW16588   2.431   2.828   9.096  0.2405 -0.1406  0.9564
 1710SOL    HW116589   2.400   2.912   9.062  0.0563 -0.2846  0.7676
 1710SOL    HW216590   2.501   2.806   9.035 -1.2225  2.3211 -1.6112
 1711SOL     OW16591   1.753   2.998  14.232 -0.1459  0.4258 -0.1474
 1711SOL    HW116592   1.806   2.970  14.157 -0.3205  1.1763 -0.5566
 1711SOL    HW216593   1.800   3.077  14.260 -0.8514  0.8517 -0.1654
 1712SOL     OW16594   2.770   2.076   3.373  0.4551  0.0108 -0.1813
 1712SOL    HW116595   2.805   2.007   3.317 -0.1224 -1.0411  0.7630
 1712SOL    HW216596   2.822   2.057   3.450  0.0098 -0.0892  0.0973
 1713SOL     OW16597   2.277   3.242  13.835  0.1883  1.1262 -0.3411
 1713SOL    HW116598   2.264   3.296  13.912 -3.7747 -0.0220 -0.1904
 1713SOL    HW216599   2.357   3.193  13.851 -0.4990  0.4035  0.8387
 1714SOL     OW16600   0.048   1.350   0.030 -0.1326  0.1414 -0.4920
 1714SOL    HW116601   0.128   1.360   0.082 -1.0039  1.1403  0.6476
 1714SOL    HW216602   0.050   1.261  17.687  2.3935  0.8866 -2.2036
 1715SOL     OW16603   3.151   4.458   2.187  0.0808  0.2752  0.7399
 1715SOL    HW116604   3.214   4.462   2.259 -0.9695 -3.1963  1.8647
 1715SOL    HW216605   3.074   4.465   2.245  1.0312  4.7085  1.5327
 1716SOL     OW16606   2.494   4.299   3.153 -0.1246 -0.2110 -0.1373
 1716SOL    HW116607   2.425   4.234   3.140 -3.1392  3.0588 -0.6212
 1716SOL    HW216608   2.561   4.248   3.198 -0.7178  1.0142  2.1698
 1717SOL     OW16609   4.677   0.431   6.155  0.0161 -0.0281  0.1318
 1717SOL    HW116610   4.588   0.444   6.120  0.4671 -1.6101 -1.5908
 1717SOL    HW216611   4.660   0.416   6.248  1.1454  0.6409  0.4408
 1718SOL     OW16612   0.281   0.325   3.611  0.0410 -0.5159  0.3067
 1718SOL    HW116613   0.295   0.263   3.683 -1.6055 -0.9916  0.1995
 1718SOL    HW216614   0.224   0.277   3.552 -0.9240  0.9838  0.0270
 1719SOL     OW16615   4.355   0.862   1.493 -0.1345 -0.5657 -0.4316
 1719SOL    HW116616   4.324   0.824   1.575 -1.4648  0.6030 -0.3794
 1719SOL    HW216617   4.447   0.877   1.515  0.0333  2.0381 -2.8009
 1720SOL     OW16618   1.182   2.616   5.933 -0.0676 -0.0263 -0.6022
 1720SOL    HW116619   1.235   2.550   5.978  2.5089  0.6221 -2.7136
 1720SOL    HW216620   1.250   2.678   5.908  1.3070 -1.0755  0.5248
 1721SOL     OW16621   3.086   1.981   8.779 -0.3324  0.4455 -0.1860
 1721SOL    HW116622   3.158   1.978   8.716 -2.2283 -1.7757 -2.2417
 1721SOL    HW216623   3.134   1.966   8.860  2.3564  4.3631 -1.0829
 1722SOL     OW16624   1.974   0.030   4.346 -0.1027  0.0599 -0.1201
 1722SOL    HW116625   2.013   4.696   4.280  0.7295  0.2438  0.2174
 1722SOL    HW216626   2.042   0.096   4.354 -2.2862  2.2698  0.1302
 1723SOL     OW16627   1.191   4.118   3.665  0.3009  0.0150 -0.6156
 1723SOL    HW116628   1.213   4.047   3.725  0.4674 -0.4901 -1.2686
 1723SOL    HW216629   1.200   4.080   3.577 -1.2204 -0.3114 -0.6303
 1724SOL     OW16630   4.131   1.629  16.660 -0.2946  0.5626  0.2354
 1724SOL    HW116631   4.106   1.678  16.738  3.2060 -0.2844  1.9060
 1724SOL    HW216632   4.177   1.700  16.616  1.1590 -1.1197 -0.9334
 1725SOL     OW16633   0.997   2.456   4.920 -0.6573 -0.4033  0.4271
 1725SOL    HW116634   1.043   2.531   4.958  1.3629 -1.7589  0.6907
 1725SOL    HW216635   0.968   2.412   4.999 -1.3931 -0.5076  0.0956
 1726SOL     OW16636   0.479   3.241   0.230 -0.0445 -0.5974  0.1661
 1726SOL    HW116637   0.457   3.172   0.169  0.1458  0.4017 -1.0343
 1726SOL    HW216638   0.436   3.312   0.183  0.0185 -0.5118  0.2358
 1727SOL     OW16639   1.896   2.214  16.464 -0.0752  0.0546 -0.0137
 1727SOL    HW116640   1.904   2.276  16.391 -0.2485 -1.0859 -1.0115
 1727SOL    HW216641   1.953   2.143  16.436  0.7921  0.6160  0.3181
 1728SOL     OW16642   0.628   1.123   7.596 -0.0829 -0.1532 -0.0426
 1728SOL    HW116643   0.632   1.065   7.520  0.5778 -1.2996  0.8628
 1728SOL    HW216644   0.623   1.056   7.665  2.2152 -0.6252 -0.3232
 1729SOL     OW16645   0.506   0.469   6.859 -0.6683  0.1121  0.3166
 1729SOL    HW116646   0.501   0.392   6.915 -1.0542  0.8497  1.2886
 1729SOL    HW216647   0.563   0.444   6.786 -0.7395 -1.2870  0.7372
 1730SOL     OW16648   3.767   4.169  13.334 -0.1563 -0.4217 -0.2611
 1730SOL    HW116649   3.761   4.227  13.258  1.2159 -0.4534 -0.3943
 1730SOL    HW216650   3.851   4.124  13.321  0.8920  1.7240 -0.9701
 1731SOL     OW16651   4.508   4.714   3.630 -0.1844 -0.1052 -0.3121
 1731SOL    HW116652   4.494   0.065   3.689 -0.4946 -0.8324  0.5260
 1731SOL    HW216653   4.465   0.030   3.553 -1.7254  0.9873  1.1084
 1732SOL     OW16654   1.710   4.442   6.071  0.2718  0.1952 -0.9389
 1732SOL    HW116655   1.707   4.346   6.065 -0.2380  0.3007 -2.1631
 1732SOL    HW216656   1.802   4.453   6.046 -0.0568 -0.6267 -2.5004
 1733SOL     OW16657   2.539   2.766   3.886  0.2561  0.0008 -0.2496
 1733SOL    HW116658   2.463   2.724   3.846 -0.5409  0.4489  0.8078
 1733SOL    HW216659   2.592   2.793   3.811  1.3488  1.7662  1.1659
 1734SOL     OW16660   0.418   2.401   3.098 -0.1072  0.1328  0.2270
 1734SOL    HW116661   0.395   2.314   3.132 -1.0703  0.9099  1.5823
 1734SOL    HW216662   0.476   2.435   3.166 -0.0809 -0.8481  0.7020
 1735SOL     OW16663   4.054   3.896   5.857 -0.1242 -0.0154 -0.5857
 1735SOL    HW116664   3.974   3.946   5.844  0.1155  0.7537  0.8735
 1735SOL    HW216665   4.069   3.864   5.768  1.3279 -1.2840  0.1202
 1736SOL     OW16666   0.026   0.382   2.224 -0.2457 -0.0649 -0.7213
 1736SOL    HW116667   0.108   0.372   2.177  0.0726  0.1798 -0.2142
 1736SOL    HW216668   0.044   0.458   2.280 -1.3795  0.6002 -1.2581
 1737SOL     OW16669   2.443   3.081  10.994  0.0886 -0.5450  0.0292
 1737SOL    HW116670   2.424   3.042  10.909 -0.1262  0.4119 -0.3682
 1737SOL    HW216671   2.385   3.156  10.977 -0.3555 -0.5524  1.5133
 1738SOL     OW16672   1.542   1.782  14.811 -0.3028 -0.1509  0.0934
 1738SOL    HW116673   1.573   1.780  14.902 -0.8818  2.9142  0.3501
 1738SOL    HW216674   1.448   1.761  14.813 -0.8351  2.3797  2.1341
 1739SOL     OW16675   0.918   3.382   7.689 -0.5304  0.0854  0.3367
 1739SOL    HW116676   0.829   3.379   7.724 -0.5835  1.7294  0.3289
 1739SOL    HW216677   0.905   3.374   7.595  1.3725  1.7748 -0.0739
 1740SOL     OW16678   1.824   1.583   8.222  0.3784 -0.0743 -0.0778
 1740SOL    HW116679   1.798   1.524   8.293  0.8884  1.3651  1.3316
 1740SOL    HW216680   1.855   1.657   8.276 -2.7610  0.6010  0.8156
 1741SOL     OW16681   4.703   3.519   2.831  0.1882 -0.4966 -0.7802
 1741SOL    HW116682   0.005   3.476   2.749  1.9900 -2.2468  0.6839
 1741SOL    HW216683   4.613   3.488   2.847 -0.5229  2.0924  0.1746
 1742SOL     OW16684   1.990   3.733  12.607  1.0623  0.3742  0.4093
 1742SOL    HW116685   2.031   3.700  12.687 -0.8142  1.0731  1.6466
 1742SOL    HW216686   1.899   3.749  12.632  0.4933 -1.1686 -0.6920
 1743SOL     OW16687   4.090   1.394   6.935  0.0928  0.2218  0.0136
 1743SOL    HW116688   4.172   1.347   6.922 -0.6963 -0.6238 -1.8468
 1743SOL    HW216689   4.057   1.392   6.846 -0.0266 -0.0217  0.0632
 1744SOL     OW16690   4.056   4.128   3.415 -0.5522  0.0981  0.0708
 1744SOL    HW116691   4.109   4.078   3.476 -3.3423 -1.1619  1.4656
 1744SOL    HW216692   3.975   4.078   3.423 -1.1729  1.0464 -0.2789
 1745SOL     OW16693   2.743   3.398   8.183  0.8794  0.1531 -0.2831
 1745SOL    HW116694   2.807   3.335   8.216  0.8259  0.7979  1.0471
 1745SOL    HW216695   2.790   3.477   8.157  0.1408 -0.2315 -2.7561
 1746SOL     OW16696   1.214   4.147   8.375  0.5723 -0.3891  0.1025
 1746SOL    HW116697   1.191   4.161   8.466  1.1940 -0.5972  0.2879
 1746SOL    HW216698   1.282   4.080   8.371  0.3167 -0.6811  0.7189
 1747SOL     OW16699   3.120   1.439   2.867  0.7072  0.0057 -0.4578
 1747SOL    HW116700   3.069   1.361   2.891  0.5211 -0.3781 -2.1055
 1747SOL    HW216701   3.150   1.412   2.780  0.3881 -0.5459 -0.4003
 1748SOL     OW16702   1.932   0.243   8.082  0.5033 -0.6800 -0.3696
 1748SOL    HW116703   1.881   0.250   8.002  0.9340  1.0670 -0.5043
 1748SOL    HW216704   2.022   0.260   8.053 -0.2531 -0.2146 -2.4322
 1749SOL     OW16705   4.543   3.579  14.616  0.0513  0.2714  0.4410
 1749SOL    HW116706   4.485   3.505  14.596  1.5357 -0.6969 -0.3040
 1749SOL    HW216707   4.616   3.536  14.660 -0.0515  1.1180  1.4236
 1750SOL     OW16708   4.131   0.624  16.586  0.3710 -0.0824  0.3703
 1750SOL    HW116709   4.073   0.555  16.621  0.9066 -0.8766 -0.3125
 1750SOL    HW216710   4.102   0.701  16.635 -0.5987 -0.6787  0.7572
 1751SOL     OW16711   4.455   1.114  12.080  0.1033 -0.9611 -0.1961
 1751SOL    HW116712   4.402   1.115  12.000  0.7746  1.5284 -0.6072
 1751SOL    HW216713   4.544   1.135  12.049  1.0615 -1.5062  2.2417
 1752SOL     OW16714   2.706   2.364  17.037  0.4463  0.2554  0.2567
 1752SOL    HW116715   2.612   2.374  17.051  0.6757 -1.5516  3.0356
 1752SOL    HW216716   2.704   2.410  16.953 -0.0824 -0.3096 -0.0383
 1753SOL     OW16717   3.355   0.482   9.563 -0.1103 -0.3315  0.1931
 1753SOL    HW116718   3.279   0.440   9.603 -0.1862 -1.1967 -0.8640
 1753SOL    HW216719   3.422   0.492   9.631 -0.4564  1.0469  0.3132
 1754SOL     OW16720   2.161   3.611   3.923  0.0878  0.0055 -0.1067
 1754SOL    HW116721   2.152   3.614   4.018 -1.0642 -0.2031 -0.2152
 1754SOL    HW216722   2.228   3.548   3.898  0.6798  0.4016  0.4613
 1755SOL     OW16723   0.246   3.459   8.165  0.5191  0.0104  0.7265
 1755SOL    HW116724   0.332   3.463   8.123  0.4751  0.1114  0.6454
 1755SOL    HW216725   0.260   3.395   8.235 -1.7896  0.9313  2.0368
 1756SOL     OW16726   3.361   4.246  16.619 -0.0430 -0.1150  0.1414
 1756SOL    HW116727   3.391   4.248  16.528  0.7273  1.2701  0.4278
 1756SOL    HW216728   3.441   4.274  16.663 -0.0202  0.5646 -0.3245
 1757SOL     OW16729   1.654   0.337   9.034  0.0721 -0.1504  0.6028
 1757SOL    HW116730   1.641   0.326   8.939 -0.7864 -2.6152  1.0243
 1757SOL    HW216731   1.714   0.267   9.060 -2.3894 -2.3041  0.3864
 1758SOL     OW16732   1.105   1.637  16.693 -0.0754  0.0133  0.2304
 1758SOL    HW116733   1.151   1.639  16.609  1.7489  1.6530  1.2778
 1758SOL    HW216734   1.183   1.649  16.746  0.0239 -2.5945  0.7021
 1759SOL     OW16735   2.178   2.397  10.501 -0.0185  0.3559 -0.3049
 1759SOL    HW116736   2.272   2.380  10.515  0.3778  1.6043 -1.4645
 1759SOL    HW216737   2.141   2.381  10.588  1.2549  0.8686  0.3399
 1760SOL     OW16738   1.637   2.278   2.650  0.1821 -0.0579  0.0466
 1760SOL    HW116739   1.543   2.289   2.666  0.1211 -1.1227  0.3997
 1760SOL    HW216740   1.653   2.214   2.719  1.7288  0.1316 -0.1340
 1761SOL     OW16741   1.404   4.253   0.885 -0.0465  0.3732 -0.4032
 1761SOL    HW116742   1.447   4.235   0.968 -0.9741 -1.4024 -0.3137
 1761SOL    HW216743   1.472   4.306   0.843  1.6437 -1.3638  0.1554
 1762SOL     OW16744   2.041   1.859  17.632  0.9419  0.1485  0.0163
 1762SOL    HW116745   2.124   1.894  17.666 -0.0745  0.2719  2.3943
 1762SOL    HW216746   1.976   1.887   0.003 -0.6248  1.2355 -2.0530
 1763SOL     OW16747   1.165   0.390  12.126  0.0784  0.0605  0.4113
 1763SOL    HW116748   1.125   0.374  12.040  1.0252  0.1862 -0.0529
 1763SOL    HW216749   1.116   0.465  12.159  0.8229  0.8689 -0.3207
 1764SOL     OW16750   3.771   3.765   6.995 -0.0482 -0.1410 -0.4217
 1764SOL    HW116751   3.864   3.751   6.978  0.2464 -0.4409  1.4872
 1764SOL    HW216752   3.728   3.680   6.979 -1.0757  0.6887 -2.0383
 1765SOL     OW16753   0.356   3.706  16.046  0.2597  0.5904  0.0817
 1765SOL    HW116754   0.350   3.794  16.010 -0.9385  0.3814 -0.2227
 1765SOL    HW216755   0.427   3.672  15.991  0.7791  0.8331  0.5950
 1766SOL     OW16756   1.027   2.274   0.921  0.0686  0.4386  0.4520
 1766SOL    HW116757   1.083   2.196   0.914 -1.7236 -0.9499  1.5031
 1766SOL    HW216758   1.079   2.331   0.977  1.1943 -1.1553  1.0212
 1767SOL     OW16759   4.215   0.974   9.219 -0.0108  0.1082  0.2787
 1767SOL    HW116760   4.267   0.939   9.291 -1.9383 -3.0642  0.1004
 1767SOL    HW216761   4.132   0.927   9.229  0.7416 -1.0790  0.8431
 1768SOL     OW16762   2.959   2.657   4.030 -0.3836 -0.4732  0.4632
 1768SOL    HW116763   2.981   2.665   4.123  2.9020  0.6366 -0.4229
 1768SOL    HW216764   3.033   2.709   4.000  0.3817 -0.4256  2.4121
 1769SOL     OW16765   1.908   0.283  15.200  0.2141  0.4566 -0.0022
 1769SOL    HW116766   1.984   0.304  15.253  0.6518 -1.2766  0.0675
 1769SOL    HW216767   1.853   0.358  15.222 -1.6383 -1.3870  1.6270
 1770SOL     OW16768   3.906   2.884   7.535  0.5782 -0.0639  0.3560
 1770SOL    HW116769   3.826   2.850   7.495  0.7221  1.2796 -1.1126
 1770SOL    HW216770   3.906   2.842   7.621  1.2522  0.2946  0.5349
 1771SOL     OW16771   4.137   2.030   2.884 -0.4778 -0.2851 -0.1366
 1771SOL    HW116772   4.132   2.115   2.840 -1.2036 -0.2158  0.0789
 1771SOL    HW216773   4.163   1.978   2.808 -0.1240 -0.9784  0.4614
 1772SOL     OW16774   2.209   3.786  10.693  0.6020 -0.3618  0.0925
 1772SOL    HW116775   2.256   3.801  10.775 -0.3039  3.1888 -0.0568
 1772SOL    HW216776   2.243   3.702  10.663 -1.5088  0.1244 -3.6010
 1773SOL     OW16777   3.073   1.840  14.425  0.5320 -0.0264 -0.3389
 1773SOL    HW116778   3.095   1.758  14.470  1.9299  0.7738  0.4621
 1773SOL    HW216779   3.001   1.813  14.369  1.6204 -1.3729 -1.0962
 1774SOL     OW16780   3.782   3.218   4.482 -0.2026 -0.1852  0.9571
 1774SOL    HW116781   3.804   3.125   4.485  0.6323  0.0391  1.4359
 1774SOL    HW216782   3.838   3.246   4.410 -2.9008 -1.0026 -1.4894
 1775SOL     OW16783   1.679   4.163   4.368 -0.5899  0.5987 -0.2827
 1775SOL    HW116784   1.708   4.245   4.329 -1.6553  1.9236  1.6776
 1775SOL    HW216785   1.632   4.136   4.289 -0.5222 -1.1162  0.2433
 1776SOL     OW16786   2.825   1.860   4.639 -0.0520  0.3188 -0.1584
 1776SOL    HW116787   2.747   1.915   4.628  0.7834  1.4067 -0.6502
 1776SOL    HW216788   2.857   1.890   4.724  0.2723 -0.0941 -0.1390
 1777SOL     OW16789   2.213   0.240   6.235 -0.5263 -0.4636 -0.0037
 1777SOL    HW116790   2.196   0.316   6.290 -2.3622 -0.9541  0.1064
 1777SOL    HW216791   2.307   0.236   6.249 -0.2059 -0.6866 -2.2150
 1778SOL     OW16792   1.534   0.112   6.624 -0.0235 -0.0637 -0.2724
 1778SOL    HW116793   1.564   0.147   6.708 -0.1186  2.2814 -1.2321
 1778SOL    HW216794   1.501   0.191   6.581 -0.2546  0.6802  1.2386
 1779SOL     OW16795   1.403   2.276  16.964 -0.7179  0.3985 -0.3814
 1779SOL    HW116796   1.390   2.196  16.913  2.3687 -0.0403 -0.4762
 1779SOL    HW216797   1.351   2.260  17.043  0.7104  0.5390  0.5962
 1780SOL     OW16798   4.092   0.496   1.274  0.2570  0.5891  0.6713
 1780SOL    HW116799   4.101   0.412   1.319  0.6863 -0.3140 -1.0652
 1780SOL    HW216800   3.996   0.491   1.277  0.3224 -0.4528  0.9536
 1781SOL     OW16801   4.350   0.196   9.023  0.5763 -0.0343  0.3462
 1781SOL    HW116802   4.354   0.277   9.073 -0.3185  0.0871  0.2069
 1781SOL    HW216803   4.323   0.124   9.079  2.6547 -0.2771  1.0522
 1782SOL     OW16804   3.563   2.818   8.381 -0.2343  0.0460  0.3725
 1782SOL    HW116805   3.633   2.772   8.333  0.2582  0.6691  0.5016
 1782SOL    HW216806   3.587   2.907   8.404 -0.7110  0.2578  0.0387
 1783SOL     OW16807   4.196   3.151   2.546 -0.4762  0.4730  0.5390
 1783SOL    HW116808   4.192   3.209   2.471 -0.9868  0.2383  0.3859
 1783SOL    HW216809   4.105   3.122   2.546 -0.3884  0.1956  1.0774
 1784SOL     OW16810   0.749   4.157  11.116 -0.0834 -0.2901 -0.1767
 1784SOL    HW116811   0.807   4.193  11.184 -0.8028 -0.1882  0.3920
 1784SOL    HW216812   0.673   4.127  11.166  0.5480 -0.8791  0.4444
 1785SOL     OW16813   3.169   1.838   0.969 -0.3900  1.2523 -0.4137
 1785SOL    HW116814   3.245   1.895   0.981  0.7997 -0.0534 -1.8012
 1785SOL    HW216815   3.149   1.816   1.060  1.7570  0.0901 -0.2153
 1786SOL     OW16816   3.965   3.538   7.951 -0.3872 -0.1923 -0.0471
 1786SOL    HW116817   3.967   3.522   8.046  1.5902  1.4140  0.1807
 1786SOL    HW216818   3.989   3.631   7.947  0.0768 -0.2182  1.9735
 1787SOL     OW16819   2.313   0.365  14.862 -0.3827  0.1574  0.2242
 1787SOL    HW116820   2.243   0.302  14.850  2.2402 -3.1564  2.3813
 1787SOL    HW216821   2.324   0.358  14.956  0.5460 -0.1185  0.0956
 1788SOL     OW16822   0.583   2.024   4.909 -0.1497 -0.2479  0.1052
 1788SOL    HW116823   0.513   1.999   4.968 -1.1162 -3.6026 -2.4373
 1788SOL    HW216824   0.652   2.045   4.972 -0.3347 -0.1917  0.2903
 1789SOL     OW16825   1.874   2.656   6.843  0.3625 -0.2785 -0.2516
 1789SOL    HW116826   1.811   2.658   6.915 -0.1302 -0.5165 -0.6754
 1789SOL    HW216827   1.934   2.710   6.895 -1.5497 -0.0888  1.7839
 1790SOL     OW16828   4.340   1.928  14.454  0.2900 -0.3023  0.0122
 1790SOL    HW116829   4.255   1.971  14.458 -0.3406 -1.4950 -0.5725
 1790SOL    HW216830   4.399   1.980  14.509  0.7503 -1.8591  0.9950
 1791SOL     OW16831   4.596   2.437   2.983  0.1073  0.2180 -0.1151
 1791SOL    HW116832   4.642   2.358   2.956 -1.6732  0.0279 -2.6347
 1791SOL    HW216833   4.581   2.488   2.903  2.0125 -1.3846 -1.4941
 1792SOL     OW16834   3.564   0.659   5.006  0.1369 -0.1216 -0.6211
 1792SOL    HW116835   3.629   0.613   4.953  2.3149  3.1971 -0.8717
 1792SOL    HW216836   3.482   0.623   4.972  0.1057  0.2783 -0.9718
 1793SOL     OW16837   4.181   1.812   8.671  0.1783  0.1100  0.4048
 1793SOL    HW116838   4.193   1.867   8.593  0.3467  1.4852  1.4050
 1793SOL    HW216839   4.109   1.756   8.644  1.9455 -1.6168 -0.7113
 1794SOL     OW16840   4.285   4.614   4.671  0.1489  0.1638  0.2872
 1794SOL    HW116841   4.331   4.556   4.611 -1.5452 -1.6962  0.7880
 1794SOL    HW216842   4.338   4.609   4.750  1.8255  1.1935 -0.7772
 1795SOL     OW16843   2.989   2.454   7.281 -0.5690 -0.3528  0.0915
 1795SOL    HW116844   3.020   2.366   7.259 -0.3853  0.5711 -3.2548
 1795SOL    HW216845   2.938   2.434   7.360 -0.7291 -2.9432 -0.6849
 1796SOL     OW16846   1.998   2.736   5.772 -0.0517  0.0549  0.1986
 1796SOL    HW116847   2.072   2.773   5.820 -1.6797  1.9708  1.2117
 1796SOL    HW216848   1.992   2.791   5.693 -1.2247  0.5114  0.6065
 1797SOL     OW16849   0.596   0.093   6.801  0.1868 -0.5303 -0.2505
 1797SOL    HW116850   0.507   0.112   6.829  0.3901  0.0231  0.0241
 1797SOL    HW216851   0.584   0.087   6.706 -0.2631 -0.8382 -0.1706
 1798SOL     OW16852   1.768   1.887   3.676  0.4334  0.4060  0.0125
 1798SOL    HW116853   1.780   1.797   3.647 -1.3590  0.7293 -1.6902
 1798SOL    HW216854   1.846   1.930   3.639 -0.2378  0.0393 -1.8212
 1799SOL     OW16855   3.045   3.136   4.980 -0.3314 -0.3662  0.4741
 1799SOL    HW116856   3.086   3.138   4.893 -1.4480 -1.9783 -0.0712
 1799SOL    HW216857   3.106   3.199   5.019  0.0994 -1.1706  1.1096
 1800SOL     OW16858   1.920   1.208   3.197  0.2405 -0.1054  0.1743
 1800SOL    HW116859   1.976   1.256   3.258 -0.0960 -0.2936  0.6361
 1800SOL    HW216860   1.971   1.217   3.117  0.6444 -1.8179  0.2377
 1801SOL     OW16861   1.169   2.791   4.831 -0.0498  0.1111 -0.2269
 1801SOL    HW116862   1.081   2.758   4.850  0.4842 -2.0463 -1.4908
 1801SOL    HW216863   1.196   2.765   4.743  1.8506 -1.1002  0.7188
 1802SOL     OW16864   4.421   2.214   2.775  0.2570  0.5093 -0.6108
 1802SOL    HW116865   4.472   2.276   2.724 -2.3736  2.4628 -0.8445
 1802SOL    HW216866   4.443   2.133   2.729 -1.2715 -1.2819  1.7813
 1803SOL     OW16867   3.608   2.138   5.008 -0.2578 -0.0455 -0.5710
 1803SOL    HW116868   3.640   2.206   5.068 -2.7873 -0.1770  0.9164
 1803SOL    HW216869   3.514   2.139   5.025 -0.5593 -2.0228 -2.1708
 1804SOL     OW16870   1.960   2.318   6.283  0.1074  0.6297  0.1988
 1804SOL    HW116871   1.867   2.320   6.307 -0.6683 -1.0303 -2.6660
 1804SOL    HW216872   1.967   2.409   6.256 -0.2743  0.4510 -0.5017
 1805SOL     OW16873   1.355   2.767  15.066 -0.3242 -0.0394  0.0765
 1805SOL    HW116874   1.371   2.806  15.152  3.1556 -0.0405 -0.6047
 1805SOL    HW216875   1.425   2.805  15.014  0.1254 -0.1120  0.6341
 1806SOL     OW16876   3.720   2.134   4.704  0.5696  0.2024 -0.0002
 1806SOL    HW116877   3.660   2.125   4.778  0.8054  0.1979  0.1898
 1806SOL    HW216878   3.803   2.159   4.744  0.9491 -0.6170 -0.2768
 1807SOL     OW16879   3.014   1.191   5.193 -0.3879 -0.3553 -0.1505
 1807SOL    HW116880   2.966   1.144   5.125 -1.6331  4.1637 -2.3866
 1807SOL    HW216881   3.030   1.118   5.253 -0.5010 -0.9116 -0.8038
 1808SOL     OW16882   4.594   3.434  13.534 -0.5030  0.7236 -0.4612
 1808SOL    HW116883   4.528   3.502  13.528 -0.2857  1.0165  0.5082
 1808SOL    HW216884   4.601   3.430  13.629 -1.0972  0.1545 -0.4430
 1809SOL     OW16885   0.061   3.930   2.026  0.0661 -0.1175 -0.0856
 1809SOL    HW116886   0.025   3.956   2.111 -1.8124  1.1889 -1.2602
 1809SOL    HW216887   0.154   3.939   2.043 -0.2682  3.4765 -0.2684
 1810SOL     OW16888   1.331   2.547   6.290  0.1122 -0.5490 -0.4249
 1810SOL    HW116889   1.406   2.570   6.344 -1.0223  2.4846 -0.1332
 1810SOL    HW216890   1.302   2.634   6.264  0.7479 -0.4016 -0.6452
 1811SOL     OW16891   2.726   1.841   8.383 -0.1105  0.0796  0.0195
 1811SOL    HW116892   2.792   1.851   8.451  0.7467 -1.5595 -0.5648
 1811SOL    HW216893   2.699   1.749   8.391  0.2946 -0.1623 -1.3239
 1812SOL     OW16894   2.825   3.389   0.099  0.7252 -0.0545  0.1437
 1812SOL    HW116895   2.876   3.456   0.144 -0.2560  0.1617  0.9426
 1812SOL    HW216896   2.766   3.364   0.170  1.5439 -1.2387  0.4029
 1813SOL     OW16897   3.608   2.419   3.784  0.0509 -0.0992  0.1024
 1813SOL    HW116898   3.543   2.393   3.719 -0.5922  1.9891 -0.0960
 1813SOL    HW216899   3.556   2.494   3.813  0.7268  0.0621  0.8944
 1814SOL     OW16900   4.401   1.216   3.129  0.1257 -0.3186  0.4471
 1814SOL    HW116901   4.333   1.225   3.195 -0.8424 -1.0337 -0.4473
 1814SOL    HW216902   4.350   1.161   3.069  0.1310 -0.0142  0.1650
 1815SOL     OW16903   0.548   4.579   3.226 -0.2154  0.0681 -0.4365
 1815SOL    HW116904   0.627   4.588   3.278 -0.1955 -1.2841 -0.2249
 1815SOL    HW216905   0.557   4.659   3.175 -4.7292  0.1652 -1.1197
 1816SOL     OW16906   0.693   3.857  17.235  0.1149 -0.1212  0.1167
 1816SOL    HW116907   0.744   3.834  17.157  1.6784  1.9144  0.5477
 1816SOL    HW216908   0.609   3.832  17.195  0.3625 -0.7999  0.0245
 1817SOL     OW16909   1.557   0.491   5.075  0.8689  0.4087  0.1411
 1817SOL    HW116910   1.536   0.457   4.988 -1.0591  0.6284  0.5203
 1817SOL    HW216911   1.482   0.459   5.124  2.7494 -3.9562  0.1518
 1818SOL     OW16912   0.850   0.934   7.056  0.2910 -1.1411 -0.0029
 1818SOL    HW116913   0.798   1.002   7.015  0.3880 -1.6902 -1.0403
 1818SOL    HW216914   0.885   0.975   7.135 -1.2786 -1.0628  0.6503
 1819SOL     OW16915   4.115   3.097   9.470  0.0437  0.2690  0.3681
 1819SOL    HW116916   4.036   3.138   9.505  0.5960  0.7193  1.0932
 1819SOL    HW216917   4.178   3.142   9.527 -1.4740  1.8987  0.7490
 1820SOL     OW16918   2.619   2.308   3.339 -0.0627 -0.2047 -0.1381
 1820SOL    HW116919   2.594   2.307   3.246  0.2833 -1.6288 -0.2169
 1820SOL    HW216920   2.680   2.234   3.338  0.3900  0.1871 -1.7183
 1821SOL     OW16921   1.323   0.211   4.522  0.7107 -0.7681 -0.2934
 1821SOL    HW116922   1.257   0.267   4.480  0.4620 -1.6817 -1.1011
 1821SOL    HW216923   1.272   0.209   4.603 -1.0212  1.1849 -1.3213
 1822SOL     OW16924   3.868   0.173   2.887  0.1257  0.0907 -0.4039
 1822SOL    HW116925   3.831   0.158   2.800 -4.0548  1.3244  1.1552
 1822SOL    HW216926   3.885   0.085   2.921 -1.6820 -0.4612 -0.9060
 1823SOL     OW16927   2.300   2.359   0.346  0.4515  0.0876 -0.1705
 1823SOL    HW116928   2.394   2.371   0.355  0.6940 -1.3283 -0.8401
 1823SOL    HW216929   2.272   2.451   0.343 -1.7523 -0.5668  0.5235
 1824SOL     OW16930   2.402   1.295   6.743  0.2245  0.4532 -0.0120
 1824SOL    HW116931   2.488   1.257   6.731 -1.0780 -2.2746 -0.5976
 1824SOL    HW216932   2.383   1.275   6.834  0.1878 -2.0759 -0.5860
 1825SOL     OW16933   2.465   2.565  14.846  0.0487 -0.2614  0.2721
 1825SOL    HW116934   2.454   2.653  14.881  1.4250  0.8148 -1.9691
 1825SOL    HW216935   2.393   2.568  14.783  1.9798 -1.5136 -2.0365
 1826SOL     OW16936   2.052   3.756   8.217 -0.3489  0.2492 -0.3204
 1826SOL    HW116937   2.015   3.738   8.304 -1.3566  2.1401 -0.3538
 1826SOL    HW216938   1.976   3.732   8.164  0.3848 -2.0283 -0.3330
 1827SOL     OW16939   0.211   4.370  14.263  0.6671  0.2488  0.6953
 1827SOL    HW116940   0.151   4.362  14.337 -0.8676  0.5442 -0.5171
 1827SOL    HW216941   0.290   4.367  14.316  2.0985  0.8802 -1.4017
 1828SOL     OW16942   1.956   4.150   9.676  0.0899  0.3904  0.3297
 1828SOL    HW116943   2.030   4.180   9.623  1.3859 -0.6322  1.5595
 1828SOL    HW216944   1.942   4.056   9.664  1.5429 -0.0064  1.7515
 1829SOL     OW16945   1.795   4.249   9.398 -0.2589 -0.1907  0.6160
 1829SOL    HW116946   1.768   4.341   9.391 -0.0675 -0.0495  1.6693
 1829SOL    HW216947   1.807   4.250   9.493  0.3888 -1.2055  0.5412
 1830SOL     OW16948   4.049   2.663   8.474  0.2660  0.7314 -0.4603
 1830SOL    HW116949   4.093   2.585   8.439 -0.2050  0.6474 -0.8627
 1830SOL    HW216950   4.120   2.707   8.521  0.7311  0.7859 -1.2088
 1831SOL     OW16951   1.171   3.333  13.779  0.7917  0.6661 -0.1584
 1831SOL    HW116952   1.247   3.275  13.775  0.6249  0.4281  0.1472
 1831SOL    HW216953   1.132   3.318  13.693  0.8745  0.2255 -0.1208
 1832SOL     OW16954   1.443   4.398  16.218  0.2254  0.6104  0.7227
 1832SOL    HW116955   1.451   4.303  16.208 -0.4586  0.2505  3.5281
 1832SOL    HW216956   1.480   4.434  16.137  1.0391  0.3899  0.9923
 1833SOL     OW16957   0.133   3.261   1.457  0.4869 -0.1636 -0.3674
 1833SOL    HW116958   0.148   3.353   1.433 -0.1612 -0.3523 -1.4973
 1833SOL    HW216959   0.195   3.239   1.526 -0.1847  0.6448  0.5122
 1834SOL     OW16960   1.610   4.485   7.336  0.2623 -0.1208 -0.2279
 1834SOL    HW116961   1.638   4.398   7.364  2.0356  0.7812  0.8130
 1834SOL    HW216962   1.570   4.471   7.250  2.4236 -1.9895 -0.9220
 1835SOL     OW16963   3.600   0.790   7.638  0.4211  0.0164 -0.1974
 1835SOL    HW116964   3.633   0.876   7.612  0.1662  0.2924  0.3930
 1835SOL    HW216965   3.664   0.762   7.704 -1.6376 -2.1681  0.8639
 1836SOL     OW16966   3.930   0.265   6.850 -0.0819 -0.3226 -0.1610
 1836SOL    HW116967   3.942   0.252   6.756  2.5979  2.6940 -0.2695
 1836SOL    HW216968   3.879   0.192   6.883  0.6167 -0.0561  1.5177
 1837SOL     OW16969   0.148   2.504   5.596  0.7050  0.4039 -0.2694
 1837SOL    HW116970   0.169   2.436   5.533 -1.0956  1.6161 -2.1780
 1837SOL    HW216971   0.064   2.471   5.627  2.4988 -2.6424  1.3186
 1838SOL     OW16972   0.705   0.506  13.432  0.0655  0.0222 -0.4497
 1838SOL    HW116973   0.772   0.481  13.495  2.0683  1.6440 -1.8911
 1838SOL    HW216974   0.666   0.579  13.480  1.4752 -0.9712  2.1903
 1839SOL     OW16975   3.174   3.731   5.129 -0.5921 -0.2958 -0.4080
 1839SOL    HW116976   3.241   3.726   5.060  1.8573  0.2987  1.9457
 1839SOL    HW216977   3.128   3.810   5.100 -0.0626  0.9018  2.0742
 1840SOL     OW16978   0.803   2.428   1.813 -0.2773 -0.5426 -0.0859
 1840SOL    HW116979   0.714   2.403   1.835 -0.1820 -0.1206  0.7749
 1840SOL    HW216980   0.861   2.392   1.880  0.2333  1.2726  0.4506
 1841SOL     OW16981   2.409   2.534  13.105 -0.3148  0.2193 -0.1648
 1841SOL    HW116982   2.402   2.510  13.013 -1.3434 -1.2039  0.2770
 1841SOL    HW216983   2.316   2.544  13.127  0.4674  2.4625  2.1637
 1842SOL     OW16984   4.374   4.263   3.654 -0.0412  0.0211 -0.2756
 1842SOL    HW116985   4.284   4.288   3.633 -0.5336 -1.6474 -0.1610
 1842SOL    HW216986   4.411   4.335   3.704  0.2270 -0.3915  0.1080
 1843SOL     OW16987   3.009   2.513  15.673 -0.4997  0.2430  0.4897
 1843SOL    HW116988   3.028   2.456  15.598  0.7515  3.4217 -1.5975
 1843SOL    HW216989   2.950   2.466  15.732  2.6618 -3.4481  0.7616
 1844SOL     OW16990   0.165   1.067   3.269 -0.2681  0.1658 -0.1473
 1844SOL    HW116991   0.086   1.067   3.216 -0.9679  0.6331  0.8918
 1844SOL    HW216992   0.218   1.135   3.227  0.8260  0.0752  1.0780
 1845SOL     OW16993   2.254   2.568   3.669 -0.0583 -0.0024 -0.1634
 1845SOL    HW116994   2.283   2.507   3.737  0.2962 -0.1224 -0.4260
 1845SOL    HW216995   2.278   2.515   3.593 -1.6778 -1.2518  0.1941
 1846SOL     OW16996   0.972   2.703   4.180 -0.0589 -0.1502  0.7212
 1846SOL    HW116997   1.004   2.636   4.120  2.5820  0.4628  1.4543
 1846SOL    HW216998   0.921   2.755   4.118 -1.3345 -2.8315 -0.4674
 1847SOL     OW16999   1.455   0.095  14.735  0.2922 -0.1537  0.6542
 1847SOL    HW117000   1.492   0.122  14.819 -0.5691  1.8743  0.4064
 1847SOL    HW217001   1.363   0.092  14.760 -0.1768  2.1288 -0.6780
 1848SOL     OW17002   1.150   0.217   4.717  0.3540 -0.2426 -0.0118
 1848SOL    HW117003   1.061   0.183   4.718  0.6550 -1.1256 -1.9008
 1848SOL    HW217004   1.157   0.230   4.811 -2.4753 -2.5550  0.5079
 1849SOL     OW17005   4.619   4.679   9.498  0.0700  0.0281 -0.2808
 1849SOL    HW117006   4.549   0.020   9.487  0.2302 -0.0373 -1.6739
 1849SOL    HW217007   4.564   4.635   9.564  0.5957 -2.8210 -1.7559
 1850SOL     OW17008   1.892   1.662   4.746 -0.4501  0.3326 -0.1809
 1850SOL    HW117009   1.874   1.739   4.693 -2.8259 -2.1871 -3.0291
 1850SOL    HW217010   1.833   1.601   4.701  0.6453  0.3105 -1.5810
 1851SOL     OW17011   2.723   2.255  15.155 -0.3414  0.1569  0.2746
 1851SOL    HW117012   2.759   2.313  15.222 -0.8871 -0.1139  0.7998
 1851SOL    HW217013   2.742   2.172  15.197 -0.6424 -1.5431 -2.9740
 1852SOL     OW17014   0.253   1.642   4.748  0.0728 -0.2964  0.7257
 1852SOL    HW117015   0.266   1.556   4.710  0.4827  0.2794 -0.4322
 1852SOL    HW217016   0.287   1.624   4.836  1.3423 -2.9670 -0.3148
 1853SOL     OW17017   2.305   2.514  11.560  0.1956 -0.1554  0.7740
 1853SOL    HW117018   2.398   2.536  11.568 -0.4060  2.1772  1.4174
 1853SOL    HW217019   2.267   2.602  11.568 -3.1044 -1.3521 -1.7884
 1854SOL     OW17020   0.830   1.200   3.605  0.1568 -0.7008 -0.3054
 1854SOL    HW117021   0.851   1.245   3.523 -2.7118 -0.1926 -0.7405
 1854SOL    HW217022   0.746   1.240   3.627  1.1098  1.2380 -0.1221
 1855SOL     OW17023   4.105   4.035   5.501  0.0070 -0.0927 -0.2225
 1855SOL    HW117024   4.066   4.119   5.480  1.4986  0.1772 -1.8937
 1855SOL    HW217025   4.193   4.064   5.526  0.0252 -0.9315  0.6970
 1856SOL     OW17026   2.871   4.222   8.593 -0.6661  0.4321  0.1045
 1856SOL    HW117027   2.885   4.155   8.527 -1.6082  0.3837 -0.0443
 1856SOL    HW217028   2.820   4.194   8.669  0.8214 -2.0225  0.1946
 1857SOL     OW17029   1.846   3.669   6.934  0.5037  0.0310  0.0870
 1857SOL    HW117030   1.786   3.730   6.976  2.0393  0.4981  1.5815
 1857SOL    HW217031   1.796   3.593   6.964  1.2391  0.4324  2.3372
 1858SOL     OW17032   1.854   0.652  14.730 -0.4327  0.2892 -0.1892
 1858SOL    HW117033   1.943   0.622  14.752 -1.2985  0.1136  3.0841
 1858SOL    HW217034   1.816   0.618  14.811  0.0610  0.1310 -0.0183
 1859SOL     OW17035   0.524   0.480   0.339 -0.0023  0.1658  0.5027
 1859SOL    HW117036   0.473   0.410   0.298  0.9108  0.2341 -0.7478
 1859SOL    HW217037   0.476   0.480   0.422  2.0629 -0.9242  1.6985
 1860SOL     OW17038   2.520   1.944   6.112 -0.1071 -0.1059  0.1309
 1860SOL    HW117039   2.502   1.892   6.189 -0.1928 -2.3563 -1.4027
 1860SOL    HW217040   2.601   1.907   6.078 -0.5460  1.0921 -2.2337
 1861SOL     OW17041   4.386   2.038  12.154  0.6296  0.0712 -0.5701
 1861SOL    HW117042   4.327   1.985  12.100 -1.0759  0.3853  0.9750
 1861SOL    HW217043   4.445   1.977  12.198  1.9766 -0.1084 -2.6358
 1862SOL     OW17044   0.788   1.818   7.985  0.5728 -0.1289  0.3413
 1862SOL    HW117045   0.850   1.859   7.925  1.2679 -2.3987 -0.4894
 1862SOL    HW217046   0.803   1.728   7.957 -2.0409 -1.3271  2.7948
 1863SOL     OW17047   3.033   4.352   6.845 -0.0771  0.4079 -0.2006
 1863SOL    HW117048   3.126   4.348   6.868  0.3315  2.1779 -1.5115
 1863SOL    HW217049   2.997   4.332   6.932 -1.5116  0.1704 -0.8559
 1864SOL     OW17050   3.814   2.081   1.229  0.2206 -0.2416  0.1956
 1864SOL    HW117051   3.864   2.046   1.303  0.2564 -0.1361  0.2210
 1864SOL    HW217052   3.872   2.150   1.198  1.2725 -0.9529  0.5886
 1865SOL     OW17053   2.195   0.712  10.225  0.2627 -0.7186  0.2451
 1865SOL    HW117054   2.155   0.703  10.312 -0.5664 -0.2976 -0.0905
 1865SOL    HW217055   2.284   0.704  10.258  1.0095  0.3395 -1.5115
 1866SOL     OW17056   3.814   2.767   2.090  0.6468  0.3337 -0.3584
 1866SOL    HW117057   3.729   2.759   2.133  1.6817 -3.3312  0.9624
 1866SOL    HW217058   3.802   2.744   1.998 -0.5258  2.6164 -0.7934
 1867SOL     OW17059   0.688   2.663  14.246 -0.0150  0.2410  1.0335
 1867SOL    HW117060   0.685   2.758  14.232 -2.0113 -0.1411 -1.2720
 1867SOL    HW217061   0.721   2.634  14.161  0.5097  0.7600  1.0605
 1868SOL     OW17062   0.710   2.005   5.180  0.6418  0.0471  0.1203
 1868SOL    HW117063   0.769   1.944   5.136  0.1201 -1.1618  1.1161
 1868SOL    HW217064   0.714   1.960   5.264 -0.7284 -0.4850 -0.0965
 1869SOL     OW17065   4.692   0.020   9.207 -0.5710  0.0125 -0.6205
 1869SOL    HW117066   0.026   4.670   9.182 -0.4409  0.1020 -0.5864
 1869SOL    HW217067   4.667   4.708   9.293 -1.1782  0.3053 -0.6781
 1870SOL     OW17068   0.563   0.867   2.884  0.1993 -0.1611  0.2305
 1870SOL    HW117069   0.526   0.953   2.902  2.0217  0.7328 -0.2596
 1870SOL    HW217070   0.649   0.904   2.864 -1.8396  3.2470 -2.2853
 1871SOL     OW17071   3.298   1.573   5.207 -0.1109 -0.0853  0.2074
 1871SOL    HW117072   3.337   1.514   5.142  0.8612  0.4942  0.2510
 1871SOL    HW217073   3.310   1.663   5.177  1.8746  0.3320  2.2449
 1872SOL     OW17074   0.187   1.240   5.803  0.4914 -0.3365  0.5383
 1872SOL    HW117075   0.206   1.149   5.824 -1.2492 -0.6288  0.8428
 1872SOL    HW217076   0.198   1.251   5.709  3.6637 -3.3305  0.5719
 1873SOL     OW17077   3.764   4.461   5.270 -0.2819 -0.3145 -0.3999
 1873SOL    HW117078   3.769   4.401   5.196 -2.1065 -0.8847 -0.0648
 1873SOL    HW217079   3.853   4.463   5.305 -0.3443  2.5099 -0.3986
 1874SOL     OW17080   4.041   2.355   6.395 -0.1727  0.5958  0.0629
 1874SOL    HW117081   3.975   2.374   6.329  0.2998  2.1896  0.0466
 1874SOL    HW217082   3.993   2.302   6.459 -0.1331  2.0909  1.3426
 1875SOL     OW17083   4.217   1.043  16.923  0.1838 -0.5236 -0.2262
 1875SOL    HW117084   4.312   1.046  16.910  0.1952 -0.2455 -0.0791
 1875SOL    HW217085   4.194   1.130  16.955  0.8371 -0.9842  1.5025
 1876SOL     OW17086   3.803   4.334   6.153 -0.3337 -0.6230 -0.4689
 1876SOL    HW117087   3.788   4.239   6.154 -0.6792 -0.5394  1.3328
 1876SOL    HW217088   3.714   4.360   6.130 -1.0646 -2.8885 -0.2422
 1877SOL     OW17089   2.825   3.363  14.574 -1.0608 -0.5804  0.3136
 1877SOL    HW117090   2.796   3.434  14.518 -2.6490 -1.3166  0.2088
 1877SOL    HW217091   2.869   3.418  14.639 -0.3516  0.5127 -1.1162
 1878SOL     OW17092   1.516   0.694  16.011  0.2671  0.7487 -0.6112
 1878SOL    HW117093   1.576   0.685  16.085  0.4114  0.8452 -0.7184
 1878SOL    HW217094   1.429   0.709  16.049 -0.7740 -2.6632 -1.5612
 1879SOL     OW17095   4.644   1.049   3.130  0.2216 -0.1049  0.0748
 1879SOL    HW117096   4.655   1.038   3.035  0.6913 -1.1436  0.2556
 1879SOL    HW217097   4.561   1.095   3.144 -0.4683 -1.8711  1.8120
 1880SOL     OW17098   1.954   0.924   2.536  0.0654 -0.3942 -0.2212
 1880SOL    HW117099   2.034   0.967   2.566  0.1195 -1.1556  0.7285
 1880SOL    HW217100   1.888   0.989   2.559 -1.7382 -1.8863 -1.1521
 1881SOL     OW17101   1.576   0.751   2.573  0.3096  0.5525  0.2860
 1881SOL    HW117102   1.578   0.840   2.538 -0.7405  1.1145  1.6843
 1881SOL    HW217103   1.485   0.725   2.560  0.9306 -2.0215  1.0282
 1882SOL     OW17104   2.090   4.332   6.545  0.1381  0.2073 -1.0035
 1882SOL    HW117105   2.140   4.377   6.477 -1.7135  1.8424 -1.2941
 1882SOL    HW217106   2.008   4.382   6.544 -0.0912 -0.1247  1.0787
 1883SOL     OW17107   4.133   1.365  15.218  0.0226  0.1875 -0.1091
 1883SOL    HW117108   4.186   1.418  15.278  0.3944  1.0001 -1.1757
 1883SOL    HW217109   4.047   1.393  15.249  0.3277  1.7259 -0.6484
 1884SOL     OW17110   2.116   2.234   5.741  0.0343 -0.7558 -0.0277
 1884SOL    HW117111   2.060   2.308   5.766  1.3132  0.8277 -1.7595
 1884SOL    HW217112   2.203   2.274   5.737 -0.5784  0.4739 -1.3251
 1885SOL     OW17113   3.496   0.569  10.342  0.0787 -0.3246 -0.1494
 1885SOL    HW117114   3.458   0.641  10.391  0.3550 -0.0545 -0.3309
 1885SOL    HW217115   3.537   0.522  10.416 -2.3383  1.2415  2.1722
 1886SOL     OW17116   0.569   4.131   4.638 -0.2872  0.0196 -0.1886
 1886SOL    HW117117   0.660   4.108   4.655  0.1360  1.7622 -0.1100
 1886SOL    HW217118   0.519   4.054   4.665 -1.8821  1.6779  1.6110
 1887SOL     OW17119   1.257   0.480   1.762  0.4734  0.4117  0.8021
 1887SOL    HW117120   1.179   0.456   1.812 -0.9104  2.7543 -0.2591
 1887SOL    HW217121   1.326   0.437   1.813 -0.6390 -0.8989  1.2033
 1888SOL     OW17122   3.677   4.310  14.477  0.0178  0.1847 -0.0267
 1888SOL    HW117123   3.679   4.343  14.387 -1.7850  0.6661  0.1055
 1888SOL    HW217124   3.583   4.302  14.490  0.0047  0.2143 -0.1020
 1889SOL     OW17125   3.514   2.000   3.199 -0.3481 -0.1410 -0.4591
 1889SOL    HW117126   3.459   2.022   3.274  0.7132 -1.2035  0.6260
 1889SOL    HW217127   3.494   1.909   3.176 -1.3258 -0.3631  1.2867
 1890SOL     OW17128   2.242   3.251  16.377  0.2902  0.4357  0.3982
 1890SOL    HW117129   2.265   3.179  16.318  1.3706  1.7603 -0.8188
 1890SOL    HW217130   2.166   3.213  16.420  0.1199  0.5324  0.1844
 1891SOL     OW17131   0.788   1.821   6.960  0.1006  0.2196 -0.2184
 1891SOL    HW117132   0.759   1.912   6.957 -0.8020 -0.0104  1.8186
 1891SOL    HW217133   0.751   1.792   7.043  2.8897 -1.0079  0.6072
 1892SOL     OW17134   3.739   0.563  11.821 -0.0280 -0.1138 -0.0376
 1892SOL    HW117135   3.818   0.611  11.796 -0.9841 -0.1323 -3.0772
 1892SOL    HW217136   3.669   0.627  11.817  1.9309  1.9498 -1.3647
 1893SOL     OW17137   0.701   4.503   6.484  0.5211 -0.1754  0.4789
 1893SOL    HW117138   0.617   4.549   6.484  1.1972  1.0767 -1.3516
 1893SOL    HW217139   0.721   4.509   6.578  2.9374  0.5111 -0.0842
 1894SOL     OW17140   2.086   1.527   5.540 -0.0663 -0.4027  0.6693
 1894SOL    HW117141   2.021   1.528   5.610 -0.8085  2.3699 -0.0494
 1894SOL    HW217142   2.162   1.569   5.581  1.3753 -0.8351 -1.5831
 1895SOL     OW17143   2.786   1.976   1.857  0.3814 -0.0516 -0.1976
 1895SOL    HW117144   2.744   1.891   1.858  0.5088 -0.0981  1.1942
 1895SOL    HW217145   2.879   1.954   1.861  0.5416  0.6329 -0.0937
 1896SOL     OW17146   1.759   3.749   4.810 -0.0165 -0.9508  0.2242
 1896SOL    HW117147   1.847   3.785   4.814  0.4470 -1.8848 -1.3389
 1896SOL    HW217148   1.769   3.685   4.881 -0.5651  0.4369  1.5556
 1897SOL     OW17149   2.160   4.038  11.711  0.2501  0.0044  0.4370
 1897SOL    HW117150   2.210   4.019  11.790 -0.0937  0.9664  0.8871
 1897SOL    HW217151   2.141   4.131  11.725 -0.3423 -0.0768  0.1623
 1898SOL     OW17152   0.737   0.279   3.255  0.3262  0.0080 -0.0909
 1898SOL    HW117153   0.792   0.308   3.328  3.4195 -2.1720 -1.5627
 1898SOL    HW217154   0.647   0.290   3.286 -0.1032 -1.5083 -0.8019
 1899SOL     OW17155   1.924   3.093  14.887 -0.1219 -0.7262  0.1151
 1899SOL    HW117156   1.930   3.010  14.840 -0.3991 -1.1051  0.7557
 1899SOL    HW217157   2.017   3.111  14.901 -0.5183  0.8679  0.7412
 1900SOL     OW17158   0.121   2.918   4.877  0.1910 -0.1694  0.2873
 1900SOL    HW117159   0.148   3.009   4.890 -0.6344  0.3130 -1.3964
 1900SOL    HW217160   0.039   2.934   4.830  1.2149 -0.3068 -1.5407
 1901SOL     OW17161   4.636   3.113   1.544 -0.0792 -0.3475  0.0926
 1901SOL    HW117162   4.721   3.156   1.533  0.1661 -1.1707 -1.1414
 1901SOL    HW217163   4.652   3.019   1.545  0.7881 -0.2096 -1.4729
 1902SOL     OW17164   4.395   0.243  17.280  0.1206  0.0428 -0.1700
 1902SOL    HW117165   4.364   0.298  17.353 -2.3784 -0.5890 -0.7374
 1902SOL    HW217166   4.462   0.298  17.240 -0.6037  1.1471  0.1242
 1903SOL     OW17167   4.680   0.329   0.957  0.2460 -0.3380 -0.2710
 1903SOL    HW117168   0.048   0.297   0.958  0.4123 -0.0159 -3.3023
 1903SOL    HW217169   4.644   0.248   0.992 -0.5017 -0.1304 -0.5646
 1904SOL     OW17170   2.583   3.819   9.435  0.3019  0.0195 -0.4703
 1904SOL    HW117171   2.567   3.781   9.348 -0.0908  1.5651 -1.0771
 1904SOL    HW217172   2.674   3.847   9.444  0.2762 -0.8662  2.3446
 1905SOL     OW17173   0.294   0.899   6.828  0.3837 -0.3094 -0.2403
 1905SOL    HW117174   0.384   0.932   6.823 -0.1489  1.3590  1.4222
 1905SOL    HW217175   0.304   0.806   6.809  0.8287 -0.0432 -1.2933
 1906SOL     OW17176   4.544   3.553   6.144 -0.0470 -0.2759 -0.3652
 1906SOL    HW117177   4.556   3.578   6.052  0.4041  0.1743 -0.1828
 1906SOL    HW217178   4.507   3.629   6.189 -1.0189 -2.3556  2.3160
 1907SOL     OW17179   4.325   3.271  14.783 -0.1344  0.0962 -0.1388
 1907SOL    HW117180   4.397   3.218  14.817  0.6530  2.6381  2.2239
 1907SOL    HW217181   4.362   3.280  14.695 -0.8421 -0.1687 -0.4575
 1908SOL     OW17182   0.708   0.189  16.788  0.4725 -0.2976  0.1484
 1908SOL    HW117183   0.725   0.095  16.797 -0.3595 -0.2910  1.7540
 1908SOL    HW217184   0.683   0.205  16.879  0.3623  0.1956  0.0330
 1909SOL     OW17185   0.538   3.372  11.309 -0.8509  0.2089  0.0733
 1909SOL    HW117186   0.478   3.372  11.235 -0.4380  0.4709 -0.2651
 1909SOL    HW217187   0.557   3.280  11.328  1.3340  0.2730 -1.8246
 1910SOL     OW17188   0.105   2.061   5.678 -0.2396  0.7151 -0.2388
 1910SOL    HW117189   0.191   2.085   5.713 -1.1696  0.7310  2.0628
 1910SOL    HW217190   0.056   2.081   5.758  0.5731  0.5419  0.3111
 1911SOL     OW17191   3.379   4.000   5.548 -0.0782  0.4377 -0.3470
 1911SOL    HW117192   3.348   4.060   5.617 -2.3487 -2.6414  1.2998
 1911SOL    HW217193   3.313   3.934   5.531 -0.4178  1.0801 -1.5218
 1912SOL     OW17194   0.424   4.353   4.060  0.3683 -0.0617  1.1313
 1912SOL    HW117195   0.475   4.381   3.984 -2.2549  1.8128  0.0794
 1912SOL    HW217196   0.370   4.431   4.071 -0.6064 -0.3864 -1.3147
 1913SOL     OW17197   4.578   1.399   3.205  0.6727 -0.2879  0.4028
 1913SOL    HW117198   4.513   1.331   3.189  0.2842  0.5368 -1.4887
 1913SOL    HW217199   4.588   1.433   3.116 -1.7981 -0.1013  0.1825
 1914SOL     OW17200   1.018   0.922   7.790  0.0401 -0.0419  0.3963
 1914SOL    HW117201   1.053   0.896   7.706 -1.2828 -1.6073  0.3216
 1914SOL    HW217202   1.031   0.839   7.837  0.2656 -0.4723 -0.4357
 1915SOL     OW17203   0.072   3.540   9.023  0.0734  0.4118 -0.4389
 1915SOL    HW117204   0.075   3.490   9.104  2.1835 -0.6366 -1.1599
 1915SOL    HW217205   0.015   3.492   8.964  0.8453  0.6967 -1.4342
 1916SOL     OW17206   1.491   1.408   1.022 -0.3544  0.2420  0.8797
 1916SOL    HW117207   1.557   1.456   0.972 -0.0041 -1.0989  0.0691
 1916SOL    HW217208   1.513   1.315   1.012 -3.5047 -0.2094 -1.7090
 1917SOL     OW17209   2.931   2.335   9.052  0.4255 -0.4184 -0.4020
 1917SOL    HW117210   3.008   2.367   9.004  0.8267  0.3609  0.7498
 1917SOL    HW217211   2.906   2.257   9.004  0.7476 -0.6889 -0.1337
 1918SOL     OW17212   0.279   4.415   2.710  0.0568 -0.2613  0.6398
 1918SOL    HW117213   0.262   4.436   2.618  1.5290  1.8334  0.8429
 1918SOL    HW217214   0.305   4.324   2.699 -1.5234 -0.5706 -0.5089
 1919SOL     OW17215   0.400   3.169   3.682 -0.3051 -0.5756 -0.0283
 1919SOL    HW117216   0.438   3.081   3.676 -0.8060 -0.9368  2.2953
 1919SOL    HW217217   0.309   3.151   3.657 -0.4206  0.7105 -0.5219
 1920SOL     OW17218   0.261   2.844  11.642 -0.0031 -0.5269 -0.3471
 1920SOL    HW117219   0.277   2.916  11.702  0.6374 -0.1582 -0.9643
 1920SOL    HW217220   0.198   2.798  11.698  0.6080  0.4759  1.1703
 1921SOL     OW17221   1.660   4.642   3.895  0.1010 -0.3295  0.9812
 1921SOL    HW117222   1.729   4.685   3.845  0.2317  0.8086  2.1396
 1921SOL    HW217223   1.665   4.553   3.861 -1.5815 -1.2195  3.0123
 1922SOL     OW17224   3.919   2.491   7.273 -0.2210 -0.0358  0.0283
 1922SOL    HW117225   3.924   2.434   7.349 -1.0848  1.4442  1.1990
 1922SOL    HW217226   3.834   2.535   7.276  0.8787  2.1574 -0.4803
 1923SOL     OW17227   3.244   2.641  14.114 -0.3332  0.2202  0.0486
 1923SOL    HW117228   3.327   2.680  14.139 -2.3916  4.7458 -0.2154
 1923SOL    HW217229   3.208   2.621  14.200 -1.7633  1.9310 -0.1611
 1924SOL     OW17230   4.190   2.011   8.432 -0.3678 -0.6254  0.4707
 1924SOL    HW117231   4.188   2.080   8.366  0.2791 -0.6380  0.4350
 1924SOL    HW217232   4.100   1.999   8.462 -0.2679 -0.8711  0.6735
 1925SOL     OW17233   1.197   1.419   6.419  0.3470 -0.4645  0.3930
 1925SOL    HW117234   1.139   1.390   6.349  0.6548  0.3777 -0.2103
 1925SOL    HW217235   1.142   1.423   6.497 -0.3500 -1.7478 -0.0435
 1926SOL     OW17236   1.159   1.693   1.511 -0.5359  0.3785  0.5255
 1926SOL    HW117237   1.251   1.673   1.524 -0.3681  0.9678  0.2408
 1926SOL    HW217238   1.160   1.697   1.415  2.4018  1.2620  0.5890
 1927SOL     OW17239   3.199   3.237   5.339  0.3207 -0.3682  0.0536
 1927SOL    HW117240   3.229   3.217   5.250 -2.4603  0.7578 -1.1369
 1927SOL    HW217241   3.268   3.286   5.384 -1.5890  0.8478  1.6106
 1928SOL     OW17242   2.523   3.464   1.888  0.0996  0.3476  0.2124
 1928SOL    HW117243   2.482   3.506   1.963 -4.4681 -1.0539 -1.5416
 1928SOL    HW217244   2.478   3.381   1.873  0.9974 -0.3834  1.5679
 1929SOL     OW17245   2.844   4.610   7.754 -0.4594  0.0734  0.8269
 1929SOL    HW117246   2.830   4.650   7.667  0.1461  2.1899  1.7042
 1929SOL    HW217247   2.752   4.599   7.777 -0.6890  0.6953  0.2242
 1930SOL     OW17248   3.944   3.514   3.140 -0.4704 -0.4332  0.1832
 1930SOL    HW117249   3.897   3.557   3.069  0.1998 -0.2902 -0.1761
 1930SOL    HW217250   4.033   3.544   3.121  0.7371 -3.3189  1.2996
 1931SOL     OW17251   4.598   1.800   5.667 -0.0402 -0.7036  0.3245
 1931SOL    HW117252   4.542   1.854   5.723  2.0491  0.4162  1.3240
 1931SOL    HW217253   4.560   1.715   5.690 -0.0872 -0.6269  0.5328
 1932SOL     OW17254   4.561   0.586   2.389  0.2934  0.7186  0.0563
 1932SOL    HW117255   4.568   0.587   2.293  0.1472  2.3123  0.0719
 1932SOL    HW217256   4.556   0.491   2.403  0.3748  1.0387  2.2171
 1933SOL     OW17257   1.209   2.381  12.218 -0.2684  0.8344 -0.0159
 1933SOL    HW117258   1.244   2.330  12.145 -0.4529  0.9731 -0.1982
 1933SOL    HW217259   1.219   2.319  12.291 -1.9101  1.1143  0.4433
 1934SOL     OW17260   1.864   2.902   4.643 -0.2840  0.5634  0.2850
 1934SOL    HW117261   1.776   2.938   4.659 -0.1200  0.9849  0.2325
 1934SOL    HW217262   1.887   2.946   4.561  1.6972  1.5800  1.3950
 1935SOL     OW17263   3.745   0.813   0.642  0.1327 -0.1238  0.0183
 1935SOL    HW117264   3.772   0.756   0.713  2.0320 -0.0556 -0.6500
 1935SOL    HW217265   3.747   0.760   0.561  2.0309  0.5524 -0.3798
 1936SOL     OW17266   4.222   0.872   4.731  0.2975 -0.3138 -0.3843
 1936SOL    HW117267   4.204   0.894   4.640 -0.2970  3.5424  0.7012
 1936SOL    HW217268   4.313   0.842   4.728 -0.1278 -1.6648 -0.1892
 1937SOL     OW17269   1.581   3.146  16.868  0.0563 -0.1710  0.0264
 1937SOL    HW117270   1.636   3.221  16.889 -1.3611  1.2693 -1.3912
 1937SOL    HW217271   1.611   3.082  16.932  0.2935 -1.5102 -1.4154
 1938SOL     OW17272   3.561   4.440   6.051  0.7173 -0.0056 -0.3113
 1938SOL    HW117273   3.479   4.391   6.050  0.9772 -0.4395 -0.7227
 1938SOL    HW217274   3.565   4.501   5.976  1.1406 -0.0159 -0.2937
 1939SOL     OW17275   4.609   1.951  15.847  0.1378 -0.5979 -0.3536
 1939SOL    HW117276   4.667   1.960  15.923  0.5362  0.4327 -0.7739
 1939SOL    HW217277   4.664   2.000  15.786  0.8406  1.3480  1.8163
 1940SOL     OW17278   1.666   3.536   8.422  0.1736  0.4369  0.1025
 1940SOL    HW117279   1.756   3.509   8.441  0.4148  0.5314 -0.9445
 1940SOL    HW217280   1.669   3.549   8.327  0.7245 -0.5753 -0.0197
 1941SOL     OW17281   2.591   3.977   9.801 -0.0835  0.2928  0.7057
 1941SOL    HW117282   2.559   3.902   9.751 -1.9648  0.8589  1.0858
 1941SOL    HW217283   2.596   3.936   9.887 -1.1422 -0.9101  0.1994
 1942SOL     OW17284   2.871   3.833  11.662 -0.8443 -0.4783 -0.1048
 1942SOL    HW117285   2.932   3.761  11.642 -1.0472 -0.6291 -0.1864
 1942SOL    HW217286   2.890   3.888  11.586 -0.9065  0.6834  0.7386
 1943SOL     OW17287   0.425   4.393  16.861  0.1328 -0.5666 -0.3255
 1943SOL    HW117288   0.388   4.362  16.943  0.7408  0.7692  0.4397
 1943SOL    HW217289   0.497   4.330  16.857  0.8073  0.2648 -1.2743
 1944SOL     OW17290   0.321   3.251  11.152 -0.6103 -0.0944  0.8007
 1944SOL    HW117291   0.242   3.299  11.129  0.1312  0.5504 -0.4031
 1944SOL    HW217292   0.286   3.174  11.198 -1.7552 -0.2841 -0.3898
 1945SOL     OW17293   1.360   3.179   7.799 -0.7151 -0.2678 -0.0931
 1945SOL    HW117294   1.344   3.191   7.893  0.4262 -0.7578  0.1738
 1945SOL    HW217295   1.454   3.157   7.802 -0.8910 -1.0902 -0.6959
 1946SOL     OW17296   4.144   2.672   7.882 -0.2477 -0.1236 -0.0768
 1946SOL    HW117297   4.107   2.586   7.903  2.0657 -0.7939  1.3644
 1946SOL    HW217298   4.159   2.709   7.969 -1.5631 -0.3219  0.2207
 1947SOL     OW17299   2.410   4.027  11.860 -0.0338  0.6455 -0.3417
 1947SOL    HW117300   2.376   4.006  11.947 -1.4742  0.0747 -1.0366
 1947SOL    HW217301   2.459   3.947  11.840 -0.5768  0.1667  0.2391
 1948SOL     OW17302   2.638   0.176   2.095  0.4252  0.4124  0.0474
 1948SOL    HW117303   2.700   0.193   2.024 -0.2486 -0.0494 -0.6441
 1948SOL    HW217304   2.653   0.257   2.145 -1.0502 -0.4585  1.9338
 1949SOL     OW17305   1.556   4.309   3.064  0.1868 -0.2457 -0.0502
 1949SOL    HW117306   1.509   4.270   2.991 -0.4034  1.5241 -0.6067
 1949SOL    HW217307   1.606   4.380   3.023  4.7893 -3.7669 -0.5762
 1950SOL     OW17308   1.079   0.969   1.636 -0.1223 -0.2005  0.0978
 1950SOL    HW117309   1.095   0.877   1.656  0.3894 -0.4454 -1.4373
 1950SOL    HW217310   1.012   0.988   1.702  1.0520  0.4025  1.1225
 1951SOL     OW17311   1.346   1.008   1.727  0.4169 -0.2872 -0.2714
 1951SOL    HW117312   1.270   1.038   1.678 -0.8499 -0.8769  1.3331
 1951SOL    HW217313   1.383   0.953   1.658  0.6446  0.4517 -0.7355
 1952SOL     OW17314   4.129   0.900   3.301  0.2606 -0.1661  0.5766
 1952SOL    HW117315   4.181   0.912   3.381 -0.7106 -0.5122  1.2523
 1952SOL    HW217316   4.049   0.948   3.322  0.4545  0.6212 -0.4953
 1953SOL     OW17317   4.358   1.628  14.848 -0.4351  0.5575  0.1281
 1953SOL    HW117318   4.304   1.556  14.881 -0.5426 -0.8473 -3.1061
 1953SOL    HW217319   4.370   1.609  14.755  1.0492  1.3485  0.1566
 1954SOL     OW17320   2.021   0.292   4.064 -0.2442  0.4242 -0.5332
 1954SOL    HW117321   1.965   0.346   4.009  1.1174  1.1029 -1.2403
 1954SOL    HW217322   1.957   0.279   4.134 -0.2878  0.7409 -0.5154
 1955SOL     OW17323   4.669   2.599   0.569 -0.0060  0.1739  0.1625
 1955SOL    HW117324   0.028   2.584   0.522  0.0721 -1.3302  0.7633
 1955SOL    HW217325   4.693   2.656   0.643 -0.1867  1.5152 -0.8142
 1956SOL     OW17326   3.191   3.856   0.530  0.0973  0.5889  0.7287
 1956SOL    HW117327   3.153   3.821   0.611  2.9241 -1.2108  1.2851
 1956SOL    HW217328   3.120   3.909   0.495 -0.8400  0.7741  2.9455
 1957SOL     OW17329   0.345   2.224   4.944 -0.3325 -0.2318 -0.1413
 1957SOL    HW117330   0.266   2.277   4.956 -0.2994 -0.3823  0.7753
 1957SOL    HW217331   0.335   2.164   5.019 -0.2565  0.0929  0.1299
 1958SOL     OW17332   0.703   1.532  17.317  0.1658 -0.4227 -0.7456
 1958SOL    HW117333   0.610   1.546  17.300 -0.2172 -0.0420  1.5410
 1958SOL    HW217334   0.737   1.545  17.229 -0.1571  0.9682 -0.6688
 1959SOL     OW17335   0.587   0.856   5.401  0.0237 -0.6696  0.1496
 1959SOL    HW117336   0.522   0.842   5.469  0.3697  2.0417  1.0277
 1959SOL    HW217337   0.555   0.791   5.338  0.1903  0.6577 -1.3230
 1960SOL     OW17338   4.469   4.157   7.899  0.4320  0.0466  0.0136
 1960SOL    HW117339   4.548   4.111   7.872  0.3994 -1.1667  1.9626
 1960SOL    HW217340   4.492   4.188   7.986 -1.3248  2.7045 -0.4988
 1961SOL     OW17341   1.318   0.181   8.684 -0.0875  0.0357  0.4581
 1961SOL    HW117342   1.349   0.256   8.633  1.4036  0.6264  2.2447
 1961SOL    HW217343   1.234   0.216   8.716 -0.8767  0.3540 -1.9323
 1962SOL     OW17344   3.673   4.193   4.474 -0.0674 -0.1274  0.3997
 1962SOL    HW117345   3.667   4.279   4.515 -1.2876 -0.5731  1.1207
 1962SOL    HW217346   3.720   4.229   4.398  0.3404 -3.1326 -0.7765
 1963SOL     OW17347   3.388   2.053   3.418 -0.1492 -0.3705  0.0741
 1963SOL    HW117348   3.312   2.112   3.424  2.7161  3.2876  0.2733
 1963SOL    HW217349   3.365   1.988   3.484 -1.0137 -2.1461 -1.9523
 1964SOL     OW17350   1.078   2.504   2.039  0.0408  0.6012 -0.4051
 1964SOL    HW117351   1.148   2.468   2.093 -0.5676 -1.4685 -0.9894
 1964SOL    HW217352   1.017   2.433   2.018 -0.5058  1.8106 -2.9376
 1965SOL     OW17353   2.081   2.555   5.065 -0.7647 -0.1417 -0.7453
 1965SOL    HW117354   1.992   2.545   5.031 -0.6175  0.6289 -1.3732
 1965SOL    HW217355   2.136   2.495   5.016 -1.7320 -1.0850 -0.6620
 1966SOL     OW17356   1.205   4.564   3.941  0.3271  0.3453  0.7268
 1966SOL    HW117357   1.152   4.535   4.015  0.6145  1.3444  1.3232
 1966SOL    HW217358   1.207   4.660   3.948 -0.7679  0.3713  0.6587
 1967SOL     OW17359   4.385   0.784   1.783  0.2662 -0.1432 -0.1395
 1967SOL    HW117360   4.354   0.729   1.854  0.8358 -0.8272 -0.4195
 1967SOL    HW217361   4.327   0.859   1.792  0.7485 -0.1027  2.6347
 1968SOL     OW17362   4.698   3.283   6.561 -0.1358 -0.0486  0.2294
 1968SOL    HW117363   4.653   3.255   6.641 -0.0501  1.0063  0.6450
 1968SOL    HW217364   4.639   3.343   6.515  1.4221  0.2737 -1.3248
 1969SOL     OW17365   1.441   3.428   6.087  0.0042  0.3448 -0.1170
 1969SOL    HW117366   1.495   3.483   6.030  0.0877  1.7103  1.2761
 1969SOL    HW217367   1.376   3.392   6.027 -0.8145  0.9371  0.4131
 1970SOL     OW17368   1.248   2.698   8.712 -0.2872 -0.3937  0.4311
 1970SOL    HW117369   1.240   2.661   8.624  0.3977 -0.3712  0.3610
 1970SOL    HW217370   1.272   2.624   8.768  0.4333 -0.9483 -0.6227
 1971SOL     OW17371   0.277   1.152   1.354 -0.5074  0.5581 -0.3978
 1971SOL    HW117372   0.184   1.165   1.336 -0.7990  0.6802  1.2269
 1971SOL    HW217373   0.312   1.169   1.266 -1.0473 -2.5665 -1.2294
 1972SOL     OW17374   3.536   4.645   9.109  0.1873  0.0870  0.3726
 1972SOL    HW117375   3.462   4.693   9.072 -1.1481 -1.7975  0.6429
 1972SOL    HW217376   3.506   4.589   9.180  0.9415 -0.6799  0.0804
 1973SOL     OW17377   3.385   0.128   1.022 -0.2677 -0.1003 -0.0087
 1973SOL    HW117378   3.430   0.212   1.032  2.0408 -1.2530 -0.7153
 1973SOL    HW217379   3.443   0.063   1.063 -0.3843 -0.3568 -0.2497
 1974SOL     OW17380   0.701   0.704   6.689  0.0213 -0.0449  0.0612
 1974SOL    HW117381   0.727   0.796   6.691 -0.0594  0.0098 -1.4412
 1974SOL    HW217382   0.674   0.695   6.781 -1.0245 -1.2730 -0.3813
 1975SOL     OW17383   3.181   0.519   4.653  0.0557 -0.3992 -0.2856
 1975SOL    HW117384   3.228   0.462   4.592 -1.2699 -0.2620 -1.4357
 1975SOL    HW217385   3.132   0.579   4.597 -2.1834 -0.8396  1.1762
 1976SOL     OW17386   0.427   3.751   4.335 -0.1655 -0.2560  0.1969
 1976SOL    HW117387   0.477   3.745   4.417 -0.1064 -1.0358  0.1046
 1976SOL    HW217388   0.493   3.782   4.273 -0.7471  1.4786  0.4382
 1977SOL     OW17389   3.321   1.243  12.320 -0.2913  0.7160 -0.7245
 1977SOL    HW117390   3.297   1.151  12.307  1.5604 -0.0797  1.4585
 1977SOL    HW217391   3.277   1.252  12.405 -1.1250 -0.2755 -1.0389
 1978SOL     OW17392   2.198   2.051   2.336  0.5253  0.5250 -0.0737
 1978SOL    HW117393   2.154   2.085   2.258 -1.7739 -1.0113  0.5464
 1978SOL    HW217394   2.127   2.012   2.387 -0.4736  2.0153 -0.3177
 1979SOL     OW17395   0.612   3.485   3.192 -0.0798  0.1867  0.6017
 1979SOL    HW117396   0.537   3.484   3.132  1.2751  1.7715 -1.1085
 1979SOL    HW217397   0.576   3.475   3.280 -1.9309  1.4988  0.0063
 1980SOL     OW17398   0.069   4.042  15.575 -0.1193 -0.0470  0.0942
 1980SOL    HW117399   4.715   3.999  15.537  1.3232 -0.9278 -1.8166
 1980SOL    HW217400   0.031   4.084  15.653 -1.5624  0.1076 -0.6834
 1981SOL     OW17401   4.047   0.469  14.682 -0.1193 -0.5657 -0.4195
 1981SOL    HW117402   4.047   0.496  14.774 -2.2287 -0.4514 -0.4567
 1981SOL    HW217403   4.051   0.374  14.683  0.1810 -0.5525 -0.5094
 1982SOL     OW17404   0.780   3.979   2.638  0.5985 -0.6199  0.2106
 1982SOL    HW117405   0.764   4.057   2.691  0.7772  0.0735 -0.7337
 1982SOL    HW217406   0.727   3.989   2.559 -0.1709 -1.7658  0.5908
 1983SOL     OW17407   0.921   3.419   4.301 -0.0069  0.0416  0.0454
 1983SOL    HW117408   0.926   3.465   4.218  0.0769 -0.5743 -0.2917
 1983SOL    HW217409   0.827   3.411   4.314 -0.1508  4.1888  1.5876
 1984SOL     OW17410   0.150   3.947   4.652  0.6268 -0.4351  0.1427
 1984SOL    HW117411   0.106   3.878   4.701 -0.1566  0.3717  0.5698
 1984SOL    HW217412   0.239   3.930   4.684 -0.4062 -0.4796  2.9816
 1985SOL     OW17413   1.348   4.127   5.657 -0.4710  0.6432 -0.0506
 1985SOL    HW117414   1.264   4.157   5.624  0.1709  1.2902 -1.1212
 1985SOL    HW217415   1.381   4.216   5.671  2.5759 -0.7421  1.5665
 1986SOL     OW17416   0.128   4.092  10.581 -0.0982  0.0817 -0.4132
 1986SOL    HW117417   0.199   4.058  10.635 -0.3961 -0.3522 -0.2948
 1986SOL    HW217418   0.170   4.170  10.544 -1.7895  0.9481 -0.5174
 1987SOL     OW17419   4.015   3.154  13.944  0.1352 -0.1094  0.5283
 1987SOL    HW117420   4.008   3.059  13.952 -1.8056 -0.0466 -0.5968
 1987SOL    HW217421   4.103   3.160  13.906  0.1443  3.7019  1.1725
 1988SOL     OW17422   0.115   1.202   4.501  0.1246  0.3839 -0.7545
 1988SOL    HW117423   0.176   1.272   4.480 -1.3782  1.9272 -0.0181
 1988SOL    HW217424   0.150   1.138   4.439  1.3566 -0.7364  1.1035
 1989SOL     OW17425   3.559   4.337  10.182  0.5829  0.7090 -0.0037
 1989SOL    HW117426   3.466   4.352  10.163  0.1448 -1.9426  0.0942
 1989SOL    HW217427   3.571   4.408  10.245 -0.7521  0.3992  0.6006
 1990SOL     OW17428   0.792   2.569   4.356 -0.3069  0.1550 -0.2716
 1990SOL    HW117429   0.752   2.639   4.305  0.1672 -0.0044 -0.8554
 1990SOL    HW217430   0.884   2.575   4.330 -0.2071  2.0552  0.5676
 1991SOL     OW17431   4.682   2.492  17.649  0.3319  0.6934 -0.1429
 1991SOL    HW117432   4.716   2.582  17.646  0.5528  0.5804 -0.9333
 1991SOL    HW217433   4.591   2.499  17.620 -0.1132  0.4056  1.1546
 1992SOL     OW17434   2.704   3.575   8.720  0.1559 -0.4218  0.6742
 1992SOL    HW117435   2.741   3.599   8.635  3.4744 -1.3384  1.8635
 1992SOL    HW217436   2.690   3.481   8.708  0.5098 -0.0285 -2.8395
 1993SOL     OW17437   1.017   0.250  11.600 -0.4659 -0.2399  0.5775
 1993SOL    HW117438   1.011   0.336  11.558 -2.9189 -0.6454  0.1109
 1993SOL    HW217439   1.016   0.191  11.524 -0.6239 -2.5594  2.3622
 1994SOL     OW17440   0.472   4.008   0.255 -0.4694  0.1613 -0.0411
 1994SOL    HW117441   0.444   4.022   0.346  1.7676  0.1045  0.6615
 1994SOL    HW217442   0.550   3.954   0.271 -0.3821 -0.0127 -1.1049
 1995SOL     OW17443   2.259   3.320  15.071 -0.2099 -0.6858 -0.0293
 1995SOL    HW117444   2.212   3.388  15.023 -0.1434 -1.2207 -0.8492
 1995SOL    HW217445   2.239   3.338  15.162  1.4096 -0.5493  0.3054
 1996SOL     OW17446   2.392   2.492  13.512 -0.4464 -0.5076  0.2174
 1996SOL    HW117447   2.342   2.498  13.593  2.3875  2.0719  1.7388
 1996SOL    HW217448   2.361   2.568  13.463 -0.0841  0.1631  1.0363
 1997SOL     OW17449   2.429   4.208   4.372  0.7134 -0.3955  0.1949
 1997SOL    HW117450   2.499   4.243   4.428  0.5122  1.4341 -0.7055
 1997SOL    HW217451   2.443   4.113   4.380 -0.1779 -0.5491 -0.0513
 1998SOL     OW17452   1.000   3.167   4.373 -0.3341  0.1224  0.0244
 1998SOL    HW117453   0.987   3.254   4.336  0.5554 -0.1294 -0.8799
 1998SOL    HW217454   0.956   3.182   4.457 -2.0049 -0.9810 -0.6529
 1999SOL     OW17455   3.988   2.262   5.384 -0.0928 -0.7696 -0.3793
 1999SOL    HW117456   3.907   2.255   5.335  0.9394 -1.3179 -2.0210
 1999SOL    HW217457   3.996   2.357   5.375  1.4957 -0.9864 -1.4470
 2000SOL     OW17458   3.790   4.559  16.385  0.3417 -0.1395  0.3735
 2000SOL    HW117459   3.727   4.511  16.439 -1.2063 -2.1516 -3.2256
 2000SOL    HW217460   3.840   4.620  16.439  0.5854  1.5816 -1.7810
 2001SOL     OW17461   3.167   1.893   8.286 -0.5108  0.2797 -0.6243
 2001SOL    HW117462   3.261   1.900   8.300 -0.1473 -1.8758 -2.0119
 2001SOL    HW217463   3.137   1.872   8.374 -1.3594  1.6991 -0.5656
 2002SOL     OW17464   3.295   1.260   5.670  0.5770 -0.2488 -0.1831
 2002SOL    HW117465   3.290   1.240   5.763  0.8927  0.9998  0.1053
 2002SOL    HW217466   3.286   1.173   5.632 -0.6013  0.4144 -1.4067
 2003SOL     OW17467   1.486   1.702   4.833  0.4886 -0.1294 -0.1726
 2003SOL    HW117468   1.528   1.788   4.828 -0.9513  0.6105  0.2290
 2003SOL    HW217469   1.397   1.730   4.813 -0.0019 -2.1121 -0.7310
 2004SOL     OW17470   1.833   0.161  11.380  0.5580 -0.0562 -0.5603
 2004SOL    HW117471   1.789   0.228  11.328 -1.7085 -0.3827  0.9259
 2004SOL    HW217472   1.774   0.087  11.364 -0.8859  1.3702 -1.7904
 2005SOL     OW17473   1.809   3.493  10.493 -1.1028  0.1059 -0.0617
 2005SOL    HW117474   1.737   3.435  10.466 -1.1387  0.1206  0.0001
 2005SOL    HW217475   1.824   3.463  10.583  2.7739 -0.4075 -0.8972
 2006SOL     OW17476   0.706   1.853   9.340  0.0113  0.0959 -0.0988
 2006SOL    HW117477   0.736   1.928   9.391 -0.5849  0.7332 -0.6777
 2006SOL    HW217478   0.783   1.797   9.343 -1.3697 -1.6783  2.2471
 2007SOL     OW17479   0.816   1.375   0.117  0.3171 -0.2216  0.0222
 2007SOL    HW117480   0.849   1.299   0.070  2.7266  1.0112 -0.2516
 2007SOL    HW217481   0.807   1.431   0.039 -0.8203  1.2461  1.2149
 2008SOL     OW17482   3.004   3.867  11.303 -0.1954  0.0039  0.1056
 2008SOL    HW117483   3.017   3.892  11.211  0.8632 -0.3144  0.1665
 2008SOL    HW217484   2.952   3.787  11.298 -3.4723  2.2647 -1.6869
 2009SOL     OW17485   4.459   1.337  11.275 -0.0437  0.2461 -0.0919
 2009SOL    HW117486   4.371   1.343  11.240 -1.3705  0.9589  3.4136
 2009SOL    HW217487   4.430   1.318  11.364 -1.6534 -0.2420 -0.7216
 2010SOL     OW17488   3.569   0.434   4.076  0.1518 -0.2189  0.1088
 2010SOL    HW117489   3.545   0.346   4.050  1.6007  0.0372 -2.1024
 2010SOL    HW217490   3.556   0.443   4.171  1.2068  0.7740  0.1617
 2011SOL     OW17491   0.521   4.277   8.916 -0.1939 -0.2844  0.4855
 2011SOL    HW117492   0.595   4.290   8.857 -0.7997  1.8713  0.1871
 2011SOL    HW217493   0.564   4.202   8.957  1.0397  0.9797  1.5194
 2012SOL     OW17494   2.550   1.919   8.176  0.4489 -0.0645 -0.3872
 2012SOL    HW117495   2.629   1.881   8.213 -0.4209 -1.2562  0.2536
 2012SOL    HW217496   2.539   1.997   8.231  2.9943  0.6083 -0.8435
 2013SOL     OW17497   3.016   3.374   4.706  0.4705  0.1378  0.1345
 2013SOL    HW117498   2.930   3.332   4.718  0.7143 -0.5819 -0.5883
 2013SOL    HW217499   3.020   3.383   4.610  1.1777  1.0546  0.2522
 2014SOL     OW17500   1.335   2.698  10.315  0.2980 -0.6028 -0.0005
 2014SOL    HW117501   1.429   2.715  10.325 -0.0508  2.1896 -1.4183
 2014SOL    HW217502   1.287   2.762  10.368 -1.0463 -1.4641 -0.1687
 2015SOL     OW17503   2.504   3.104   7.800 -0.7527 -0.1407  0.5086
 2015SOL    HW117504   2.528   3.013   7.814 -0.6686 -0.3799 -1.1124
 2015SOL    HW217505   2.565   3.158   7.850  0.8931 -0.6321 -0.9740
 2016SOL     OW17506   3.184   4.689   5.811  0.1414  0.3693 -0.2149
 2016SOL    HW117507   3.242   4.615   5.791  0.8909  0.6937  0.7549
 2016SOL    HW217508   3.236   0.045   5.798  2.7599 -0.9689  1.8658
 2017SOL     OW17509   3.889   4.668   6.432 -0.2971 -0.1071 -0.4810
 2017SOL    HW117510   3.970   4.665   6.482 -0.1431  1.4283 -0.6281
 2017SOL    HW217511   3.880   4.575   6.413  1.5553 -0.2274 -0.7654
 2018SOL     OW17512   1.621   0.579   2.094  0.3604 -0.0385  0.1059
 2018SOL    HW117513   1.565   0.643   2.049  1.2384  1.3117  0.9330
 2018SOL    HW217514   1.655   0.523   2.024 -1.4855 -0.0264 -0.8105
 2019SOL     OW17515   2.747   3.054  15.050 -0.7609 -0.3282 -0.1230
 2019SOL    HW117516   2.775   3.081  15.138 -0.2921 -1.1852 -0.0132
 2019SOL    HW217517   2.782   2.966  15.037 -0.4738 -0.4449  1.4000
 2020SOL     OW17518   0.959   1.651   4.833 -0.1454  0.2745 -0.2443
 2020SOL    HW117519   0.889   1.706   4.799  0.7753  1.7753  0.3224
 2020SOL    HW217520   1.018   1.665   4.758  0.6955 -3.6717 -0.3161
 2021SOL     OW17521   0.802   1.024   1.440 -0.4282 -0.1668  0.2455
 2021SOL    HW117522   0.829   0.942   1.481  0.2963  0.3369  0.7701
 2021SOL    HW217523   0.720   0.993   1.401  0.5356 -2.0160 -0.2870
 2022SOL     OW17524   4.595   2.726   2.044 -0.3388 -0.2793 -0.4572
 2022SOL    HW117525   4.594   2.679   1.961  0.3903  0.4603 -0.8882
 2022SOL    HW217526   4.516   2.780   2.039 -0.9930 -1.0558  1.5390
 2023SOL     OW17527   3.654   1.645   7.468  0.1485 -0.6535 -0.0073
 2023SOL    HW117528   3.608   1.726   7.491 -1.5494 -2.6406  3.5665
 2023SOL    HW217529   3.708   1.672   7.393 -1.9067 -0.1201 -1.3013
 2024SOL     OW17530   2.976   2.498   5.997  0.8530  0.2886  0.3424
 2024SOL    HW117531   2.981   2.567   5.930 -2.2061  1.8650  1.7684
 2024SOL    HW217532   2.969   2.556   6.072  1.8024  0.6505  0.1525
 2025SOL     OW17533   4.676   3.587  13.012 -0.2421  0.3999 -0.1969
 2025SOL    HW117534   4.640   3.660  13.063  0.3376 -0.6585  1.6984
 2025SOL    HW217535   0.045   3.606  12.991 -0.2419 -1.9662 -2.2747
 2026SOL     OW17536   1.239   2.853   4.207 -0.1007 -0.0263 -0.4397
 2026SOL    HW117537   1.214   2.944   4.218  0.1807  0.2451 -2.1070
 2026SOL    HW217538   1.152   2.813   4.209  0.1466 -0.5234  0.3500
 2027SOL     OW17539   4.425   2.981   9.628 -0.6873  0.2529 -0.6270
 2027SOL    HW117540   4.360   3.048   9.647  0.4285  1.7115 -1.8892
 2027SOL    HW217541   4.409   2.912   9.692 -1.1945  0.0924 -0.9311
 2028SOL     OW17542   1.047   2.064   5.295 -0.3819 -0.1594 -0.2475
 2028SOL    HW117543   1.025   2.127   5.364  0.0388 -1.9755  1.5688
 2028SOL    HW217544   1.020   1.979   5.331 -1.5031  0.1923 -0.2312
 2029SOL     OW17545   4.247   1.570   8.964  0.7288 -0.6476  0.1400
 2029SOL    HW117546   4.337   1.539   8.958  0.8924 -0.4326  1.4950
 2029SOL    HW217547   4.211   1.550   8.877 -0.2527 -2.4009  0.9407
 2030SOL     OW17548   2.731   0.682  17.397  0.7334 -0.2858  0.2894
 2030SOL    HW117549   2.658   0.742  17.407 -0.0274 -0.7114 -2.7826
 2030SOL    HW217550   2.754   0.656  17.486  0.6659  1.4842  0.8034
 2031SOL     OW17551   2.503   3.901   9.031  0.5717 -0.3916 -0.0938
 2031SOL    HW117552   2.589   3.916   9.069 -0.4148  0.0847  1.9463
 2031SOL    HW217553   2.474   3.831   9.089  0.4467 -0.5578 -0.3567
 2032SOL     OW17554   3.393   1.206   6.811  0.1099  0.2414  0.0764
 2032SOL    HW117555   3.429   1.281   6.858 -3.6086 -0.5154  4.0433
 2032SOL    HW217556   3.328   1.185   6.877 -0.7784 -0.2941 -0.9616
 2033SOL     OW17557   0.628   0.908   8.203  0.3622  0.9834 -0.2098
 2033SOL    HW117558   0.683   0.830   8.193 -1.6385 -0.5507  0.5387
 2033SOL    HW217559   0.612   0.899   8.297 -1.1013  0.7100 -0.4746
 2034SOL     OW17560   3.868   4.120   7.972  0.1349 -0.1340 -0.2407
 2034SOL    HW117561   3.885   4.027   7.983 -0.0476 -0.2021 -0.5394
 2034SOL    HW217562   3.775   4.109   7.993  0.3520  0.4738  1.0291
 2035SOL     OW17563   1.993   2.266  10.671 -0.2802  0.5863 -0.0773
 2035SOL    HW117564   1.898   2.277  10.678 -0.2862 -0.3130  1.3614
 2035SOL    HW217565   2.010   2.196  10.735 -2.0555  0.7725  0.6063
 2036SOL     OW17566   1.831   2.263   2.068 -0.5136  0.3200  0.1414
 2036SOL    HW117567   1.905   2.324   2.057 -0.5487  0.3593  0.1236
 2036SOL    HW217568   1.861   2.186   2.020 -0.6867 -0.3863  1.1692
 2037SOL     OW17569   1.401   0.127   1.721 -0.1930 -0.0933  0.3789
 2037SOL    HW117570   1.358   0.060   1.775  3.2086 -0.0827  3.1075
 2037SOL    HW217571   1.426   0.073   1.647 -0.2069  0.2760  0.1046
 2038SOL     OW17572   3.677   2.395  15.640 -0.5878 -0.0535 -0.3304
 2038SOL    HW117573   3.764   2.356  15.646 -1.2087 -1.5578 -1.0070
 2038SOL    HW217574   3.699   2.480  15.676  1.0854 -0.1835 -1.0556
 2039SOL     OW17575   4.639   0.183  17.650 -0.0007 -0.3817  0.1064
 2039SOL    HW117576   4.673   0.155  17.565  1.0232 -0.7813  0.6484
 2039SOL    HW217577   4.546   0.173  17.630 -0.0162 -0.7416  0.3462
 2040SOL     OW17578   3.032   2.379   3.326  0.0320  0.2012  0.3706
 2040SOL    HW117579   2.973   2.390   3.251  0.0669 -1.1364  0.1571
 2040SOL    HW217580   3.115   2.359   3.283 -0.6000 -0.5877 -0.4913
 2041SOL     OW17581   3.868   1.833   2.741  0.0935 -0.2877  0.2317
 2041SOL    HW117582   3.839   1.880   2.819 -1.2576  0.0905 -0.4878
 2041SOL    HW217583   3.826   1.754   2.773 -1.2857 -0.8218 -2.8824
 2042SOL     OW17584   2.101   1.185   4.134 -0.2696 -0.2522 -0.2224
 2042SOL    HW117585   2.115   1.199   4.041 -0.9426  0.8101 -0.1622
 2042SOL    HW217586   2.064   1.097   4.129  1.6172 -1.2099  2.3168
 2043SOL     OW17587   3.625   2.605   1.398  0.3242 -0.5148 -0.5068
 2043SOL    HW117588   3.531   2.620   1.385  0.2750 -1.9584 -1.8820
 2043SOL    HW217589   3.629   2.525   1.450  2.1752  0.0272  0.1862
 2044SOL     OW17590   1.321   4.110   7.670  0.3978 -0.0754  0.2875
 2044SOL    HW117591   1.369   4.186   7.637 -1.2254  1.3211  1.1650
 2044SOL    HW217592   1.253   4.119   7.603  2.2759 -2.3244 -1.9558
 2045SOL     OW17593   3.056   0.657   9.517 -0.1324 -0.0696 -0.3086
 2045SOL    HW117594   3.118   0.687   9.584 -1.6086  0.6859  0.7063
 2045SOL    HW217595   3.108   0.589   9.474  0.7705  0.3681  0.0918
 2046SOL     OW17596   0.731   4.180  11.475  0.2443  0.4930  0.6666
 2046SOL    HW117597   0.801   4.119  11.498 -1.4365 -1.2863  1.0823
 2046SOL    HW217598   0.645   4.142  11.494  0.1933  0.9070  1.2928
 2047SOL     OW17599   2.553   4.406   4.575 -0.1985 -0.2537 -0.2067
 2047SOL    HW117600   2.523   4.484   4.622  1.4133  0.4003 -0.2646
 2047SOL    HW217601   2.637   4.394   4.618 -0.2447 -1.5712 -0.4930
 2048SOL     OW17602   3.845   1.236   6.916  0.4932  0.0073  0.2783
 2048SOL    HW117603   3.782   1.307   6.899  1.0750  0.1502 -1.3325
 2048SOL    HW217604   3.909   1.294   6.957  0.1375 -0.6986  1.7951
 2049SOL     OW17605   2.730   2.131   0.163  0.1146 -0.0475 -0.1595
 2049SOL    HW117606   2.794   2.113   0.231  3.0106  1.2017 -2.5316
 2049SOL    HW217607   2.795   2.149   0.094 -1.9390  3.1599 -1.2128
 2050SOL     OW17608   2.778   2.237   9.380 -0.5004  0.0037 -0.2071
 2050SOL    HW117609   2.806   2.150   9.353 -1.5678 -0.2787 -0.4080
 2050SOL    HW217610   2.685   2.221   9.393 -0.4780 -0.2036 -0.3076
 2051SOL     OW17611   3.110   0.574   1.136 -0.7279  0.0574 -0.1436
 2051SOL    HW117612   3.160   0.652   1.162  1.5129 -0.2677 -3.5542
 2051SOL    HW217613   3.024   0.610   1.158 -1.0673  0.5623 -2.3653
 2052SOL     OW17614   3.622   4.345   8.198 -0.4414  0.5707  0.5955
 2052SOL    HW117615   3.584   4.340   8.286 -1.4517  1.7248  0.2326
 2052SOL    HW217616   3.664   4.431   8.204  1.0157 -0.1430  0.6127
 2053SOL     OW17617   3.448   3.296  13.067  0.1563  0.2961  0.1644
 2053SOL    HW117618   3.418   3.353  12.996 -2.0355 -0.6537  0.3393
 2053SOL    HW217619   3.395   3.332  13.138  0.2929  0.2869  0.2720
 2054SOL     OW17620   1.342   4.578   0.066  0.3530 -0.4419  0.4605
 2054SOL    HW117621   1.324   4.512  17.692  0.0532 -0.0868  0.1883
 2054SOL    HW217622   1.351   4.526   0.146  1.5047 -2.9948 -1.3313
 2055SOL     OW17623   0.556   2.352   2.860  0.2169 -0.1508 -0.6666
 2055SOL    HW117624   0.500   2.355   2.938  0.3009  1.5585 -0.6817
 2055SOL    HW217625   0.533   2.434   2.817 -0.6497 -0.7906 -1.4358
 2056SOL     OW17626   2.698   4.408  12.745  0.4676  0.3655 -0.7128
 2056SOL    HW117627   2.638   4.463  12.795 -0.6365 -3.3853  2.1158
 2056SOL    HW217628   2.771   4.406  12.807 -0.6701  0.5428  0.6498
 2057SOL     OW17629   3.776   3.491   5.439 -0.5656 -0.4626  0.2631
 2057SOL    HW117630   3.767   3.580   5.472  3.8528 -0.6168  1.9020
 2057SOL    HW217631   3.859   3.511   5.395 -0.8217 -0.3132 -0.1570
 2058SOL     OW17632   1.894   4.010   2.989  0.2184 -0.4003 -0.2739
 2058SOL    HW117633   1.860   3.938   2.937 -0.2153 -0.9534  0.7785
 2058SOL    HW217634   1.948   4.059   2.927 -2.5355 -0.5395 -2.7809
 2059SOL     OW17635   4.688   0.080   6.141  0.6093 -0.2118  0.2274
 2059SOL    HW117636   4.649   0.114   6.060 -0.6581 -3.5537 -0.5692
 2059SOL    HW217637   4.621   0.070   6.209 -0.0678 -1.2371 -0.5892
 2060SOL     OW17638   1.358   0.359  16.826 -0.2812 -0.5310  0.3044
 2060SOL    HW117639   1.359   0.267  16.851 -1.3339 -1.8058 -4.2268
 2060SOL    HW217640   1.292   0.355  16.756 -0.2215 -1.9783  0.3289
 2061SOL     OW17641   3.062   4.267   2.012  0.2544 -0.2923  0.3762
 2061SOL    HW117642   2.975   4.304   2.002 -0.1044 -0.9376  1.1055
 2061SOL    HW217643   3.095   4.325   2.080 -4.5259  1.6490  0.9733
 2062SOL     OW17644   2.815   3.158   3.415 -0.2966 -0.0256  0.0581
 2062SOL    HW117645   2.804   3.148   3.509 -1.4149  0.5047 -0.0249
 2062SOL    HW217646   2.814   3.252   3.395  2.8325 -0.3146 -1.6184
 2063SOL     OW17647   2.843   1.640   1.710 -0.0718  0.0074 -0.1267
 2063SOL    HW117648   2.831   1.664   1.802  0.2978  0.9622 -0.3307
 2063SOL    HW217649   2.852   1.732   1.684 -2.8425 -0.0809 -1.4224
 2064SOL     OW17650   0.566   0.580   8.663 -0.4935  0.2544 -0.5962
 2064SOL    HW117651   0.506   0.654   8.654  0.0452  0.6393 -0.9822
 2064SOL    HW217652   0.579   0.578   8.758  0.4225  3.2840 -0.6690
 2065SOL     OW17653   1.376   3.742   2.909  0.0366 -0.2219 -0.0115
 2065SOL    HW117654   1.453   3.773   2.957 -1.6352  4.2258 -0.2324
 2065SOL    HW217655   1.336   3.824   2.882  0.3161 -0.9934 -2.7322
 2066SOL     OW17656   0.634   3.827   8.216 -0.2081 -0.0260 -0.4193
 2066SOL    HW117657   0.710   3.814   8.272  0.5884 -1.2087 -1.7974
 2066SOL    HW217658   0.583   3.898   8.256  0.6218  0.1466  0.3482
 2067SOL     OW17659   3.433   2.265   0.872  0.0539 -0.5756  0.0489
 2067SOL    HW117660   3.406   2.316   0.949 -0.6615 -0.2327 -0.4268
 2067SOL    HW217661   3.361   2.202   0.861  0.0424 -0.8253  1.4762
 2068SOL     OW17662   3.970   2.606   4.355 -0.2274 -0.3495  0.6220
 2068SOL    HW117663   4.001   2.685   4.310 -1.7969  0.2935  0.6680
 2068SOL    HW217664   4.024   2.537   4.316  1.5009 -0.2571  2.8686
 2069SOL     OW17665   4.112   3.327   2.360 -0.0208  0.2059 -0.0597
 2069SOL    HW117666   4.167   3.315   2.282 -1.2257 -3.0875 -0.4180
 2069SOL    HW217667   4.076   3.416   2.356  0.0461  0.2653  0.6196
 2070SOL     OW17668   4.070   0.582   8.847  0.0440  0.9158  0.8342
 2070SOL    HW117669   3.987   0.537   8.862  0.6160 -0.1970  0.6279
 2070SOL    HW217670   4.118   0.508   8.809  1.0412  1.0330  1.8582
 2071SOL     OW17671   3.853   3.511   6.199 -0.2284 -0.6756  0.0846
 2071SOL    HW117672   3.825   3.488   6.288  0.4644 -3.3042 -0.3824
 2071SOL    HW217673   3.766   3.532   6.163 -0.0660 -2.8084 -1.5558
 2072SOL     OW17674   0.216   1.981  10.938 -0.0019  0.3039 -0.6053
 2072SOL    HW117675   0.169   1.901  10.914 -1.4840  0.7231  0.8128
 2072SOL    HW217676   0.302   1.952  10.909  0.0769  0.0258 -0.1030
 2073SOL     OW17677   0.946   4.107  16.281  0.0168  0.0861 -0.3006
 2073SOL    HW117678   0.870   4.120  16.224  0.0250  1.0246 -0.1080
 2073SOL    HW217679   0.983   4.195  16.288 -2.0798  1.0025 -0.9554
 2074SOL     OW17680   4.489   1.570   3.887 -0.1908 -0.1051 -0.1601
 2074SOL    HW117681   4.530   1.516   3.955 -2.6811  1.0165  2.2438
 2074SOL    HW217682   4.525   1.655   3.912 -0.1829 -0.2550  0.3482
 2075SOL     OW17683   4.018   3.226   0.534  0.1140 -0.3298  0.4546
 2075SOL    HW117684   4.075   3.237   0.457  1.4003  2.8285  1.8442
 2075SOL    HW217685   3.934   3.201   0.497 -0.5211 -0.0299  1.7098
 2076SOL     OW17686   3.806   2.454  10.634 -0.1640  0.4515  0.6379
 2076SOL    HW117687   3.828   2.458  10.541  0.9033 -2.0915  0.7762
 2076SOL    HW217688   3.735   2.390  10.643  0.7918 -0.4059  2.1104
 2077SOL     OW17689   1.081   4.090   7.465 -0.3834 -0.0760  0.5035
 2077SOL    HW117690   1.058   4.039   7.543 -1.3613  1.6592  1.3685
 2077SOL    HW217691   1.019   4.058   7.401  1.8380 -0.6931 -1.3329
 2078SOL     OW17692   3.780   0.910   0.050  0.6410 -0.4263  0.1279
 2078SOL    HW117693   3.742   0.971  17.679  2.1935 -2.4249 -2.6946
 2078SOL    HW217694   3.863   0.885   0.009  1.0733  0.3693  0.5181
 2079SOL     OW17695   3.421   3.190   6.691  0.2827 -0.3855 -0.1648
 2079SOL    HW117696   3.469   3.139   6.756 -0.4020  1.4391  1.7562
 2079SOL    HW217697   3.369   3.118   6.653 -0.9206  0.5786 -0.3473
 2080SOL     OW17698   0.210   0.574   0.985 -0.3407 -0.3297 -0.0666
 2080SOL    HW117699   0.160   0.494   1.003 -2.2018  1.1312  1.2989
 2080SOL    HW217700   0.287   0.556   1.039 -0.7065  0.7380  0.8171
 2081SOL     OW17701   0.846   3.227   6.515  0.6876  0.1296  0.3113
 2081SOL    HW117702   0.929   3.182   6.529 -0.1361 -1.4035  0.2175
 2081SOL    HW217703   0.839   3.291   6.586  2.3113  0.2933  0.3300
 2082SOL     OW17704   3.046   3.244   5.734  0.3337  0.3484 -0.0935
 2082SOL    HW117705   3.104   3.300   5.681  0.3446  1.8574  1.5097
 2082SOL    HW217706   2.974   3.307   5.742  1.4752  1.4513  1.5415
 2083SOL     OW17707   1.257   2.989   5.964  0.0242  0.3626  0.2832
 2083SOL    HW117708   1.346   2.960   5.945  0.6253  1.7852  0.8767
 2083SOL    HW217709   1.271   3.047   6.039 -0.4295  0.1505  0.5297
 2084SOL     OW17710   3.530   4.532  14.283  0.6558  0.2927  0.0701
 2084SOL    HW117711   3.435   4.542  14.279  0.5022 -1.0270  0.3530
 2084SOL    HW217712   3.534   4.452  14.229 -0.0364  0.8802 -0.8414
 2085SOL     OW17713   2.090   2.722   4.382  0.4316 -0.0666 -0.1791
 2085SOL    HW117714   2.158   2.789   4.377  2.0057 -1.6147  0.3939
 2085SOL    HW217715   2.095   2.684   4.470  1.7745 -2.2889 -1.2130
 2086SOL     OW17716   1.218   0.138   2.266 -0.5818 -0.0396  0.0831
 2086SOL    HW117717   1.261   0.169   2.346 -1.0085 -0.0316  0.3077
 2086SOL    HW217718   1.131   0.162   2.297 -0.4504  1.5115 -0.7851
 2087SOL     OW17719   2.338   2.934  10.740 -0.3016 -0.9528  0.4715
 2087SOL    HW117720   2.304   2.845  10.726 -0.6842 -0.3434 -2.6360
 2087SOL    HW217721   2.433   2.928  10.743 -0.2346 -0.1160  0.0514
 2088SOL     OW17722   0.044   2.959   3.368  0.6423 -0.5668 -0.1128
 2088SOL    HW117723   4.718   3.042   3.368 -0.6538 -1.3307 -0.2734
 2088SOL    HW217724   4.703   2.893   3.341 -1.0537  0.7982  0.5416
 2089SOL     OW17725   2.631   1.600   8.345  0.3492  0.1444  0.2542
 2089SOL    HW117726   2.584   1.527   8.385 -1.1433 -0.4532 -2.5504
 2089SOL    HW217727   2.594   1.590   8.257 -0.1305 -0.5833  0.5389
 2090SOL     OW17728   3.310   1.534   6.697  0.2038  0.2052  0.1073
 2090SOL    HW117729   3.309   1.526   6.792  2.0645 -3.3603 -0.1627
 2090SOL    HW217730   3.220   1.517   6.667  0.8825 -4.4376  0.6401
 2091SOL     OW17731   2.990   2.764   1.917 -0.6128  0.5597 -0.2000
 2091SOL    HW117732   2.935   2.718   1.853 -0.4730 -2.0013  1.5575
 2091SOL    HW217733   2.921   2.811   1.963 -0.6804  0.6145 -0.3585
 2092SOL     OW17734   0.237   0.960  12.170  0.5035 -0.0228 -0.1150
 2092SOL    HW117735   0.223   1.016  12.246 -0.6508 -0.9555  0.3510
 2092SOL    HW217736   0.174   0.992  12.106 -0.8525 -2.5714 -0.0233
 2093SOL     OW17737   3.900   2.810   2.680 -0.6040 -0.0862  0.4813
 2093SOL    HW117738   3.859   2.733   2.719 -0.0999 -0.8574 -0.5313
 2093SOL    HW217739   3.895   2.789   2.587  0.1599  0.5829  0.2900
 2094SOL     OW17740   1.029   1.024   8.497  0.7012  0.3514 -0.4109
 2094SOL    HW117741   0.943   0.991   8.523  1.1322  0.2381  0.8659
 2094SOL    HW217742   1.027   1.018   8.402  1.3038 -0.0495 -0.4035
 2095SOL     OW17743   3.762   3.491   3.325 -0.1108  0.0678 -0.6847
 2095SOL    HW117744   3.823   3.494   3.252  1.9819 -3.1655  0.9505
 2095SOL    HW217745   3.679   3.498   3.278 -0.1427  0.4089 -0.5803
 2096SOL     OW17746   3.456   1.618  13.703 -0.4373 -0.4467  0.5843
 2096SOL    HW117747   3.483   1.706  13.677 -0.5884 -0.9536 -1.2287
 2096SOL    HW217748   3.491   1.569  13.629  0.6243  3.6424 -1.6165
 2097SOL     OW17749   4.026   0.916   8.057 -0.5867  0.2243 -0.2636
 2097SOL    HW117750   4.017   1.001   8.100 -2.9539  0.1141 -0.5518
 2097SOL    HW217751   4.045   0.935   7.966  0.6954 -0.6888 -0.1766
 2098SOL     OW17752   3.760   3.602  12.447  0.3071  0.3535  0.3105
 2098SOL    HW117753   3.798   3.527  12.493 -0.6666  0.6076  1.5055
 2098SOL    HW217754   3.776   3.575  12.356 -1.4802  1.2889 -0.2761
 2099SOL     OW17755   4.486   1.472   7.055 -0.6703 -0.7741 -0.1194
 2099SOL    HW117756   4.547   1.460   6.982 -0.8509 -3.5726  0.1992
 2099SOL    HW217757   4.547   1.448   7.125  0.1634  2.4919  0.2781
 2100SOL     OW17758   4.627   0.078   0.648  0.6892  0.4346  0.5653
 2100SOL    HW117759   4.551   0.135   0.636  1.1930  0.7447 -1.0557
 2100SOL    HW217760   4.579   4.718   0.636  0.5066  0.5682  0.3789
 2101SOL     OW17761   1.269   2.089   7.967 -0.4331  0.0683  0.5786
 2101SOL    HW117762   1.177   2.084   7.995 -0.1976 -0.6835  1.2321
 2101SOL    HW217763   1.267   2.058   7.876  0.5526 -0.5794  0.7791
 2102SOL     OW17764   3.639   4.144  17.127  0.0841 -0.8331 -0.5929
 2102SOL    HW117765   3.673   4.188  17.205 -0.5394 -1.7051  0.1720
 2102SOL    HW217766   3.722   4.150  17.080  0.3171  1.2186  0.0773
 2103SOL     OW17767   4.717   4.169   6.039  0.4543  0.4225  0.4787
 2103SOL    HW117768   0.040   4.144   5.959 -2.4290 -0.9393 -0.7375
 2103SOL    HW217769   4.701   4.263   6.029  0.5921  0.2446 -1.3507
 2104SOL     OW17770   0.716   4.497   7.809  0.1700 -0.1728  0.0834
 2104SOL    HW117771   0.811   4.483   7.808 -0.0095 -1.4093 -0.3797
 2104SOL    HW217772   0.718   4.570   7.870 -1.1184 -1.5993  1.8248
 2105SOL     OW17773   2.955   0.760   7.051  0.0257  0.2908  0.1377
 2105SOL    HW117774   2.867   0.723   7.051  0.6458 -1.1513 -0.1578
 2105SOL    HW217775   2.955   0.811   7.132 -3.3953  1.3072 -0.4901
 2106SOL     OW17776   2.003   4.341   8.701  0.4568  0.3907 -0.0250
 2106SOL    HW117777   2.053   4.391   8.766  1.6063 -1.0073  0.1736
 2106SOL    HW217778   2.061   4.269   8.678 -0.7172 -0.6050  0.1017
 2107SOL     OW17779   1.696   3.601   8.151 -0.0583  0.0634  0.2932
 2107SOL    HW117780   1.664   3.517   8.120  2.4117 -1.5475  2.0376
 2107SOL    HW217781   1.736   3.635   8.071  0.1700  1.8921  1.1833
 2108SOL     OW17782   4.138   1.500   2.964 -0.0368 -0.7169 -0.5490
 2108SOL    HW117783   4.116   1.439   3.034 -1.3569  0.9727  0.5151
 2108SOL    HW217784   4.181   1.563   3.021  1.1622  0.9191 -3.2482
 2109SOL     OW17785   4.538   2.073  14.625 -0.7204 -0.1244 -0.5503
 2109SOL    HW117786   4.540   2.065  14.721  3.0574 -0.4586 -0.6806
 2109SOL    HW217787   4.629   2.063  14.599 -0.1997  0.6729  0.9646
 2110SOL     OW17788   4.431   4.042   8.336  0.2069  0.0272 -0.4876
 2110SOL    HW117789   4.343   4.077   8.350 -0.8815 -2.5110 -1.0418
 2110SOL    HW217790   4.484   4.084   8.404  0.3405 -0.3277 -0.3728
 2111SOL     OW17791   3.345   3.679   7.208  0.1043 -0.0465  0.2836
 2111SOL    HW117792   3.418   3.741   7.205  0.1691 -0.1005  0.8197
 2111SOL    HW217793   3.340   3.653   7.300  0.0255  0.6536  0.4766
 2112SOL     OW17794   2.482   2.836  14.937 -0.4500 -0.1232 -0.5307
 2112SOL    HW117795   2.431   2.871  15.010 -1.0451  0.0427 -1.0259
 2112SOL    HW217796   2.570   2.844  14.973 -0.5959 -1.6160  0.1620
 2113SOL     OW17797   2.623   2.772  10.503  0.2493 -0.0521 -0.0606
 2113SOL    HW117798   2.652   2.835  10.570  0.3487 -1.2134  0.9754
 2113SOL    HW217799   2.590   2.704  10.561  2.9113 -0.6230  0.8036
 2114SOL     OW17800   2.093   0.017  16.016  0.2877 -0.5104 -0.4545
 2114SOL    HW117801   2.174   4.710  16.058 -0.8237 -0.3064  1.8063
 2114SOL    HW217802   2.102   4.701  15.929  1.3531  0.1695 -0.6490
 2115SOL     OW17803   0.796   1.953  11.138 -0.3020  0.5421  0.0435
 2115SOL    HW117804   0.848   2.025  11.103  2.7881 -0.6269  2.2340
 2115SOL    HW217805   0.859   1.882  11.147 -1.3687 -0.1519  1.9358
 2116SOL     OW17806   3.453   0.591  16.304 -0.6812  0.2542 -0.2645
 2116SOL    HW117807   3.363   0.590  16.335 -0.6595 -1.3022 -0.2243
 2116SOL    HW217808   3.445   0.615  16.212 -0.1163 -2.9808 -1.1829
 2117SOL     OW17809   4.719   2.433   6.554 -0.0707  0.8527 -0.4495
 2117SOL    HW117810   4.692   2.341   6.545  0.0597  0.7075  0.6599
 2117SOL    HW217811   4.674   2.459   6.634 -0.4025 -2.4413  0.4652
 2118SOL     OW17812   1.996   4.542   4.634  0.3783 -0.1678  0.2453
 2118SOL    HW117813   2.083   4.532   4.594  1.6970 -1.1277  3.3206
 2118SOL    HW217814   2.008   4.628   4.673  0.7685 -0.6670  1.2241
 2119SOL     OW17815   4.428   3.709  15.361  0.0178  0.3327  0.1172
 2119SOL    HW117816   4.393   3.622  15.344  0.0977  0.3213  0.0129
 2119SOL    HW217817   4.519   3.680  15.367 -0.0721 -0.2085 -1.2526
 2120SOL     OW17818   3.499   1.765   7.151  0.1399 -0.9121 -0.6717
 2120SOL    HW117819   3.463   1.803   7.071 -0.7899  1.9672  1.0696
 2120SOL    HW217820   3.424   1.712   7.179 -0.0082 -1.3233 -1.8574
 2121SOL     OW17821   1.710   3.582   3.105 -0.2006 -0.4806  0.0028
 2121SOL    HW117822   1.646   3.517   3.135  0.2032 -1.8901 -2.1620
 2121SOL    HW217823   1.793   3.545   3.135  0.2682  0.4685 -0.1393
 2122SOL     OW17824   0.034   2.454   3.630 -0.1275  0.4983 -0.5649
 2122SOL    HW117825   0.067   2.438   3.542  1.4252  0.0670  0.0926
 2122SOL    HW217826   4.669   2.480   3.603 -0.3530  0.1603 -0.1537
 2123SOL     OW17827   0.246   0.420   4.304 -0.2388  0.3283  0.2218
 2123SOL    HW117828   0.157   0.444   4.330 -0.0560  0.3878  0.7919
 2123SOL    HW217829   0.290   0.429   4.388  0.2328 -0.3954  0.0477
 2124SOL     OW17830   1.661   3.991  10.708  0.3490  0.1546  0.5445
 2124SOL    HW117831   1.705   4.069  10.672  2.0972  0.2198  2.8546
 2124SOL    HW217832   1.731   3.926  10.709 -0.5511 -0.8334 -0.5464
 2125SOL     OW17833   1.317   1.332   9.890  0.0493 -0.4535  0.1524
 2125SOL    HW117834   1.247   1.308   9.950 -1.3885  0.2942 -1.2167
 2125SOL    HW217835   1.393   1.278   9.911 -0.6461 -1.5532 -0.1565
 2126SOL     OW17836   4.694   3.896   7.211  0.9286  0.2726  0.2964
 2126SOL    HW117837   4.633   3.873   7.282  1.2556  0.3974  0.6212
 2126SOL    HW217838   4.712   3.812   7.170 -0.0717 -0.3146  1.0520
 2127SOL     OW17839   0.491   1.794   3.310 -0.0668 -0.1561  0.5304
 2127SOL    HW117840   0.406   1.764   3.278 -0.3080 -1.2523  2.2091
 2127SOL    HW217841   0.510   1.873   3.260 -1.8056  0.1842  0.4186
 2128SOL     OW17842   1.641   4.519   0.196  0.0802  0.1774  0.5214
 2128SOL    HW117843   1.617   4.582   0.129 -0.4067 -1.1427 -0.5425
 2128SOL    HW217844   1.619   4.437   0.153 -2.5961  1.6183 -0.8322
 2129SOL     OW17845   4.091   1.111   5.715  0.3242  0.1418  0.0024
 2129SOL    HW117846   4.151   1.120   5.789 -2.0820  4.8611  1.3237
 2129SOL    HW217847   4.070   1.203   5.700  0.3473  0.1429 -0.0222
 2130SOL     OW17848   2.327   2.766   3.345  0.8061 -0.0057 -0.1152
 2130SOL    HW117849   2.303   2.685   3.300  1.4099  0.9853 -2.1992
 2130SOL    HW217850   2.402   2.738   3.397 -0.4058 -1.1161  1.0464
 2131SOL     OW17851   4.145   3.968  16.244 -0.0916 -0.4610 -0.0331
 2131SOL    HW117852   4.230   3.998  16.213  0.4300 -0.0567  1.8025
 2131SOL    HW217853   4.130   3.894  16.185  2.9415  0.0046 -1.3503
 2132SOL     OW17854   0.957   1.675   9.356  0.1560 -0.3928 -0.0892
 2132SOL    HW117855   0.939   1.624   9.435 -2.7591 -1.8870 -1.6989
 2132SOL    HW217856   1.047   1.651   9.338  0.4232 -0.0028  0.7281
 2133SOL     OW17857   2.194   0.839  17.561  0.6188  0.3183  0.4484
 2133SOL    HW117858   2.201   0.830  17.466 -0.5643  2.6474  0.1325
 2133SOL    HW217859   2.122   0.902  17.571  1.5171  1.3616  0.4032
 2134SOL     OW17860   2.957   3.308  13.049 -0.0317 -0.4680  0.1363
 2134SOL    HW117861   2.915   3.223  13.035  0.3094 -0.6806  0.4001
 2134SOL    HW217862   2.900   3.341  13.118 -0.3605 -0.3950 -0.1716
 2135SOL     OW17863   4.644   2.210   4.317 -0.0145 -0.2615 -0.0147
 2135SOL    HW117864   4.635   2.180   4.226 -1.0709 -1.0454  0.3353
 2135SOL    HW217865   4.717   2.155   4.343 -0.6227 -1.0176  0.1140
 2136SOL     OW17866   2.925   2.057  12.961  0.1233  0.3067 -0.2608
 2136SOL    HW117867   3.002   2.019  12.919 -0.2688 -2.2576  1.3218
 2136SOL    HW217868   2.871   1.978  12.969 -3.1221  2.4063 -1.5005
 2137SOL     OW17869   2.341   3.946   0.061  0.3830  0.2439 -0.0902
 2137SOL    HW117870   2.382   4.026   0.029  2.2588  0.7429  3.6215
 2137SOL    HW217871   2.315   3.982   0.145 -2.0868 -1.6544 -0.0100
 2138SOL     OW17872   4.129   2.989   4.774 -0.1817  0.6161  0.6606
 2138SOL    HW117873   4.087   3.075   4.776 -1.1216  0.1341  1.2411
 2138SOL    HW217874   4.060   2.926   4.753 -2.1817  2.7882  0.7614
 2139SOL     OW17875   4.673   4.193   3.359 -0.7286 -0.5098 -0.8160
 2139SOL    HW117876   0.029   4.149   3.390  0.2867  1.5627 -0.5154
 2139SOL    HW217877   4.691   4.286   3.371  1.2792 -0.9431 -0.4636
 2140SOL     OW17878   4.199   2.535   5.177 -0.1380 -0.3500  0.2424
 2140SOL    HW117879   4.244   2.456   5.147 -0.6941 -0.5343 -0.0999
 2140SOL    HW217880   4.242   2.571   5.255 -1.6272  1.1868  0.3587
 2141SOL     OW17881   1.669   0.665  16.236 -0.1925  0.6207  0.4091
 2141SOL    HW117882   1.694   0.691  16.324 -0.4250  0.9677  0.3758
 2141SOL    HW217883   1.752   0.639  16.198 -1.0085 -2.4624  0.7529
 2142SOL     OW17884   2.254   1.338   3.121  0.3902 -0.1939  0.4154
 2142SOL    HW117885   2.177   1.306   3.074 -0.2495  2.6652 -0.4922
 2142SOL    HW217886   2.212   1.365   3.203  1.4105 -1.5085  1.3755
 2143SOL     OW17887   1.630   3.806   7.039 -0.2177  0.0936  0.0166
 2143SOL    HW117888   1.626   3.869   7.111 -0.4752 -0.1624  0.2284
 2143SOL    HW217889   1.558   3.834   6.982  0.5200 -0.0157 -0.9607
 2144SOL     OW17890   0.949   4.579  14.426 -0.7929 -0.1590 -0.3347
 2144SOL    HW117891   0.948   4.671  14.452  0.2107 -0.3897  0.5332
 2144SOL    HW217892   1.037   4.571  14.390 -1.0742 -0.6154 -0.9229
 2145SOL     OW17893   1.321   4.292  11.179  0.3425  0.1633  0.3912
 2145SOL    HW117894   1.337   4.305  11.085 -1.3223 -0.3776  0.0185
 2145SOL    HW217895   1.249   4.229  11.167  1.1877 -0.1363 -3.2781
 2146SOL     OW17896   3.836   1.325   3.512 -0.7007  0.2287 -0.0788
 2146SOL    HW117897   3.772   1.280   3.457 -0.4312 -1.1487  0.7311
 2146SOL    HW217898   3.868   1.395   3.455  1.1950  0.3227  1.0752
 2147SOL     OW17899   2.880   4.484   8.632  0.4881  0.4949  0.3222
 2147SOL    HW117900   2.935   4.434   8.693 -1.4392  0.3289  1.9129
 2147SOL    HW217901   2.830   4.413   8.592  0.8824  0.7900 -0.6816
 2148SOL     OW17902   2.457   2.739   5.886 -0.4960  0.1690 -0.3871
 2148SOL    HW117903   2.479   2.799   5.814 -0.4296 -0.4315 -0.8635
 2148SOL    HW217904   2.472   2.805   5.954 -1.7719  0.1123 -0.0445
 2149SOL     OW17905   1.379   1.275   3.574 -0.4230  0.1936 -0.5185
 2149SOL    HW117906   1.396   1.199   3.629  0.8649  0.4467 -0.5705
 2149SOL    HW217907   1.462   1.284   3.527  1.1971 -0.9508  2.1521
 2150SOL     OW17908   1.600   3.414   7.994  0.0137  0.0528  0.2579
 2150SOL    HW117909   1.668   3.348   7.980  0.1050 -0.3517  2.7342
 2150SOL    HW217910   1.565   3.427   7.905  0.7140  0.6040  0.0655
 2151SOL     OW17911   4.448   1.602   3.345 -0.4701  0.2120  0.3347
 2151SOL    HW117912   4.501   1.541   3.293  0.0628 -1.1620  2.5057
 2151SOL    HW217913   4.449   1.549   3.425  1.2048  0.6569  0.6112
 2152SOL     OW17914   1.610   0.947  12.334 -1.0911 -0.2498  0.3180
 2152SOL    HW117915   1.516   0.957  12.350 -0.8531  0.2276  1.4199
 2152SOL    HW217916   1.621   0.962  12.240  0.0747  0.7679  0.6165
 2153SOL     OW17917   4.165   1.026   7.801  0.2287 -0.0494 -0.0117
 2153SOL    HW117918   4.243   1.026   7.745 -1.7033 -0.6399 -2.6869
 2153SOL    HW217919   4.164   1.116   7.832  0.6686 -0.3699  0.9358
 2154SOL     OW17920   4.025   3.933   8.951  0.2566 -0.0787  0.1571
 2154SOL    HW117921   3.985   3.901   8.870  0.5866 -3.0133  1.1566
 2154SOL    HW217922   3.960   3.913   9.018  0.0564  2.9589  0.8744
 2155SOL     OW17923   2.003   0.655   7.823  0.1191 -0.0910  0.0969
 2155SOL    HW117924   1.982   0.653   7.916 -2.5627 -2.1301 -0.5686
 2155SOL    HW217925   1.938   0.599   7.783 -0.6076  0.1437  0.9542
 2156SOL     OW17926   0.438   3.636  15.550 -0.2063  0.8258  0.1217
 2156SOL    HW117927   0.376   3.710  15.545 -0.5669  0.4180 -1.3841
 2156SOL    HW217928   0.411   3.597  15.633 -1.4407 -0.2355 -0.7865
 2157SOL     OW17929   3.757   4.345   3.151  0.2908  0.2815  0.0402
 2157SOL    HW117930   3.692   4.366   3.084 -2.7816 -1.1607  2.5734
 2157SOL    HW217931   3.770   4.250   3.148  1.8342  0.5774 -1.8897
 2158SOL     OW17932   2.436   0.566  10.885  0.6227  0.3816 -0.0890
 2158SOL    HW117933   2.488   0.622  10.942  1.3858  1.0540 -1.4209
 2158SOL    HW217934   2.404   0.637  10.828 -1.0219  0.5020  0.9902
 2159SOL     OW17935   2.208   0.185   3.769  0.8703 -0.0640  0.3526
 2159SOL    HW117936   2.293   0.192   3.725 -0.1856 -0.5821 -1.7765
 2159SOL    HW217937   2.186   0.277   3.781  3.1218  0.7014 -1.4453
 2160SOL     OW17938   2.814   0.295   4.472  0.3374  0.0007  0.1578
 2160SOL    HW117939   2.750   0.303   4.401 -1.1667  0.1996  1.5262
 2160SOL    HW217940   2.756   0.319   4.544  1.4158 -0.6842  1.2415
 2161SOL     OW17941   1.830   1.716   0.215  0.8026  0.3108  0.4326
 2161SOL    HW117942   1.805   1.686   0.302 -0.5723 -0.3016 -0.1738
 2161SOL    HW217943   1.925   1.728   0.221  0.6070  0.8878  2.4602
 2162SOL     OW17944   2.314   3.856   6.083 -0.1632 -0.3031 -0.0973
 2162SOL    HW117945   2.281   3.797   6.151  1.5879  0.0490  1.0711
 2162SOL    HW217946   2.250   3.840   6.013  1.2096 -0.0815 -1.3994
 2163SOL     OW17947   1.691   0.289   5.550  0.1607  0.1015  0.0681
 2163SOL    HW117948   1.746   0.277   5.473 -0.6500 -0.2387 -0.4436
 2163SOL    HW217949   1.732   0.227   5.610  0.5546  0.5709  0.2965
 2164SOL     OW17950   2.697   3.256   7.942  0.6781  0.3801  0.4270
 2164SOL    HW117951   2.748   3.177   7.962  1.8395  1.3296  1.2381
 2164SOL    HW217952   2.698   3.309   8.022 -0.9445  0.4133  0.4222
 2165SOL     OW17953   2.752   0.878   2.573 -0.1243 -0.2297  0.1183
 2165SOL    HW117954   2.674   0.933   2.581 -0.3151 -0.8115  2.1492
 2165SOL    HW217955   2.712   0.792   2.590 -0.4512 -0.0258  0.3856
 2166SOL     OW17956   1.881   3.623   3.815  0.2711 -0.0265 -0.1788
 2166SOL    HW117957   1.972   3.606   3.837  0.2655 -1.3383 -1.1852
 2166SOL    HW217958   1.859   3.543   3.768  2.0585  0.6707 -2.2420
 2167SOL     OW17959   3.509   2.113   9.357  0.3210 -0.1929 -0.1238
 2167SOL    HW117960   3.469   2.094   9.272  0.5962 -1.1197 -0.0561
 2167SOL    HW217961   3.551   2.026   9.363  1.8035  0.3352 -2.7075
 2168SOL     OW17962   4.369   3.755   7.611 -0.1155  0.1678 -0.1337
 2168SOL    HW117963   4.327   3.670   7.618  0.4174 -0.2566 -2.0270
 2168SOL    HW217964   4.399   3.770   7.701  0.6378  0.1563 -0.3793
 2169SOL     OW17965   1.084   1.481   9.009  0.3972  0.3436 -0.0156
 2169SOL    HW117966   1.141   1.502   9.083  0.6739 -1.9598  0.4192
 2169SOL    HW217967   1.135   1.408   8.975 -0.5501 -0.1832 -0.3250
 2170SOL     OW17968   4.716   3.471   1.795  0.8288 -0.1954  0.1174
 2170SOL    HW117969   0.021   3.531   1.725 -2.2845  0.1469 -0.8131
 2170SOL    HW217970   0.063   3.502   1.853 -0.2422 -0.5763  1.5849
 2171SOL     OW17971   4.303   3.011  10.248  0.3534 -0.3150  0.0417
 2171SOL    HW117972   4.328   3.069  10.319 -0.4958  0.0976  0.0064
 2171SOL    HW217973   4.212   3.036  10.231  0.5063  0.2395  0.0534
 2172SOL     OW17974   3.600   3.093   8.368 -0.0329  0.0922  1.0763
 2172SOL    HW117975   3.626   3.175   8.326 -0.3121 -0.0179  0.6773
 2172SOL    HW217976   3.655   3.081   8.445 -0.4794 -2.2818  1.0326
 2173SOL     OW17977   0.858   0.785  12.048  0.5127  0.0484  0.1102
 2173SOL    HW117978   0.773   0.742  12.044  0.7144 -0.2793 -0.6213
 2173SOL    HW217979   0.874   0.818  11.960  0.4369  1.6313  0.6844
 2174SOL     OW17980   2.063   1.770   1.452 -0.0597  0.4036 -0.1622
 2174SOL    HW117981   2.030   1.803   1.369 -1.3449 -0.3586  0.0485
 2174SOL    HW217982   2.057   1.674   1.449 -2.2052  0.5626 -0.5781
 2175SOL     OW17983   0.772   2.472  10.146 -0.3253  0.3395  0.2140
 2175SOL    HW117984   0.719   2.551  10.152 -0.1306  0.4878  0.0066
 2175SOL    HW217985   0.708   2.401  10.152  0.6965 -0.4968  1.3011
 2176SOL     OW17986   1.129   2.532   0.398 -0.3539 -1.0295  0.2346
 2176SOL    HW117987   1.094   2.578   0.322  1.4229 -0.1560 -0.0646
 2176SOL    HW217988   1.167   2.451   0.363 -3.8175 -2.9866  1.0313
 2177SOL     OW17989   0.765   3.706   3.290  0.0221  0.0703  0.2516
 2177SOL    HW117990   0.858   3.691   3.277  0.4129  1.9634  0.8250
 2177SOL    HW217991   0.734   3.628   3.244  2.3327 -0.9248  0.3902
 2178SOL     OW17992   1.190   2.682   4.577 -0.5023  0.5458  0.0351
 2178SOL    HW117993   1.186   2.587   4.572 -0.0595  0.4661  1.1763
 2178SOL    HW217994   1.262   2.704   4.519  1.3822 -1.0945  1.7513
 2179SOL     OW17995   3.003   1.976   3.825 -0.2786 -0.0024 -0.1729
 2179SOL    HW117996   2.965   1.900   3.869  1.8513 -1.2346 -0.4504
 2179SOL    HW217997   3.057   2.013   3.895  1.1305 -1.5926 -0.4003
 2180SOL     OW17998   3.583   3.966  16.694 -0.1653 -0.0577  0.3758
 2180SOL    HW117999   3.628   3.910  16.758 -1.4775 -0.3908  1.0160
 2180SOL    HW218000   3.514   3.913  16.654 -0.4223  0.9228 -0.4700
 2181SOL     OW18001   4.291   1.528   8.109  0.3219  0.1954 -0.5948
 2181SOL    HW118002   4.226   1.551   8.044  0.9041  2.7222 -0.3039
 2181SOL    HW218003   4.266   1.582   8.184 -0.4842 -3.8310  2.0477
 2182SOL     OW18004   2.902   0.196   5.303  0.0212  0.3457  0.1817
 2182SOL    HW118005   2.943   0.134   5.242  1.1657 -0.1147  1.4391
 2182SOL    HW218006   2.892   0.138   5.378  0.5225 -0.2159 -0.1902
 2183SOL     OW18007   1.362   0.943  17.422 -0.2364 -0.0931  0.6848
 2183SOL    HW118008   1.358   1.018  17.362  4.1174 -1.6479 -1.5793
 2183SOL    HW218009   1.452   0.914  17.408  0.1253  0.6291  1.5172
 2184SOL     OW18010   4.063   4.157  13.688  0.0969 -0.2186  0.3310
 2184SOL    HW118011   4.057   4.079  13.632  1.9149 -0.9070  1.0738
 2184SOL    HW218012   3.970   4.163  13.706 -0.1129 -1.7260 -0.1951
 2185SOL     OW18013   3.696   2.073   0.808 -0.1316  0.5431 -0.4950
 2185SOL    HW118014   3.606   2.050   0.781  0.1353 -0.2192 -0.7433
 2185SOL    HW218015   3.702   2.031   0.894 -0.8697  2.5361  0.5117
 2186SOL     OW18016   3.391   0.968  12.205  0.3279  0.0325  0.0330
 2186SOL    HW118017   3.334   0.898  12.172  1.2655  0.3950 -2.3481
 2186SOL    HW218018   3.411   0.940  12.294 -1.4159 -0.4307  0.2920
 2187SOL     OW18019   1.155   4.654  11.584  0.3017  0.7173 -0.7511
 2187SOL    HW118020   1.093   4.662  11.656  1.3669 -1.5608  0.4180
 2187SOL    HW218021   1.236   4.681  11.627 -0.2059 -1.3135  1.4346
 2188SOL     OW18022   2.978   4.347   5.500 -0.5181 -0.3861 -0.0721
 2188SOL    HW118023   2.886   4.363   5.482  0.2037  0.2277 -3.2989
 2188SOL    HW218024   3.021   4.423   5.459 -1.8945  1.0750  1.2288
 2189SOL     OW18025   0.639   4.694  16.027  0.0101 -0.2923 -0.0373
 2189SOL    HW118026   0.618   4.602  16.007 -1.6583  0.4563 -1.6873
 2189SOL    HW218027   0.657   4.691  16.122 -0.6515 -0.0075  0.0957
 2190SOL     OW18028   1.879   1.908   7.055  0.2212  0.2023 -0.1345
 2190SOL    HW118029   1.881   1.977   7.121 -0.6538 -0.7931  0.9257
 2190SOL    HW218030   1.867   1.959   6.975 -1.0925  0.6785  0.3643
 2191SOL     OW18031   0.992   0.733   7.324 -0.0311 -0.4899 -0.3541
 2191SOL    HW118032   1.082   0.715   7.298  0.2753  1.1244 -0.4370
 2191SOL    HW218033   0.979   0.804   7.262 -0.1441 -0.2027 -0.0036
 2192SOL     OW18034   3.700   0.085   2.659 -0.0527 -0.3276  0.3694
 2192SOL    HW118035   3.706   0.126   2.572 -0.2857  0.3433  0.6674
 2192SOL    HW218036   3.628   0.139   2.694 -1.3623 -1.4785 -0.5459
 2193SOL     OW18037   3.248   0.844   8.159  0.1223  0.4423  0.4673
 2193SOL    HW118038   3.307   0.919   8.155 -0.5596  0.7744 -3.3435
 2193SOL    HW218039   3.212   0.847   8.247  0.4332 -2.2933  0.6965
 2194SOL     OW18040   1.386   4.547  16.688 -0.0204  0.0109 -0.1816
 2194SOL    HW118041   1.433   4.550  16.605  1.1098  1.9499  0.5064
 2194SOL    HW218042   1.445   4.600  16.743  0.2249  0.8656 -1.2568
 2195SOL     OW18043   3.846   1.341   0.902 -0.3608 -0.4464 -0.2788
 2195SOL    HW118044   3.819   1.267   0.956 -1.6644 -0.0455 -0.3930
 2195SOL    HW218045   3.888   1.296   0.829 -3.0770 -0.4972 -1.7770
 2196SOL     OW18046   1.112   0.719   5.722 -0.2755 -0.7264  0.0808
 2196SOL    HW118047   1.034   0.697   5.773 -0.4693 -0.0596  0.0832
 2196SOL    HW218048   1.146   0.636   5.690  0.6038 -0.3512  0.0331
 2197SOL     OW18049   0.899   0.162  14.071 -0.0202  0.2370  0.5725
 2197SOL    HW118050   0.873   0.253  14.077  1.7181  0.6623  1.6988
 2197SOL    HW218051   0.985   0.160  14.114 -1.0880  2.8135  2.7837
 2198SOL     OW18052   4.161   0.941   6.781 -0.3044  0.1016  0.3823
 2198SOL    HW118053   4.200   0.979   6.860  1.4070 -0.8861 -0.0058
 2198SOL    HW218054   4.070   0.968   6.796 -0.0632  1.7764 -1.1061
 2199SOL     OW18055   4.035   3.537  11.222 -0.0864  0.1417 -0.1413
 2199SOL    HW118056   4.056   3.625  11.253 -0.6356 -0.2956  1.4272
 2199SOL    HW218057   4.123   3.513  11.192 -0.2071 -0.5334  0.0525
 2200SOL     OW18058   3.446   3.131  15.204  0.0122  0.3773 -0.2706
 2200SOL    HW118059   3.458   3.104  15.113 -0.1533 -0.9830  0.1109
 2200SOL    HW218060   3.494   3.063  15.252 -1.8132 -1.3634 -0.8850
 2201SOL     OW18061   0.860   1.724   3.864  0.3087  0.3855  0.0879
 2201SOL    HW118062   0.825   1.637   3.882  1.8683 -0.1908  0.3795
 2201SOL    HW218063   0.907   1.717   3.781  0.9998  0.1031  0.5011
 2202SOL     OW18064   0.435   1.013   3.666 -0.7132  0.3449 -0.0889
 2202SOL    HW118065   0.525   1.001   3.696 -0.9641 -0.2626  0.4239
 2202SOL    HW218066   0.390   1.036   3.747  1.2469  0.9363  0.8203
 2203SOL     OW18067   0.870   1.970  16.829  0.2078  0.3470 -0.3053
 2203SOL    HW118068   0.806   2.007  16.768 -0.4651  0.7115  0.6207
 2203SOL    HW218069   0.939   1.928  16.777  0.3552 -0.2162  0.3492
 2204SOL     OW18070   2.104   4.611   2.425  0.3059 -0.0737  0.0268
 2204SOL    HW118071   2.078   4.638   2.513  1.8809  0.3057  0.3763
 2204SOL    HW218072   2.197   4.591   2.429 -0.2237 -2.1433  2.0058
 2205SOL     OW18073   0.143   3.224   8.846 -0.3619 -0.2004  0.1150
 2205SOL    HW118074   0.138   3.269   8.762  2.3401  0.4863  0.3190
 2205SOL    HW218075   0.107   3.138   8.822 -3.7240  0.8283  1.5220
 2206SOL     OW18076   0.421   3.397   2.079 -0.5675  0.0848 -0.3099
 2206SOL    HW118077   0.515   3.385   2.089 -1.0333 -1.5963  2.0417
 2206SOL    HW218078   0.403   3.476   2.129  0.2123 -0.7711  1.3198
 2207SOL     OW18079   3.176   2.529   3.542 -0.5542 -0.2815 -0.2929
 2207SOL    HW118080   3.138   2.470   3.477 -0.6018 -0.0372 -0.4881
 2207SOL    HW218081   3.095   2.543   3.591 -0.4258  0.4695 -0.2910
 2208SOL     OW18082   1.302   1.901   2.541  0.0047  0.4195 -0.5383
 2208SOL    HW118083   1.286   1.995   2.552 -2.3488  0.0196 -0.3684
 2208SOL    HW218084   1.305   1.899   2.445  0.4572  0.2027 -0.5198
 2209SOL     OW18085   1.038   1.656   3.229 -0.1408 -0.1041 -0.1993
 2209SOL    HW118086   1.011   1.679   3.318  1.4903 -1.4641  0.6631
 2209SOL    HW218087   1.131   1.634   3.235 -0.1965  0.1030  1.4504
 2210SOL     OW18088   2.219   3.750   3.214  0.7887  0.0826 -0.3283
 2210SOL    HW118089   2.184   3.755   3.125 -0.2523  0.0975  0.0801
 2210SOL    HW218090   2.154   3.810   3.252  0.5832  0.7345 -1.6938
 2211SOL     OW18091   3.367   0.285   3.365  0.0039  0.0716  0.5952
 2211SOL    HW118092   3.437   0.237   3.409  1.9416 -0.0916 -2.6449
 2211SOL    HW218093   3.371   0.365   3.417 -1.0115  1.6739 -1.7484
 2212SOL     OW18094   4.374   3.931   5.628  0.3943 -0.4799 -0.2472
 2212SOL    HW118095   4.345   3.902   5.714  2.3766  3.1187  1.6226
 2212SOL    HW218096   4.406   4.021   5.631 -1.2028  0.1125 -0.5813
 2213SOL     OW18097   0.097   0.219   3.444 -0.0762  0.0828 -0.3845
 2213SOL    HW118098   0.015   0.268   3.445  0.4571  0.9406  1.5304
 2213SOL    HW218099   0.108   0.217   3.349 -1.0608  0.4467 -0.5066
 2214SOL     OW18100   1.749   0.259  14.780 -0.9709 -0.0342  0.3333
 2214SOL    HW118101   1.811   0.194  14.813 -0.1226  0.9989  0.7742
 2214SOL    HW218102   1.728   0.214  14.698  0.5564  0.0073 -0.0767
 2215SOL     OW18103   0.914   2.254   7.886  0.3615  0.2227 -0.9160
 2215SOL    HW118104   0.835   2.213   7.850  1.0606 -1.1641 -0.8530
 2215SOL    HW218105   0.893   2.341   7.852  0.1702 -0.1985 -1.8814
 2216SOL     OW18106   3.926   4.211   4.798  0.2878  0.1205 -0.3929
 2216SOL    HW118107   3.875   4.145   4.750  0.2221  0.5124 -0.8736
 2216SOL    HW218108   3.951   4.274   4.730 -0.5837 -0.3359 -1.1430
 2217SOL     OW18109   2.896   1.792   4.386  0.2509 -0.3190  0.4266
 2217SOL    HW118110   2.847   1.713   4.362 -0.6564 -0.0965  1.5683
 2217SOL    HW218111   2.873   1.811   4.477 -2.7514  1.1955 -0.6354
 2218SOL     OW18112   3.967   2.380   7.036 -0.5264  0.1541  0.1501
 2218SOL    HW118113   3.924   2.441   7.095  1.1838 -1.6833  3.2664
 2218SOL    HW218114   4.053   2.376   7.078  0.5282 -2.7919 -2.2780
 2219SOL     OW18115   0.264   0.972  11.120 -0.5198 -0.2691 -0.3460
 2219SOL    HW118116   0.209   1.044  11.152  0.0444  0.8170 -1.8671
 2219SOL    HW218117   0.187   0.921  11.094 -0.8403 -0.3851  0.8158
 2220SOL     OW18118   0.590   3.517   8.329  0.6800 -0.6386  0.4922
 2220SOL    HW118119   0.545   3.598   8.351  0.0492 -0.8640  0.0484
 2220SOL    HW218120   0.675   3.557   8.309 -0.3032  0.7362 -0.9140
 2221SOL     OW18121   3.288   2.987   6.571  0.1026  0.1404 -0.5110
 2221SOL    HW118122   3.264   2.948   6.487  0.2303  1.2364 -1.0605
 2221SOL    HW218123   3.215   2.987   6.633  0.9501 -0.6980  0.4697
 2222SOL     OW18124   3.752   2.110  11.083 -0.3140 -0.1893  0.0177
 2222SOL    HW118125   3.800   2.181  11.125  1.7144  0.1042 -2.7686
 2222SOL    HW218126   3.667   2.145  11.056 -0.7855 -0.9086  0.5889
 2223SOL     OW18127   1.143   3.483  11.498 -0.4849 -0.3759 -0.3357
 2223SOL    HW118128   1.142   3.407  11.440  0.9969 -1.0541  0.5213
 2223SOL    HW218129   1.226   3.479  11.545 -0.1337  0.5212 -0.8648
 2224SOL     OW18130   0.649   4.366   4.258  0.9149 -0.2536 -0.3928
 2224SOL    HW118131   0.720   4.311   4.225  1.3592  0.7373 -1.0689
 2224SOL    HW218132   0.586   4.365   4.186 -0.2176  0.8401  0.5657
 2225SOL     OW18133   0.546   0.081  10.153  0.1218  0.0286  0.2139
 2225SOL    HW118134   0.570   0.010  10.214 -0.6775 -0.9873 -0.6523
 2225SOL    HW218135   0.469   0.122  10.192  1.0430  2.1182 -0.1888
 2226SOL     OW18136   1.464   0.680   4.535  0.5883 -0.3343 -0.1954
 2226SOL    HW118137   1.440   0.613   4.471 -1.5016  0.6564 -0.4340
 2226SOL    HW218138   1.456   0.633   4.618  1.6789 -0.4069 -0.1342
 2227SOL     OW18139   4.030   3.413   0.751 -0.8605 -0.1695 -0.1224
 2227SOL    HW118140   4.000   3.344   0.811  0.3577 -0.7120 -0.1388
 2227SOL    HW218141   4.034   3.362   0.670  0.5004  1.2808 -0.9601
 2228SOL     OW18142   1.776   2.364   4.564  0.2119 -0.7048 -0.1640
 2228SOL    HW118143   1.869   2.354   4.584  0.0413  0.4424  1.1451
 2228SOL    HW218144   1.773   2.457   4.545  2.6114 -1.0380 -2.2379
 2229SOL     OW18145   2.724   3.653   5.550 -0.2204  0.4922  0.4745
 2229SOL    HW118146   2.726   3.701   5.467 -0.2658  1.1444  0.8557
 2229SOL    HW218147   2.679   3.717   5.605  0.0881  0.3045  0.9498
 2230SOL     OW18148   0.333   3.174  15.742 -0.1617 -0.0515 -0.0101
 2230SOL    HW118149   0.379   3.103  15.787 -2.3675 -0.3159  1.7882
 2230SOL    HW218150   0.253   3.126  15.721 -0.6717  1.4424 -1.5090
 2231SOL     OW18151   0.251   3.905   2.709 -0.0489  0.5452  0.3355
 2231SOL    HW118152   0.187   3.950   2.653  2.2362  2.8574 -0.3671
 2231SOL    HW218153   0.208   3.819   2.713  0.4958  0.2375 -0.5406
 2232SOL     OW18154   3.768   2.602   1.853 -0.5255  0.2963  0.3769
 2232SOL    HW118155   3.747   2.509   1.852  2.8331 -0.4869  1.1635
 2232SOL    HW218156   3.683   2.646   1.860  0.4683  2.4411 -1.1844
 2233SOL     OW18157   0.415   1.368   2.606 -0.1806 -0.6353 -0.2224
 2233SOL    HW118158   0.484   1.313   2.568 -0.0694 -0.8598  0.3072
 2233SOL    HW218159   0.464   1.441   2.645  0.1900 -0.0602 -1.7534
 2234SOL     OW18160   1.296   0.314  14.500 -0.4327  0.2685  0.4217
 2234SOL    HW118161   1.367   0.353  14.450  0.5960 -0.3153  1.4392
 2234SOL    HW218162   1.335   0.236  14.539 -1.3629 -0.9705 -1.1668
 2235SOL     OW18163   3.362   3.678   6.356 -0.0031  0.1283 -0.1267
 2235SOL    HW118164   3.272   3.697   6.332 -0.1897  0.2939  0.7174
 2235SOL    HW218165   3.386   3.758   6.403  0.1763 -0.6310  1.0585
 2236SOL     OW18166   3.139   1.235   2.344 -0.1050 -0.2325  0.1684
 2236SOL    HW118167   3.202   1.306   2.359  0.3588 -0.5180 -0.4592
 2236SOL    HW218168   3.139   1.241   2.249  3.0530  0.6872  0.2265
 2237SOL     OW18169   3.890   2.598   4.635 -0.1272  0.1254  0.9047
 2237SOL    HW118170   3.895   2.656   4.559  0.5984 -0.7784  0.2645
 2237SOL    HW218171   3.937   2.526   4.593  0.8464  0.2009  1.8563
 2238SOL     OW18172   3.111   0.899  16.630 -0.6469 -0.2899  0.3105
 2238SOL    HW118173   3.176   0.877  16.697  0.8399  1.3674 -0.5905
 2238SOL    HW218174   3.048   0.949  16.683 -0.2191  1.1010 -0.5015
 2239SOL     OW18175   2.701   1.622   4.743  0.0564 -0.0662  0.2916
 2239SOL    HW118176   2.685   1.642   4.835 -0.6794 -0.8859  0.3332
 2239SOL    HW218177   2.730   1.706   4.707 -0.5197  0.0863  0.1798
 2240SOL     OW18178   4.048   3.994  10.470  0.0829 -0.3217  0.1670
 2240SOL    HW118179   4.131   3.990  10.422 -0.1225  0.9902 -0.2945
 2240SOL    HW218180   3.986   3.944  10.416  0.1049 -1.8687  1.5976
 2241SOL     OW18181   3.500   3.479   6.018  0.2207  1.0070  0.6960
 2241SOL    HW118182   3.511   3.547   5.952  0.2510  1.6204  1.3361
 2241SOL    HW218183   3.416   3.440   5.993  1.6019  0.4010 -2.9337
 2242SOL     OW18184   2.474   3.397  14.432 -0.0979 -0.3180  0.3924
 2242SOL    HW118185   2.563   3.364  14.420  0.7704  1.8485  0.7370
 2242SOL    HW218186   2.469   3.395  14.528 -1.1967  0.1944  0.3403
 2243SOL     OW18187   3.930   2.020   1.541 -0.0003  0.5452 -0.3247
 2243SOL    HW118188   3.871   1.968   1.597  0.1734 -0.2358 -0.8672
 2243SOL    HW218189   4.020   1.998   1.564 -0.3869  1.1599  1.8533
 2244SOL     OW18190   4.196   2.952   6.999 -0.1875 -0.4634 -0.0853
 2244SOL    HW118191   4.197   3.027   7.058  1.8511 -1.3991  1.0939
 2244SOL    HW218192   4.263   2.896   7.039  1.2747  0.3877 -1.3297
 2245SOL     OW18193   2.863   2.266  13.152  0.2964 -0.0864  0.0653
 2245SOL    HW118194   2.939   2.321  13.132  0.8571 -1.6267 -2.0872
 2245SOL    HW218195   2.864   2.197  13.085 -1.1090  0.5146 -0.5722
 2246SOL     OW18196   4.575   0.424   8.913 -0.3721 -0.0663  0.1618
 2246SOL    HW118197   4.658   0.460   8.882  0.5184  1.4942  4.3806
 2246SOL    HW218198   4.620   0.352   8.956 -0.2060  1.7992  3.1139
 2247SOL     OW18199   3.648   2.397   6.903  0.5439  0.0160 -0.3604
 2247SOL    HW118200   3.733   2.429   6.874  0.5496 -1.7297 -2.2359
 2247SOL    HW218201   3.608   2.483   6.908  0.8182  0.0676  0.9399
 2248SOL     OW18202   4.673   0.998  10.778  0.6626 -0.4053  0.2397
 2248SOL    HW118203   0.001   0.917  10.785  0.2448 -0.6528  0.3781
 2248SOL    HW218204   4.584   0.965  10.768  0.8020 -0.7212  0.0425
 2249SOL     OW18205   2.100   3.066  10.785 -0.1286  0.0161  0.0735
 2249SOL    HW118206   2.075   3.061  10.878 -1.4223  1.9256 -0.1681
 2249SOL    HW218207   2.177   3.010  10.770  0.2505  0.4138  0.5384
 2250SOL     OW18208   2.159   4.653   4.132 -0.3949  0.5646  0.0938
 2250SOL    HW118209   2.240   4.631   4.179 -0.3296 -0.6394 -0.5874
 2250SOL    HW218210   2.167   4.592   4.059  1.5284  1.7103 -0.6693
 2251SOL     OW18211   2.741   3.048  16.386 -0.1466 -0.2443 -0.1590
 2251SOL    HW118212   2.733   3.022  16.295  4.7434  1.1966 -0.9666
 2251SOL    HW218213   2.781   2.970  16.424  0.0852 -0.0232  0.0514
 2252SOL     OW18214   0.270   3.279   5.208  0.4883  0.8815  0.0120
 2252SOL    HW118215   0.335   3.251   5.272 -0.8314  2.1259  1.8730
 2252SOL    HW218216   0.197   3.300   5.266 -0.0047  1.0215 -0.6575
 2253SOL     OW18217   0.582   2.958  16.588 -0.1721  0.1365  0.1051
 2253SOL    HW118218   0.564   3.048  16.616 -2.0279  0.0873 -0.8868
 2253SOL    HW218219   0.646   2.961  16.516 -0.1479  0.2583  0.1313
 2254SOL     OW18220   3.276   2.113  15.519  0.9817  0.2853  0.0098
 2254SOL    HW118221   3.284   2.129  15.613 -1.3987 -1.0229  0.4128
 2254SOL    HW218222   3.352   2.166  15.494  2.2081 -1.1563  0.6838
 2255SOL     OW18223   3.542   4.049   7.657 -0.1546  0.1579  0.1950
 2255SOL    HW118224   3.596   4.123   7.686  1.1275 -0.2357 -1.2067
 2255SOL    HW218225   3.520   4.002   7.738  0.0259 -0.4457 -0.1085
 2256SOL     OW18226   0.349   1.789   5.242  0.2333  0.6617 -0.4770
 2256SOL    HW118227   0.339   1.786   5.337  0.2346  0.3230 -0.4893
 2256SOL    HW218228   0.444   1.791   5.231  0.3358  2.0291  0.5214
 2257SOL     OW18229   4.343   3.311   7.744  0.3527  0.3278 -0.2170
 2257SOL    HW118230   4.391   3.356   7.813 -2.4369  1.1150  1.1928
 2257SOL    HW218231   4.401   3.235   7.739 -0.4322 -0.2049 -1.0956
 2258SOL     OW18232   3.318   1.923   1.342  0.9136 -0.0338 -0.2608
 2258SOL    HW118233   3.258   1.849   1.345 -1.9071  2.2760  0.7923
 2258SOL    HW218234   3.348   1.916   1.251 -1.2492  1.2144 -1.0770
 2259SOL     OW18235   3.564   3.555   4.540 -0.5419 -0.3036  0.3027
 2259SOL    HW118236   3.499   3.619   4.570 -0.5562  0.0682 -0.5250
 2259SOL    HW218237   3.509   3.478   4.526 -0.1086 -0.2862 -1.4384
 2260SOL     OW18238   2.822   2.230   8.125 -0.1999  0.4704  0.3138
 2260SOL    HW118239   2.850   2.211   8.215  0.4387  0.5342  0.1303
 2260SOL    HW218240   2.739   2.273   8.143 -0.6143 -0.4091  0.5220
 2261SOL     OW18241   4.438   4.100   0.304  0.1540 -0.4779 -0.0381
 2261SOL    HW118242   4.406   4.015   0.273  3.4890 -1.1869 -1.4964
 2261SOL    HW218243   4.393   4.151   0.236  0.7505  0.3706  0.2059
 2262SOL     OW18244   1.087   2.469   5.355 -0.0050 -0.2545  0.6382
 2262SOL    HW118245   1.144   2.541   5.382  0.4844 -1.0203  1.5874
 2262SOL    HW218246   1.156   2.407   5.333  1.1518  1.0113  0.7354
 2263SOL     OW18247   2.926   3.908   3.323 -0.1414  0.0757  0.2112
 2263SOL    HW118248   2.889   3.879   3.407 -2.2433 -0.1125 -0.7890
 2263SOL    HW218249   2.938   3.822   3.283  1.9000  1.2230 -1.6082
 2264SOL     OW18250   1.418   4.398   5.581  0.0767 -0.0136  0.7671
 2264SOL    HW118251   1.342   4.456   5.570  0.7060  0.6879  0.1226
 2264SOL    HW218252   1.461   4.452   5.647 -1.5695  2.3936 -0.1120
 2265SOL     OW18253   4.326   1.534  11.839 -0.3738  0.4458  0.1148
 2265SOL    HW118254   4.287   1.555  11.924 -2.3278 -1.1110 -0.4015
 2265SOL    HW218255   4.268   1.570  11.773 -2.0707 -1.0095  0.7977
 2266SOL     OW18256   0.006   2.601   3.954 -0.1073  0.2673  0.0167
 2266SOL    HW118257   4.712   2.517   3.912 -0.9042  0.6871 -0.4931
 2266SOL    HW218258   4.651   2.644   3.919  0.0772 -0.1733 -0.9267
 2267SOL     OW18259   3.054   1.575   3.891 -0.0360 -0.5272 -0.5406
 2267SOL    HW118260   3.098   1.556   3.973 -4.0168 -3.8873  0.8281
 2267SOL    HW218261   3.024   1.664   3.906 -1.1385 -1.0002  0.0611
 2268SOL     OW18262   2.101   0.227   7.151 -0.3248  0.5204  0.2516
 2268SOL    HW118263   2.057   0.204   7.069 -0.6853  0.4943  0.4487
 2268SOL    HW218264   2.188   0.250   7.120  0.5605 -2.1193  0.8148
 2269SOL     OW18265   2.257   0.773   6.087 -0.4333  0.0789 -0.3984
 2269SOL    HW118266   2.325   0.833   6.056  0.7595 -1.3496 -0.5715
 2269SOL    HW218267   2.193   0.831   6.128  0.2344  0.5377  0.0087
 2270SOL     OW18268   3.162   0.871   8.409  0.3228  0.1879 -0.6104
 2270SOL    HW118269   3.233   0.869   8.472 -0.5959 -0.2709  0.4000
 2270SOL    HW218270   3.092   0.813   8.440  1.8634  0.4849  3.3568
 2271SOL     OW18271   1.074   3.455  15.029 -0.0418  0.1500  0.1482
 2271SOL    HW118272   0.979   3.463  15.024  0.2865  3.4600 -1.5219
 2271SOL    HW218273   1.108   3.545  15.037 -0.1076  0.1918 -0.0317
 2272SOL     OW18274   3.824   3.451   4.644 -0.6133 -0.6237 -0.0378
 2272SOL    HW118275   3.824   3.359   4.616  0.4908 -1.0225  1.3101
 2272SOL    HW218276   3.735   3.486   4.634 -0.7250 -0.2948  2.1914
 2273SOL     OW18277   3.827   4.652   4.132  0.3856  0.7155  0.6095
 2273SOL    HW118278   3.856   0.021   4.132  0.8673  0.5579  0.2196
 2273SOL    HW218279   3.781   4.647   4.049  0.5042 -0.5096  0.6253
 2274SOL     OW18280   0.251   3.699   9.876 -0.8149  0.1444 -0.5249
 2274SOL    HW118281   0.219   3.612   9.849 -0.3727  0.5713 -2.4072
 2274SOL    HW218282   0.176   3.759   9.871  1.2391  2.7751  0.4867
 2275SOL     OW18283   4.482   4.019   9.070  0.2312  0.3100  0.3515
 2275SOL    HW118284   4.473   3.933   9.111 -0.6213  0.2203 -0.0174
 2275SOL    HW218285   4.419   4.014   8.998  1.6557 -2.3818 -0.7304
 2276SOL     OW18286   2.451   0.970   6.011  0.0498 -0.0165  0.0473
 2276SOL    HW118287   2.547   0.969   6.010  0.0547  1.2922 -1.5485
 2276SOL    HW218288   2.417   1.054   6.043 -1.6205 -0.6339 -0.1121
 2277SOL     OW18289   1.085   3.631  12.387 -0.4233  0.3463  0.7929
 2277SOL    HW118290   1.147   3.659  12.454 -0.8775 -1.0908  1.7995
 2277SOL    HW218291   1.018   3.589  12.441  0.3184 -0.5655  1.0151
 2278SOL     OW18292   3.137   1.689   8.490 -0.0963  0.1623  0.1514
 2278SOL    HW118293   3.122   1.619   8.553  0.9735  0.2848  0.5306
 2278SOL    HW218294   3.232   1.695   8.482 -0.0844  0.9788  0.8561
 2279SOL     OW18295   1.951   2.414   8.584 -0.0344 -0.0083 -0.0498
 2279SOL    HW118296   1.973   2.457   8.501 -0.6568 -1.8136 -1.1639
 2279SOL    HW218297   1.988   2.327   8.566  1.5536  0.7425 -0.4472
 2280SOL     OW18298   1.929   0.893   5.205  1.2960 -0.0441  0.7390
 2280SOL    HW118299   1.900   0.979   5.174 -3.4691 -1.5996  0.8771
 2280SOL    HW218300   1.960   0.851   5.125  1.1842 -0.2324  0.7941
 2281SOL     OW18301   3.463   1.217  10.404 -0.0098 -0.0399  0.6543
 2281SOL    HW118302   3.419   1.275  10.466 -3.1934 -2.9172  1.1433
 2281SOL    HW218303   3.430   1.254  10.322 -0.0300  0.6857  0.9899
 2282SOL     OW18304   1.107   3.656   8.164 -0.1212 -0.4312 -0.3495
 2282SOL    HW118305   1.172   3.725   8.176  1.1274 -1.6164 -0.3532
 2282SOL    HW218306   1.147   3.580   8.206 -1.8637 -0.8665  0.5078
 2283SOL     OW18307   0.683   3.058   2.572 -0.3061 -0.0235 -0.4699
 2283SOL    HW118308   0.671   3.149   2.601 -1.3426 -0.4841  0.5311
 2283SOL    HW218309   0.598   3.025   2.544 -1.1271  0.7606  1.0680
 2284SOL     OW18310   2.845   0.651   6.144 -0.0329 -0.3482  0.2632
 2284SOL    HW118311   2.753   0.676   6.150  0.1821  0.3726  0.5448
 2284SOL    HW218312   2.885   0.722   6.194  0.8766 -1.9805  1.8450
 2285SOL     OW18313   3.080   1.539   8.713  0.2896  0.0124 -0.0227
 2285SOL    HW118314   3.093   1.624   8.755  0.8893 -0.7231  1.2862
 2285SOL    HW218315   3.108   1.477   8.780  0.3633  2.2071  1.9649
 2286SOL     OW18316   3.482   2.987   0.131 -0.1768 -0.0328  0.2567
 2286SOL    HW118317   3.422   3.051   0.169  1.3677 -0.1051  2.8045
 2286SOL    HW218318   3.513   3.032   0.052  1.8866  1.0786  1.7064
 2287SOL     OW18319   2.283   1.276   6.104  0.2109 -0.5491 -0.2203
 2287SOL    HW118320   2.237   1.223   6.169 -0.9629  0.0773 -0.5391
 2287SOL    HW218321   2.225   1.350   6.088 -0.8330 -0.7076  2.9089
 2288SOL     OW18322   0.078   2.262   5.000  0.3331 -0.0290 -0.2470
 2288SOL    HW118323   0.028   2.327   5.049  0.4398 -0.2904  0.2111
 2288SOL    HW218324   0.042   2.188   5.048 -3.3071  1.0977 -1.2870
 2289SOL     OW18325   4.018   2.516  14.952  0.0790 -0.6319  0.1985
 2289SOL    HW118326   4.093   2.576  14.949  0.6073 -1.2842  0.2337
 2289SOL    HW218327   4.045   2.457  15.022 -1.2060 -1.1359  0.2548
 2290SOL     OW18328   3.803   3.603   5.910 -0.0153 -0.1442 -0.2607
 2290SOL    HW118329   3.827   3.542   5.980  0.8663  0.9663  0.3999
 2290SOL    HW218330   3.879   3.594   5.854  0.5031  1.0733  0.2343
 2291SOL     OW18331   1.643   0.623   4.081  0.5076 -0.8425 -0.3883
 2291SOL    HW118332   1.666   0.571   4.158  3.8108 -1.9760 -2.1560
 2291SOL    HW218333   1.590   0.560   4.032 -0.3792  0.3531 -0.9447
 2292SOL     OW18334   1.671   1.063   3.837  0.1773 -0.5944 -0.1103
 2292SOL    HW118335   1.690   1.156   3.830  0.3894 -0.6454 -0.2005
 2292SOL    HW218336   1.580   1.061   3.805  0.3197 -0.1342 -0.5395
 2293SOL     OW18337   4.105   1.152   8.170  0.2408 -0.0729 -0.5201
 2293SOL    HW118338   4.169   1.101   8.219 -2.2509 -0.5592  2.2193
 2293SOL    HW218339   4.160   1.229   8.156  0.8747 -0.0790  1.9818
 2294SOL     OW18340   2.184   1.065   2.328  0.3246 -0.2059  0.3741
 2294SOL    HW118341   2.173   1.138   2.388  1.0439  0.2294 -0.0295
 2294SOL    HW218342   2.230   1.113   2.259  0.4241  0.2085  0.7340
 2295SOL     OW18343   3.380   0.670   9.346  0.1353  1.3455  0.5662
 2295SOL    HW118344   3.365   0.633   9.433  2.3271 -1.9211 -0.4472
 2295SOL    HW218345   3.458   0.721   9.365  0.8784  0.7585 -0.9142
 2296SOL     OW18346   0.051   4.432   3.468  0.3052  0.3748  0.5181
 2296SOL    HW118347   0.139   4.469   3.470  1.1683 -1.6950  1.0632
 2296SOL    HW218348   0.012   4.513   3.435  0.0098 -0.1655 -0.4578
 2297SOL     OW18349   2.211   2.695   3.031  0.2759 -0.0750  0.4639
 2297SOL    HW118350   2.259   2.614   3.049  1.9630  0.5811 -1.0868
 2297SOL    HW218351   2.141   2.665   2.973  0.5162  1.7876 -0.7826
 2298SOL     OW18352   0.068   3.771  12.818 -0.1469  0.0837 -0.2034
 2298SOL    HW118353   4.720   3.736  12.873  0.3141  0.0599  0.3670
 2298SOL    HW218354   0.150   3.732  12.847  0.0805  1.5576  1.1158
 2299SOL     OW18355   2.850   1.027   7.912 -0.1688 -0.7390  0.1421
 2299SOL    HW118356   2.835   0.933   7.924 -1.3611 -0.4765  0.7470
 2299SOL    HW218357   2.797   1.035   7.833  0.3483 -1.5088 -0.2832
 2300SOL     OW18358   2.853   2.496   9.442 -0.3295  0.7925 -0.1639
 2300SOL    HW118359   2.917   2.480   9.512  0.3472  0.5584 -0.8323
 2300SOL    HW218360   2.836   2.409   9.405  2.6696 -0.8329  2.2802
 2301SOL     OW18361   3.015   0.609  12.719  0.1224 -0.4993  0.2065
 2301SOL    HW118362   2.986   0.558  12.644  1.1017  1.4501 -1.4978
 2301SOL    HW218363   2.940   0.591  12.776  0.1665 -0.9511  0.1151
 2302SOL     OW18364   3.023   4.140  11.133 -0.2645 -0.2741 -0.4402
 2302SOL    HW118365   3.111   4.123  11.099  0.4905 -0.1406  1.4613
 2302SOL    HW218366   2.984   4.193  11.064 -2.6160 -1.2522  0.1566
 2303SOL     OW18367   1.624   0.156   1.069 -0.1185  0.3817  0.3997
 2303SOL    HW118368   1.580   0.076   1.096  1.7689 -1.0268 -0.7362
 2303SOL    HW218369   1.715   0.131   1.050 -0.2755 -0.4327  0.7508
 2304SOL     OW18370   2.350   2.274  13.282  0.1638 -0.0884  0.1921
 2304SOL    HW118371   2.311   2.295  13.197 -0.6416  2.6706  1.2392
 2304SOL    HW218372   2.283   2.305  13.343 -0.6425 -0.4644 -0.5056
 2305SOL     OW18373   2.579   3.389   4.733  0.1145 -0.0746 -0.7172
 2305SOL    HW118374   2.647   3.331   4.768 -0.1697 -0.0747 -0.1698
 2305SOL    HW218375   2.502   3.382   4.788  0.7038 -0.1065  0.1092
 2306SOL     OW18376   4.200   0.622   9.076 -0.6985 -0.6748 -0.1445
 2306SOL    HW118377   4.140   0.550   9.093  0.5566 -2.3627 -2.6949
 2306SOL    HW218378   4.200   0.610   8.981 -0.2846 -0.6167 -0.1529
 2307SOL     OW18379   2.769   3.778   7.071  0.3758  0.1055 -0.3572
 2307SOL    HW118380   2.840   3.719   7.098  0.1243 -0.2000 -0.3598
 2307SOL    HW218381   2.770   3.845   7.139  1.1196  0.7630 -1.0185
 2308SOL     OW18382   2.253   0.133   4.481 -0.8365  0.2145  0.5002
 2308SOL    HW118383   2.339   0.095   4.464 -0.6034  1.6955 -1.6154
 2308SOL    HW218384   2.232   0.083   4.560 -1.6708 -1.4780 -0.7961
 2309SOL     OW18385   3.726   0.520   1.059  0.1558  0.0165  0.1904
 2309SOL    HW118386   3.690   0.432   1.049  1.0449 -0.3998  0.5693
 2309SOL    HW218387   3.653   0.575   1.031 -0.1282 -1.2875 -1.6519
 2310SOL     OW18388   1.131   0.805  17.481  0.1576 -0.9812  0.8364
 2310SOL    HW118389   1.202   0.868  17.464  0.5431 -1.0776  2.1323
 2310SOL    HW218390   1.193   0.733  17.471 -1.4313 -2.0510 -1.3106
 2311SOL     OW18391   0.315   0.300  16.769  0.4791 -0.0746  0.0492
 2311SOL    HW118392   0.256   0.376  16.768  0.9712  0.3006 -1.0706
 2311SOL    HW218393   0.354   0.294  16.681  0.5840  0.5511  0.0519
 2312SOL     OW18394   3.380   1.276   7.647 -0.2782  0.1941  0.4969
 2312SOL    HW118395   3.330   1.327   7.710 -1.1796 -0.2666  0.1484
 2312SOL    HW218396   3.420   1.341   7.589 -0.3619 -1.1871 -1.1159
 2313SOL     OW18397   0.928   2.942   5.670  0.1201  0.2201  0.2974
 2313SOL    HW118398   0.992   2.921   5.602  0.3846  0.1604  0.5635
 2313SOL    HW218399   0.942   3.034   5.691 -2.3471  0.3419  1.4339
 2314SOL     OW18400   2.267   3.613   3.431  0.1594  0.3482  0.1151
 2314SOL    HW118401   2.255   3.682   3.497  2.4577 -1.4277  2.3883
 2314SOL    HW218402   2.243   3.656   3.349  3.1451  0.1608 -0.8718
 2315SOL     OW18403   4.182   4.185  13.376 -0.2552 -0.2392 -0.3544
 2315SOL    HW118404   4.160   4.274  13.404 -2.0222 -0.5898 -0.6092
 2315SOL    HW218405   4.241   4.150  13.443 -0.1526  0.2702 -0.1705
 2316SOL     OW18406   1.171   4.539  14.669 -0.1089 -0.7347 -0.4930
 2316SOL    HW118407   1.141   4.626  14.696 -0.3213 -0.9469 -0.0497
 2316SOL    HW218408   1.264   4.539  14.693  0.2784  0.6005 -1.9437
 2317SOL     OW18409   2.356   4.237   2.615  0.2278 -0.0207  0.1517
 2317SOL    HW118410   2.308   4.180   2.555 -1.0945  0.0979  1.0956
 2317SOL    HW218411   2.443   4.200   2.601 -0.8196 -1.3649 -2.7160
 2318SOL     OW18412   2.451   0.996   7.298 -0.0777  0.2006 -0.2161
 2318SOL    HW118413   2.397   1.022   7.224  2.1850 -0.0943 -1.9974
 2318SOL    HW218414   2.493   1.081   7.313 -0.6446  0.2600  0.9871
 2319SOL     OW18415   1.937   3.675   6.411 -0.3936 -0.0296  0.1275
 2319SOL    HW118416   1.867   3.708   6.354  0.1324 -0.4077 -0.7231
 2319SOL    HW218417   1.907   3.590   6.444  2.2512 -0.7782  0.5461
 2320SOL     OW18418   1.325   3.398   6.987  0.5663 -0.2382  0.4170
 2320SOL    HW118419   1.393   3.345   7.028 -1.1835 -2.8499 -0.0768
 2320SOL    HW218420   1.345   3.419   6.895 -2.7598  2.1439  0.2127
 2321SOL     OW18421   2.487   2.838   4.902 -0.6801  0.0674  0.2862
 2321SOL    HW118422   2.556   2.855   4.966 -1.0576 -0.6874  0.9024
 2321SOL    HW218423   2.426   2.805   4.968 -1.0908  0.9461  0.3434
 2322SOL     OW18424   1.730   0.617   2.352  0.2007  0.3262  0.1364
 2322SOL    HW118425   1.685   0.608   2.268  1.4983 -6.7053  0.1701
 2322SOL    HW218426   1.690   0.692   2.397  0.2952  0.0018  0.7679
 2323SOL     OW18427   2.879   2.926   8.916  0.5149 -0.8233  0.6997
 2323SOL    HW118428   2.934   2.988   8.868  1.1283 -1.3558  0.7113
 2323SOL    HW218429   2.792   2.938   8.877 -0.0271 -1.6470  1.6554
 2324SOL     OW18430   1.008   1.447  14.940  0.4432  0.2973 -0.8634
 2324SOL    HW118431   0.993   1.524  14.884 -3.4111  0.4304  0.3672
 2324SOL    HW218432   0.949   1.474  15.011  0.9127 -0.6427 -0.1240
 2325SOL     OW18433   0.114   1.773  10.752 -0.2342 -0.1910 -0.0052
 2325SOL    HW118434   0.089   1.832  10.680 -1.4671 -1.9659 -1.0140
 2325SOL    HW218435   0.069   1.695  10.721  0.8862 -1.4264  1.4938
 2326SOL     OW18436   3.830   3.455  16.975 -0.2158  0.1586 -0.0898
 2326SOL    HW118437   3.825   3.365  16.943  0.5297  0.2911 -0.5759
 2326SOL    HW218438   3.832   3.507  16.895 -3.7981  1.5097  0.6888
 2327SOL     OW18439   4.604   2.413  17.261  0.2520  0.1260 -0.3455
 2327SOL    HW118440   4.601   2.460  17.178  0.1825  1.0499  0.1768
 2327SOL    HW218441   4.529   2.355  17.251  0.7773 -0.7003  0.5266
 2328SOL     OW18442   3.119   3.199   3.541  0.0124 -0.2986  0.0041
 2328SOL    HW118443   3.209   3.217   3.565  0.0105 -0.3040  0.0148
 2328SOL    HW218444   3.103   3.110   3.572 -0.2460 -0.3727 -0.3285
 2329SOL     OW18445   3.798   1.838   4.068  0.9125 -0.0906  0.2319
 2329SOL    HW118446   3.862   1.783   4.113 -0.1450 -0.1280  1.7142
 2329SOL    HW218447   3.839   1.924   4.076  0.4273  0.2881 -1.3191
 2330SOL     OW18448   2.984   1.687   5.718 -0.6962 -0.2130 -0.1640
 2330SOL    HW118449   2.985   1.718   5.809  0.1899 -1.2161  0.1693
 2330SOL    HW218450   3.065   1.636   5.708 -0.8660 -0.5057 -0.0435
 2331SOL     OW18451   0.082   4.436   1.151  0.0961  0.6556 -0.0882
 2331SOL    HW118452   0.131   4.355   1.140 -0.8860  0.2595 -1.4414
 2331SOL    HW218453   0.156   4.494   1.131 -0.6396  1.4298 -0.5785
 2332SOL     OW18454   0.936   1.367  12.524 -0.2692  0.2989 -0.4410
 2332SOL    HW118455   0.877   1.364  12.599 -1.9255  1.2757 -1.6974
 2332SOL    HW218456   0.948   1.273  12.518 -0.3198  0.0983  2.6211
 2333SOL     OW18457   4.102   3.289   3.086 -0.2761 -0.5801 -0.0167
 2333SOL    HW118458   4.074   3.201   3.114 -0.1639 -1.0103 -1.2472
 2333SOL    HW218459   4.037   3.331   3.142 -0.7357 -0.6700 -0.4771
 2334SOL     OW18460   3.594   0.830   9.388  0.3517 -0.0073 -0.1482
 2334SOL    HW118461   3.624   0.774   9.317  0.7666 -1.1099  0.9020
 2334SOL    HW218462   3.671   0.881   9.415  1.8348 -1.5801 -1.4533
 2335SOL     OW18463   3.311   1.975   8.600 -0.7345  0.0080 -0.1432
 2335SOL    HW118464   3.316   1.913   8.527  2.3688 -0.7118  0.6944
 2335SOL    HW218465   3.396   2.008   8.626 -0.5455  0.9779 -2.0211
 2336SOL     OW18466   1.658   1.784   5.055  0.2362  0.4530 -0.2831
 2336SOL    HW118467   1.569   1.810   5.078  0.7015  1.5801  0.2724
 2336SOL    HW218468   1.683   1.843   4.984  1.1563  1.5787  0.9833
 2337SOL     OW18469   4.598   2.442  14.712 -0.1515  0.1407  0.5223
 2337SOL    HW118470   4.563   2.396  14.788 -0.9983  0.2388  0.1878
 2337SOL    HW218471   4.536   2.440  14.639 -0.5100 -0.9253  0.8552
 2338SOL     OW18472   1.490   4.459  10.190  0.1375  0.2672  0.2202
 2338SOL    HW118473   1.519   4.398  10.258  2.5213  0.7614 -0.3440
 2338SOL    HW218474   1.576   4.454  10.147 -0.9754 -0.7823 -1.8370
 2339SOL     OW18475   3.140   2.944   8.031 -0.4577 -0.5278  0.3380
 2339SOL    HW118476   3.206   2.963   8.098  0.7846  0.0145 -1.0373
 2339SOL    HW218477   3.197   2.877   7.993  0.3643  0.0941  0.4755
 2340SOL     OW18478   1.887   3.966  14.485 -0.0875  0.3689  0.1660
 2340SOL    HW118479   1.800   4.006  14.481  0.4293  1.4236 -1.0419
 2340SOL    HW218480   1.901   3.953  14.391  0.3706 -4.0249  0.8427
 2341SOL     OW18481   2.735   0.994   8.395 -0.2794 -0.2194 -0.3889
 2341SOL    HW118482   2.723   0.905   8.361  1.4461 -0.3557 -0.6201
 2341SOL    HW218483   2.760   1.033   8.311  1.5616 -0.8559 -0.1265
 2342SOL     OW18484   0.777   1.278  15.953 -0.4482 -0.2091  0.7810
 2342SOL    HW118485   0.813   1.328  15.880 -3.1696 -0.3317 -0.6604
 2342SOL    HW218486   0.862   1.254  15.990 -0.6861 -1.1694  0.7154
 2343SOL     OW18487   1.507   4.152   1.127 -0.3090  0.2084 -0.1726
 2343SOL    HW118488   1.451   4.079   1.098 -0.9629 -0.3759  2.5518
 2343SOL    HW218489   1.499   4.132   1.220  3.2620 -0.4735  0.0099
 2344SOL     OW18490   0.204   1.552   3.394  0.0278  0.4990  0.2750
 2344SOL    HW118491   0.208   1.565   3.299 -1.6032 -1.3668 -0.0395
 2344SOL    HW218492   0.159   1.469   3.412  0.4334  0.3774  0.7099
 2345SOL     OW18493   0.615   2.266   6.042  0.2440  0.0489  0.2040
 2345SOL    HW118494   0.572   2.335   6.093  1.1418  2.0395 -1.7270
 2345SOL    HW218495   0.702   2.297   6.067 -0.5897  2.2959  0.2971
 2346SOL     OW18496   1.312   3.625  16.737  0.2804 -0.8326 -0.2306
 2346SOL    HW118497   1.366   3.554  16.771  1.8160 -0.3847 -1.7079
 2346SOL    HW218498   1.288   3.589  16.652 -0.8080 -0.4120 -0.1055
 2347SOL     OW18499   2.047   0.594   6.273 -0.0607 -0.3140 -0.7306
 2347SOL    HW118500   1.983   0.639   6.329 -0.2551 -1.8169  0.2484
 2347SOL    HW218501   2.129   0.636   6.299 -0.7157  1.0350 -0.7941
 2348SOL     OW18502   2.890   2.609   3.125  0.3079 -0.4025  0.2908
 2348SOL    HW118503   2.904   2.680   3.063  3.7680 -0.9964  0.3853
 2348SOL    HW218504   2.848   2.540   3.073  2.9225 -0.9018 -1.1339
 2349SOL     OW18505   4.094   3.500   4.747 -0.1674  0.3988 -0.0993
 2349SOL    HW118506   4.002   3.474   4.740  0.9843 -3.4722 -1.3046
 2349SOL    HW218507   4.095   3.588   4.710 -0.1437 -0.1098 -1.3083
 2350SOL     OW18508   3.270   3.250  14.974 -0.4623  0.2850  0.2711
 2350SOL    HW118509   3.354   3.274  15.014 -0.2075  3.7439 -2.3996
 2350SOL    HW218510   3.267   3.303  14.895 -1.0228 -0.5299 -0.2548
 2351SOL     OW18511   3.776   2.185   7.991 -0.2166  0.1051 -0.0469
 2351SOL    HW118512   3.815   2.247   7.929 -0.7583 -0.3966 -0.8905
 2351SOL    HW218513   3.796   2.103   7.945 -0.4268 -0.3847  0.7277
 2352SOL     OW18514   4.006   0.838  16.774 -0.2290  0.1141 -0.1619
 2352SOL    HW118515   3.931   0.807  16.723  0.3491 -0.6834 -0.5142
 2352SOL    HW218516   4.031   0.916  16.724 -0.7758  0.9388  0.8411
 2353SOL     OW18517   2.659   1.689   4.994  0.1152  0.1009  0.5798
 2353SOL    HW118518   2.582   1.636   5.015 -2.5597  3.5820 -0.3231
 2353SOL    HW218519   2.728   1.632   5.028  0.1470 -0.3708 -0.2789
 2354SOL     OW18520   1.937   1.613   6.949 -0.2408  0.1104 -0.0767
 2354SOL    HW118521   1.997   1.594   7.021  2.4132  2.1071 -1.7868
 2354SOL    HW218522   1.963   1.704   6.935 -2.4409  0.7970  0.2818
 2355SOL     OW18523   3.044   2.439   5.206 -0.2865 -0.7851 -0.2052
 2355SOL    HW118524   3.050   2.502   5.134 -2.4195  2.3476  2.3380
 2355SOL    HW218525   3.006   2.368   5.154  0.7872 -0.6895 -1.1124
 2356SOL     OW18526   2.149   1.595   8.075 -0.3584  0.1109  0.4346
 2356SOL    HW118527   2.057   1.603   8.051 -1.1112 -1.4662  2.7945
 2356SOL    HW218528   2.172   1.688   8.067 -3.8163  1.1738  2.7132
 2357SOL     OW18529   4.668   1.063  15.144 -0.0039 -0.0650  0.2961
 2357SOL    HW118530   4.654   1.003  15.071  0.8329 -0.9617  0.8683
 2357SOL    HW218531   4.600   1.128  15.132 -0.7723 -0.5545  1.9850
 2358SOL     OW18532   3.481   1.626   0.958  0.5488  0.2726  0.0253
 2358SOL    HW118533   3.514   1.549   0.911  2.9974  1.3348  0.0095
 2358SOL    HW218534   3.439   1.663   0.880 -0.1077  0.4608  0.4773
 2359SOL     OW18535   2.850   3.936   0.925 -0.4850  0.5485 -0.0968
 2359SOL    HW118536   2.867   3.930   0.831 -0.4180 -1.7659  0.0622
 2359SOL    HW218537   2.921   3.885   0.963  0.8403  1.1260 -1.8129
 2360SOL     OW18538   0.885   0.748   5.127 -0.2488  0.1455 -0.6014
 2360SOL    HW118539   0.857   0.744   5.219 -0.6826 -1.6106 -0.7999
 2360SOL    HW218540   0.803   0.775   5.085 -0.9980 -0.8863  0.1786
 2361SOL     OW18541   2.701   2.662   7.227  0.3923 -0.1038 -0.5307
 2361SOL    HW118542   2.741   2.717   7.159  2.7005  1.5487  2.1588
 2361SOL    HW218543   2.724   2.572   7.203  0.0504 -0.7350  1.5383
 2362SOL     OW18544   1.775   3.216   7.984  0.3996  0.2664  0.0362
 2362SOL    HW118545   1.800   3.124   7.985  0.4830  0.2801 -0.7339
 2362SOL    HW218546   1.860   3.256   7.965 -0.2834  1.5896 -0.2754
 2363SOL     OW18547   1.008   4.220  13.666 -0.2286  0.2927  0.1732
 2363SOL    HW118548   1.028   4.131  13.640 -3.6433 -0.1173 -1.0346
 2363SOL    HW218549   1.078   4.266  13.619 -0.4534 -0.9272 -1.3428
 2364SOL     OW18550   4.007   3.409  16.375  0.2504 -0.0964 -0.4433
 2364SOL    HW118551   4.055   3.483  16.338  1.1492  0.4454  1.8186
 2364SOL    HW218552   4.066   3.336  16.356  1.9633  1.2778 -0.4033
 2365SOL     OW18553   0.242   4.352   0.789 -0.3175 -0.0589 -0.0687
 2365SOL    HW118554   0.309   4.393   0.843 -0.3388  0.2373 -0.2664
 2365SOL    HW218555   0.165   4.405   0.804  1.1491  2.2115 -0.5738
 2366SOL     OW18556   3.306   4.026   3.708 -0.1226  0.2720 -0.6243
 2366SOL    HW118557   3.268   3.945   3.675  2.8773 -1.4376  0.1321
 2366SOL    HW218558   3.229   4.083   3.717  0.5448  1.6442 -3.6700
 2367SOL     OW18559   2.148   1.896   5.705 -0.4457  0.0240 -0.1188
 2367SOL    HW118560   2.202   1.963   5.662 -0.2763 -0.6297 -0.9304
 2367SOL    HW218561   2.070   1.938   5.740 -1.7636  0.0992 -3.1046
 2368SOL     OW18562   0.007   4.606   1.709 -0.0636  0.1782  0.3674
 2368SOL    HW118563   0.033   4.695   1.686 -2.2868  0.4709 -0.9701
 2368SOL    HW218564   4.681   4.578   1.632  0.0565 -2.4763  1.2422
 2369SOL     OW18565   0.960   4.077   7.964 -0.2975 -0.1082 -0.2025
 2369SOL    HW118566   0.876   4.075   8.011 -0.1011  1.3980  0.2189
 2369SOL    HW218567   1.011   4.127   8.028 -0.3585 -0.5830  0.2113
 2370SOL     OW18568   2.583   0.087   5.828 -0.4925  0.2293 -0.0869
 2370SOL    HW118569   2.564   0.144   5.753 -0.8283 -3.5171 -2.8884
 2370SOL    HW218570   2.658   0.039   5.793 -1.0929 -0.4855 -0.3808
 2371SOL     OW18571   3.335   0.366  15.788 -0.1158 -0.2142 -0.0495
 2371SOL    HW118572   3.269   0.407  15.845  0.3620  0.8808 -0.2788
 2371SOL    HW218573   3.395   0.438  15.769 -0.2114 -0.3154 -0.7215
 2372SOL     OW18574   0.625   4.202   7.480  0.1958  0.0177  0.1396
 2372SOL    HW118575   0.542   4.204   7.433 -1.0580 -2.6131  2.1877
 2372SOL    HW218576   0.640   4.109   7.498 -3.7389 -0.3453  1.5331
 2373SOL     OW18577   1.845   3.074   2.829 -0.4909 -0.2065 -0.3228
 2373SOL    HW118578   1.824   3.077   2.922  2.1761  0.6822  0.2488
 2373SOL    HW218579   1.782   3.140   2.798 -0.7747 -0.1192  0.4570
 2374SOL     OW18580   2.306   1.212   2.141  0.0852  0.5005  0.5673
 2374SOL    HW118581   2.274   1.269   2.071  0.1320  0.4437  0.5009
 2374SOL    HW218582   2.376   1.266   2.178  0.0267  0.9201  0.0645
 2375SOL     OW18583   0.274   2.827   2.668 -0.0085 -0.1441 -0.3710
 2375SOL    HW118584   0.249   2.836   2.760 -0.8103 -1.9217 -0.4103
 2375SOL    HW218585   0.187   2.825   2.628 -0.4631 -2.6590  0.7411
 2376SOL     OW18586   3.190   2.471   7.600 -0.1945  0.2619 -0.1948
 2376SOL    HW118587   3.190   2.515   7.515 -0.8289  1.4090  0.4023
 2376SOL    HW218588   3.100   2.442   7.613 -0.5221  0.3951 -2.1446
 2377SOL     OW18589   0.433   2.924   3.396  0.2631  0.1365 -1.1661
 2377SOL    HW118590   0.403   2.934   3.486  2.7656  2.0884 -0.5638
 2377SOL    HW218591   0.520   2.963   3.392  0.4613 -0.1633  0.2895
 2378SOL     OW18592   3.298   0.994   1.607 -0.0112 -0.1449 -0.0906
 2378SOL    HW118593   3.382   1.009   1.565 -0.1432 -1.2733 -0.7710
 2378SOL    HW218594   3.261   0.933   1.544 -1.4110  1.4359 -0.7834
 2379SOL     OW18595   0.746   2.771   3.827  0.2274 -0.9725  0.3905
 2379SOL    HW118596   0.819   2.825   3.795 -0.9460  0.3304 -0.1203
 2379SOL    HW218597   0.767   2.690   3.781 -0.0560 -1.0180  0.3407
 2380SOL     OW18598   2.168   1.178   3.867  0.3772 -0.2575 -0.0832
 2380SOL    HW118599   2.193   1.258   3.821 -0.0003 -0.3371 -0.4207
 2380SOL    HW218600   2.095   1.146   3.815 -1.2379 -0.2144  2.1566
 2381SOL     OW18601   3.640   1.060   6.412  0.3380  0.2793  0.2037
 2381SOL    HW118602   3.604   1.066   6.501  0.0890  0.3951  0.0950
 2381SOL    HW218603   3.613   0.971   6.389 -1.1042  1.3107 -2.0351
 2382SOL     OW18604   3.056   2.984  11.838 -0.3125 -0.2573  0.4280
 2382SOL    HW118605   3.022   2.901  11.872  1.8695 -0.7042  1.5063
 2382SOL    HW218606   2.975   3.032  11.821 -1.4130 -1.5171  2.0303
 2383SOL     OW18607   0.555   4.648  10.567  0.1801  1.1104  0.3076
 2383SOL    HW118608   0.464   4.621  10.575  0.3285  0.0184 -1.5320
 2383SOL    HW218609   0.541   0.011  10.525 -0.2094  0.4827 -0.8444
 2384SOL     OW18610   4.705   0.908   6.261 -0.3937  0.3663  0.4193
 2384SOL    HW118611   0.077   0.896   6.257 -0.5343 -0.1603 -1.4121
 2384SOL    HW218612   4.686   0.918   6.167 -2.8342 -1.1058  0.7581
 2385SOL     OW18613   2.933   4.479   6.616  0.0751  0.0513 -0.2041
 2385SOL    HW118614   2.839   4.465   6.622  0.2818 -0.8878  0.7838
 2385SOL    HW218615   2.971   4.408   6.667 -0.5287  0.5699  0.9646
 2386SOL     OW18616   0.432   3.995   5.141 -0.0838  0.5693 -0.2577
 2386SOL    HW118617   0.456   3.926   5.078 -4.6513 -0.1417 -1.1904
 2386SOL    HW218618   0.353   3.958   5.178 -1.5107  2.8149 -1.0647
 2387SOL     OW18619   1.073   1.011   1.942  0.0102  0.0213 -0.7547
 2387SOL    HW118620   1.130   1.065   1.997 -0.1247  0.1158 -0.7091
 2387SOL    HW218621   1.133   0.990   1.870 -1.4078 -2.3973 -1.2265
 2388SOL     OW18622   4.212   4.553   7.393 -0.6366 -0.4543 -0.4895
 2388SOL    HW118623   4.290   4.524   7.439  0.1593 -0.0934 -1.6105
 2388SOL    HW218624   4.241   4.628   7.342 -1.3533 -0.2180 -0.5575
 2389SOL     OW18625   0.101   4.688   3.762 -0.2962  0.0896 -0.2818
 2389SOL    HW118626   0.022   4.696   3.815 -0.8882  0.4285 -1.2058
 2389SOL    HW218627   0.065   0.011   3.686 -0.9334 -2.3928 -1.4592
 2390SOL     OW18628   4.586   1.163   7.798 -0.3018  0.4223  0.4706
 2390SOL    HW118629   4.543   1.192   7.879  2.0928  1.7547  1.2534
 2390SOL    HW218630   4.511   1.124   7.753  0.7606  0.1266 -1.0311
 2391SOL     OW18631   4.082   4.283  11.509 -0.1809  0.0551 -0.3517
 2391SOL    HW118632   4.000   4.267  11.463 -1.4426 -1.7197  2.4932
 2391SOL    HW218633   4.138   4.301  11.434  0.3655  0.4732  0.1464
 2392SOL     OW18634   3.961   2.050   4.058  0.6433  0.4298  0.0616
 2392SOL    HW118635   4.056   2.048   4.053  0.5029  0.4003 -2.4099
 2392SOL    HW218636   3.935   2.106   3.985 -0.0015  0.6396  0.4445
 2393SOL     OW18637   3.819   0.639  10.344  0.0325  0.1050  0.1482
 2393SOL    HW118638   3.792   0.597  10.263  1.2029 -0.4328  0.0349
 2393SOL    HW218639   3.840   0.724  10.305  0.5057  0.4673  1.1965
 2394SOL     OW18640   2.451   2.266   7.554  0.2434 -0.3775 -0.8288
 2394SOL    HW118641   2.401   2.278   7.473 -0.4410  0.0112 -0.3515
 2394SOL    HW218642   2.500   2.348   7.542 -2.1754  1.0857 -0.7873
 2395SOL     OW18643   4.273   3.356   0.349  0.2926 -0.4835  0.0414
 2395SOL    HW118644   4.252   3.327   0.260  0.4802  6.2877 -2.1824
 2395SOL    HW218645   4.367   3.340   0.357  0.4317 -0.4646 -1.7604
 2396SOL     OW18646   4.623   0.760  17.089 -0.0801 -0.1082 -0.2022
 2396SOL    HW118647   4.606   0.850  17.117 -1.1307  0.0601 -1.3616
 2396SOL    HW218648   4.561   0.760  17.016 -1.3863 -2.7277  0.8925
 2397SOL     OW18649   1.322   3.847   7.740  0.5227 -0.1523 -0.5466
 2397SOL    HW118650   1.326   3.941   7.719  0.4691  0.0938  0.5427
 2397SOL    HW218651   1.375   3.817   7.666  0.8554  2.0620 -1.2117
 2398SOL     OW18652   3.672   2.551   5.303 -0.3541 -0.5385  0.4662
 2398SOL    HW118653   3.597   2.599   5.337  1.0682  1.6276  0.4922
 2398SOL    HW218654   3.736   2.603   5.351 -0.8039  0.5672 -0.1276
 2399SOL     OW18655   0.746   0.699   6.971  0.0665  0.0161 -0.9342
 2399SOL    HW118656   0.828   0.651   6.986  0.3376  0.5840 -0.5762
 2399SOL    HW218657   0.764   0.783   7.012  0.0541 -0.8683  0.8779
 2400SOL     OW18658   4.083   0.913  14.844  0.0254 -0.3329 -0.0865
 2400SOL    HW118659   4.047   0.913  14.932 -0.9229  0.6153 -0.4685
 2400SOL    HW218660   4.052   1.000  14.817  1.5243 -0.1415 -1.2078
 2401SOL     OW18661   1.424   2.164   8.457 -0.1599 -0.3706  0.1341
 2401SOL    HW118662   1.400   2.074   8.438  0.5288  0.0571 -2.8621
 2401SOL    HW218663   1.520   2.160   8.452 -0.1044  1.5323 -0.3683
 2402SOL     OW18664   1.445   4.099   7.235  0.5532 -0.1125  0.2829
 2402SOL    HW118665   1.414   4.011   7.213 -0.1050  0.8438 -2.5854
 2402SOL    HW218666   1.360   4.143   7.244  0.1263 -0.6853 -0.9541
 2403SOL     OW18667   0.943   2.586   3.900  0.1586  0.0713 -0.3986
 2403SOL    HW118668   0.911   2.518   3.960 -3.1100  0.9378 -1.1700
 2403SOL    HW218669   1.016   2.538   3.861  0.7175 -0.4096  1.2024
 2404SOL     OW18670   1.352   1.552   4.069  0.1502  0.3918 -0.1819
 2404SOL    HW118671   1.279   1.541   4.008 -2.1904  1.1365  2.4664
 2404SOL    HW218672   1.319   1.510   4.148 -1.3559 -1.4945 -1.8092
 2405SOL     OW18673   2.061   4.593  15.300  0.2739 -0.0813  0.0898
 2405SOL    HW118674   2.021   4.507  15.287 -0.9335  0.2182  1.8265
 2405SOL    HW218675   2.008   4.650  15.243  0.1951  0.4431  0.6892
 2406SOL     OW18676   3.875   2.274   2.032 -0.0368 -0.2170  0.1951
 2406SOL    HW118677   3.920   2.190   2.020  2.3940  1.0265  0.6513
 2406SOL    HW218678   3.854   2.264   2.125 -1.3265 -0.2750 -0.0958
 2407SOL     OW18679   3.941   2.264   2.556 -0.1661  0.2714 -0.3135
 2407SOL    HW118680   4.026   2.224   2.572 -0.5450 -0.0513  0.8571
 2407SOL    HW218681   3.951   2.359   2.546 -1.2212  0.7062  2.6710
 2408SOL     OW18682   2.261   0.300   2.950 -0.0081  0.0499 -0.1528
 2408SOL    HW118683   2.195   0.368   2.958  0.7675  0.9495 -1.4811
 2408SOL    HW218684   2.311   0.314   3.031 -0.2546  0.2748 -0.0399
 2409SOL     OW18685   4.339   3.774   7.024 -0.0290 -0.0546 -0.0415
 2409SOL    HW118686   4.376   3.718   7.092  0.1643  0.1883  0.0534
 2409SOL    HW218687   4.366   3.724   6.947  2.1874 -0.6454  1.1245
 2410SOL     OW18688   0.085   0.431   8.734 -0.0389  0.0917 -0.0800
 2410SOL    HW118689   0.111   0.494   8.666  2.2164 -1.3398 -0.5093
 2410SOL    HW218690   0.158   0.371   8.742 -0.3020 -0.4730 -2.1044
 2411SOL     OW18691   0.006   0.292  13.919  0.0333  0.8622 -0.5036
 2411SOL    HW118692   0.050   0.353  13.978  0.3037 -2.0488  2.2952
 2411SOL    HW218693   0.044   0.206  13.937 -1.0004  0.8124  1.3613
 2412SOL     OW18694   0.188   3.184   3.528  0.3076  0.0645 -0.2031
 2412SOL    HW118695   0.120   3.116   3.530  1.1042 -0.8073 -2.8709
 2412SOL    HW218696   0.145   3.249   3.583 -1.0935 -1.6176  0.6731
 2413SOL     OW18697   3.106   0.475   6.395  0.2559  0.4132  0.3983
 2413SOL    HW118698   3.180   0.463   6.456  1.0451  0.8778 -0.4600
 2413SOL    HW218699   3.150   0.530   6.330  0.8272  0.4871  0.8374
 2414SOL     OW18700   3.642   2.223   3.459 -0.3318 -0.5315 -0.4046
 2414SOL    HW118701   3.685   2.151   3.414  2.5528  0.6445  0.4804
 2414SOL    HW218702   3.567   2.182   3.502 -2.3279  1.8562 -1.5660
 2415SOL     OW18703   1.192   4.581  15.595  0.1520  0.1674 -0.1187
 2415SOL    HW118704   1.279   4.604  15.565  0.1618 -0.0507 -0.2552
 2415SOL    HW218705   1.169   4.522  15.524  0.9885 -2.8508  2.1180
 2416SOL     OW18706   0.327   1.349   4.358  0.5849 -0.2342  0.6670
 2416SOL    HW118707   0.377   1.345   4.277 -0.5872 -0.2252 -0.0558
 2416SOL    HW218708   0.292   1.437   4.348  3.7519  0.9596  0.3093
 2417SOL     OW18709   1.082   1.786  16.194  0.2046 -0.4349 -0.2739
 2417SOL    HW118710   1.017   1.765  16.127 -1.1014 -0.7408  1.1156
 2417SOL    HW218711   1.165   1.762  16.153  0.5471 -1.3673  0.9939
 2418SOL     OW18712   2.667   3.561   8.990  0.2315  0.0866 -0.2630
 2418SOL    HW118713   2.707   3.598   8.912  2.4428  3.1996  2.3317
 2418SOL    HW218714   2.593   3.513   8.953  0.9207  1.4191 -3.3561
 2419SOL     OW18715   0.900   1.180  14.888  0.0355 -0.1173 -0.0329
 2419SOL    HW118716   0.959   1.248  14.854  2.0943 -2.0612 -0.3872
 2419SOL    HW218717   0.846   1.226  14.952 -0.4757  0.8550 -1.1470
 2420SOL     OW18718   0.891   1.810   2.052 -0.1144  0.1188  0.1210
 2420SOL    HW118719   0.829   1.806   1.979 -1.9890 -0.3430  1.7477
 2420SOL    HW218720   0.923   1.899   2.039 -0.6892  0.6210  2.1998
 2421SOL     OW18721   2.600   0.480   8.878  0.2995  1.1195  0.0889
 2421SOL    HW118722   2.622   0.572   8.862  0.1551  0.8480 -1.6741
 2421SOL    HW218723   2.563   0.451   8.794 -0.2446 -0.6617  0.9338
 2422SOL     OW18724   2.680   0.531   1.827  0.2475  0.1410 -0.5033
 2422SOL    HW118725   2.635   0.506   1.907  2.3613 -0.5373  0.4717
 2422SOL    HW218726   2.719   0.616   1.847  0.9327 -0.1183 -0.7360
 2423SOL     OW18727   1.511   2.821  11.393 -0.5409 -0.3159 -0.4821
 2423SOL    HW118728   1.432   2.875  11.383  1.4071  2.7014  0.5463
 2423SOL    HW218729   1.568   2.880  11.344  0.1733 -1.4675 -1.0267
 2424SOL     OW18730   0.427   1.588  17.288  0.0738  0.3313  0.2934
 2424SOL    HW118731   0.396   1.543  17.209  2.1843 -1.3286  0.3788
 2424SOL    HW218732   0.352   1.641  17.313 -0.5494 -0.3600 -0.1267
 2425SOL     OW18733   0.873   1.841   5.050 -0.0446  0.6099 -0.1440
 2425SOL    HW118734   0.966   1.822   5.059  0.2799  0.9495 -2.7970
 2425SOL    HW218735   0.851   1.770   4.991 -0.0064 -0.0150  0.5900
 2426SOL     OW18736   2.779   1.822  13.099  0.1256 -0.0641  0.1687
 2426SOL    HW118737   2.775   1.811  13.194  1.9474 -0.7975  0.1672
 2426SOL    HW218738   2.850   1.762  13.076  0.1347 -0.5402  1.4676
 2427SOL     OW18739   0.083   1.331   6.508  0.1764 -0.4242 -0.1460
 2427SOL    HW118740   0.150   1.371   6.452  0.0140 -1.2219 -0.9196
 2427SOL    HW218741   0.004   1.357   6.459 -1.1652 -0.2654  2.1162
 2428SOL     OW18742   2.207   1.733  16.136 -0.0588  0.0685  0.5750
 2428SOL    HW118743   2.156   1.803  16.094 -0.3063  0.7414  1.9902
 2428SOL    HW218744   2.232   1.763  16.224  0.7265 -1.9703  1.0449
 2429SOL     OW18745   1.543   1.310   4.771  0.3133  0.9353 -0.2102
 2429SOL    HW118746   1.599   1.359   4.832  2.9113  1.8779 -3.3085
 2429SOL    HW218747   1.592   1.339   4.693 -0.3188  0.2309 -0.8601
 2430SOL     OW18748   0.237   2.366  12.369 -0.3044 -0.1917 -0.6401
 2430SOL    HW118749   0.288   2.441  12.397  0.5781 -0.6255 -1.0721
 2430SOL    HW218750   0.300   2.302  12.402  0.0022  1.0732  1.1963
 2431SOL     OW18751   3.109   3.122   8.836 -0.1721  0.1835  0.2860
 2431SOL    HW118752   3.171   3.143   8.766 -1.3373 -2.7154 -1.6055
 2431SOL    HW218753   3.165   3.064   8.887  1.8205  1.9858  0.1490
 2432SOL     OW18754   2.909   1.844   8.580 -0.4697  0.0792 -0.2769
 2432SOL    HW118755   2.930   1.908   8.648  4.7377 -0.4151 -1.3698
 2432SOL    HW218756   2.992   1.799   8.566 -0.2424  0.4116  0.0012
 2433SOL     OW18757   1.001   2.005   6.698 -0.4621 -0.5406  0.7442
 2433SOL    HW118758   1.070   1.939   6.689  0.9772  0.8873  1.4170
 2433SOL    HW218759   0.972   2.008   6.607 -1.6010  0.2355  1.1324
 2434SOL     OW18760   4.490   3.158  13.359 -0.6604  0.2508  0.1771
 2434SOL    HW118761   4.502   3.153  13.264 -0.3213  1.7585  0.1403
 2434SOL    HW218762   4.534   3.240  13.379 -0.2021 -0.0056  0.2277
 2435SOL     OW18763   2.987   3.563   1.696  0.4307  0.8043 -0.0199
 2435SOL    HW118764   2.929   3.576   1.771  0.2812  1.6971 -0.2948
 2435SOL    HW218765   3.049   3.636   1.689  0.1348  0.8573 -2.0892
 2436SOL     OW18766   3.004   4.505  11.115 -0.5625 -0.4233 -0.0287
 2436SOL    HW118767   3.100   4.504  11.110 -0.4377  1.9021  1.4987
 2436SOL    HW218768   2.974   4.428  11.068  0.5717 -1.2845  0.6613
 2437SOL     OW18769   0.857   3.631   1.769  0.1911 -0.2805  0.0738
 2437SOL    HW118770   0.850   3.712   1.718  2.1821 -0.9355 -1.2554
 2437SOL    HW218771   0.917   3.652   1.840  2.9308 -0.1609 -2.2471
 2438SOL     OW18772   0.784   2.803  14.528  0.6997  0.2069 -0.0820
 2438SOL    HW118773   0.834   2.747  14.470  0.9265  1.5087 -1.1443
 2438SOL    HW218774   0.852   2.814  14.595 -0.1415  1.7306  0.5310
 2439SOL     OW18775   0.366   0.794   7.549  0.0071 -0.5346  0.5882
 2439SOL    HW118776   0.318   0.715   7.574 -1.1843 -0.5033 -1.6059
 2439SOL    HW218777   0.438   0.757   7.498  0.7041  0.3183  0.9429
 2440SOL     OW18778   0.452   3.135  14.755 -0.1418  0.6115 -0.1173
 2440SOL    HW118779   0.399   3.091  14.689 -0.2567  3.0304 -1.6372
 2440SOL    HW218780   0.530   3.081  14.763  0.5110  1.5748 -0.0329
 2441SOL     OW18781   2.677   0.400   0.480  0.2292  0.3258  0.0758
 2441SOL    HW118782   2.588   0.395   0.513  0.6609  0.1493  1.2377
 2441SOL    HW218783   2.716   0.330   0.532 -2.5593 -0.0309  1.6581
 2442SOL     OW18784   3.176   0.091  10.403  0.0005  0.0003  0.0773
 2442SOL    HW118785   3.221   0.129  10.478  0.2047 -2.4632  1.2021
 2442SOL    HW218786   3.245   0.032  10.374 -0.4493 -0.5521  0.1265
 2443SOL     OW18787   3.991   3.598  14.589  0.0244  0.2158  0.3822
 2443SOL    HW118788   4.008   3.653  14.665  0.2664  0.0391  0.4555
 2443SOL    HW218789   3.896   3.604  14.579  0.1064  0.2157 -0.3712
 2444SOL     OW18790   3.107   4.130   6.071  0.0655 -0.4150  0.6560
 2444SOL    HW118791   3.078   4.058   6.128 -1.0337 -0.2100  0.3428
 2444SOL    HW218792   3.051   4.199   6.106  0.8049  0.1473  0.7459
 2445SOL     OW18793   0.384   4.555   8.297 -0.1354 -0.1967  0.1010
 2445SOL    HW118794   0.289   4.559   8.303 -0.1686  0.0996 -0.7597
 2445SOL    HW218795   0.409   4.636   8.342 -1.2619 -0.3617  1.0207
 2446SOL     OW18796   3.110   4.674   6.078  0.0577 -0.8273 -0.1387
 2446SOL    HW118797   3.162   0.018   6.124  1.5726 -0.8050 -1.8845
 2446SOL    HW218798   3.141   4.687   5.988  0.4679 -3.6024 -0.3825
 2447SOL     OW18799   3.442   4.501   4.308  0.3398 -0.0678  0.5961
 2447SOL    HW118800   3.509   4.552   4.262 -0.4477  0.3829 -0.0496
 2447SOL    HW218801   3.368   4.560   4.293  1.1466  0.6847 -0.4099
 2448SOL     OW18802   4.259   4.420   6.083 -0.0882 -0.0383 -0.4198
 2448SOL    HW118803   4.283   4.420   5.991  3.2844  0.3482  0.4760
 2448SOL    HW218804   4.259   4.326   6.099  2.6705 -0.1651 -1.2935
 2449SOL     OW18805   4.152   0.108   4.162  0.2072  0.0332  0.2833
 2449SOL    HW118806   4.184   0.161   4.090 -0.2371 -1.2924 -0.9067
 2449SOL    HW218807   4.060   0.133   4.163  0.2739  0.3610 -1.1392
 2450SOL     OW18808   1.981   0.112   9.922  0.4192 -0.2748 -0.1916
 2450SOL    HW118809   1.981   0.047   9.993 -1.0272 -1.0854 -0.9353
 2450SOL    HW218810   2.053   0.169   9.950 -1.3852  1.6504  0.5505
 2451SOL     OW18811   3.882   2.802   4.836 -0.2541 -0.4251 -0.3630
 2451SOL    HW118812   3.924   2.760   4.911 -3.7524  0.1494  1.8917
 2451SOL    HW218813   3.888   2.734   4.768  2.3697  0.8347 -1.4026
 2452SOL     OW18814   1.046   4.412   2.968 -0.3097  0.4327 -0.7200
 2452SOL    HW118815   0.969   4.457   2.931 -0.5579  1.5997  1.2313
 2452SOL    HW218816   1.086   4.484   3.016 -2.0894  0.6007  0.5139
 2453SOL     OW18817   3.542   3.862   5.143  0.3862 -0.1835 -0.7413
 2453SOL    HW118818   3.476   3.823   5.086  0.0024  0.5020 -0.7676
 2453SOL    HW218819   3.519   3.955   5.146  0.0322 -0.2718 -0.6771
 2454SOL     OW18820   1.412   2.944   3.976  0.2485  0.2560  0.3724
 2454SOL    HW118821   1.486   2.930   4.035  1.7494  2.3919 -1.0208
 2454SOL    HW218822   1.354   2.975   4.045 -0.8810  0.0175 -0.4703
 2455SOL     OW18823   0.574   0.297   3.494 -0.2047  0.1154 -0.4303
 2455SOL    HW118824   0.632   0.235   3.537 -0.4708  0.8004  0.9016
 2455SOL    HW218825   0.493   0.284   3.544  2.0265 -0.3354  3.0591
 2456SOL     OW18826   0.323   0.540   6.272 -0.5380 -0.6619  0.2268
 2456SOL    HW118827   0.397   0.535   6.333 -0.4822  1.8222  0.3783
 2456SOL    HW218828   0.337   0.469   6.209 -1.2997 -0.5443 -0.0693
 2457SOL     OW18829   0.184   4.280  10.381  0.0469 -0.2709 -0.3177
 2457SOL    HW118830   0.107   4.328  10.413  0.3102  0.0732 -0.2007
 2457SOL    HW218831   0.169   4.291  10.287 -1.0958  0.3200 -0.0694
 2458SOL     OW18832   4.262   3.652   9.354 -0.3610 -0.7081 -0.1827
 2458SOL    HW118833   4.169   3.649   9.334 -0.5242 -0.4279  0.5502
 2458SOL    HW218834   4.271   3.742   9.386  2.9863 -1.5203  1.2210
 2459SOL     OW18835   2.284   1.838   9.136  0.4425  0.1341 -0.2589
 2459SOL    HW118836   2.364   1.890   9.148 -0.4251  2.3553 -4.1063
 2459SOL    HW218837   2.325   1.752   9.126 -0.0243  0.2717 -3.2025
 2460SOL     OW18838   1.957   2.687   8.418 -0.1768  0.0213  0.0018
 2460SOL    HW118839   1.949   2.776   8.382 -0.6010  0.1180  0.3323
 2460SOL    HW218840   1.925   2.687   8.508  0.9963  0.3754  0.4278
 2461SOL     OW18841   4.402   4.010   7.123 -0.1596 -0.1005 -0.3895
 2461SOL    HW118842   4.429   3.984   7.211  0.3629 -1.3829 -0.9289
 2461SOL    HW218843   4.344   3.935   7.110  2.0321 -1.5229 -2.1224
 2462SOL     OW18844   1.114   0.505   8.392  0.5116  0.2647  0.0221
 2462SOL    HW118845   1.026   0.487   8.426  0.6579 -0.9649 -0.2485
 2462SOL    HW218846   1.110   0.597   8.365  1.0096  0.1149 -0.5539
 2463SOL     OW18847   0.179   3.016   8.510 -0.6834 -0.3201  0.6428
 2463SOL    HW118848   0.140   2.935   8.544  1.1329 -0.6050  2.0253
 2463SOL    HW218849   0.266   3.014   8.550  0.7139  1.1286 -2.3188
 2464SOL     OW18850   4.263   3.124  16.083  0.5498 -0.8009  0.2044
 2464SOL    HW118851   4.330   3.168  16.031  0.1902  1.2978  1.5234
 2464SOL    HW218852   4.186   3.129  16.027  0.3964  0.5841  0.5461
 2465SOL     OW18853   4.415   2.309   7.684  0.2420 -0.2770  0.3835
 2465SOL    HW118854   4.469   2.258   7.744 -0.6438 -0.0757  1.3468
 2465SOL    HW218855   4.403   2.398   7.716  0.1301 -0.5202  1.0115
 2466SOL     OW18856   0.012   2.783   0.813  0.2226 -0.5074  0.3568
 2466SOL    HW118857   0.065   2.855   0.847 -0.6603 -0.0953  0.8518
 2466SOL    HW218858   4.662   2.828   0.771  2.4216 -0.8826 -3.8075
 2467SOL     OW18859   0.568   0.424  12.878 -0.0474 -0.2335  0.1590
 2467SOL    HW118860   0.550   0.476  12.957 -2.1398 -0.3248 -0.2449
 2467SOL    HW218861   0.490   0.454  12.831  0.8771  0.6326 -0.8158
 2468SOL     OW18862   2.934   1.323  15.343 -0.1571  0.4616  0.0077
 2468SOL    HW118863   2.987   1.342  15.421  2.0654  0.7741 -1.5614
 2468SOL    HW218864   2.948   1.403  15.293 -0.0032  1.1775  1.2015
 2469SOL     OW18865   0.224   3.466   0.810 -0.1240 -0.0917  0.7577
 2469SOL    HW118866   0.142   3.511   0.829  0.8317  2.4885 -1.3430
 2469SOL    HW218867   0.299   3.515   0.842 -1.3097  3.2427 -1.6511
 2470SOL     OW18868   0.509   3.278   3.928 -0.0735 -0.0507  0.4077
 2470SOL    HW118869   0.433   3.330   3.955 -0.6550  0.3408 -1.9951
 2470SOL    HW218870   0.479   3.233   3.849 -0.0496  0.7557 -0.0699
 2471SOL     OW18871   0.679   0.734   1.449  0.1533  0.3252 -0.5101
 2471SOL    HW118872   0.722   0.686   1.378 -0.0148  0.1867 -0.5185
 2471SOL    HW218873   0.639   0.667   1.505  0.8377  0.6323  0.3494
 2472SOL     OW18874   0.166   1.290   3.090 -0.3507  0.1391  0.1042
 2472SOL    HW118875   0.126   1.303   3.004  2.8238  1.8306 -1.1234
 2472SOL    HW218876   0.141   1.373   3.130  0.4618  0.5526 -0.2478
 2473SOL     OW18877   4.568   0.842   9.984 -0.0717 -0.0885  0.0870
 2473SOL    HW118878   4.592   0.778   9.917  2.2304 -0.2601  1.0624
 2473SOL    HW218879   4.651   0.888   9.998 -0.1846  0.3134 -0.6077
 2474SOL     OW18880   0.760   1.213  10.365 -0.7183 -0.0075  0.0468
 2474SOL    HW118881   0.710   1.275  10.419 -2.7395 -1.6195  0.0536
 2474SOL    HW218882   0.729   1.137  10.415 -2.7227  0.3402 -0.6419
 2475SOL     OW18883   0.130   0.676   7.100 -0.3726 -0.1679 -0.1792
 2475SOL    HW118884   0.206   0.660   7.043  1.1572 -3.5683  2.7937
 2475SOL    HW218885   0.056   0.634   7.055 -0.1290  1.1461 -1.8096
 2476SOL     OW18886   1.106   1.922  16.703 -0.2056  0.7433 -0.2757
 2476SOL    HW118887   1.074   1.831  16.703  2.0748 -0.0340  2.3441
 2476SOL    HW218888   1.164   1.926  16.626  0.5723 -1.0329  0.2280
 2477SOL     OW18889   2.098   4.657   2.920 -0.0813  0.1811 -0.2580
 2477SOL    HW118890   2.071   4.602   2.846 -0.8979  0.2940 -0.0460
 2477SOL    HW218891   2.036   4.625   2.986  0.8719  1.4718  1.2477
 2478SOL     OW18892   1.518   1.024  11.750  0.4854  0.2448 -0.2589
 2478SOL    HW118893   1.448   1.024  11.816 -1.6480  1.4912 -2.5023
 2478SOL    HW218894   1.571   0.948  11.772  2.4211  2.1078  1.5075
 2479SOL     OW18895   0.304   3.200   9.970 -0.0144  0.5844 -0.2147
 2479SOL    HW118896   0.233   3.264   9.976  0.1456  0.6553  1.0217
 2479SOL    HW218897   0.377   3.256   9.996 -0.5923  0.1544  2.4256
 2480SOL     OW18898   0.205   2.154  14.883  0.3446 -0.4665 -0.2765
 2480SOL    HW118899   0.288   2.126  14.922  0.8307  0.3366 -0.7295
 2480SOL    HW218900   0.161   2.195  14.957 -0.2533 -1.1922 -0.2307
 2481SOL     OW18901   4.192   0.954  13.001 -0.1209 -0.2639 -0.3057
 2481SOL    HW118902   4.136   0.955  12.924  0.8481  1.8972 -0.9626
 2481SOL    HW218903   4.139   0.903  13.063 -2.7104  1.1933 -1.3112
 2482SOL     OW18904   2.523   3.535   0.146 -0.6080  0.6425  1.1655
 2482SOL    HW118905   2.550   3.557   0.057 -4.6223  0.8653  0.0137
 2482SOL    HW218906   2.489   3.446   0.135 -0.7859  0.9449 -0.7202
 2483SOL     OW18907   2.270   3.465   7.840 -0.2696  0.2877 -0.0625
 2483SOL    HW118908   2.183   3.429   7.858 -0.6912  2.1972  1.7356
 2483SOL    HW218909   2.312   3.462   7.926 -1.4589  2.5117  0.6057
 2484SOL     OW18910   2.645   0.414  12.946 -0.0056 -0.1184 -0.5913
 2484SOL    HW118911   2.706   0.488  12.953 -0.2530 -0.0891  1.4843
 2484SOL    HW218912   2.711   0.345  12.946 -0.3797 -0.4782 -0.4911
 2485SOL     OW18913   1.214   4.534  15.307 -0.2335 -0.5995  0.7937
 2485SOL    HW118914   1.206   4.469  15.237 -0.7916  0.1946  0.1090
 2485SOL    HW218915   1.121   4.541  15.331 -0.6133 -1.0745 -0.5016
 2486SOL     OW18916   0.661   3.158   7.104  0.0695 -0.0693 -0.3056
 2486SOL    HW118917   0.658   3.248   7.072 -1.1883  0.1097  0.3217
 2486SOL    HW218918   0.755   3.160   7.123 -0.4010 -1.1745  2.0960
 2487SOL     OW18919   3.945   1.795   3.333 -0.0867 -0.2591 -0.1750
 2487SOL    HW118920   4.020   1.852   3.316  0.1881 -0.3662  0.6555
 2487SOL    HW218921   3.873   1.856   3.319  0.6765  0.7580  0.3260
 2488SOL     OW18922   3.865   2.790   9.892 -0.2172  0.2596 -0.0334
 2488SOL    HW118923   3.853   2.810   9.800  1.4363  0.5047 -0.1896
 2488SOL    HW218924   3.871   2.871   9.943 -0.2063  1.0539 -1.3129
 2489SOL     OW18925   4.035   2.827   2.931 -0.2423  0.1024 -0.7004
 2489SOL    HW118926   3.988   2.843   2.849  2.0140  1.2579 -1.7577
 2489SOL    HW218927   4.012   2.735   2.946 -0.7941  0.1978 -0.9789
 2490SOL     OW18928   0.291   1.722   6.503 -0.2159  0.0558 -0.0706
 2490SOL    HW118929   0.345   1.750   6.577 -0.8658 -3.5938  1.7764
 2490SOL    HW218930   0.319   1.783   6.435  0.2761 -0.4196 -0.2961
 2491SOL     OW18931   4.237   1.016   2.668 -1.3612  0.5935  0.5981
 2491SOL    HW118932   4.205   1.090   2.616 -0.1673  0.2182 -0.6788
 2491SOL    HW218933   4.330   1.020   2.687 -1.1386  1.2131 -0.6141
 2492SOL     OW18934   1.959   3.060   5.984  0.3682  0.0473 -0.0950
 2492SOL    HW118935   2.024   3.116   6.025  0.9508 -0.7154  0.0364
 2492SOL    HW218936   1.995   2.971   5.986  0.9082  0.2669 -0.0979
 2493SOL     OW18937   3.385   3.709   7.480 -0.2385 -0.1133 -0.6602
 2493SOL    HW118938   3.384   3.712   7.575 -0.8565  1.6075 -0.7196
 2493SOL    HW218939   3.397   3.799   7.447 -0.0122  0.1360  0.1084
 2494SOL     OW18940   0.916   1.428   7.545  0.2536 -0.0278 -0.3682
 2494SOL    HW118941   0.928   1.351   7.602 -0.7877  0.6280  0.7539
 2494SOL    HW218942   1.001   1.472   7.537  0.2437  0.1554  0.4732
 2495SOL     OW18943   1.914   3.140   1.610  0.4207 -0.5058  0.3417
 2495SOL    HW118944   1.840   3.193   1.581 -0.1695 -2.0186 -0.9334
 2495SOL    HW218945   1.870   3.063   1.643  0.2224 -0.5177  0.0483
 2496SOL     OW18946   2.452   0.663   8.028 -0.1293  0.1248 -0.1743
 2496SOL    HW118947   2.490   0.609   7.958  0.7807 -0.9147  1.1364
 2496SOL    HW218948   2.359   0.643   8.015 -0.1367 -0.5077  0.8780
 2497SOL     OW18949   2.665   1.424  13.602  0.2475 -0.0742  0.2177
 2497SOL    HW118950   2.723   1.496  13.626 -1.2292  0.9443  0.7544
 2497SOL    HW218951   2.714   1.349  13.637  1.8464  0.5395 -0.7247
 2498SOL     OW18952   0.828   4.056   3.861  0.3229 -0.5914 -0.3576
 2498SOL    HW118953   0.792   3.978   3.903  0.5381  0.4705  1.7644
 2498SOL    HW218954   0.921   4.033   3.848  0.4350 -0.4325  0.1679
 2499SOL     OW18955   0.278   0.488   1.330  0.0377 -0.2565  0.3964
 2499SOL    HW118956   0.279   0.567   1.384 -2.4707  0.9014 -1.2837
 2499SOL    HW218957   0.354   0.508   1.275 -0.2529 -0.4773 -0.0889
 2500SOL     OW18958   2.796   0.772   7.927  0.1067  0.0009  0.3059
 2500SOL    HW118959   2.750   0.744   7.847  1.4267  2.4159 -1.3229
 2500SOL    HW218960   2.842   0.691   7.949 -0.0678  0.2736  1.6581
 2501SOL     OW18961   4.418   1.405   6.444  0.1213  0.5123 -0.2324
 2501SOL    HW118962   4.400   1.498   6.459 -0.5277  0.4590 -0.6759
 2501SOL    HW218963   4.507   1.408   6.410  0.5578 -1.4611  0.7585
 2502SOL     OW18964   4.494   3.539  11.378 -0.0264 -0.6899 -0.4163
 2502SOL    HW118965   4.444   3.501  11.451  0.0093 -1.3711 -0.7428
 2502SOL    HW218966   4.574   3.495  11.405  0.5132  0.6669  0.1829
 2503SOL     OW18967   2.141   2.918   4.874 -0.6971 -0.2031  0.0923
 2503SOL    HW118968   2.201   2.903   4.947  1.5375 -0.0660 -1.7129
 2503SOL    HW218969   2.177   3.003   4.848  2.1853 -1.9314 -1.6022
 2504SOL     OW18970   3.138   1.807   4.525 -0.1561  0.5094  0.1393
 2504SOL    HW118971   3.048   1.805   4.493 -1.2988  1.1916  3.3801
 2504SOL    HW218972   3.151   1.714   4.547 -0.4946  0.3165 -0.4593
 2505SOL     OW18973   4.613   3.275  17.508  0.1884 -0.4227  0.4378
 2505SOL    HW118974   4.534   3.242  17.465 -0.6425  2.4178 -0.2753
 2505SOL    HW218975   4.646   3.321  17.431  1.4049 -0.8334  0.7259
 2506SOL     OW18976   1.508   1.237   5.987 -0.2865  0.4711 -0.1743
 2506SOL    HW118977   1.552   1.294   6.050  1.1011 -0.3398 -0.4223
 2506SOL    HW218978   1.511   1.276   5.900 -0.2611 -0.3442 -0.5404
 2507SOL     OW18979   1.853   0.325   5.033  0.1530 -0.5672  0.1577
 2507SOL    HW118980   1.906   0.372   4.968 -1.7696 -0.1795 -1.1460
 2507SOL    HW218981   1.827   0.254   4.974  3.2719 -0.8406 -0.8799
 2508SOL     OW18982   4.630   4.631   5.355 -0.5289 -0.7318 -0.2997
 2508SOL    HW118983   4.606   4.545   5.389 -0.3757  0.3675  2.5776
 2508SOL    HW218984   4.669   4.597   5.274  0.4561  1.2299 -0.6502
 2509SOL     OW18985   2.561   4.431   1.422  0.2346 -0.3961  0.0522
 2509SOL    HW118986   2.587   4.360   1.363 -0.6116 -0.2567 -0.4834
 2509SOL    HW218987   2.607   4.409   1.503  1.9214  3.0919  0.0411
 2510SOL     OW18988   0.612   4.673   4.537 -0.3548 -0.0417  0.6706
 2510SOL    HW118989   0.629   4.713   4.623 -2.0023 -0.9303  1.4150
 2510SOL    HW218990   0.531   4.623   4.551 -0.3013 -0.4445 -0.4746
 2511SOL     OW18991   0.949   3.463   3.293 -0.4114  0.2378 -0.0006
 2511SOL    HW118992   0.992   3.531   3.240  0.3990 -0.4689 -0.2521
 2511SOL    HW218993   0.993   3.431   3.372 -1.0411  0.0457  0.2744
 2512SOL     OW18994   0.184   1.177  15.277 -0.3296 -0.9160 -0.0886
 2512SOL    HW118995   0.116   1.239  15.305 -0.0259 -0.2303 -0.8801
 2512SOL    HW218996   0.227   1.240  15.220 -1.0995 -0.0928  0.2423
 2513SOL     OW18997   4.622   3.260  15.790 -0.8329  0.1443 -0.5788
 2513SOL    HW118998   4.676   3.192  15.830  2.2560  0.5338 -4.0436
 2513SOL    HW218999   4.650   3.244  15.700  3.5611  0.3432  0.7235
 2514SOL     OW19000   2.894   2.503   2.338  0.7155  0.1665  0.4042
 2514SOL    HW119001   2.977   2.550   2.337 -0.9365  3.0842  0.4935
 2514SOL    HW219002   2.881   2.484   2.245 -1.6784  0.2459  0.7134
 2515SOL     OW19003   0.565   3.974  17.668  0.4947  0.4437 -0.4495
 2515SOL    HW119004   0.611   3.898   0.010 -0.5201 -0.5259 -1.1935
 2515SOL    HW219005   0.529   3.996   0.061  1.7955  0.1334  0.1568
 2516SOL     OW19006   4.200   2.629  15.149  0.4150  0.4618 -0.4578
 2516SOL    HW119007   4.189   2.578  15.230  2.0788 -1.4727 -1.4600
 2516SOL    HW219008   4.250   2.574  15.089  0.2967  0.6582 -0.7351
 2517SOL     OW19009   3.765   4.067   6.138 -0.4716  0.2099 -0.0513
 2517SOL    HW119010   3.738   3.977   6.123 -0.1518 -0.1641  1.6255
 2517SOL    HW219011   3.813   4.043   6.217 -0.0825 -2.7985 -1.2163
 2518SOL     OW19012   1.544   2.629   3.680  0.2182  0.2898 -0.3320
 2518SOL    HW119013   1.632   2.651   3.713  0.5843 -0.7393 -0.6271
 2518SOL    HW219014   1.507   2.717   3.669 -0.4952  0.2177  1.5169
 2519SOL     OW19015   2.621   1.434   3.774 -0.0157  0.0176 -0.5208
 2519SOL    HW119016   2.584   1.521   3.759  0.0738  0.7657  3.5176
 2519SOL    HW219017   2.712   1.465   3.776  0.2605 -0.6485 -2.9338
 2520SOL     OW19018   2.991   2.860   9.171  0.4001 -0.3615 -0.4496
 2520SOL    HW119019   3.010   2.766   9.178 -1.2419 -0.3476  4.8090
 2520SOL    HW219020   2.951   2.865   9.085 -0.9820 -0.2940  0.2012
 2521SOL     OW19021   2.363   1.094  14.446 -0.5283 -0.1469  0.2861
 2521SOL    HW119022   2.294   1.030  14.433 -0.4763  0.1803 -1.6336
 2521SOL    HW219023   2.365   1.104  14.541 -0.0358 -0.7989  0.3485
 2522SOL     OW19024   0.549   1.398  12.677  0.4094 -0.4593 -0.3956
 2522SOL    HW119025   0.643   1.394  12.695 -0.1605 -0.7550  2.6066
 2522SOL    HW219026   0.555   1.337  12.604  0.5501 -1.1336  0.1747
 2523SOL     OW19027   4.001   0.550   4.701 -0.5109 -0.0495 -0.0555
 2523SOL    HW119028   4.095   0.536   4.698 -0.1469  1.9385  2.0783
 2523SOL    HW219029   3.990   0.625   4.759 -1.4186 -0.0312 -0.2391
 2524SOL     OW19030   4.399   3.631   4.754  0.3592  0.2581 -0.4546
 2524SOL    HW119031   4.315   3.674   4.736 -0.1661  0.0940  1.6998
 2524SOL    HW219032   4.383   3.593   4.840  2.9178 -0.6188 -0.3833
 2525SOL     OW19033   3.306   2.819   6.963  0.6040  0.6334 -0.1884
 2525SOL    HW119034   3.288   2.870   7.042  1.0179  0.2093  0.1731
 2525SOL    HW219035   3.220   2.797   6.926 -0.6237  2.5999  1.4762
 2526SOL     OW19036   2.406   3.892   5.198 -0.1631 -1.0068  0.2278
 2526SOL    HW119037   2.337   3.949   5.164 -0.5211 -1.4384  0.2272
 2526SOL    HW219038   2.467   3.905   5.126 -0.1588 -4.5512 -0.4274
 2527SOL     OW19039   1.551   2.943   7.804  0.2255 -1.0443 -0.0982
 2527SOL    HW119040   1.645   2.960   7.808 -0.2613  1.6462  0.2248
 2527SOL    HW219041   1.537   2.893   7.884 -1.7947 -0.3915 -0.0524
 2528SOL     OW19042   3.535   2.080   2.142  0.5906  0.3384 -0.3960
 2528SOL    HW119043   3.556   1.987   2.140  0.1525  0.2749 -1.9686
 2528SOL    HW219044   3.513   2.090   2.049 -0.6047 -1.0886 -0.2579
 2529SOL     OW19045   1.020   2.038   8.029  0.2811 -0.5516 -0.1124
 2529SOL    HW119046   1.007   2.034   8.124  1.2476  5.5980  0.2805
 2529SOL    HW219047   0.971   2.111   7.992  1.2131 -0.5463 -1.3326
 2530SOL     OW19048   3.852   0.610   0.194  0.3408 -0.2477  0.4488
 2530SOL    HW119049   3.875   0.682   0.136 -0.9358 -0.7782 -0.7180
 2530SOL    HW219050   3.933   0.619   0.244  0.3114 -2.5244  0.9166
 2531SOL     OW19051   3.700   3.759  17.340 -0.0968 -0.2630 -0.1551
 2531SOL    HW119052   3.706   3.736  17.433  0.8581 -1.0038 -0.3940
 2531SOL    HW219053   3.647   3.838  17.342 -0.2885 -0.3536 -1.6196
 2532SOL     OW19054   1.835   3.470   7.515  0.0631 -0.1064  0.0412
 2532SOL    HW119055   1.922   3.474   7.476  0.2187 -0.3573  0.3535
 2532SOL    HW219056   1.794   3.547   7.477  2.0313  1.9791  2.1449
 2533SOL     OW19057   4.323   1.944  11.147 -0.2214  0.4674 -0.5614
 2533SOL    HW119058   4.263   2.008  11.185 -1.3139 -0.1843 -1.1809
 2533SOL    HW219059   4.408   1.988  11.144 -1.3998  3.0113  3.5002
 2534SOL     OW19060   3.740   3.399   0.181 -0.9439  0.3731  0.1056
 2534SOL    HW119061   3.671   3.392   0.114 -1.9450  0.6560  1.0963
 2534SOL    HW219062   3.798   3.470   0.153  1.1341 -1.1517  0.5695
 2535SOL     OW19063   0.894   0.502   2.753 -0.3871  0.7672  0.5106
 2535SOL    HW119064   0.958   0.569   2.779  1.5019 -1.3662  1.3949
 2535SOL    HW219065   0.809   0.541   2.772 -1.6762 -0.6062 -2.4263
 2536SOL     OW19066   3.301   4.626  11.734  0.3301 -0.3095  0.1129
 2536SOL    HW119067   3.232   4.625  11.801  1.3150 -0.5710  1.1124
 2536SOL    HW219068   3.262   4.696  11.682  0.3007 -0.5013 -0.1208
 2537SOL     OW19069   4.410   4.669   6.631 -0.8015  0.1777  0.0872
 2537SOL    HW119070   4.370   4.583   6.620 -3.0407  1.3300 -0.7298
 2537SOL    HW219071   4.498   4.647   6.662 -0.6067  0.3635 -0.3279
 2538SOL     OW19072   2.723   3.144   2.369 -0.3552 -0.3924 -0.1420
 2538SOL    HW119073   2.675   3.112   2.446 -1.2506  2.9966  0.7024
 2538SOL    HW219074   2.771   3.213   2.415  2.7298 -2.8539  0.3571
 2539SOL     OW19075   3.044   4.367   5.097 -0.4127  0.5513 -0.3665
 2539SOL    HW119076   2.973   4.418   5.136 -0.2563  0.9863 -0.6468
 2539SOL    HW219077   2.992   4.311   5.038  0.3484 -0.9412  0.3764
 2540SOL     OW19078   1.538   1.525   2.903  0.5430  0.1937  0.1303
 2540SOL    HW119079   1.627   1.550   2.928  0.3640  0.9673  0.0003
 2540SOL    HW219080   1.516   1.477   2.983  1.3603 -2.8287 -1.4506
 2541SOL     OW19081   3.054   2.536  12.622 -0.0088 -0.0857  0.2035
 2541SOL    HW119082   2.999   2.603  12.661 -0.0580 -0.3563  0.5961
 2541SOL    HW219083   3.032   2.460  12.675  0.4604  0.8141  1.6695
 2542SOL     OW19084   2.813   2.011  10.869  0.0586  0.8736  0.1053
 2542SOL    HW119085   2.734   1.960  10.853  1.8728 -1.7361 -0.4669
 2542SOL    HW219086   2.770   2.097  10.868 -0.5662  0.5670  0.2348
 2543SOL     OW19087   2.534   1.302   2.316 -0.2269  0.6393  0.7486
 2543SOL    HW119088   2.514   1.373   2.378  0.5824  0.2592  1.4530
 2543SOL    HW219089   2.619   1.325   2.280 -0.3130 -2.6668 -1.5045
 2544SOL     OW19090   2.013   2.399   6.963 -0.2390 -0.6397 -0.0366
 2544SOL    HW119091   2.030   2.348   6.884 -1.2304 -1.5020  0.3032
 2544SOL    HW219092   1.951   2.461   6.925 -1.1774 -1.3309  0.3874
 2545SOL     OW19093   2.429   3.880   7.815  0.0350 -0.5480  0.2717
 2545SOL    HW119094   2.485   3.956   7.801 -0.9271 -0.0123 -0.6101
 2545SOL    HW219095   2.471   3.844   7.894  0.5560  0.5204  0.4774
 2546SOL     OW19096   0.722   0.641  10.610  0.0002  0.2635  0.8284
 2546SOL    HW119097   0.790   0.699  10.576 -1.0268 -0.3934 -2.2778
 2546SOL    HW219098   0.729   0.560  10.560 -0.9287 -0.5739  2.0594
 2547SOL     OW19099   0.351   2.749   7.812  0.7216 -0.4089 -0.0165
 2547SOL    HW119100   0.417   2.779   7.874  0.1519  0.4145  0.1920
 2547SOL    HW219101   0.311   2.693   7.878  2.4290 -1.8637 -0.2257
 2548SOL     OW19102   0.659   0.532   5.320 -0.2900 -0.4780 -0.0032
 2548SOL    HW119103   0.587   0.595   5.318  0.0401  0.0134  3.5495
 2548SOL    HW219104   0.626   0.447   5.289  2.3611 -1.6581  0.4766
 2549SOL     OW19105   0.977   3.546   6.816 -1.0235 -0.6317 -0.0449
 2549SOL    HW119106   0.966   3.594   6.898  0.2845  0.1978 -0.3589
 2549SOL    HW219107   1.003   3.609   6.748  0.2796 -0.6071  0.4750
 2550SOL     OW19108   3.000   3.406   3.393  0.6936  0.0580  0.1962
 2550SOL    HW119109   3.041   3.346   3.456  0.1271  0.3669  0.8677
 2550SOL    HW219110   3.026   3.363   3.312 -2.5255  0.9721 -1.3619
 2551SOL     OW19111   2.008   0.632   3.817  0.1012  0.2380 -0.1163
 2551SOL    HW119112   1.916   0.635   3.792 -0.5944  0.0757  2.4974
 2551SOL    HW219113   2.013   0.619   3.911 -0.7942  2.2291  0.2135
 2552SOL     OW19114   1.517   2.383   7.519 -0.3773  0.4021  0.1567
 2552SOL    HW119115   1.590   2.434   7.554 -1.9391  3.1435 -0.5919
 2552SOL    HW219116   1.460   2.459   7.512 -0.2458  0.5123  0.2872
 2553SOL     OW19117   1.281   3.674  13.963 -0.0427  0.0279 -0.0725
 2553SOL    HW119118   1.372   3.669  13.990 -0.5199  3.4600  2.2253
 2553SOL    HW219119   1.265   3.768  13.976 -2.5858 -0.6869  2.1168
 2554SOL     OW19120   0.144   0.036  15.043  0.2668 -0.3206  0.1327
 2554SOL    HW119121   0.121   4.686  14.984 -1.6739 -0.3118  0.8680
 2554SOL    HW219122   0.080   0.098  15.009  0.9339 -0.5959 -1.6290
 2555SOL     OW19123   3.872   1.113   1.049 -0.5209 -0.5008  0.0878
 2555SOL    HW119124   3.832   1.057   0.982 -1.0613 -0.4115  0.3343
 2555SOL    HW219125   3.929   1.050   1.093  0.9888  0.1301 -0.9578
 2556SOL     OW19126   2.764   0.036  10.688 -0.3524  0.3875 -0.2595
 2556SOL    HW119127   2.846   0.031  10.639 -1.0932  0.6716 -1.5180
 2556SOL    HW219128   2.697   0.061  10.625 -0.2790 -0.8503 -0.8366
 2557SOL     OW19129   3.137   1.252  11.776  0.0950  0.2559 -0.1692
 2557SOL    HW119130   3.213   1.197  11.756 -1.1863 -1.4318 -0.3555
 2557SOL    HW219131   3.145   1.237  11.870 -0.0773 -0.6347 -0.2992
 2558SOL     OW19132   3.251   4.433   8.627  0.1188  0.4108  0.8381
 2558SOL    HW119133   3.214   4.497   8.567  0.7531 -0.9628 -1.0186
 2558SOL    HW219134   3.175   4.387   8.662  0.4208  0.4443  1.5460
 2559SOL     OW19135   3.543   2.580   5.756 -0.3122  0.0712  0.0548
 2559SOL    HW119136   3.527   2.488   5.776  0.3668 -0.2138 -0.6715
 2559SOL    HW219137   3.601   2.615   5.824  0.1534  0.2139 -0.4124
 2560SOL     OW19138   1.718   0.846   8.344  0.2814  0.0276 -0.2285
 2560SOL    HW119139   1.630   0.879   8.364  0.8502  2.2917 -1.5436
 2560SOL    HW219140   1.713   0.821   8.252 -0.0190 -1.8132  0.2850
 2561SOL     OW19141   2.057   4.449   3.527 -0.0504 -0.1753 -0.7059
 2561SOL    HW119142   2.079   4.528   3.578  2.8471 -1.7679  0.5133
 2561SOL    HW219143   2.133   4.439   3.470  1.1252  0.6029  0.7022
 2562SOL     OW19144   4.710   3.498  10.178  0.2170  0.6608 -0.6165
 2562SOL    HW119145   4.637   3.548  10.215  0.5018  1.0176 -0.5370
 2562SOL    HW219146   0.033   3.468  10.257  0.9465 -0.1444 -1.3425
 2563SOL     OW19147   0.082   1.096  17.624  0.3400 -0.5040 -0.7585
 2563SOL    HW119148   0.137   1.104  17.546  0.8062  0.3224 -0.3417
 2563SOL    HW219149   0.008   1.044  17.593  0.2044 -0.2699 -0.8191
 2564SOL     OW19150   4.541   0.619   0.529 -0.0511  0.3875 -0.3095
 2564SOL    HW119151   4.492   0.687   0.481 -1.0655  0.0704  0.2737
 2564SOL    HW219152   4.515   0.634   0.620 -1.6756  0.5957 -0.7999
 2565SOL     OW19153   0.922   0.331   2.525 -0.7638 -0.5391  0.0770
 2565SOL    HW119154   0.914   0.326   2.620  0.8460  2.1514  0.3574
 2565SOL    HW219155   0.885   0.416   2.503 -0.2488 -0.1373  0.7980
 2566SOL     OW19156   1.589   2.251   7.274 -0.1022  0.1412  0.0029
 2566SOL    HW119157   1.574   2.301   7.355  2.9506  3.6182 -1.5431
 2566SOL    HW219158   1.560   2.308   7.203 -0.1245  0.8689  0.5914
 2567SOL     OW19159   2.555   1.922   3.516 -1.3016 -0.9301  0.5025
 2567SOL    HW119160   2.510   1.891   3.438 -0.0729 -1.7878  0.1200
 2567SOL    HW219161   2.595   2.004   3.487  0.2865 -1.8862 -0.0166
 2568SOL     OW19162   1.477   0.844  17.119  0.4865 -0.0168  0.6411
 2568SOL    HW119163   1.393   0.802  17.103  0.9280 -1.0074  0.9630
 2568SOL    HW219164   1.530   0.782  17.069  1.8353  0.5376  1.3943
 2569SOL     OW19165   3.574   2.506  16.376 -0.2418 -0.3334 -0.5572
 2569SOL    HW119166   3.650   2.477  16.326 -0.6937 -0.3842 -1.2179
 2569SOL    HW219167   3.532   2.565  16.314 -1.4192  0.6711  1.1698
 2570SOL     OW19168   0.662   3.828   0.251  0.1052 -0.7083 -0.6028
 2570SOL    HW119169   0.677   3.770   0.326  1.4380  0.7772  0.2898
 2570SOL    HW219170   0.667   3.759   0.185  0.7101 -1.9526  0.7415
 2571SOL     OW19171   1.062   2.113   3.238  0.6158  0.2208  0.1218
 2571SOL    HW119172   1.014   2.074   3.164  0.7659  0.0946  0.0918
 2571SOL    HW219173   1.102   2.038   3.282  1.8995  2.1256  2.1609
 2572SOL     OW19174   3.219   0.840  15.904 -0.0484 -0.7329 -0.3033
 2572SOL    HW119175   3.139   0.813  15.857 -1.8844  0.4418  2.1390
 2572SOL    HW219176   3.276   0.844  15.828 -0.4306  2.6758 -0.4094
 2573SOL     OW19177   1.308   1.356   8.310 -0.6849  0.3382 -0.6264
 2573SOL    HW119178   1.395   1.365   8.271  0.1541  0.6508  1.3028
 2573SOL    HW219179   1.325   1.297   8.382 -2.6324  1.3721  0.6911
 2574SOL     OW19180   1.585   2.368   8.730  0.4482  0.2167 -0.3876
 2574SOL    HW119181   1.526   2.415   8.789 -2.2589 -3.9580  0.1917
 2574SOL    HW219182   1.623   2.305   8.791 -0.3952  0.2747  0.1900
 2575SOL     OW19183   1.542   4.385   7.079 -0.1656 -0.0766  0.4118
 2575SOL    HW119184   1.468   4.397   7.139 -0.1423  1.5082  0.1191
 2575SOL    HW219185   1.492   4.396   6.998 -0.8096 -1.1328  0.6543
 2576SOL     OW19186   1.932   2.183   4.240  0.2129 -0.3007  0.0435
 2576SOL    HW119187   2.024   2.188   4.268  0.1929  1.7074 -0.2431
 2576SOL    HW219188   1.927   2.263   4.188 -1.7829 -1.4987 -1.6399
 2577SOL     OW19189   4.401   4.363   3.334 -0.0929  0.1898 -0.6178
 2577SOL    HW119190   4.422   4.272   3.352 -1.1920 -0.4463 -2.5894
 2577SOL    HW219191   4.317   4.376   3.377 -0.3931 -2.0399 -0.5722
 2578SOL     OW19192   0.785   4.033   0.569 -0.2683  0.2916  0.4813
 2578SOL    HW119193   0.879   4.039   0.552  0.1326 -3.4423  1.4240
 2578SOL    HW219194   0.742   4.068   0.491 -2.2916 -0.8881  1.0714
 2579SOL     OW19195   3.027   4.105  17.148 -0.4277  0.5103 -0.2933
 2579SOL    HW119196   3.053   4.173  17.086  0.9495 -0.2303 -0.5080
 2579SOL    HW219197   3.067   4.027  17.110  0.0578  0.4633  0.3144
 2580SOL     OW19198   0.211   2.524   9.304 -0.4511  0.0000 -0.2071
 2580SOL    HW119199   0.183   2.606   9.343  0.6695  0.4276 -0.2911
 2580SOL    HW219200   0.226   2.456   9.369  0.3673  1.1080  0.7648
 2581SOL     OW19201   1.830   3.736   7.445  0.4948 -0.0773 -0.0698
 2581SOL    HW119202   1.899   3.798   7.423  1.2956 -0.7208  0.6227
 2581SOL    HW219203   1.765   3.797   7.482  0.1985  0.8418 -2.0925
 2582SOL     OW19204   3.963   4.542   5.904  0.2015  0.0521  0.9116
 2582SOL    HW119205   3.936   4.483   5.974  0.2992  0.7648  1.5493
 2582SOL    HW219206   3.986   4.612   5.965  1.6507  1.7460 -1.5467
 2583SOL     OW19207   0.334   1.751   8.805 -0.1126 -0.2348  0.4466
 2583SOL    HW119208   0.425   1.731   8.827 -1.5156 -5.1551  1.6804
 2583SOL    HW219209   0.283   1.722   8.881 -0.9318 -2.5639 -0.9965
 2584SOL     OW19210   0.088   3.369  13.364 -0.5145  0.2926  0.7372
 2584SOL    HW119211   0.041   3.351  13.282  0.0293  1.5865  0.1275
 2584SOL    HW219212   0.018   3.392  13.426 -0.7371  0.4810  0.4200
 2585SOL     OW19213   0.776   3.159   6.097 -0.0295 -0.0133 -0.6418
 2585SOL    HW119214   0.814   3.076   6.126  0.0876  0.2022 -0.1680
 2585SOL    HW219215   0.686   3.150   6.131  0.7695  0.3905  1.6113
 2586SOL     OW19216   1.066   4.081   0.094  0.0048  0.3666 -0.2088
 2586SOL    HW119217   0.980   4.124   0.091  0.3836  1.2741  2.3533
 2586SOL    HW219218   1.068   4.061   0.000  0.1694  1.1595 -0.3761
 2587SOL     OW19219   1.452   3.414  16.862 -0.3859  0.6781  0.0131
 2587SOL    HW119220   1.534   3.387  16.903  0.3994  3.0097  0.0161
 2587SOL    HW219221   1.437   3.356  16.788 -0.2795 -0.3562  0.8127
 2588SOL     OW19222   4.258   1.645  12.087 -0.1311 -0.5527 -0.3148
 2588SOL    HW119223   4.176   1.623  12.132 -0.5346  2.9470  0.6772
 2588SOL    HW219224   4.241   1.733  12.054  0.0906 -0.5056 -0.3049
 2589SOL     OW19225   4.034   2.884   4.515  0.2382  0.0266 -0.4568
 2589SOL    HW119226   4.026   2.896   4.420  1.7188  3.0235 -0.1826
 2589SOL    HW219227   3.949   2.919   4.539  0.4378  1.6015 -2.0136
 2590SOL     OW19228   2.435   4.539  11.226 -0.2040 -0.0759 -0.7920
 2590SOL    HW119229   2.509   4.575  11.275 -1.3299  0.3657  0.5814
 2590SOL    HW219230   2.468   4.451  11.206  0.8370  0.2465 -0.4712
 2591SOL     OW19231   1.418   3.610   8.509 -0.4300 -1.0309  0.3116
 2591SOL    HW119232   1.469   3.684   8.542  1.9364 -2.0485 -1.0485
 2591SOL    HW219233   1.489   3.552   8.481 -2.0372 -1.8900 -2.0620
 2592SOL     OW19234   3.341   1.199   6.533  0.1875 -0.3113  0.0743
 2592SOL    HW119235   3.405   1.253   6.487  1.0375 -0.6933  0.8152
 2592SOL    HW219236   3.365   1.208   6.625  0.8923 -0.0183 -0.1431
 2593SOL     OW19237   1.105   3.249  14.654  0.0887  0.0212  0.1794
 2593SOL    HW119238   1.087   3.319  14.592 -0.1382  0.3770  0.6419
 2593SOL    HW219239   1.155   3.190  14.598 -0.9355  1.5794 -2.3392
 2594SOL     OW19240   1.363   0.639   6.829 -0.4457 -0.2127  0.4175
 2594SOL    HW119241   1.401   0.696   6.896  0.3935 -1.3365  0.8962
 2594SOL    HW219242   1.377   0.551   6.863  0.8483 -0.0145  0.4039
 2595SOL     OW19243   3.498   2.746  11.863  0.8806  0.1998  0.4348
 2595SOL    HW119244   3.442   2.693  11.919 -1.0667 -0.3368 -2.0229
 2595SOL    HW219245   3.445   2.769  11.787  0.9501  1.8404  0.8873
 2596SOL     OW19246   3.790   2.740   6.830  0.4585 -0.3632  0.2187
 2596SOL    HW119247   3.849   2.711   6.900 -0.5394 -1.4289  0.6108
 2596SOL    HW219248   3.804   2.835   6.831  1.1891 -0.4635 -0.3164
 2597SOL     OW19249   4.292   1.713   6.984  0.6182  0.3155  0.4481
 2597SOL    HW119250   4.358   1.645   6.995  0.9240  0.4332 -0.7614
 2597SOL    HW219251   4.307   1.780   7.051 -0.6266 -1.1383  2.2118
 2598SOL     OW19252   1.532   1.908   9.408  0.3795 -0.3759  0.2629
 2598SOL    HW119253   1.579   1.906   9.491  0.0857  0.6615  0.4551
 2598SOL    HW219254   1.593   1.862   9.351 -0.7118 -2.2879  0.6216
 2599SOL     OW19255   1.538   3.703   5.186 -0.4215 -0.2037  0.2503
 2599SOL    HW119256   1.480   3.684   5.260 -0.4092 -1.8419 -0.1691
 2599SOL    HW219257   1.594   3.628   5.201 -0.5114 -0.5269 -1.0241
 2600SOL     OW19258   3.569   0.975   5.872  0.0186 -0.6238 -0.1308
 2600SOL    HW119259   3.527   0.894   5.842 -1.2518 -0.2179  0.5799
 2600SOL    HW219260   3.588   1.025   5.792 -0.0768 -0.4816 -0.0625
 2601SOL     OW19261   3.738   1.744   7.237 -0.5375  0.0558 -0.0827
 2601SOL    HW119262   3.652   1.748   7.194  0.2969 -2.0408 -1.9291
 2601SOL    HW219263   3.808   1.733   7.173  0.2172 -0.2690  0.8022
 2602SOL     OW19264   3.275   3.654  13.239 -0.1853  0.8196  0.4445
 2602SOL    HW119265   3.193   3.687  13.276 -0.7830 -1.0280  0.7710
 2602SOL    HW219266   3.241   3.586  13.181 -3.4606  1.8117  1.1746
 2603SOL     OW19267   2.478   1.792   3.291 -0.2904  0.1537  0.4201
 2603SOL    HW119268   2.507   1.852   3.223  0.1807 -0.0758  0.4200
 2603SOL    HW219269   2.500   1.709   3.249  1.4407 -0.4380  2.4851
 2604SOL     OW19270   4.482   2.706  13.143 -0.4088  0.7302  0.5884
 2604SOL    HW119271   4.468   2.744  13.230 -0.2050  0.0418  0.9239
 2604SOL    HW219272   4.393   2.696  13.109 -0.5205 -0.2734  1.1467
 2605SOL     OW19273   0.019   3.951   8.502  0.3730  0.2070  0.0688
 2605SOL    HW119274   0.011   3.857   8.520  0.2054  0.6799  2.4637
 2605SOL    HW219275   0.013   3.985   8.591  0.6595 -1.3770  0.6912
 2606SOL     OW19276   2.798   1.194   8.124 -0.2921 -0.4280  0.0103
 2606SOL    HW119277   2.704   1.189   8.109 -0.2696 -1.9446  0.3345
 2606SOL    HW219278   2.828   1.127   8.063 -3.4869 -2.6419  0.9043
 2607SOL     OW19279   4.374   4.233  17.328  0.1020  0.0615  0.1331
 2607SOL    HW119280   4.341   4.181  17.401  0.6950  0.8379  0.9547
 2607SOL    HW219281   4.343   4.322  17.345  1.4801  0.6119 -0.2345
 2608SOL     OW19282   2.635   3.060   6.473  0.5340  0.5419  0.5125
 2608SOL    HW119283   2.719   3.076   6.428  1.9178 -0.3458  2.7627
 2608SOL    HW219284   2.592   3.144   6.462 -0.6784  0.2592  3.0369
 2609SOL     OW19285   1.951   3.284   6.498 -0.2119  0.2872  0.5961
 2609SOL    HW119286   1.907   3.335   6.566 -0.0023 -0.3691  1.2273
 2609SOL    HW219287   1.926   3.195   6.523  1.3756 -0.6334 -1.0619
 2610SOL     OW19288   2.770   0.285   3.622  0.0050  0.3251 -0.2216
 2610SOL    HW119289   2.823   0.338   3.563 -0.7284 -0.9703 -2.0443
 2610SOL    HW219290   2.768   0.338   3.702  1.3499 -1.2907  0.8893
 2611SOL     OW19291   3.207   3.693  11.384  0.0273 -0.0333 -0.5188
 2611SOL    HW119292   3.162   3.628  11.330  1.1251 -1.0293 -0.2412
 2611SOL    HW219293   3.157   3.768  11.353 -1.1606 -1.5014 -2.1312
 2612SOL     OW19294   2.481   3.104   9.963  0.5566  0.3987 -0.1494
 2612SOL    HW119295   2.496   3.030  10.022 -0.8102  1.7632  1.8770
 2612SOL    HW219296   2.568   3.103   9.921  0.3279  1.7772 -0.6383
 2613SOL     OW19297   0.309   1.192   1.086 -0.3132 -0.0089 -0.2369
 2613SOL    HW119298   0.215   1.205   1.073  0.2799  2.6401 -1.8539
 2613SOL    HW219299   0.333   1.173   0.996  3.1230 -0.2913  0.7525
 2614SOL     OW19300   4.439   1.199  15.119 -0.1743  0.3061 -0.4574
 2614SOL    HW119301   4.351   1.170  15.096 -0.4458  0.4658  0.3859
 2614SOL    HW219302   4.416   1.240  15.202  0.8374 -0.0181 -0.0232
 2615SOL     OW19303   2.960   1.893  16.612  0.6070 -0.2933 -0.4345
 2615SOL    HW119304   2.954   1.899  16.707 -0.7959  0.2986 -0.5557
 2615SOL    HW219305   2.900   1.819  16.600  1.6829 -1.2412 -0.0283
 2616SOL     OW19306   0.699   1.489  15.240 -0.1283 -0.1470 -0.5338
 2616SOL    HW119307   0.764   1.526  15.180  1.2189 -3.9812 -1.4519
 2616SOL    HW219308   0.730   1.526  15.322  0.5505 -2.3677  0.2260
 2617SOL     OW19309   3.357   0.661  16.049 -0.1827 -0.1594  0.3715
 2617SOL    HW119310   3.289   0.597  16.026 -1.5149  0.9125  1.3104
 2617SOL    HW219311   3.310   0.743  16.035  0.6743  0.0772 -1.1130
 2618SOL     OW19312   1.084   4.055   4.669  0.3401  0.2942  0.1357
 2618SOL    HW119313   1.133   3.990   4.618 -2.3628 -0.5880 -1.3625
 2618SOL    HW219314   1.141   4.131   4.658 -1.4359  1.6850  0.6631
 2619SOL     OW19315   3.740   2.508   3.009  0.4136  0.0209  0.7887
 2619SOL    HW119316   3.706   2.592   3.040 -1.2450 -0.1473 -0.5361
 2619SOL    HW219317   3.763   2.469   3.094  0.4781  1.8278  1.5868
 2620SOL     OW19318   3.318   3.509  16.578  0.7868  0.4484  0.0520
 2620SOL    HW119319   3.238   3.471  16.544  0.5034  0.9452  0.1610
 2620SOL    HW219320   3.350   3.433  16.625 -0.5093  0.4906  0.9710
 2621SOL     OW19321   3.482   4.514  11.557  0.2027 -0.1462 -0.6407
 2621SOL    HW119322   3.529   4.471  11.629  0.1781 -0.1958 -0.6542
 2621SOL    HW219323   3.424   4.562  11.616  1.8634 -0.3100  1.1395
 2622SOL     OW19324   3.614   0.477   4.403 -0.3889 -0.0467  0.0991
 2622SOL    HW119325   3.707   0.490   4.423 -0.4620 -0.9065  1.0521
 2622SOL    HW219326   3.597   0.395   4.450  2.5467  1.4519  3.7967
 2623SOL     OW19327   3.625   1.660  16.718  0.8228  0.4039  0.3788
 2623SOL    HW119328   3.659   1.723  16.654 -1.8561  0.9969 -0.4637
 2623SOL    HW219329   3.532   1.676  16.702  0.8814  0.9312  0.5398
 2624SOL     OW19330   0.261   0.320   8.473  0.1378 -0.8133  0.0805
 2624SOL    HW119331   0.177   0.273   8.478  0.3665 -1.5620 -2.7255
 2624SOL    HW219332   0.302   0.272   8.545 -1.5083  0.1023  1.6443
 2625SOL     OW19333   4.095   3.378   1.819  0.2529  1.1730 -0.1192
 2625SOL    HW119334   4.121   3.328   1.742  1.6092  3.0076 -0.8403
 2625SOL    HW219335   4.019   3.325   1.843  0.2058  1.0477 -0.5357
 2626SOL     OW19336   0.602   3.098   6.758 -0.0513  0.0021 -0.1115
 2626SOL    HW119337   0.533   3.141   6.707 -1.2987  0.1344  1.7259
 2626SOL    HW219338   0.683   3.146   6.738 -0.8769  1.0692 -0.9216
 2627SOL     OW19339   2.669   3.921   4.894 -0.0682 -0.2623 -0.3716
 2627SOL    HW119340   2.640   3.983   4.828 -0.3955 -1.2010 -1.1012
 2627SOL    HW219341   2.686   3.850   4.833 -1.0462 -2.0226  1.4305
 2628SOL     OW19342   0.857   1.958   9.909  0.6411 -0.8382  0.0770
 2628SOL    HW119343   0.774   1.911   9.910 -0.7425  1.5294 -1.4210
 2628SOL    HW219344   0.853   1.999   9.996 -1.3388 -0.0266 -0.3758
 2629SOL     OW19345   2.807   1.232  12.465  0.2797  0.0181 -0.3295
 2629SOL    HW119346   2.774   1.315  12.429 -0.3661 -0.4962 -0.9071
 2629SOL    HW219347   2.842   1.182  12.392 -4.6047  0.0371 -2.6516
 2630SOL     OW19348   1.711   4.308   3.284  0.8952 -0.3831 -0.9422
 2630SOL    HW119349   1.731   4.215   3.295  0.4654 -0.3240  0.3047
 2630SOL    HW219350   1.638   4.309   3.221  0.9971 -0.2027 -1.0552
 2631SOL     OW19351   1.784   0.507   7.768 -0.0631 -0.3145 -0.5428
 2631SOL    HW119352   1.701   0.522   7.814  1.2171  2.0004  1.0179
 2631SOL    HW219353   1.796   0.422   7.811 -0.1955 -0.2132 -0.3036
 2632SOL     OW19354   4.101   1.942   5.005  0.4073  0.5952  0.0562
 2632SOL    HW119355   4.014   1.911   5.028  0.3842 -0.0231 -0.8579
 2632SOL    HW219356   4.153   1.868   5.039 -0.7409  0.3750  1.3399
 2633SOL     OW19357   2.518   3.704   9.722  0.4257  0.4787  0.1115
 2633SOL    HW119358   2.582   3.646   9.680  0.5047  1.0128 -0.5031
 2633SOL    HW219359   2.499   3.648   9.797  0.8207 -1.5436 -1.2901
 2634SOL     OW19360   4.254   3.834   8.222  0.2170 -0.3181  0.5330
 2634SOL    HW119361   4.320   3.876   8.277 -1.9553  2.4210  1.0138
 2634SOL    HW219362   4.221   3.909   8.173  0.8194  0.5691  1.4818
 2635SOL     OW19363   0.176   2.677   4.526 -0.3491 -0.8866  0.1919
 2635SOL    HW119364   0.271   2.690   4.526 -0.6075  0.9380  2.1675
 2635SOL    HW219365   0.157   2.657   4.434  2.8435  2.7303 -1.2257
 2636SOL     OW19366   0.549   2.145   9.945 -0.0714  0.1141 -0.2321
 2636SOL    HW119367   0.627   2.193   9.915 -0.6451  1.2753  0.1484
 2636SOL    HW219368   0.575   2.059   9.911  0.8885  1.0043 -1.7410
 2637SOL     OW19369   3.329   0.026   8.381 -0.0658  0.3849 -0.3129
 2637SOL    HW119370   3.286   0.088   8.321 -0.8699 -1.0646 -1.2266
 2637SOL    HW219371   3.259   4.692   8.413 -0.6054 -0.3894 -2.8540
 2638SOL     OW19372   0.401   3.906   4.703  0.1531 -0.4682  0.2478
 2638SOL    HW119373   0.450   3.836   4.659  0.6579  0.9126 -1.3569
 2638SOL    HW219374   0.432   3.881   4.790  0.0795  1.1094  0.7136
 2639SOL     OW19375   0.142   3.700  17.516  0.2939 -0.1140 -0.1895
 2639SOL    HW119376   0.076   3.699  17.585 -0.2840 -1.7697 -0.7686
 2639SOL    HW219377   0.200   3.630  17.545 -0.1453 -0.1683  0.5580
 2640SOL     OW19378   3.530   0.321   8.203  0.2860 -0.1909  0.2341
 2640SOL    HW119379   3.543   0.271   8.283 -1.0341 -2.0984 -0.7540
 2640SOL    HW219380   3.497   0.401   8.245 -0.7707 -1.2247  1.3855
 2641SOL     OW19381   1.520   3.893   4.769 -0.5070 -0.0450  0.1355
 2641SOL    HW119382   1.583   3.825   4.792  0.4492  1.0383  0.7099
 2641SOL    HW219383   1.446   3.841   4.799 -0.2505  0.4192  1.5522
 2642SOL     OW19384   4.714   2.210  15.442 -0.3615 -0.2247  0.2459
 2642SOL    HW119385   4.643   2.227  15.504  0.2403 -1.0744  1.1642
 2642SOL    HW219386   4.669   2.145  15.388 -0.5455 -0.4385  0.6578
 2643SOL     OW19387   0.231   0.796   6.261 -0.7380 -0.1634  0.8328
 2643SOL    HW119388   0.238   0.799   6.356  0.6014  1.8526  0.6626
 2643SOL    HW219389   0.265   0.708   6.245 -1.1546 -0.5580  2.1219
 2644SOL     OW19390   3.771   2.278   6.285 -0.1314 -0.6661 -0.2608
 2644SOL    HW119391   3.698   2.302   6.342  0.3606 -2.2294  1.0173
 2644SOL    HW219392   3.775   2.182   6.293  1.8357 -0.2622  3.6587
 2645SOL     OW19393   3.118   2.345  15.464  0.4431 -0.1050 -0.4865
 2645SOL    HW119394   3.157   2.260  15.485 -0.0612 -0.1856  0.1207
 2645SOL    HW219395   3.177   2.368  15.392  0.0153 -1.9902 -1.4363
 2646SOL     OW19396   3.247   2.903   7.564 -0.5030 -0.4601 -0.4862
 2646SOL    HW119397   3.173   2.958   7.590 -0.2218 -1.5795  2.6715
 2646SOL    HW219398   3.320   2.936   7.617 -0.6263 -1.5326  0.3576
 2647SOL     OW19399   2.368   3.114   4.818 -0.3212  0.0228  0.5149
 2647SOL    HW119400   2.417   3.054   4.875  1.7900  1.7054  0.4761
 2647SOL    HW219401   2.365   3.194   4.871  1.3059  0.0073  0.6215
 2648SOL     OW19402   1.261   3.295  14.900  0.8430  0.1904  0.0389
 2648SOL    HW119403   1.201   3.370  14.902  1.1918  0.4888 -0.7123
 2648SOL    HW219404   1.245   3.277  14.807  1.6425 -0.8502  0.0994
 2649SOL     OW19405   0.824   1.290  17.324  0.1358 -0.4110 -0.2600
 2649SOL    HW119406   0.776   1.373  17.323 -0.8311 -0.9826 -1.2813
 2649SOL    HW219407   0.827   1.277  17.418  0.2953  1.4332  0.0034
 2650SOL     OW19408   0.027   2.867   2.550  0.7935  0.0939  0.0584
 2650SOL    HW119409   4.705   2.844   2.469 -1.3908 -0.2170  1.3440
 2650SOL    HW219410   4.681   2.862   2.617 -0.1242 -0.7385 -0.9365
 2651SOL     OW19411   2.583   2.617   1.243 -0.1990 -0.2859  0.0488
 2651SOL    HW119412   2.561   2.526   1.263  0.6711 -0.6489 -0.6380
 2651SOL    HW219413   2.627   2.638   1.325 -1.4759 -3.1965  1.4920
 2652SOL     OW19414   0.721   1.538   4.505 -0.3442  0.2208  0.0624
 2652SOL    HW119415   0.693   1.460   4.553  0.4984 -0.6776 -0.9122
 2652SOL    HW219416   0.665   1.605   4.546  0.4773 -0.5669  2.4480
 2653SOL     OW19417   0.707   3.868  11.049 -0.2797  0.1922  0.0656
 2653SOL    HW119418   0.682   3.903  10.963 -0.2824 -0.4418 -0.1956
 2653SOL    HW219419   0.792   3.910  11.064 -0.8742  0.7276  1.9190
 2654SOL     OW19420   3.840   2.611   6.212  0.1487 -0.4884 -0.7929
 2654SOL    HW119421   3.801   2.608   6.299 -0.7242 -0.5104 -1.1771
 2654SOL    HW219422   3.784   2.544   6.173 -0.1275 -0.4792 -0.4134
 2655SOL     OW19423   1.247   0.769   7.208 -0.1321  0.1598  0.0798
 2655SOL    HW119424   1.295   0.691   7.236 -0.0320 -0.1358 -0.9518
 2655SOL    HW219425   1.299   0.835   7.255 -0.9708  0.9766 -0.1418
 2656SOL     OW19426   1.631   1.069   1.292 -0.7223  0.0416 -0.2159
 2656SOL    HW119427   1.698   1.136   1.308 -0.6726  0.5028 -2.3103
 2656SOL    HW219428   1.693   0.997   1.302 -1.0819 -0.1480  0.6266
 2657SOL     OW19429   1.428   3.946  12.585 -0.2750 -0.1476 -0.4568
 2657SOL    HW119430   1.473   3.997  12.518 -1.3668  0.0926 -1.0034
 2657SOL    HW219431   1.465   3.980  12.666  0.2569 -0.5941 -0.5094
 2658SOL     OW19432   2.378   4.138  14.811  0.3832  0.2203 -0.1416
 2658SOL    HW119433   2.402   4.178  14.727  0.0347  1.3638  0.3048
 2658SOL    HW219434   2.283   4.127  14.805  0.2680  0.5702  1.1099
 2659SOL     OW19435   3.000   1.608   7.288  0.1033 -0.2574  0.4807
 2659SOL    HW119436   2.979   1.688   7.336 -1.9823  0.1364 -1.1241
 2659SOL    HW219437   2.966   1.551   7.358  1.5068 -1.4228  0.2136
 2660SOL     OW19438   1.771   3.713   8.619 -0.4614 -0.1754  0.1290
 2660SOL    HW119439   1.731   3.687   8.536  1.4393 -0.4578 -0.6949
 2660SOL    HW219440   1.814   3.798   8.608  1.6288 -1.4099 -1.0613
 2661SOL     OW19441   1.494   1.584   8.543  0.6790  0.6608  0.4407
 2661SOL    HW119442   1.511   1.634   8.463 -0.3259 -0.3121 -0.3837
 2661SOL    HW219443   1.404   1.612   8.557  0.6769  0.5522  0.6441
 2662SOL     OW19444   4.718   4.292   3.045  0.5409  0.2780  0.2603
 2662SOL    HW119445   0.043   4.351   3.103 -0.3465  0.5001  0.7646
 2662SOL    HW219446   0.013   4.207   3.086  0.2902  0.2811  0.3777
 2663SOL     OW19447   1.061   4.706  17.189  0.3873  0.7375  0.0088
 2663SOL    HW119448   1.111   4.643  17.240 -1.4991  0.5358  1.5797
 2663SOL    HW219449   1.052   0.060  17.246  0.7491 -0.0100  1.0541
 2664SOL     OW19450   1.883   2.672  12.959 -0.1167  0.2134  0.2749
 2664SOL    HW119451   1.978   2.682  12.961  0.0410 -1.5005  1.1390
 2664SOL    HW219452   1.854   2.756  12.923  0.9148  1.0319  1.3366
 2665SOL     OW19453   2.482   3.636   3.068  0.3153 -0.5377  0.5069
 2665SOL    HW119454   2.501   3.729   3.058  0.2169 -0.2283  3.2614
 2665SOL    HW219455   2.405   3.636   3.124  1.4303 -0.6338  2.0502
 2666SOL     OW19456   2.795   0.024   9.392  0.5302 -0.2434 -0.4528
 2666SOL    HW119457   2.817   0.003   9.301 -0.3704  5.0097 -1.8893
 2666SOL    HW219458   2.702   0.002   9.388 -0.3304  3.3642 -0.4154
 2667SOL     OW19459   0.348   4.164   5.802  0.7039  0.4433 -0.1369
 2667SOL    HW119460   0.331   4.256   5.783  1.3309  0.1997 -1.8429
 2667SOL    HW219461   0.429   4.171   5.853  1.4491 -1.0877 -1.1230
 2668SOL     OW19462   2.570   4.320   5.220 -0.0542  0.0849 -0.3512
 2668SOL    HW119463   2.499   4.349   5.163 -0.6914 -0.9128 -0.0737
 2668SOL    HW219464   2.648   4.345   5.170 -1.9532  2.0400 -2.3039
 2669SOL     OW19465   4.700   1.661   8.815 -0.1843 -0.0861 -0.0539
 2669SOL    HW119466   0.032   1.681   8.739 -2.5874  1.5982 -1.3481
 2669SOL    HW219467   4.627   1.721   8.798  0.7749  1.3982  1.1531
 2670SOL     OW19468   0.387   2.526  11.689  0.2008 -0.0420 -0.1816
 2670SOL    HW119469   0.463   2.537  11.631 -0.7217 -2.0669 -1.7441
 2670SOL    HW219470   0.338   2.608  11.695  1.4381  0.6013  1.0666
 2671SOL     OW19471   2.845   1.081   9.619  0.0547 -0.0683  0.0712
 2671SOL    HW119472   2.877   0.995   9.591 -1.8765 -1.2477  1.5146
 2671SOL    HW219473   2.877   1.129   9.542 -0.8904  2.9749  1.5768
 2672SOL     OW19474   2.657   0.002  12.963  0.2306 -0.6779 -0.1080
 2672SOL    HW119475   2.625   0.047  12.885 -0.7989 -2.0567 -0.4856
 2672SOL    HW219476   2.627   4.636  12.944 -0.1610 -0.2868 -1.3011
 2673SOL     OW19477   0.232   1.353   5.085 -0.3943 -0.4776 -0.3323
 2673SOL    HW119478   0.207   1.436   5.045 -1.0118 -0.3841  0.2347
 2673SOL    HW219479   0.180   1.288   5.037 -1.8216  1.1587 -0.9916
 2674SOL     OW19480   3.688   1.065   8.296 -0.1046  0.6617  0.5273
 2674SOL    HW119481   3.632   1.021   8.232 -1.4993  2.2257  0.6808
 2674SOL    HW219482   3.734   0.988   8.329 -0.5620  0.1183 -0.1040
 2675SOL     OW19483   0.432   0.775  17.195 -0.0779 -0.1331 -0.1079
 2675SOL    HW119484   0.349   0.800  17.154 -0.1976  2.4609  1.6837
 2675SOL    HW219485   0.402   0.721  17.268 -1.2325 -0.0062 -0.4905
 2676SOL     OW19486   0.320   1.350   1.591  0.1749 -0.7498  0.2772
 2676SOL    HW119487   0.280   1.349   1.504  2.3705 -3.3436 -0.7140
 2676SOL    HW219488   0.341   1.257   1.605  0.8054 -0.7722 -0.8055
 2677SOL     OW19489   4.022   1.657   6.604  0.0116  0.2098 -0.1926
 2677SOL    HW119490   4.005   1.583   6.546 -1.5691  0.1021  0.4051
 2677SOL    HW219491   4.106   1.630   6.643 -0.4051  0.4464  0.8712
 2678SOL     OW19492   0.348   4.113  14.374 -0.2369  0.5166  0.6315
 2678SOL    HW119493   0.428   4.089  14.329 -0.5927 -0.4207  0.5061
 2678SOL    HW219494   0.358   4.206  14.396  1.1535  0.1709  1.4901
 2679SOL     OW19495   3.922   3.782   6.493 -0.2508 -0.1411  0.4977
 2679SOL    HW119496   3.829   3.764   6.475 -0.4299  1.0626  0.2111
 2679SOL    HW219497   3.927   3.848   6.562  0.8888  0.1680  0.1138
 2680SOL     OW19498   4.492   4.332  12.045  1.0508  0.0705  0.0266
 2680SOL    HW119499   4.564   4.387  12.016  1.2808  0.0361  0.5448
 2680SOL    HW219500   4.431   4.404  12.062  0.3751 -0.6986  0.9125
 2681SOL     OW19501   2.847   4.113   1.406  0.3307 -0.0567 -0.3924
 2681SOL    HW119502   2.766   4.156   1.378  0.7577  2.9981  3.0399
 2681SOL    HW219503   2.805   4.032   1.437 -1.7822  1.0760 -0.3105
 2682SOL     OW19504   3.595   1.065   6.690 -0.0740 -0.0761 -0.2862
 2682SOL    HW119505   3.531   1.136   6.705  1.9784  2.1624 -2.0986
 2682SOL    HW219506   3.557   0.979   6.705  0.1296 -0.1108  0.0331
 2683SOL     OW19507   0.703   1.502   3.303  0.4968 -0.1654 -0.2285
 2683SOL    HW119508   0.778   1.478   3.249  2.3068  1.9428  1.3436
 2683SOL    HW219509   0.712   1.598   3.301 -0.5853 -0.0730 -0.7762
 2684SOL     OW19510   1.887   2.302   8.224  0.5023  0.4553 -0.2113
 2684SOL    HW119511   1.910   2.209   8.228  2.8521  1.0740  0.5775
 2684SOL    HW219512   1.816   2.300   8.289  0.5965 -1.4275 -0.1579
 2685SOL     OW19513   1.545   4.451   8.539 -0.8260 -0.3008  0.6186
 2685SOL    HW119514   1.588   4.370   8.568  1.2844  0.5443 -0.1960
 2685SOL    HW219515   1.605   4.520   8.567 -1.6202 -0.5900  3.0247
 2686SOL     OW19516   1.192   2.563   3.787  0.1928 -0.3172  0.2962
 2686SOL    HW119517   1.230   2.562   3.875  2.0284 -0.2582 -0.4768
 2686SOL    HW219518   1.247   2.494   3.748  0.6878 -0.2763  0.9291
 2687SOL     OW19519   1.456   4.552  14.700  0.3680 -0.4228  0.3407
 2687SOL    HW119520   1.519   4.528  14.632  1.2528  1.0956  0.6374
 2687SOL    HW219521   1.470   4.646  14.703 -1.7071 -0.1049  0.1232
 2688SOL     OW19522   3.519   0.046   5.931  0.7582 -0.3071 -0.2566
 2688SOL    HW119523   3.594   0.005   5.889  0.1708 -0.9891 -0.6377
 2688SOL    HW219524   3.561   0.094   6.002 -2.1964 -1.5666  2.2989
 2689SOL     OW19525   1.713   1.940   9.616  0.0349 -0.3973 -0.0417
 2689SOL    HW119526   1.785   1.951   9.554 -0.5982  1.7828 -0.3665
 2689SOL    HW219527   1.747   1.867   9.669  0.4442 -1.9143 -2.3948
 2690SOL     OW19528   0.664   0.531   4.840 -0.1607  0.1784 -0.0350
 2690SOL    HW119529   0.748   0.505   4.802  0.3051 -0.5684  1.5067
 2690SOL    HW219530   0.662   0.468   4.911 -3.5687  2.2343  1.6874
 2691SOL     OW19531   0.073   2.003   4.377  0.6149  0.5269  0.4591
 2691SOL    HW119532   0.096   1.991   4.469 -1.4077  0.0237  0.9161
 2691SOL    HW219533   4.720   1.945   4.362 -0.6418  1.6845  2.2482
 2692SOL     OW19534   3.623   3.942   1.389 -0.0798 -0.1829  0.4285
 2692SOL    HW119535   3.716   3.951   1.411 -0.2724  3.6320 -0.3285
 2692SOL    HW219536   3.625   3.918   1.296  0.5646 -1.7945  0.8605
 2693SOL     OW19537   4.570   0.228  11.970  0.0417 -0.0806  0.0856
 2693SOL    HW119538   4.534   0.149  11.930 -0.1186  0.3280 -0.5641
 2693SOL    HW219539   4.646   0.245  11.914 -1.1636 -2.5442 -2.2659
 2694SOL     OW19540   0.219   0.699   2.009  0.1852  0.2610 -0.0605
 2694SOL    HW119541   0.287   0.715   2.075  2.0454 -3.0499 -1.1721
 2694SOL    HW219542   0.202   0.786   1.973  0.4940  0.7395  0.9439
 2695SOL     OW19543   0.754   1.845   8.661 -0.4095 -0.2729  0.2419
 2695SOL    HW119544   0.688   1.792   8.706 -0.5883  1.1399  1.6232
 2695SOL    HW219545   0.716   1.931   8.678  0.7268  0.2740  0.0357
 2696SOL     OW19546   2.456   2.349  12.793 -0.2375  0.0798 -0.2146
 2696SOL    HW119547   2.463   2.255  12.808 -0.0399  0.0758 -0.3230
 2696SOL    HW219548   2.543   2.388  12.787 -0.1593  0.0979  1.0556
 2697SOL     OW19549   3.273   1.975   4.229 -0.3329 -0.0963  0.4449
 2697SOL    HW119550   3.367   1.958   4.220 -0.4801 -0.0241 -1.3180
 2697SOL    HW219551   3.267   1.987   4.324 -1.3138 -0.8960  0.4718
 2698SOL     OW19552   1.142   1.278   0.201  0.3182  0.0754  0.4889
 2698SOL    HW119553   1.209   1.310   0.140 -1.1042  0.9950 -0.6020
 2698SOL    HW219554   1.111   1.368   0.216  2.7069  0.8538  0.6606
 2699SOL     OW19555   0.352   0.249   9.815  0.3301  0.3817  0.3686
 2699SOL    HW119556   0.303   0.293   9.745  1.9114 -0.8823 -1.5307
 2699SOL    HW219557   0.311   0.291   9.891  3.4996  1.8411  1.2664
 2700SOL     OW19558   4.357   3.155   6.141 -0.3865  0.4877 -0.0027
 2700SOL    HW119559   4.385   3.241   6.110  0.6548 -0.3776 -1.4544
 2700SOL    HW219560   4.316   3.185   6.222 -0.4735 -0.4231  0.2928
 2701SOL     OW19561   0.938   2.267   4.691 -0.0741  0.3051 -0.1219
 2701SOL    HW119562   1.019   2.292   4.646 -1.2236  1.5437 -1.5336
 2701SOL    HW219563   0.948   2.315   4.773 -1.5782 -2.2890  1.5922
 2702SOL     OW19564   3.609   1.660   2.379  0.1253 -0.4977  0.2081
 2702SOL    HW119565   3.577   1.619   2.299 -0.1030  2.7381 -1.3826
 2702SOL    HW219566   3.702   1.638   2.368  0.1667 -0.5017  0.5584
 2703SOL     OW19567   1.588   2.113   6.163 -0.0665  0.5514 -0.6996
 2703SOL    HW119568   1.616   2.203   6.145  1.0772  0.5519  1.1397
 2703SOL    HW219569   1.573   2.126   6.256 -0.4626 -0.5018 -0.6240
 2704SOL     OW19570   1.261   2.155   2.249 -0.2726  0.9723  0.4829
 2704SOL    HW119571   1.357   2.158   2.249 -0.3011  1.4286 -1.4999
 2704SOL    HW219572   1.224   2.202   2.324 -1.1411  1.2936 -0.1480
 2705SOL     OW19573   3.737   1.425   7.632 -0.1940  0.1143 -0.0179
 2705SOL    HW119574   3.832   1.436   7.627 -0.2003  0.9794  1.6142
 2705SOL    HW219575   3.708   1.495   7.573 -1.4875 -0.9788 -0.6587
 2706SOL     OW19576   2.367   2.908  12.754  0.3701 -0.1801 -0.3814
 2706SOL    HW119577   2.385   2.949  12.838 -1.4176 -0.2120  0.0079
 2706SOL    HW219578   2.279   2.939  12.733  0.0421 -0.7872  0.0910
 2707SOL     OW19579   1.995   2.825   6.993  0.0349  0.2600 -0.2034
 2707SOL    HW119580   2.069   2.808   7.052  0.2752 -0.7372 -0.8011
 2707SOL    HW219581   1.933   2.864   7.055 -0.9031 -1.4837 -0.0643
 2708SOL     OW19582   2.619   4.663  17.096 -0.3257  0.0436  0.3438
 2708SOL    HW119583   2.558   0.010  17.075  0.1358  0.2652 -0.2698
 2708SOL    HW219584   2.660   4.683  17.180 -1.4441 -0.8727  1.1106
 2709SOL     OW19585   0.655   2.940   5.735  0.6975 -0.3385 -0.3299
 2709SOL    HW119586   0.718   2.993   5.783 -0.6950  0.7810  0.2507
 2709SOL    HW219587   0.725   2.883   5.704  1.2849 -0.1037  0.5796
 2710SOL     OW19588   4.012   0.402   5.111  0.5034 -0.0824  0.1110
 2710SOL    HW119589   4.062   0.347   5.051  0.5994 -0.5449  0.6154
 2710SOL    HW219590   4.071   0.478   5.104 -0.0102  0.3711  0.6731
 2711SOL     OW19591   1.894   3.271   4.044 -0.0593  0.0179  0.3101
 2711SOL    HW119592   1.962   3.323   4.002  0.2829  0.2203  1.1161
 2711SOL    HW219593   1.911   3.182   4.013 -0.1422 -0.1580  0.7701
 2712SOL     OW19594   3.539   4.644   7.205  0.4269  0.0361 -0.6463
 2712SOL    HW119595   3.453   4.617   7.238  0.6269  0.2417  0.0529
 2712SOL    HW219596   3.590   4.629   7.285 -0.5505  0.2230  0.0147
 2713SOL     OW19597   0.410   2.028  11.147  0.0495 -0.7032  0.1527
 2713SOL    HW119598   0.452   2.103  11.104  0.9282 -0.7926  0.8454
 2713SOL    HW219599   0.342   2.020  11.081  1.0443  1.3283 -1.1304
 2714SOL     OW19600   3.510   2.678  13.542  1.0217  0.1604 -0.3838
 2714SOL    HW119601   3.557   2.742  13.488 -0.0548  0.2861 -1.1646
 2714SOL    HW219602   3.461   2.740  13.597 -0.4079  0.6926 -2.2470
 2715SOL     OW19603   2.489   2.595   2.034  0.1739  0.0325  0.5421
 2715SOL    HW119604   2.576   2.569   2.006  0.0839  0.6472 -0.3198
 2715SOL    HW219605   2.439   2.610   1.953 -0.2352 -0.7912  0.6432
 2716SOL     OW19606   4.081   0.370   3.350  0.5831  0.4227 -0.0658
 2716SOL    HW119607   4.037   0.372   3.436  0.3521  2.1590 -0.2144
 2716SOL    HW219608   4.110   0.279   3.347 -2.0132 -0.4441  0.8464
 2717SOL     OW19609   3.641   4.573   7.448 -0.1752 -0.1561  0.0581
 2717SOL    HW119610   3.648   4.614   7.534 -1.1070 -0.7048  0.3947
 2717SOL    HW219611   3.734   4.553   7.441 -0.3518 -0.7353 -0.7226
 2718SOL     OW19612   1.400   3.242   3.910  0.1472  0.2647  0.0465
 2718SOL    HW119613   1.492   3.216   3.907  0.0806  0.3744 -3.7878
 2718SOL    HW219614   1.361   3.177   3.968  0.9418  0.3583  0.7016
 2719SOL     OW19615   3.536   0.685   3.849 -0.0623 -0.1546  0.0622
 2719SOL    HW119616   3.495   0.625   3.911 -0.7245  0.3515  0.1215
 2719SOL    HW219617   3.571   0.740   3.918 -2.4262  2.3108 -0.6721
 2720SOL     OW19618   1.235   3.029  17.336  0.1876  0.0172  0.2158
 2720SOL    HW119619   1.280   3.049  17.419 -1.8324 -0.2097  1.3633
 2720SOL    HW219620   1.292   3.061  17.267 -1.1952 -1.5419 -1.6388
 2721SOL     OW19621   0.637   0.431  11.570 -0.1924  0.2050  0.1701
 2721SOL    HW119622   0.635   0.338  11.547  0.1623 -0.1063  1.4394
 2721SOL    HW219623   0.599   0.422  11.657  1.1296  0.4194  0.7631
 2722SOL     OW19624   3.616   0.463   3.146  0.2542  0.1543  0.3314
 2722SOL    HW119625   3.652   0.544   3.182 -0.0703  0.4352  0.0237
 2722SOL    HW219626   3.545   0.451   3.209 -0.5994 -0.6966 -0.7901
 2723SOL     OW19627   2.913   3.007   9.457 -0.3507 -0.9334 -0.5598
 2723SOL    HW119628   2.967   2.945   9.407  0.2715  0.6151 -1.8087
 2723SOL    HW219629   2.845   3.029   9.393 -0.4740  0.5092  0.0754
 2724SOL     OW19630   4.251   1.745   5.308 -0.3187  0.4437  0.4744
 2724SOL    HW119631   4.287   1.832   5.290  1.7700 -0.2243  1.4539
 2724SOL    HW219632   4.327   1.695   5.340 -0.4560 -0.8277 -1.1909
 2725SOL     OW19633   2.875   4.712  10.398 -0.0170 -0.3358 -0.7739
 2725SOL    HW119634   2.955   0.037  10.375  0.3031  0.1306  1.2910
 2725SOL    HW219635   2.810   0.036  10.345 -0.8037 -0.6854 -0.1137
 2726SOL     OW19636   1.976   1.417   8.522 -0.4798 -0.5846 -0.1161
 2726SOL    HW119637   2.032   1.392   8.596  0.0642 -1.0893 -0.6945
 2726SOL    HW219638   2.029   1.477   8.469 -1.6782 -0.4970 -1.2150
 2727SOL     OW19639   3.372   3.603  13.829  0.2523 -0.0711  0.2041
 2727SOL    HW119640   3.393   3.655  13.751 -0.8216  0.1332  0.0505
 2727SOL    HW219641   3.404   3.518  13.799  2.5132  0.1810  1.8621
 2728SOL     OW19642   4.121   3.457   7.389 -1.2052  0.1279 -0.3801
 2728SOL    HW119643   4.135   3.492   7.476  0.8675  0.8261 -1.0013
 2728SOL    HW219644   4.162   3.370   7.389  2.2631  1.7832 -2.1401
 2729SOL     OW19645   4.283   1.419  16.706  0.5766 -0.3803  0.1444
 2729SOL    HW119646   4.229   1.498  16.700 -1.6509 -1.7697  1.8323
 2729SOL    HW219647   4.309   1.400  16.616  0.5829 -1.6265  0.4114
 2730SOL     OW19648   4.513   1.768   1.986  0.5752  0.9738  0.5918
 2730SOL    HW119649   4.463   1.747   1.907  1.2718  0.7602  0.2090
 2730SOL    HW219650   4.527   1.679   2.018 -2.6767  0.8447  1.7171
 2731SOL     OW19651   1.186   4.685  14.356 -0.3867  0.0078 -0.1384
 2731SOL    HW119652   1.167   0.007  14.273  3.9181 -0.2694 -1.2584
 2731SOL    HW219653   1.216   0.033  14.413 -0.0392  0.4885 -0.9143
 2732SOL     OW19654   0.249   4.534   7.948  0.1132  0.2355  0.0890
 2732SOL    HW119655   0.321   4.501   8.002 -0.5857  2.3788  2.3508
 2732SOL    HW219656   0.179   4.485   7.990 -0.6875 -1.6567 -3.5647
 2733SOL     OW19657   1.427   4.278   5.312 -0.1929  0.3107 -0.1775
 2733SOL    HW119658   1.388   4.288   5.399  3.2525  0.7449  1.3389
 2733SOL    HW219659   1.412   4.361   5.267 -0.3328  1.4746  2.0291
 2734SOL     OW19660   4.303   1.167   6.950  0.1553 -0.4984  0.2021
 2734SOL    HW119661   4.393   1.186   6.925 -0.3676  2.2365  0.4171
 2734SOL    HW219662   4.307   1.119   7.032  0.6610 -0.2274  0.3340
 2735SOL     OW19663   0.754   2.313   9.564 -0.5411  0.4900 -0.3836
 2735SOL    HW119664   0.735   2.239   9.507 -1.9365  1.2650 -0.9285
 2735SOL    HW219665   0.844   2.338   9.545 -0.5254  1.8844  1.5399
 2736SOL     OW19666   3.057   3.402   2.721 -0.1650 -0.8032 -0.1149
 2736SOL    HW119667   3.049   3.465   2.792 -0.9844 -1.7627  0.6466
 2736SOL    HW219668   2.964   3.402   2.699  0.2423 -0.6817 -1.8102
 2737SOL     OW19669   0.226   2.580   1.638  0.2926  0.5498 -0.6808
 2737SOL    HW119670   0.219   2.567   1.733  0.1552 -0.6953 -0.8560
 2737SOL    HW219671   0.316   2.613   1.640  0.5539 -0.2942  1.4630
 2738SOL     OW19672   2.784   2.325   7.448  0.0560 -0.5671 -0.8137
 2738SOL    HW119673   2.738   2.255   7.402 -0.9135 -1.2428  1.2028
 2738SOL    HW219674   2.707   2.379   7.462 -2.4007 -3.7195 -2.1966
 2739SOL     OW19675   4.711   1.444   8.467 -0.0158  0.6292 -0.0946
 2739SOL    HW119676   0.049   1.479   8.402 -0.5356  4.3647  1.4222
 2739SOL    HW219677   0.038   1.444   8.549  0.7366 -3.2135 -0.5708
 2740SOL     OW19678   1.831   0.091   7.130  0.0175 -0.8106  0.3919
 2740SOL    HW119679   1.854   0.144   7.053 -1.5789 -0.2434  0.2964
 2740SOL    HW219680   1.883   0.012   7.117 -0.2329 -0.6134 -1.7792
 2741SOL     OW19681   1.499   0.751   7.017 -0.0830  0.1005  0.2273
 2741SOL    HW119682   1.536   0.720   7.100  0.0301 -0.2945  0.0270
 2741SOL    HW219683   1.466   0.840   7.035 -1.0450 -0.3141  0.5534
 2742SOL     OW19684   0.468   4.488   7.083  0.3001  0.4768 -0.1202
 2742SOL    HW119685   0.408   4.560   7.061  0.8355  1.5907  2.1230
 2742SOL    HW219686   0.465   4.484   7.179  1.1688  2.3002 -0.0199
 2743SOL     OW19687   0.864   2.324   4.071  0.1223 -0.1293 -0.3345
 2743SOL    HW119688   0.941   2.303   4.123  0.4469  0.8805 -0.4219
 2743SOL    HW219689   0.804   2.304   4.143  0.0363 -1.1549 -0.6870
 2744SOL     OW19690   2.621   2.824   8.594 -0.1420 -0.0630 -0.0659
 2744SOL    HW119691   2.680   2.846   8.523 -0.5004 -0.3027 -0.4426
 2744SOL    HW219692   2.654   2.888   8.657 -0.7054  0.6290 -0.4691
 2745SOL     OW19693   3.340   2.168   5.177  0.1226 -0.1787 -0.3100
 2745SOL    HW119694   3.298   2.086   5.204 -0.1460 -0.4512 -1.5666
 2745SOL    HW219695   3.362   2.217   5.256 -1.3227  0.7844 -0.5045
 2746SOL     OW19696   4.171   2.211  15.022 -0.4112 -0.6670  0.2520
 2746SOL    HW119697   4.170   2.131  14.970 -0.9522 -0.8795  0.5877
 2746SOL    HW219698   4.187   2.175  15.109  1.8990  0.6203  0.3741
 2747SOL     OW19699   3.489   1.017   7.164 -0.3879 -0.4584  0.1396
 2747SOL    HW119700   3.557   1.017   7.097 -0.0913 -1.5327  0.4246
 2747SOL    HW219701   3.433   0.947   7.129 -2.0908  1.2028 -0.4335
 2748SOL     OW19702   3.839   3.928   4.307  0.3158  0.2505 -0.2487
 2748SOL    HW119703   3.922   3.882   4.297 -0.0373 -0.1718 -1.2594
 2748SOL    HW219704   3.800   3.849   4.346 -1.6339  1.2373 -0.1701
 2749SOL     OW19705   3.503   3.034   3.289 -0.0889 -0.5464 -0.3123
 2749SOL    HW119706   3.479   3.017   3.198  1.1022 -1.5119 -0.4455
 2749SOL    HW219707   3.552   3.115   3.273 -1.0430 -0.1234 -1.0451
 2750SOL     OW19708   4.495   2.404   3.262  0.1357  0.3785 -0.2313
 2750SOL    HW119709   4.436   2.469   3.223 -1.7362 -1.2646 -0.1066
 2750SOL    HW219710   4.562   2.401   3.193  0.6554  2.1370  0.1903
 2751SOL     OW19711   2.097   2.502   8.180  0.3956 -0.0909  0.1412
 2751SOL    HW119712   2.109   2.575   8.242 -0.1856 -0.8153  1.0911
 2751SOL    HW219713   2.008   2.473   8.196  0.5171  0.0317  1.0663
 2752SOL     OW19714   0.196   4.392  15.522  0.1773  0.3174  0.2159
 2752SOL    HW119715   0.272   4.420  15.574  0.5955  1.1098 -0.8138
 2752SOL    HW219716   0.126   4.412  15.584 -0.3293 -1.3335  0.1797
 2753SOL     OW19717   0.492   3.886   2.835 -0.0607  0.8533 -0.3221
 2753SOL    HW119718   0.401   3.875   2.806  0.4646 -3.2759 -0.3702
 2753SOL    HW219719   0.489   3.902   2.929  1.7996  0.8805 -0.2757
 2754SOL     OW19720   0.481   0.198   0.841 -1.2631 -0.3115  0.0864
 2754SOL    HW119721   0.548   0.141   0.879  0.7866  0.5905 -2.1360
 2754SOL    HW219722   0.468   0.145   0.762  0.2013 -1.3162  0.5044
 2755SOL     OW19723   3.925   1.955   5.801  0.5488  0.0336  0.0102
 2755SOL    HW119724   3.942   2.041   5.839  0.1089  0.0133  0.2480
 2755SOL    HW219725   3.859   1.912   5.855 -0.0927  2.7482  1.3540
 2756SOL     OW19726   2.371   1.851   2.900  0.2820 -0.4190 -0.5624
 2756SOL    HW119727   2.362   1.804   2.817  0.0112 -0.7766 -0.3312
 2756SOL    HW219728   2.299   1.912   2.885 -0.6443 -1.4237 -0.1952
 2757SOL     OW19729   3.672   1.682   7.819  0.0569 -0.1621 -0.6313
 2757SOL    HW119730   3.710   1.621   7.756 -0.6991 -2.3005  0.9544
 2757SOL    HW219731   3.654   1.618   7.888 -1.4885  0.7967 -0.1569
 2758SOL     OW19732   3.175   4.039   7.301 -0.0144 -0.2375  0.1691
 2758SOL    HW119733   3.227   4.120   7.295 -1.3536  0.5704 -0.5160
 2758SOL    HW219734   3.234   3.992   7.360  2.0424  2.0205 -0.1036
 2759SOL     OW19735   3.187   4.259   5.684 -0.4860  0.0073 -0.3996
 2759SOL    HW119736   3.143   4.176   5.703  0.5315 -0.2826  0.6955
 2759SOL    HW219737   3.125   4.306   5.628 -1.9595  0.3779  1.5084
 2760SOL     OW19738   1.284   3.479   9.675  0.5322 -0.2732 -0.3057
 2760SOL    HW119739   1.357   3.464   9.735  0.3586  0.9434  0.2226
 2760SOL    HW219740   1.311   3.435   9.595  1.5871  2.6839 -1.5764
 2761SOL     OW19741   2.732   3.953   2.302  0.0149  0.5891  0.0513
 2761SOL    HW119742   2.715   3.866   2.266  0.1882  0.0311  1.3111
 2761SOL    HW219743   2.791   3.992   2.238  1.9557 -1.1663  0.7872
 2762SOL     OW19744   4.158   0.191   8.796  0.3434  0.5048 -0.3013
 2762SOL    HW119745   4.205   0.157   8.872 -0.7975 -0.2347  0.0688
 2762SOL    HW219746   4.179   0.284   8.798  0.7491  0.4475 -1.9293
 2763SOL     OW19747   4.569   0.185   2.269 -0.0914 -0.1005 -0.7583
 2763SOL    HW119748   4.647   0.238   2.251  0.5202 -0.5257  0.5901
 2763SOL    HW219749   4.539   0.224   2.351 -1.3836 -2.9798  0.1513
 2764SOL     OW19750   0.633   4.442  11.310  0.1181  0.7219 -0.4227
 2764SOL    HW119751   0.653   4.509  11.245 -1.0663  0.6186 -0.8869
 2764SOL    HW219752   0.538   4.453  11.324  0.2832  2.7872 -1.0180
 2765SOL     OW19753   1.428   0.953   6.645  1.1802 -0.2931  0.1889
 2765SOL    HW119754   1.519   0.979   6.655  0.2451  3.4585 -1.0525
 2765SOL    HW219755   1.403   0.999   6.565  0.7073  0.0733  0.5455
 2766SOL     OW19756   1.967   0.795   9.441  0.2149 -0.2835  0.1214
 2766SOL    HW119757   2.028   0.859   9.404  0.5500  0.0479  1.2728
 2766SOL    HW219758   1.972   0.825   9.531  0.6077  1.6453 -0.5374
 2767SOL     OW19759   0.410   1.001   2.554  0.1827  0.5686  0.2509
 2767SOL    HW119760   0.453   1.053   2.486 -1.1477 -0.1948 -1.1654
 2767SOL    HW219761   0.321   0.989   2.523  0.5986 -0.5851 -0.5066
 2768SOL     OW19762   0.311   0.105   1.825 -0.2835 -0.6226 -0.6483
 2768SOL    HW119763   0.316   0.055   1.744 -1.7483  0.2351 -1.2754
 2768SOL    HW219764   0.378   0.060   1.876 -1.1006 -0.5303  0.5279
 2769SOL     OW19765   3.171   3.469   0.944  0.0079  0.1102  0.3015
 2769SOL    HW119766   3.083   3.506   0.945  0.3046  0.8520 -0.7905
 2769SOL    HW219767   3.141   3.379   0.934 -1.5434  0.4934  1.3791
 2770SOL     OW19768   2.707   4.621   2.994 -0.3592 -0.1661  0.2899
 2770SOL    HW119769   2.629   4.571   2.974 -0.8395  0.8724 -0.4076
 2770SOL    HW219770   2.770   4.554   3.023  0.5062  0.6660  0.3302
 2771SOL     OW19771   0.607   1.969   5.531  0.6126 -0.6247 -0.4120
 2771SOL    HW119772   0.680   2.010   5.579 -0.7200  0.0146  1.0672
 2771SOL    HW219773   0.611   1.882   5.570 -3.9962 -0.1213  1.1659
 2772SOL     OW19774   0.810   4.234   4.920  0.1545 -0.2537 -0.8226
 2772SOL    HW119775   0.785   4.209   5.009  0.8071  1.4860 -0.1460
 2772SOL    HW219776   0.858   4.314   4.941  0.7387 -1.1752  1.3453
 2773SOL     OW19777   2.192   0.412   6.491 -0.2182  0.1271  0.1100
 2773SOL    HW119778   2.206   0.503   6.465  1.0081 -0.2436 -0.5134
 2773SOL    HW219779   2.155   0.444   6.573 -0.0610  0.7646 -0.0697
 2774SOL     OW19780   1.017   1.566   6.972 -0.1650  0.2710 -0.7029
 2774SOL    HW119781   1.054   1.498   7.027  0.8316 -0.2637 -2.0580
 2774SOL    HW219782   0.940   1.597   7.020 -1.3631 -2.2023 -1.0250
 2775SOL     OW19783   0.298   2.252   2.767 -0.0182  0.8613 -0.5215
 2775SOL    HW119784   0.373   2.300   2.731 -0.2520 -0.9471 -3.3891
 2775SOL    HW219785   0.243   2.244   2.689 -0.1910 -2.8429 -0.0232
 2776SOL     OW19786   1.404   2.189   9.596 -0.0429  0.3103  0.1773
 2776SOL    HW119787   1.456   2.179   9.676  0.2467  2.5070  0.2529
 2776SOL    HW219788   1.321   2.183   9.642  0.5794  1.0947  1.3976
 2777SOL     OW19789   3.157   3.192  12.879 -0.0876  0.5097  0.0460
 2777SOL    HW119790   3.116   3.231  12.801 -1.4401  0.3152  0.6605
 2777SOL    HW219791   3.096   3.233  12.940 -1.2531 -1.9518  0.5374
 2778SOL     OW19792   4.032   1.719   6.217 -0.3949  0.4850  0.2044
 2778SOL    HW119793   4.008   1.781   6.286 -0.5786 -0.9082  1.3900
 2778SOL    HW219794   4.111   1.767   6.189  0.3591 -1.7629 -1.4981
 2779SOL     OW19795   2.051   1.659  11.122  0.0053 -0.1635 -0.2966
 2779SOL    HW119796   2.086   1.741  11.156 -0.0126  0.3039 -1.3910
 2779SOL    HW219797   2.105   1.643  11.044  1.8992 -0.4427  1.0612
 2780SOL     OW19798   0.316   3.979   2.105  0.3872 -0.0557  0.3169
 2780SOL    HW119799   0.409   3.984   2.081  0.0526  0.2165 -0.9288
 2780SOL    HW219800   0.283   4.065   2.132 -0.9860 -0.4279 -0.1750
 2781SOL     OW19801   4.055   0.710  12.049 -0.3230  0.4455 -0.0983
 2781SOL    HW119802   4.015   0.687  11.965 -0.8793  0.4511  0.1662
 2781SOL    HW219803   4.146   0.712  12.022  0.1580  0.2367  1.5362
 2782SOL     OW19804   3.948   3.917   8.690  0.1915  0.1014 -0.0549
 2782SOL    HW119805   3.902   3.846   8.646  2.0273 -2.3243  1.8805
 2782SOL    HW219806   3.896   3.996   8.677 -0.0797 -0.1906 -0.7199
 2783SOL     OW19807   0.603   3.635  15.953 -0.0694 -0.4218  0.0442
 2783SOL    HW119808   0.682   3.596  15.991  1.1302  1.9283 -0.0581
 2783SOL    HW219809   0.567   3.567  15.897  0.4489  1.7899 -2.9393
 2784SOL     OW19810   3.718   3.592  16.636  0.4771  0.2369 -0.6992
 2784SOL    HW119811   3.709   3.509  16.590  2.8257  0.2831 -1.2492
 2784SOL    HW219812   3.635   3.601  16.684  0.3519 -1.3827 -0.6261
 2785SOL     OW19813   3.177   0.129   3.250  0.2534  1.1907  0.0541
 2785SOL    HW119814   3.162   0.136   3.155  1.6798  1.7001 -0.1325
 2785SOL    HW219815   3.264   0.166   3.265  1.5212 -1.8086  0.2016
 2786SOL     OW19816   2.154   3.239   5.187 -0.4214 -0.4020  0.0508
 2786SOL    HW119817   2.155   3.298   5.262 -1.6454 -1.5550  0.9706
 2786SOL    HW219818   2.237   3.191   5.190 -1.3103 -1.9339  0.0584
 2787SOL     OW19819   3.719   0.819   7.324 -0.4229 -0.5283  0.2939
 2787SOL    HW119820   3.656   0.885   7.353  0.4444  0.5461 -0.2472
 2787SOL    HW219821   3.690   0.803   7.234 -0.9923 -2.4108  0.8186
 2788SOL     OW19822   0.552   2.145  17.537 -0.2498  0.4387  0.2180
 2788SOL    HW119823   0.604   2.212  17.582 -0.3742  0.4599  0.3318
 2788SOL    HW219824   0.467   2.190  17.536 -0.1698  0.6181  1.3468
 2789SOL     OW19825   3.710   3.067   8.902 -0.1890 -0.2050 -0.5644
 2789SOL    HW119826   3.635   3.101   8.951 -0.8751 -1.3921 -0.7966
 2789SOL    HW219827   3.704   2.975   8.927  1.2563  0.0074  0.5508
 2790SOL     OW19828   2.699   2.882   2.872 -0.2817 -0.1906 -0.0967
 2790SOL    HW119829   2.724   2.797   2.836  1.0297 -0.0240  0.3953
 2790SOL    HW219830   2.646   2.863   2.949  0.6749  0.0787  0.6377
 2791SOL     OW19831   3.963   3.510   2.564 -0.4671  0.0374 -0.2119
 2791SOL    HW119832   3.919   3.581   2.610 -0.9022 -0.4214  0.0845
 2791SOL    HW219833   4.005   3.557   2.492  0.3602  2.0096  1.5564
 2792SOL     OW19834   2.783   0.055   2.756 -0.4313  0.1872 -0.1104
 2792SOL    HW119835   2.778   0.011   2.671 -0.3684  1.3828 -0.7388
 2792SOL    HW219836   2.774   4.704   2.816  1.0338  0.7604  0.8228
 2793SOL     OW19837   3.570   4.219   9.313 -0.4660 -0.0220 -0.4477
 2793SOL    HW119838   3.565   4.227   9.218 -0.8762  1.4323 -0.2986
 2793SOL    HW219839   3.643   4.158   9.329 -0.5937  0.1991  1.0207
 2794SOL     OW19840   3.726   1.746   3.565 -0.3346  0.5645 -0.3974
 2794SOL    HW119841   3.692   1.828   3.601 -1.3215  0.0157 -0.0607
 2794SOL    HW219842   3.762   1.772   3.481  2.1991 -0.3692  0.3994
 2795SOL     OW19843   0.011   1.411   6.831 -0.0308 -0.3702 -0.4636
 2795SOL    HW119844   4.682   1.336   6.862 -0.7556  0.2667 -0.1352
 2795SOL    HW219845   0.024   1.394   6.738  0.0249 -3.8537  0.1748
 2796SOL     OW19846   1.868   3.538   2.317  0.0148 -0.0557  0.1456
 2796SOL    HW119847   1.846   3.571   2.404 -2.5825 -1.4996  0.0464
 2796SOL    HW219848   1.805   3.579   2.257 -0.9029  0.1844  1.2716
 2797SOL     OW19849   2.762   1.454   6.694  0.3839 -0.0236 -0.7065
 2797SOL    HW119850   2.727   1.377   6.739 -0.9067  0.0661 -1.5538
 2797SOL    HW219851   2.719   1.445   6.609 -0.4059  0.4972 -0.3650
 2798SOL     OW19852   2.327   0.501   5.956 -0.1099  0.0768  0.5666
 2798SOL    HW119853   2.372   0.438   6.012  0.7429  0.4361  0.2825
 2798SOL    HW219854   2.349   0.587   5.992  1.9600 -0.0860 -0.3144
 2799SOL     OW19855   2.416   2.101   3.823  0.0451 -0.0090  0.2243
 2799SOL    HW119856   2.507   2.072   3.818  0.7401  2.0763  0.8116
 2799SOL    HW219857   2.386   2.089   3.913  0.5917 -0.3631  0.3641
 2800SOL     OW19858   4.717   3.548   8.064 -0.2415  0.1732  0.0132
 2800SOL    HW119859   4.685   3.556   8.154  0.1639 -0.5032  0.2215
 2800SOL    HW219860   0.081   3.509   8.078 -0.6198 -0.8360 -0.4608
 2801SOL     OW19861   4.270   0.153   0.849 -0.1358  0.1545  0.0573
 2801SOL    HW119862   4.194   0.185   0.898  2.1148  1.3514  2.7682
 2801SOL    HW219863   4.337   0.139   0.915 -0.1310 -0.2149 -0.0288
 2802SOL     OW19864   3.568   4.661   6.694 -0.5682 -0.1716  0.2072
 2802SOL    HW119865   3.604   4.659   6.783  2.4242 -0.6114 -1.0303
 2802SOL    HW219866   3.526   4.575   6.681 -1.9729  0.6544 -0.7044
 2803SOL     OW19867   1.432   4.670  15.966 -0.8344  0.1417  0.0607
 2803SOL    HW119868   1.364   4.604  15.949 -1.9023  1.4632 -0.8589
 2803SOL    HW219869   1.425   0.011  15.895 -0.2662  0.2270  0.0840
 2804SOL     OW19870   0.198   4.064  14.852 -0.9758 -0.5474  0.2609
 2804SOL    HW119871   0.286   4.069  14.888 -1.1037  0.9154  0.3712
 2804SOL    HW219872   0.178   4.156  14.834  1.4781  0.1189  1.0030
 2805SOL     OW19873   4.373   3.756   8.738  0.8673 -0.2124 -0.1255
 2805SOL    HW119874   4.318   3.813   8.684  1.4804 -1.8484 -2.5123
 2805SOL    HW219875   4.303   3.721   8.794  0.7313  0.5451  0.1709
 2806SOL     OW19876   4.094   4.481   5.048 -0.0436  0.2338 -0.1136
 2806SOL    HW119877   4.084   4.499   5.141 -1.5410 -0.1509 -0.2047
 2806SOL    HW219878   4.145   4.400   5.048 -2.1646 -1.1085 -0.5179
 2807SOL     OW19879   1.706   4.341   6.427 -0.2755  0.2497 -0.1132
 2807SOL    HW119880   1.744   4.259   6.397  2.1782  1.3206  0.0880
 2807SOL    HW219881   1.768   4.401   6.384 -0.4272  0.6607  0.2425
 2808SOL     OW19882   4.067   3.034  13.318 -0.4242  0.3616 -0.3098
 2808SOL    HW119883   4.029   3.121  13.306 -0.0218  0.5070 -0.5064
 2808SOL    HW219884   4.108   3.027  13.232 -0.8805 -1.3966 -0.3911
 2809SOL     OW19885   4.391   1.396   9.250 -0.0445 -0.3922 -0.0164
 2809SOL    HW119886   4.453   1.447   9.199  0.3814  0.6689  1.5471
 2809SOL    HW219887   4.335   1.470   9.275 -1.8074 -1.1211 -1.7744
 2810SOL     OW19888   2.521   1.299   6.177  0.1628  0.2814 -0.1182
 2810SOL    HW119889   2.569   1.315   6.096  2.0878  0.1735  1.0052
 2810SOL    HW219890   2.432   1.302   6.143  0.8435  3.3241 -1.6332
 2811SOL     OW19891   3.698   2.914   0.365 -0.0883 -0.3247  0.4062
 2811SOL    HW119892   3.718   3.003   0.336  2.2656 -0.5848  1.2091
 2811SOL    HW219893   3.621   2.896   0.311 -0.2299 -1.7132  1.0729
 2812SOL     OW19894   0.856   1.571  14.577 -0.2791  0.1148  0.1844
 2812SOL    HW119895   0.889   1.500  14.521 -0.1078 -0.0512  0.4971
 2812SOL    HW219896   0.762   1.554  14.584 -0.1739  0.3627  2.1856
 2813SOL     OW19897   3.482   3.460   4.057  0.2442 -0.0476  0.0164
 2813SOL    HW119898   3.419   3.451   3.986 -0.9739 -0.9723  1.1951
 2813SOL    HW219899   3.532   3.535   4.025 -0.4580  0.1502 -0.6212
 2814SOL     OW19900   3.218   0.362   2.953  0.7625 -0.0948 -0.3085
 2814SOL    HW119901   3.251   0.399   3.034  1.3484  2.1633 -1.5840
 2814SOL    HW219902   3.195   0.444   2.910 -1.0904 -1.4355 -1.8994
 2815SOL     OW19903   1.979   0.874   3.260 -0.0217  0.4709 -0.5238
 2815SOL    HW119904   2.038   0.907   3.193 -0.9921  0.8162 -1.2091
 2815SOL    HW219905   1.891   0.876   3.222 -1.6087 -0.0530  3.1298
 2816SOL     OW19906   1.810   3.800   5.699 -0.4855 -0.7151 -0.1803
 2816SOL    HW119907   1.787   3.889   5.726  2.0434 -0.2719  0.4921
 2816SOL    HW219908   1.727   3.779   5.657  1.1912 -3.1516 -2.2923
 2817SOL     OW19909   4.512   1.293   9.507 -0.1202 -0.6369 -0.1782
 2817SOL    HW119910   4.477   1.306   9.419 -0.5659  1.5144  0.3040
 2817SOL    HW219911   4.432   1.317   9.555  0.0398 -0.0076 -0.2250
 2818SOL     OW19912   1.865   1.309  13.865 -0.3054  0.4403 -0.3749
 2818SOL    HW119913   1.802   1.248  13.827  0.3483 -0.9277  0.7379
 2818SOL    HW219914   1.837   1.321  13.956  0.2098 -1.1023 -0.0091
 2819SOL     OW19915   1.990   3.405   7.886  0.2350 -0.1049  0.1376
 2819SOL    HW119916   1.963   3.495   7.868 -1.1073 -0.5632 -0.1135
 2819SOL    HW219917   1.995   3.373   7.795  1.7889 -2.1224  0.9233
 2820SOL     OW19918   0.571   1.122   5.431 -0.1070 -0.0309 -0.2318
 2820SOL    HW119919   0.612   1.040   5.403  2.4301  0.8776  0.7882
 2820SOL    HW219920   0.497   1.081   5.477  1.4505 -1.6930  0.7763
 2821SOL     OW19921   3.874   2.095  14.337 -0.3417  0.2788  0.3482
 2821SOL    HW119922   3.829   2.160  14.283 -1.3695 -0.3385  0.4587
 2821SOL    HW219923   3.825   2.024  14.296 -3.6706  2.1258  1.1408
 2822SOL     OW19924   2.980   3.004   2.573 -0.2108  0.0571  0.8131
 2822SOL    HW119925   3.059   3.036   2.615  0.3933  0.4370 -0.6251
 2822SOL    HW219926   2.952   3.077   2.517 -1.2850 -0.3147  0.8556
 2823SOL     OW19927   2.924   2.687   6.796 -0.3111  0.2157 -0.1771
 2823SOL    HW119928   2.975   2.768   6.808 -0.5247  0.0987  1.4866
 2823SOL    HW219929   2.977   2.631   6.852 -0.6461 -0.2997 -0.3811
 2824SOL     OW19930   1.224   1.493  10.251 -0.1614 -0.4854  0.5134
 2824SOL    HW119931   1.221   1.422  10.186  3.2379 -0.2374  0.1120
 2824SOL    HW219932   1.306   1.536  10.228 -0.5412 -0.2816 -0.4948
 2825SOL     OW19933   0.666   2.565  10.509 -0.2111  0.2582  0.2918
 2825SOL    HW119934   0.708   2.490  10.466  1.5216  1.3071  0.1349
 2825SOL    HW219935   0.629   2.613  10.435  1.0752  0.3459 -0.3024
 2826SOL     OW19936   1.881   2.255   1.731  0.2318  0.0211  0.6362
 2826SOL    HW119937   1.864   2.311   1.655  1.0907 -2.5882 -1.4647
 2826SOL    HW219938   1.889   2.320   1.801 -1.1788 -0.0106  0.8294
 2827SOL     OW19939   0.945   0.462   6.988  0.3425  0.4486  0.2187
 2827SOL    HW119940   0.956   0.462   7.083 -1.6607 -1.0927  0.4561
 2827SOL    HW219941   0.983   0.380   6.956  1.4676  0.7763  0.7336
 2828SOL     OW19942   0.441   2.890  11.442  0.6046  0.1262 -0.4716
 2828SOL    HW119943   0.433   2.815  11.383  1.0085 -2.4001  2.6628
 2828SOL    HW219944   0.384   2.872  11.517 -1.7205  1.5025 -1.8760
 2829SOL     OW19945   3.168   3.763   1.721  0.0294 -0.2310  0.3907
 2829SOL    HW119946   3.261   3.783   1.719  0.2599 -1.4092 -0.8345
 2829SOL    HW219947   3.131   3.839   1.675  1.1676  0.7871  1.1562
 2830SOL     OW19948   4.232   4.307   7.280 -0.5359  0.5889  0.2329
 2830SOL    HW119949   4.311   4.281   7.327 -1.3776  0.4515  1.5841
 2830SOL    HW219950   4.241   4.401   7.264  0.7928  0.1666 -1.4301
 2831SOL     OW19951   4.318   3.128   3.654 -0.1730  0.2685  0.1731
 2831SOL    HW119952   4.240   3.089   3.694 -0.1300  0.5189  0.5020
 2831SOL    HW219953   4.320   3.072   3.577 -1.4322  0.3590  0.0807
 2832SOL     OW19954   0.009   0.478   4.864 -0.1183 -0.1299  0.2719
 2832SOL    HW119955   0.071   0.526   4.809 -1.6483 -0.4828 -1.8046
 2832SOL    HW219956   0.070   0.437   4.924 -1.2963 -1.5708  0.5058
 2833SOL     OW19957   2.971   2.168  15.665 -0.3449  0.5369 -0.1517
 2833SOL    HW119958   2.946   2.145  15.754  1.5994  0.3939  0.3428
 2833SOL    HW219959   3.053   2.211  15.689 -0.0017  0.1611 -0.6395
 2834SOL     OW19960   1.837   3.997   8.946 -0.2863  0.5264 -0.2798
 2834SOL    HW119961   1.799   4.058   9.009 -1.6688  0.6924 -1.2662
 2834SOL    HW219962   1.822   3.913   8.988 -0.5318  0.7574  0.0927
 2835SOL     OW19963   2.809   0.117  16.841  0.0481  0.0422  0.0719
 2835SOL    HW119964   2.727   0.158  16.868 -0.3089 -1.1379  0.7661
 2835SOL    HW219965   2.881   0.161  16.887 -0.9366  2.2204 -0.4441
 2836SOL     OW19966   1.089   2.841   3.823  0.6616 -0.6365 -0.1596
 2836SOL    HW119967   1.039   2.802   3.894  0.8665 -1.0897 -0.2657
 2836SOL    HW219968   1.130   2.764   3.784  1.0859  0.7104 -2.3842
 2837SOL     OW19969   2.867   2.622  16.629 -0.5969  0.5395  0.5468
 2837SOL    HW119970   2.849   2.528  16.623 -1.6336  0.8331 -1.0693
 2837SOL    HW219971   2.898   2.625  16.719  0.7632 -0.1344  0.0987
 2838SOL     OW19972   1.843   2.867   4.902  0.1387  0.2600  0.2461
 2838SOL    HW119973   1.852   2.894   4.810  0.8252  0.0462  0.2465
 2838SOL    HW219974   1.938   2.854   4.910  0.5332  1.7983 -1.7407
 2839SOL     OW19975   4.201   0.492   0.776  0.4616 -0.3438 -0.5234
 2839SOL    HW119976   4.174   0.546   0.850  0.0072 -0.1538 -0.8270
 2839SOL    HW219977   4.291   0.481   0.806  0.4167  1.5115  0.2738
 2840SOL     OW19978   0.906   4.201   9.590 -0.4465  0.6480  0.4465
 2840SOL    HW119979   0.901   4.108   9.612  0.5430  0.7214  0.9796
 2840SOL    HW219980   0.924   4.235   9.678 -0.1025 -0.9911  0.9972
 2841SOL     OW19981   0.300   4.087  12.813 -0.5505 -0.0041 -0.4435
 2841SOL    HW119982   0.374   4.025  12.810  0.5971  1.2799  0.8653
 2841SOL    HW219983   0.310   4.107  12.907  1.2022 -0.6585 -0.4794
 2842SOL     OW19984   1.281   2.149   0.731  0.3950  0.0408  0.3590
 2842SOL    HW119985   1.267   2.059   0.702 -0.7171  0.0644  0.8293
 2842SOL    HW219986   1.311   2.131   0.820 -0.8511 -0.9715  0.5656
 2843SOL     OW19987   3.865   2.186  15.638  0.1701  0.9208 -0.1159
 2843SOL    HW119988   3.941   2.147  15.680  0.7515  0.6125 -1.4420
 2843SOL    HW219989   3.917   2.203  15.559 -2.4012  2.7330 -1.4208
 2844SOL     OW19990   1.642   2.051   5.907 -0.2788  0.1439 -0.0896
 2844SOL    HW119991   1.642   2.128   5.850  0.7790 -0.4143 -0.8347
 2844SOL    HW219992   1.643   2.097   5.992 -0.3383 -0.9299  0.4852
 2845SOL     OW19993   0.839   0.677   0.084  0.1195 -0.6926 -0.2118
 2845SOL    HW119994   0.767   0.614   0.094  0.1116 -0.4626  1.2009
 2845SOL    HW219995   0.791   0.759   0.097 -1.0439 -1.5806  1.0965
 2846SOL     OW19996   0.809   2.071   5.702 -0.1059 -0.8362 -0.2667
 2846SOL    HW119997   0.905   2.079   5.701 -0.3632  2.3984  0.4168
 2846SOL    HW219998   0.798   2.161   5.732 -0.6725 -1.2344  0.6846
 2847SOL     OW19999   4.053   2.179   7.300 -0.4146  0.7805  0.1364
 2847SOL    HW120000   3.998   2.145   7.372 -0.7325  0.5990 -0.1932
 2847SOL    HW220001   4.104   2.247   7.345  0.3939  0.2416  0.0329
 2848SOL     OW20002   4.435   1.157   5.352 -0.4492 -0.5992  0.4427
 2848SOL    HW120003   4.382   1.109   5.416 -1.6664  0.4654  0.2288
 2848SOL    HW220004   4.384   1.161   5.271 -0.5386 -0.4997  0.5031
 2849SOL     OW20005   1.024   3.056  12.138 -0.3535 -0.5828 -0.5259
 2849SOL    HW120006   0.941   3.048  12.185  0.3604  0.0184  0.8344
 2849SOL    HW220007   1.050   2.969  12.107 -0.5708 -0.2054 -1.7729
 2850SOL     OW20008   4.544   0.279   8.654 -0.3787  0.2244 -0.0181
 2850SOL    HW120009   4.565   0.363   8.695 -1.2550  0.1845  0.5270
 2850SOL    HW220010   4.576   0.287   8.564 -0.2655  1.7562  0.1549
 2851SOL     OW20011   0.212   1.491   5.869 -0.2404  0.2306 -0.2055
 2851SOL    HW120012   0.124   1.510   5.900 -0.8028 -2.6402 -0.0067
 2851SOL    HW220013   0.195   1.403   5.834 -3.4367  0.4167  0.8989
 2852SOL     OW20014   2.804   1.914  14.174  0.1758 -0.2683  0.4154
 2852SOL    HW120015   2.800   1.997  14.128 -0.3100 -0.1663  0.6308
 2852SOL    HW220016   2.864   1.876  14.110  2.9111  1.4696  1.9465
 2853SOL     OW20017   4.246   1.168   5.915  0.1902  0.1868 -0.3014
 2853SOL    HW120018   4.195   1.224   5.973  2.2646  1.7976 -0.0370
 2853SOL    HW220019   4.334   1.202   5.935  0.2781  0.3345 -0.9366
 2854SOL     OW20020   1.904   3.009  12.935  0.1934  0.5001  0.2995
 2854SOL    HW120021   1.809   2.997  12.938 -0.1626  3.6611  1.3780
 2854SOL    HW220022   1.920   3.096  12.973  0.1429 -0.0313  1.5377
 2855SOL     OW20023   0.929   1.897   5.924  0.1145  0.0484 -0.5450
 2855SOL    HW120024   0.946   1.990   5.941 -1.8983  0.8420 -2.7956
 2855SOL    HW220025   0.843   1.905   5.964  1.2991 -0.1098  2.0335
 2856SOL     OW20026   4.042   1.573   5.477  0.0927  0.2735 -0.2483
 2856SOL    HW120027   4.055   1.659   5.516 -1.5259 -0.1877  1.3609
 2856SOL    HW220028   3.952   1.579   5.443 -0.8676  0.9041  2.3848
 2857SOL     OW20029   0.116   4.159   0.655  0.0858  1.0159 -0.5335
 2857SOL    HW120030   0.070   4.207   0.586 -2.1192 -0.7751 -0.3445
 2857SOL    HW220031   0.144   4.226   0.716 -1.5088  0.3200  0.9786
 2858SOL     OW20032   1.000   4.638   4.852 -0.5427  0.0506 -0.2042
 2858SOL    HW120033   1.085   4.611   4.887 -0.4650 -1.0768 -1.2375
 2858SOL    HW220034   0.942   4.568   4.882  0.5830 -1.2693 -1.0864
 2859SOL     OW20035   0.252   2.190   0.546 -1.0639  0.0572 -0.0983
 2859SOL    HW120036   0.292   2.272   0.519 -0.6374 -0.0935  0.0854
 2859SOL    HW220037   0.195   2.167   0.472 -1.5136  1.3727 -0.1542
 2860SOL     OW20038   2.243   1.483  16.013 -0.0603  0.1275 -0.3472
 2860SOL    HW120039   2.239   1.566  16.060  1.6091 -0.7870  1.4225
 2860SOL    HW220040   2.179   1.429  16.059  0.2762  2.2781  2.6259
 2861SOL     OW20041   3.102   0.346   1.290  0.2217  0.1219 -0.6107
 2861SOL    HW120042   3.082   0.428   1.246  1.5606  2.1793  2.6112
 2861SOL    HW220043   3.197   0.352   1.303  0.5486 -0.4926 -2.6985
 2862SOL     OW20044   0.322   3.136   2.718 -0.2467  0.0202 -0.1070
 2862SOL    HW120045   0.298   3.202   2.784  0.8834  1.3604 -1.0288
 2862SOL    HW220046   0.244   3.081   2.711 -1.1960  1.2101  1.1358
 2863SOL     OW20047   0.878   3.701  13.728 -0.4294 -0.3233 -0.3197
 2863SOL    HW120048   0.920   3.629  13.774  0.8070  1.6660  1.6195
 2863SOL    HW220049   0.921   3.776  13.769 -1.6145 -0.1738  0.6258
 2864SOL     OW20050   4.304   3.597   6.822  0.5682 -0.4660 -0.1179
 2864SOL    HW120051   4.239   3.577   6.754  0.6851  0.1826 -0.4120
 2864SOL    HW220052   4.310   3.527   6.887 -2.3561 -1.2139 -0.6134
 2865SOL     OW20053   1.768   1.607   3.075  0.0556  0.3299 -0.2010
 2865SOL    HW120054   1.749   1.698   3.053 -1.6794  0.3634  1.4345
 2865SOL    HW220055   1.857   1.604   3.039  0.1636 -0.3090  0.1175
 2866SOL     OW20056   2.642   1.706  12.171 -0.3372 -0.1028  0.2352
 2866SOL    HW120057   2.604   1.789  12.198  0.6418  1.0353 -1.8769
 2866SOL    HW220058   2.575   1.646  12.202  0.6402 -1.7352 -0.7393
 2867SOL     OW20059   4.255   0.187   7.866  0.1476  0.4497  0.2893
 2867SOL    HW120060   4.343   0.204   7.832  0.1785 -1.1669 -0.4351
 2867SOL    HW220061   4.268   0.092   7.863  1.8207  0.6705  0.4749
 2868SOL     OW20062   3.868   1.393  15.380 -0.4036  0.4718  0.4740
 2868SOL    HW120063   3.774   1.394  15.365 -0.3273 -1.6657 -0.1822
 2868SOL    HW220064   3.880   1.479  15.419 -3.3929  0.4594  1.4480
 2869SOL     OW20065   2.045   3.214   2.535 -0.4242  0.6060  0.3177
 2869SOL    HW120066   2.083   3.206   2.623  2.1950  1.0524 -0.7802
 2869SOL    HW220067   2.129   3.215   2.489  0.2564 -1.5498  1.5025
 2870SOL     OW20068   3.505   1.631   5.375  0.4416 -0.1597  0.4731
 2870SOL    HW120069   3.481   1.559   5.434 -1.0660  0.6541  0.8551
 2870SOL    HW220070   3.437   1.621   5.308  0.0592  2.6973  0.4159
 2871SOL     OW20071   3.500   0.612   8.329 -0.4841  0.1610 -0.0553
 2871SOL    HW120072   3.583   0.659   8.339 -0.6039  0.5243 -0.8042
 2871SOL    HW220073   3.461   0.638   8.413  2.1501  0.1315  1.1553
 2872SOL     OW20074   1.538   3.866  14.327  0.0097  1.3780  0.3718
 2872SOL    HW120075   1.464   3.912  14.368  0.6018  2.3394  0.3532
 2872SOL    HW220076   1.550   3.802  14.397  1.3856  1.1482 -0.0766
 2873SOL     OW20077   0.260   0.913   8.884  0.0880  0.2279  0.2700
 2873SOL    HW120078   0.216   0.830   8.899  0.1289 -0.0267 -1.0623
 2873SOL    HW220079   0.182   0.968   8.870  1.3327  2.4037  1.8692
 2874SOL     OW20080   2.380   2.086   5.793 -0.0870 -0.8226 -0.2783
 2874SOL    HW120081   2.339   2.080   5.880 -0.5924  3.0887 -0.2240
 2874SOL    HW220082   2.398   2.180   5.796 -1.5002 -0.5007 -2.1560
 2875SOL     OW20083   3.520   2.196   5.804  0.0787  0.2951  0.2071
 2875SOL    HW120084   3.432   2.174   5.836  0.4421  1.1096  1.7714
 2875SOL    HW220085   3.524   2.159   5.716  0.0978  2.5541 -0.7320
 2876SOL     OW20086   4.459   3.777   7.882  0.9091 -0.2978 -0.1548
 2876SOL    HW120087   4.552   3.791   7.899  1.1899  0.5652 -2.5043
 2876SOL    HW220088   4.445   3.732   7.966 -2.1456  1.8596  0.4862
 2877SOL     OW20089   1.184   0.820   0.115 -0.3314  0.2274 -0.2164
 2877SOL    HW120090   1.135   0.749   0.157  1.9605 -0.3029  1.5798
 2877SOL    HW220091   1.157   0.801   0.025 -3.0420  1.0400  0.4359
 2878SOL     OW20092   0.491   2.700   5.830 -0.2242 -0.0832  0.3026
 2878SOL    HW120093   0.438   2.657   5.897 -2.0813  2.6501  0.5454
 2878SOL    HW220094   0.428   2.698   5.759  0.1357 -2.4409  0.0311
 2879SOL     OW20095   2.742   3.300   7.669  0.1831  0.2758  0.2751
 2879SOL    HW120096   2.679   3.371   7.665  1.4963  1.4596  0.7667
 2879SOL    HW220097   2.740   3.295   7.765 -0.5568 -0.6815  0.2061
 2880SOL     OW20098   4.011   4.418  17.046 -0.0883  0.7006  0.2603
 2880SOL    HW120099   4.052   4.462  16.971 -0.5000  1.0189  0.2184
 2880SOL    HW220100   4.083   4.359  17.069 -1.0094  0.0129  1.3634
 2881SOL     OW20101   0.864   1.167   8.890  0.2121  0.0472  0.5399
 2881SOL    HW120102   0.857   1.099   8.824 -0.6126  1.0370 -0.3993
 2881SOL    HW220103   0.944   1.146   8.937  2.5776  2.2828 -2.4661
 2882SOL     OW20104   1.828   1.486  17.010  0.3197  0.0380 -0.6416
 2882SOL    HW120105   1.833   1.551  17.079 -0.7687 -1.5858  0.9600
 2882SOL    HW220106   1.834   1.405  17.060  1.9834 -0.5198 -1.7116
 2883SOL     OW20107   0.121   0.369   7.980 -0.4090  0.3871  0.2299
 2883SOL    HW120108   0.043   0.314   7.983  1.6462 -2.4938  1.3088
 2883SOL    HW220109   0.141   0.372   7.886  0.1090  0.8648  0.3546
 2884SOL     OW20110   3.171   4.036   1.658 -0.3011  0.0543 -0.2628
 2884SOL    HW120111   3.166   4.128   1.683  2.2576  0.7437 -2.3672
 2884SOL    HW220112   3.247   4.043   1.600 -1.0028  0.5894 -1.1055
 2885SOL     OW20113   0.759   2.544   7.629 -0.0969 -0.0527 -0.2826
 2885SOL    HW120114   0.755   2.527   7.723 -1.1522 -1.0484 -0.5075
 2885SOL    HW220115   0.810   2.624   7.616 -1.5882  1.0269  0.5661
 2886SOL     OW20116   0.254   0.983   5.889  0.5508  0.5037  0.1117
 2886SOL    HW120117   0.213   0.898   5.870  0.8083  0.0833  1.4192
 2886SOL    HW220118   0.341   0.955   5.863 -0.4122 -2.0203 -0.4619
 2887SOL     OW20119   0.213   0.086  13.282 -0.6037 -0.1291  0.3291
 2887SOL    HW120120   0.217   0.175  13.317 -1.4714  0.8329 -2.0096
 2887SOL    HW220121   0.121   0.088  13.254 -0.6234  1.8048  0.5117
 2888SOL     OW20122   0.843   2.206   9.037  0.0577  0.1483  0.1852
 2888SOL    HW120123   0.764   2.212   9.092  0.5820  1.2047  0.8310
 2888SOL    HW220124   0.900   2.261   9.090  0.7769 -2.2901  1.9388
 2889SOL     OW20125   3.295   0.306   5.327 -0.7194  0.1407  0.0885
 2889SOL    HW120126   3.260   0.337   5.243  1.0989  1.6388 -0.1046
 2889SOL    HW220127   3.386   0.329   5.311 -0.6315 -0.2412  0.0520
 2890SOL     OW20128   1.743   0.405   2.914 -0.4027  0.1140 -0.4485
 2890SOL    HW120129   1.679   0.441   2.975  0.1837  1.5908 -0.7201
 2890SOL    HW220130   1.787   0.329   2.954 -0.3625  0.0859 -0.5457
 2891SOL     OW20131   0.590   0.658   3.270 -0.2034 -0.3220  0.5410
 2891SOL    HW120132   0.609   0.745   3.304  2.4266 -0.4172 -0.7280
 2891SOL    HW220133   0.660   0.645   3.207 -0.8970  1.1666 -0.5192
 2892SOL     OW20134   0.770   2.316  10.417 -0.4368  0.4355 -0.2213
 2892SOL    HW120135   0.750   2.346  10.329 -0.1270 -1.8586 -1.0890
 2892SOL    HW220136   0.755   2.222  10.406 -0.1044  0.4455 -0.7429
 2893SOL     OW20137   0.053   0.463  12.087 -0.1608 -0.1454  0.2211
 2893SOL    HW120138   0.075   0.482  12.178  1.5584 -1.3256  0.0537
 2893SOL    HW220139   4.683   0.486  12.079  0.3288  1.7397 -0.1679
 2894SOL     OW20140   1.632   4.085   5.258 -0.5419 -0.0674 -0.0798
 2894SOL    HW120141   1.552   4.135   5.269  0.0944  0.9272 -0.0056
 2894SOL    HW220142   1.604   4.016   5.198 -2.1552  0.6977 -0.1801
 2895SOL     OW20143   0.112   0.731  10.824  0.1030 -0.0760 -0.1420
 2895SOL    HW120144   0.134   0.645  10.860 -1.3317 -0.1804  0.4579
 2895SOL    HW220145   0.017   0.727  10.835  0.4860 -2.5094  2.2970
 2896SOL     OW20146   3.787   4.477   0.952 -0.4532  0.4690  0.6130
 2896SOL    HW120147   3.790   4.503   1.044  0.8952 -0.2899  0.7787
 2896SOL    HW220148   3.852   4.408   0.959  2.1043  2.7012 -1.0226
 2897SOL     OW20149   2.613   4.604   4.167 -0.3776 -0.2429 -0.0243
 2897SOL    HW120150   2.592   4.574   4.078  2.1770  0.5076 -0.8669
 2897SOL    HW220151   2.678   4.539   4.193 -0.0324  1.1093  2.4675
 2898SOL     OW20152   0.799   0.025   6.937 -0.3568  0.5283  0.7198
 2898SOL    HW120153   0.791   4.683   7.008 -0.0737 -0.7005 -0.3709
 2898SOL    HW220154   0.708   0.047   6.914  0.1826  1.4874 -0.4417
 2899SOL     OW20155   3.480   3.966   4.781 -0.1806  0.7438 -0.6552
 2899SOL    HW120156   3.544   3.953   4.711 -1.2363  1.9141 -1.8427
 2899SOL    HW220157   3.401   3.986   4.732  0.5763 -3.4533 -3.5314
 2900SOL     OW20158   4.057   0.654   0.344 -0.0273  0.4765 -0.2232
 2900SOL    HW120159   4.143   0.629   0.313 -0.9413 -0.6818 -1.8236
 2900SOL    HW220160   4.064   0.640   0.439  2.1718  0.1882 -0.4469
 2901SOL     OW20161   3.795   2.583   7.890  0.6051  0.2254  0.1689
 2901SOL    HW120162   3.866   2.555   7.947 -0.0379 -1.1540  0.2823
 2901SOL    HW220163   3.728   2.600   7.955 -0.2008  1.6130 -1.0095
 2902SOL     OW20164   2.546   0.565  15.282 -0.8166  0.1972 -0.2967
 2902SOL    HW120165   2.489   0.640  15.300  1.3874  2.5807 -3.2711
 2902SOL    HW220166   2.501   0.527  15.207  1.2654 -0.3969 -1.2174
 2903SOL     OW20167   2.297   4.376   8.083  0.2149  0.4143  0.0179
 2903SOL    HW120168   2.338   4.392   8.169 -1.0214  0.2043  0.6485
 2903SOL    HW220169   2.208   4.362   8.114  0.5835 -0.0191  0.8970
 2904SOL     OW20170   3.925   0.482  13.271  0.2580  0.4330  0.1526
 2904SOL    HW120171   3.959   0.456  13.185 -1.2264 -2.7769  0.5275
 2904SOL    HW220172   3.958   0.415  13.330 -2.6247 -1.9879 -0.9616
 2905SOL     OW20173   1.885   0.872   2.061  0.0488 -0.3471 -0.4704
 2905SOL    HW120174   1.923   0.824   2.134  3.3494  2.2336 -0.4987
 2905SOL    HW220175   1.873   0.799   2.000 -1.2503 -0.4425 -0.0942
 2906SOL     OW20176   2.025   1.330   9.830  0.0240 -0.0482  0.1025
 2906SOL    HW120177   2.119   1.319   9.847  0.5310 -0.6051 -3.0588
 2906SOL    HW220178   1.996   1.362   9.915  2.0110 -0.5383  0.9527
 2907SOL     OW20179   3.728   3.629   6.650 -0.3900  0.6000  0.0161
 2907SOL    HW120180   3.701   3.575   6.724 -3.4141  0.9223 -0.8505
 2907SOL    HW220181   3.752   3.556   6.593 -0.9884  0.5209 -0.1339
 2908SOL     OW20182   4.102   3.621  12.508 -0.1027  0.0759  0.6612
 2908SOL    HW120183   4.059   3.599  12.426 -2.1674  1.9163  1.2607
 2908SOL    HW220184   4.156   3.543  12.520 -0.0825 -0.2306 -1.3740
 2909SOL     OW20185   1.236   4.659   5.480 -0.6424 -0.2154 -0.3500
 2909SOL    HW120186   1.164   4.640   5.541  0.6791 -0.4087  1.1663
 2909SOL    HW220187   1.275   0.019   5.511  1.3898 -1.0969 -0.5531
 2910SOL     OW20188   1.255   1.316   8.726 -0.3490  0.4755  0.3723
 2910SOL    HW120189   1.214   1.288   8.808  0.1743 -2.5459 -0.3896
 2910SOL    HW220190   1.330   1.366   8.757 -0.6301  1.1051  0.0227
 2911SOL     OW20191   1.449   0.202   7.548 -0.0602 -0.1307 -0.3452
 2911SOL    HW120192   1.429   0.210   7.642  0.8122  0.4338 -0.2099
 2911SOL    HW220193   1.521   0.140   7.550 -0.3864 -0.5411 -1.3052
 2912SOL     OW20194   4.713   4.019   7.821 -0.1309  0.2247  0.7062
 2912SOL    HW120195   4.709   3.986   7.731  1.9374 -0.5436  0.8950
 2912SOL    HW220196   0.006   3.943   7.877  1.3951  0.3825  0.4894
 2913SOL     OW20197   3.875   1.455   8.967 -0.0262  0.2861 -0.1839
 2913SOL    HW120198   3.933   1.419   9.034  1.7234 -0.6314 -2.1849
 2913SOL    HW220199   3.801   1.395   8.961 -0.1248  0.2652  1.1976
 2914SOL     OW20200   2.604   1.984   4.556 -0.2261  0.0692  0.3741
 2914SOL    HW120201   2.579   2.060   4.503  0.5711  0.9196  1.1977
 2914SOL    HW220202   2.579   1.911   4.501  1.3344  0.1449 -0.4486
 2915SOL     OW20203   3.440   3.684   3.330  0.1754 -0.1574  0.1495
 2915SOL    HW120204   3.440   3.589   3.319 -0.6389 -0.1963  0.4550
 2915SOL    HW220205   3.398   3.703   3.246  1.9889 -0.1490 -0.7473
 2916SOL     OW20206   3.853   2.712   9.154  0.0258 -0.3243  0.7171
 2916SOL    HW120207   3.903   2.786   9.188 -2.7991  0.4698  3.1773
 2916SOL    HW220208   3.844   2.645   9.222 -1.5284  1.2590  2.1073
 2917SOL     OW20209   2.191   0.288   5.797 -0.0196  0.8898 -0.1527
 2917SOL    HW120210   2.268   0.340   5.771 -1.1435  2.4235 -0.4467
 2917SOL    HW220211   2.131   0.347   5.752  0.1350  1.4386  0.3552
 2918SOL     OW20212   2.536   4.619   6.676  0.2244  0.1523  0.6346
 2918SOL    HW120213   2.494   4.672   6.608 -1.2455  0.3317  1.6786
 2918SOL    HW220214   2.555   4.538   6.629  1.2823  0.8565 -0.1494
 2919SOL     OW20215   3.008   0.421   4.872 -0.2101 -0.3573  0.0843
 2919SOL    HW120216   3.077   0.427   4.805  0.9288 -1.8521  1.1210
 2919SOL    HW220217   2.979   0.511   4.884 -2.9503 -1.1010 -1.0510
 2920SOL     OW20218   3.043   4.032   3.903  0.5710 -0.3851 -0.5060
 2920SOL    HW120219   3.037   4.083   3.823  0.5790  0.0227 -0.2488
 2920SOL    HW220220   3.127   3.988   3.888  1.0969  1.7573 -3.9751
 2921SOL     OW20221   0.366   2.040   6.503 -0.2483  0.4838  0.5176
 2921SOL    HW120222   0.389   2.036   6.596 -1.7861 -0.8916  0.8382
 2921SOL    HW220223   0.417   1.973   6.457  1.4950  1.8884  0.4172
 2922SOL     OW20224   2.554   3.633   1.551  0.2568 -0.5347  0.5965
 2922SOL    HW120225   2.557   3.630   1.647  0.4334  0.5535  0.6216
 2922SOL    HW220226   2.606   3.558   1.522 -0.2168 -1.0494  1.0781
 2923SOL     OW20227   4.383   3.833   4.031 -0.3974 -0.5040  0.3807
 2923SOL    HW120228   4.433   3.804   4.107  0.7017  0.0217 -0.1466
 2923SOL    HW220229   4.297   3.847   4.071 -0.4416 -1.2917  0.5497
 2924SOL     OW20230   1.254   0.016  15.126 -0.0308  0.0724 -0.0316
 2924SOL    HW120231   1.238   4.672  15.192  0.8538  0.3489  0.4763
 2924SOL    HW220232   1.190   0.002  15.056 -0.1493 -0.9434  0.2852
 2925SOL     OW20233   1.134   1.462  14.455 -0.0924 -0.4118 -0.3606
 2925SOL    HW120234   1.137   1.429  14.545 -2.6515 -1.3976 -0.6249
 2925SOL    HW220235   1.205   1.414  14.413  0.3707 -0.1832  0.1691
 2926SOL     OW20236   1.711   1.298   6.583  0.2230  0.0477  0.1109
 2926SOL    HW120237   1.617   1.300   6.564  0.2385 -2.3383 -0.1504
 2926SOL    HW220238   1.717   1.346   6.665  1.1704  1.4121 -0.7501
 2927SOL     OW20239   2.629   4.168   1.632  0.1812  0.4029 -0.1651
 2927SOL    HW120240   2.690   4.208   1.694 -1.3911  0.3469  1.4032
 2927SOL    HW220241   2.664   4.079   1.621  0.3701  0.1440  2.4889
 2928SOL     OW20242   1.307   0.628  17.046  0.3079 -0.3720 -0.0813
 2928SOL    HW120243   1.238   0.692  17.026  1.1992  0.2876 -1.1047
 2928SOL    HW220244   1.258   0.554  17.079 -1.0865  0.7066  0.2682
 2929SOL     OW20245   3.214   2.799   9.513 -0.2430  0.8078  0.2571
 2929SOL    HW120246   3.214   2.856   9.436 -1.4381 -1.3497 -1.3348
 2929SOL    HW220247   3.204   2.715   9.469 -1.2830  0.8139  0.4888
 2930SOL     OW20248   3.494   0.904   2.592  0.3915  0.1361 -0.0869
 2930SOL    HW120249   3.489   0.810   2.574  0.0432 -0.1180  1.3836
 2930SOL    HW220250   3.414   0.933   2.548 -0.6632 -0.0236  1.7141
 2931SOL     OW20251   1.192   1.775  16.465  0.2295 -0.0659  0.4780
 2931SOL    HW120252   1.260   1.843  16.465 -0.5739  0.7336  0.8385
 2931SOL    HW220253   1.155   1.783  16.377 -1.5848  0.2689  1.2774
 2932SOL     OW20254   2.242   3.337   6.436  0.1266  0.1016 -0.2150
 2932SOL    HW120255   2.155   3.316   6.470  1.3706 -1.0711  2.1933
 2932SOL    HW220256   2.244   3.425   6.471 -0.0471  0.7702 -1.8568
 2933SOL     OW20257   1.977   2.800   7.442 -0.4124 -0.1041 -0.6250
 2933SOL    HW120258   1.902   2.780   7.498 -1.3556 -1.5849 -2.4129
 2933SOL    HW220259   1.975   2.895   7.446 -1.2233 -0.1092 -0.9290
 2934SOL     OW20260   0.996   3.820   6.113 -0.4157  0.4441  0.9472
 2934SOL    HW120261   1.068   3.860   6.162  0.6685 -1.7231  1.1380
 2934SOL    HW220262   0.978   3.891   6.052  1.8985  1.1360  1.0559
 2935SOL     OW20263   2.524   2.594   2.696  0.1992 -0.5630 -0.0946
 2935SOL    HW120264   2.566   2.530   2.639 -0.3383 -0.5151 -0.5411
 2935SOL    HW220265   2.445   2.543   2.709  0.6317 -1.5655 -1.4135
 2936SOL     OW20266   0.580   3.494   6.926 -0.3554  0.0686  0.0154
 2936SOL    HW120267   0.498   3.446   6.939 -0.5020  0.0254 -1.0938
 2936SOL    HW220268   0.545   3.583   6.920 -2.3893 -0.7456 -0.3318
 2937SOL     OW20269   1.977   3.685   1.944 -0.1721  0.1742  0.6466
 2937SOL    HW120270   1.904   3.736   1.908  0.2535 -0.2639 -0.8289
 2937SOL    HW220271   1.946   3.660   2.031 -1.3829 -2.0436 -0.4211
 2938SOL     OW20272   3.620   0.780  13.457  0.1833 -1.0449 -0.3137
 2938SOL    HW120273   3.533   0.760  13.422  1.0701 -0.9678 -2.5635
 2938SOL    HW220274   3.593   0.783  13.549 -1.4333 -3.2093 -0.7058
 2939SOL     OW20275   1.137   1.501   3.813 -0.1536  0.8047  0.0149
 2939SOL    HW120276   1.115   1.557   3.887 -1.2447 -0.6370  0.7902
 2939SOL    HW220277   1.085   1.547   3.747  0.3745 -0.2416 -1.1343
 2940SOL     OW20278   4.320   1.924   5.560 -0.6537 -0.1077 -0.4415
 2940SOL    HW120279   4.241   1.877   5.586 -1.9511  1.7697 -1.0300
 2940SOL    HW220280   4.363   1.915   5.645  1.9014 -0.5521 -1.7757
 2941SOL     OW20281   0.574   2.153  16.902  0.1347  0.4171  0.3953
 2941SOL    HW120282   0.498   2.104  16.871 -0.1504  1.4797 -0.5920
 2941SOL    HW220283   0.534   2.168  16.988  0.1057  0.7303  0.3256
 2942SOL     OW20284   1.152   3.540  11.828 -0.4873 -0.5904  0.6830
 2942SOL    HW120285   1.198   3.494  11.758 -0.2123  1.6649 -0.6299
 2942SOL    HW220286   1.220   3.555  11.894  0.5295 -0.9908 -0.2627
 2943SOL     OW20287   1.195   4.477  13.457 -0.1722 -0.0704  0.3572
 2943SOL    HW120288   1.263   4.521  13.405  0.9024  0.9611  2.6375
 2943SOL    HW220289   1.181   4.539  13.529 -2.1224  0.1702 -0.2162
 2944SOL     OW20290   0.393   3.478  15.785  0.1031 -0.1879  0.2293
 2944SOL    HW120291   0.305   3.477  15.821 -0.0352  0.2444 -0.1072
 2944SOL    HW220292   0.428   3.389  15.799  1.2536  0.6278  2.6296
 2945SOL     OW20293   4.542   2.577   6.010 -0.6203  0.3936 -0.0658
 2945SOL    HW120294   4.628   2.554   5.975 -1.0094 -0.5082 -0.4345
 2945SOL    HW220295   4.559   2.614   6.097 -1.1050  2.8668 -1.0066
 2946SOL     OW20296   2.692   4.144   4.122  0.1124 -0.2976 -0.4189
 2946SOL    HW120297   2.690   4.202   4.198  0.6868 -1.6490  0.6049
 2946SOL    HW220298   2.614   4.162   4.069  0.3304 -3.6656 -1.8904
 2947SOL     OW20299   0.501   3.678  17.440  0.0391  0.3931  0.0580
 2947SOL    HW120300   0.446   3.626  17.499  1.0916  0.4744  1.0909
 2947SOL    HW220301   0.444   3.755  17.432 -0.4303 -0.2499 -2.7653
 2948SOL     OW20302   3.897   0.121   3.863  0.1655 -0.1857  0.4512
 2948SOL    HW120303   3.967   0.184   3.844 -1.9012  1.4759 -1.7251
 2948SOL    HW220304   3.934   0.042   3.824 -2.6105  0.1763 -2.9570
 2949SOL     OW20305   2.956   0.624   7.672 -0.3207  0.0061  0.2329
 2949SOL    HW120306   3.042   0.600   7.706 -0.1039  1.2637  0.5676
 2949SOL    HW220307   2.901   0.571   7.729 -0.4611 -0.8022 -0.6393
 2950SOL     OW20308   1.004   0.772   6.217  0.3217  0.4874 -0.0126
 2950SOL    HW120309   1.059   0.698   6.190  1.4952  1.7441 -1.0337
 2950SOL    HW220310   1.002   0.753   6.311  2.6985  0.2671 -0.0085
 2951SOL     OW20311   3.514   0.985   6.132 -1.0581 -0.3860 -0.3025
 2951SOL    HW120312   3.543   0.967   6.042  2.0683 -1.4116  0.9157
 2951SOL    HW220313   3.545   0.908   6.179  0.3181 -0.1719 -0.8544
 2952SOL     OW20314   0.532   0.306   7.316 -0.4188 -0.5570  0.5110
 2952SOL    HW120315   0.479   0.227   7.323  1.3988 -1.9824 -1.8321
 2952SOL    HW220316   0.617   0.263   7.329  1.4422  2.6183 -0.9401
 2953SOL     OW20317   0.758   4.532   1.832 -0.5694  0.6815 -0.2788
 2953SOL    HW120318   0.736   4.501   1.744  1.2274 -1.2702 -0.0338
 2953SOL    HW220319   0.832   4.589   1.813 -0.4737  0.4443 -0.5993
 2954SOL     OW20320   1.947   1.417   2.346  0.0414 -0.2149 -0.1215
 2954SOL    HW120321   1.911   1.480   2.408  0.0335  0.8194 -1.1751
 2954SOL    HW220322   1.997   1.473   2.287 -0.9146 -0.1115 -0.8269
 2955SOL     OW20323   3.980   1.582  14.396 -0.0915  0.1242 -0.2553
 2955SOL    HW120324   3.953   1.674  14.394 -0.7807 -0.0518  0.5967
 2955SOL    HW220325   4.032   1.583  14.316 -0.4638 -0.9372 -0.5015
 2956SOL     OW20326   1.877   1.963   6.338  0.2914 -0.0621 -0.2035
 2956SOL    HW120327   1.889   1.975   6.243 -1.1836 -0.4640 -0.4436
 2956SOL    HW220328   1.794   1.917   6.339  0.2376  0.0454  0.2670
 2957SOL     OW20329   0.979   2.900  14.720  0.1468  0.0375 -0.3670
 2957SOL    HW120330   1.074   2.910  14.734  0.0081 -0.4180  0.9618
 2957SOL    HW220331   0.951   2.973  14.775  2.0138 -0.8806  1.8342
 2958SOL     OW20332   2.570   2.436   5.952 -0.2924  0.3844  0.0598
 2958SOL    HW120333   2.594   2.488   6.029  0.6446  0.1208 -0.0580
 2958SOL    HW220334   2.579   2.345   5.979  1.8453  1.0527  1.6279
 2959SOL     OW20335   2.213   3.640  15.129 -0.1596  0.2550 -0.0144
 2959SOL    HW120336   2.174   3.592  15.057  0.6897 -2.1295  1.1357
 2959SOL    HW220337   2.306   3.615  15.124 -0.0755  0.6202 -0.2919
 2960SOL     OW20338   3.546   3.961   9.012  0.3457  0.7631 -0.2027
 2960SOL    HW120339   3.517   3.993   9.097  1.2843 -2.3466  1.2965
 2960SOL    HW220340   3.489   3.886   8.996 -0.6671  1.7627 -1.2822
 2961SOL     OW20341   1.324   4.302  12.549 -0.4456  0.4204 -0.8506
 2961SOL    HW120342   1.385   4.246  12.502 -0.5079  0.2288 -0.7029
 2961SOL    HW220343   1.375   4.383  12.556  0.1128 -0.0482  0.6641
 2962SOL     OW20344   3.841   3.776  13.474  0.3412  0.3032  0.1397
 2962SOL    HW120345   3.803   3.790  13.561 -0.9203 -0.7230 -0.2526
 2962SOL    HW220346   3.922   3.822  13.496  0.3057  1.0676 -1.3393
 2963SOL     OW20347   0.868   1.623  15.092  0.5944 -0.0698 -0.7449
 2963SOL    HW120348   0.904   1.696  15.141  2.1719 -1.2723 -0.1248
 2963SOL    HW220349   0.784   1.649  15.054  0.0264  0.3541  0.8108
 2964SOL     OW20350   4.490   1.681   4.594  0.4282 -0.0163  0.0935
 2964SOL    HW120351   4.460   1.593   4.617 -1.7940  0.7773  0.2758
 2964SOL    HW220352   4.584   1.673   4.610  0.6099 -0.2115 -1.0727
 2965SOL     OW20353   3.396   4.432  13.405 -0.0015  0.0200  0.3516
 2965SOL    HW120354   3.305   4.456  13.388  0.0061 -1.2124 -1.3922
 2965SOL    HW220355   3.436   4.412  13.321 -1.0577  0.8690 -0.3597
 2966SOL     OW20356   1.244   2.023   7.282  0.3604  0.5672  0.1513
 2966SOL    HW120357   1.201   2.002   7.365  0.3387  3.0143  0.7599
 2966SOL    HW220358   1.214   2.112   7.262  0.3177  0.2934 -1.0506
 2967SOL     OW20359   0.189   4.445  17.026 -0.2551  0.0854 -0.0066
 2967SOL    HW120360   0.207   4.533  17.059  0.1268 -0.9351  2.5000
 2967SOL    HW220361   0.172   4.403  17.111 -0.1925 -0.8734 -0.4623
 2968SOL     OW20362   1.503   3.775   3.498  0.2082  0.1319 -0.7675
 2968SOL    HW120363   1.594   3.748   3.483 -0.0743 -1.5491  0.5371
 2968SOL    HW220364   1.498   3.744   3.588 -3.3316 -0.1809 -1.0546
 2969SOL     OW20365   2.062   0.032   9.649  0.5099  0.1341 -0.1463
 2969SOL    HW120366   2.068   0.067   9.737  1.2575 -0.0360 -0.1278
 2969SOL    HW220367   1.968   0.042   9.632  0.4787  0.2943  0.1156
 2970SOL     OW20368   0.951   2.301   6.095  0.2440 -0.0738 -0.6028
 2970SOL    HW120369   0.971   2.244   6.021 -0.1817  0.9975 -1.5506
 2970SOL    HW220370   1.014   2.269   6.159 -2.7922 -1.4649  1.6975
 2971SOL     OW20371   4.279   0.701   2.668 -0.1513  0.0855 -0.0920
 2971SOL    HW120372   4.276   0.722   2.761  1.4245  2.3627 -0.5622
 2971SOL    HW220373   4.193   0.659   2.666  0.3370 -0.8952 -0.2872
 2972SOL     OW20374   4.698   3.628   3.497 -0.1169  0.0490 -0.0825
 2972SOL    HW120375   4.659   3.713   3.518  0.3370  0.1929  0.1915
 2972SOL    HW220376   4.673   3.613   3.406 -0.3460  2.3610 -0.4091
 2973SOL     OW20377   1.091   0.508   1.104 -0.3675  0.2859  0.5345
 2973SOL    HW120378   1.176   0.551   1.111  0.1963 -0.5075 -1.4848
 2973SOL    HW220379   1.105   0.413   1.113  0.0560  0.2984 -0.0243
 2974SOL     OW20380   4.653   2.475   6.860  0.2950  0.2850 -0.3479
 2974SOL    HW120381   4.698   2.390   6.861 -1.9408 -0.8799  2.6108
 2974SOL    HW220382   4.573   2.451   6.908  0.4048 -1.2659 -0.9204
 2975SOL     OW20383   3.285   3.081   2.062  0.4290 -0.4026  0.4267
 2975SOL    HW120384   3.192   3.090   2.080 -0.0101  0.0527 -2.1019
 2975SOL    HW220385   3.303   2.994   2.025  0.3906  0.2098 -1.0299
 2976SOL     OW20386   0.707   0.548   7.467 -0.9129 -0.4827 -1.0382
 2976SOL    HW120387   0.721   0.607   7.541 -2.3605 -3.9317  2.0093
 2976SOL    HW220388   0.674   0.610   7.403 -2.3154  0.6849  0.8272
 2977SOL     OW20389   3.948   1.173   3.009  0.4432  0.5682 -0.4980
 2977SOL    HW120390   3.992   1.198   3.091 -3.7696  1.2186  1.5540
 2977SOL    HW220391   3.996   1.092   2.996 -1.0003  0.0307 -2.3966
 2978SOL     OW20392   0.070   4.621   8.306 -0.0994 -0.1116  0.5665
 2978SOL    HW120393   4.704   4.590   8.322 -0.1688  0.2680  0.9191
 2978SOL    HW220394   0.103   4.551   8.250 -1.7814 -1.5405  1.3665
 2979SOL     OW20395   0.909   2.172   2.612 -0.0117  0.0509 -0.3632
 2979SOL    HW120396   0.815   2.157   2.598 -0.0492  0.5000 -0.6000
 2979SOL    HW220397   0.905   2.198   2.704 -0.8174 -3.7459  0.6841
 2980SOL     OW20398   0.720   2.396   3.426 -0.1163  0.3659  0.1179
 2980SOL    HW120399   0.726   2.487   3.397 -0.5459  0.6995  1.0625
 2980SOL    HW220400   0.760   2.350   3.353 -1.9927 -1.0019 -0.0516
 2981SOL     OW20401   1.005   3.633  10.855  0.1552  0.2000  0.1531
 2981SOL    HW120402   0.949   3.664  10.926  0.4033  0.2334  0.3336
 2981SOL    HW220403   1.015   3.717  10.809  1.7549  0.3764  0.8028
 2982SOL     OW20404   1.449   0.048   5.267  0.7411  0.1860  0.0837
 2982SOL    HW120405   1.432   0.067   5.360  0.6134 -0.1472  0.1274
 2982SOL    HW220406   1.542   0.068   5.258  0.1558  2.7609 -0.1131
 2983SOL     OW20407   0.837   2.965   4.082 -0.1625 -0.1747  0.1906
 2983SOL    HW120408   0.747   2.933   4.089  0.0617 -0.9204 -0.2780
 2983SOL    HW220409   0.831   3.038   4.143 -0.3757 -0.4463  0.4977
 2984SOL     OW20410   2.884   4.481   6.345  0.7819  0.5486  0.2305
 2984SOL    HW120411   2.911   4.569   6.320  2.4466 -0.5576 -1.8325
 2984SOL    HW220412   2.910   4.492   6.436  0.1947  1.1031  0.3300
 2985SOL     OW20413   2.296   2.662  10.701 -0.2983 -0.1524 -0.2063
 2985SOL    HW120414   2.205   2.632  10.708 -1.3724  2.8713 -1.1331
 2985SOL    HW220415   2.333   2.613  10.775  0.9123 -1.2761 -1.5654
 2986SOL     OW20416   1.462   3.527   0.815  0.0370  0.5887 -0.1065
 2986SOL    HW120417   1.546   3.570   0.833 -0.5496  1.5658  0.2716
 2986SOL    HW220418   1.496   3.446   0.777  0.4783 -0.3296  2.2443
 2987SOL     OW20419   1.665   0.600   1.402  0.3116  0.4816  0.4213
 2987SOL    HW120420   1.651   0.552   1.320  0.0314 -0.1711  0.8589
 2987SOL    HW220421   1.611   0.548   1.461  0.0715  0.5372  0.2494
 2988SOL     OW20422   3.796   0.952   2.457  0.2975  0.4311 -0.1440
 2988SOL    HW120423   3.892   0.952   2.453  0.3416 -2.5193  1.2238
 2988SOL    HW220424   3.785   1.015   2.529  2.4796 -0.0667  0.6248
 2989SOL     OW20425   0.216   4.485   8.577  0.1934  0.5491 -0.1809
 2989SOL    HW120426   0.272   4.553   8.538  0.7650  1.1339  1.6895
 2989SOL    HW220427   0.140   4.541   8.594  0.7895  1.4159 -0.3178
 2990SOL     OW20428   1.268   2.028   8.949 -0.0743 -0.7085  0.1961
 2990SOL    HW120429   1.266   2.087   8.873  2.6427 -1.4337 -0.4317
 2990SOL    HW220430   1.362   2.027   8.966  0.1664  1.9038 -0.9795
 2991SOL     OW20431   4.173   4.201  17.107 -0.1339  0.0661  0.2619
 2991SOL    HW120432   4.238   4.216  17.176  0.0323  0.7426 -0.0448
 2991SOL    HW220433   4.144   4.114  17.133 -0.6040  0.3116  0.5567
 2992SOL     OW20434   4.021   3.943   4.743 -0.1147 -0.3314  0.1753
 2992SOL    HW120435   4.035   3.982   4.829 -0.3512  4.6382 -2.0262
 2992SOL    HW220436   3.927   3.922   4.740 -0.1175 -0.1794 -0.8019
 2993SOL     OW20437   3.852   1.991   2.519  0.0243 -0.1564  0.1344
 2993SOL    HW120438   3.859   1.929   2.592  0.3717 -1.5437 -1.0767
 2993SOL    HW220439   3.874   2.069   2.569  0.9054  0.7006 -1.5979
 2994SOL     OW20440   3.495   4.610  11.918 -0.4051 -0.5397 -0.3042
 2994SOL    HW120441   3.432   4.613  11.846 -2.7830 -3.0005  1.6374
 2994SOL    HW220442   3.497   4.703  11.939 -1.8014 -0.0125 -2.4404
 2995SOL     OW20443   2.882   4.678   9.134 -0.0416  0.0569 -0.4384
 2995SOL    HW120444   2.952   0.017   9.112  1.2680 -0.1470  3.2575
 2995SOL    HW220445   2.824   4.681   9.058 -1.6383  3.3738  0.9160
 2996SOL     OW20446   1.364   0.483   5.638  0.0124  0.1657  0.2773
 2996SOL    HW120447   1.406   0.535   5.569 -1.6667 -2.7615 -2.9624
 2996SOL    HW220448   1.438   0.450   5.688 -0.7138 -0.1564  1.1323
 2997SOL     OW20449   4.011   0.190  13.883 -0.3639  0.4303  0.3787
 2997SOL    HW120450   4.009   0.262  13.946 -1.3869  1.0208 -0.3190
 2997SOL    HW220451   3.930   0.145  13.907  0.9178 -1.4702  1.1989
 2998SOL     OW20452   3.583   0.084   6.481  0.8241 -0.1534 -0.0864
 2998SOL    HW120453   3.572   0.029   6.403 -0.1160 -1.5568  1.0277
 2998SOL    HW220454   3.591   0.028   6.558  4.3185 -0.7994 -0.9107
 2999SOL     OW20455   1.402   0.958   5.167  0.6015 -0.4315 -0.0450
 2999SOL    HW120456   1.482   0.915   5.137 -0.2855 -1.3824 -1.0531
 2999SOL    HW220457   1.331   0.895   5.159  0.3923 -0.5548  2.7756
 3000SOL     OW20458   4.186   1.099   5.468  0.5898 -0.7541  0.0568
 3000SOL    HW120459   4.159   1.089   5.559 -0.1585  0.5314 -0.0277
 3000SOL    HW220460   4.149   1.187   5.459 -1.7282 -1.6444  0.7290
 3001SOL     OW20461   2.964   3.400   8.850 -0.2224  0.2956 -0.5248
 3001SOL    HW120462   2.997   3.312   8.871 -0.0979 -0.1208 -2.4116
 3001SOL    HW220463   2.916   3.384   8.768  0.3127 -0.8823 -0.6102
 3002SOL     OW20464   3.199   3.461   5.658 -0.4082  0.8194 -0.2151
 3002SOL    HW120465   3.145   3.466   5.579 -1.5076  1.3522  0.5620
 3002SOL    HW220466   3.287   3.464   5.622  0.3851 -0.8854  1.5558
 3003SOL     OW20467   0.048   2.762  12.259 -0.0691 -0.1827  0.2907
 3003SOL    HW120468   0.116   2.794  12.319 -1.1787  0.0558  1.4310
 3003SOL    HW220469   4.692   2.752  12.314  0.4791 -0.7221  0.9866
 3004SOL     OW20470   3.768   0.557   1.923 -0.0887  0.0535  0.1960
 3004SOL    HW120471   3.721   0.534   1.843  1.2355 -1.8031 -0.0356
 3004SOL    HW220472   3.699   0.555   1.990  0.7530  0.9269  1.0940
 3005SOL     OW20473   2.406   1.706   6.983  0.0363 -0.3018 -0.4143
 3005SOL    HW120474   2.324   1.731   7.025  1.0747  1.5127  0.5395
 3005SOL    HW220475   2.374   1.657   6.906 -0.6871 -0.9814  0.3170
 3006SOL     OW20476   0.119   3.187   5.894 -0.0073 -0.1144  0.5329
 3006SOL    HW120477   0.070   3.110   5.925 -1.6581  0.1558 -1.4007
 3006SOL    HW220478   0.062   3.259   5.867 -0.4421 -1.2712 -1.6752
 3007SOL     OW20479   4.067   3.839   2.614 -0.1148 -0.1468  0.5002
 3007SOL    HW120480   4.085   3.933   2.621 -0.4218  0.0019 -0.7277
 3007SOL    HW220481   4.025   3.822   2.699  0.6496 -0.0275  0.9037
 3008SOL     OW20482   3.645   0.334   6.459 -0.0632  0.1534  0.0342
 3008SOL    HW120483   3.558   0.365   6.433 -0.8504  0.0868  2.4991
 3008SOL    HW220484   3.626   0.241   6.468  1.6470 -0.1333  0.7777
 3009SOL     OW20485   4.649   4.095  14.873 -0.0481  0.5452  0.6801
 3009SOL    HW120486   4.712   4.041  14.921 -1.6524 -0.7746  1.2964
 3009SOL    HW220487   4.562   4.066  14.900  0.8626 -3.3489 -0.6398
 3010SOL     OW20488   2.708   3.860   8.288 -0.4779 -0.6379  0.2115
 3010SOL    HW120489   2.694   3.940   8.237 -3.5819 -1.8947 -0.8668
 3010SOL    HW220490   2.644   3.800   8.249  0.5417  0.1648 -2.7089
 3011SOL     OW20491   1.671   0.841   4.830  0.2420  0.4165  0.1816
 3011SOL    HW120492   1.627   0.925   4.845  0.0369  0.9067 -3.2771
 3011SOL    HW220493   1.680   0.827   4.736 -1.7182  2.5445 -0.3120
 3012SOL     OW20494   0.658   4.594   8.553 -0.4336  0.1552  0.1407
 3012SOL    HW120495   0.720   4.668   8.557  1.4882 -1.3885 -0.8643
 3012SOL    HW220496   0.578   4.640   8.527  0.6499  1.7643 -0.3941
 3013SOL     OW20497   4.132   1.281  17.083  0.4737 -0.5323 -0.0684
 3013SOL    HW120498   4.129   1.250  17.174  1.5187  1.5943  0.7018
 3013SOL    HW220499   4.075   1.359  17.090  0.2456 -0.8371  1.5570
 3014SOL     OW20500   3.741   0.915   8.647 -0.9944  0.0498 -0.2631
 3014SOL    HW120501   3.718   0.824   8.631  0.9544 -0.5015  0.1447
 3014SOL    HW220502   3.812   0.900   8.709  0.6716  0.6055 -2.0192
 3015SOL     OW20503   0.631   2.223  10.188  0.0082  0.3424 -0.0440
 3015SOL    HW120504   0.588   2.203  10.105  0.8667  1.3667 -0.7304
 3015SOL    HW220505   0.552   2.219  10.243  0.8220  1.1179  1.1768
 3016SOL     OW20506   2.504   4.555   3.919  0.0066  0.0717  0.3109
 3016SOL    HW120507   2.456   4.481   3.882 -2.3115  2.5242 -1.5621
 3016SOL    HW220508   2.512   4.619   3.849 -1.9286 -0.1380 -0.1054
 3017SOL     OW20509   0.922   0.681  14.223 -0.3926  0.2474 -0.0398
 3017SOL    HW120510   0.978   0.747  14.182 -0.9838  0.7719 -0.0057
 3017SOL    HW220511   0.962   0.676  14.310  1.4017 -0.5019 -0.8991
 3018SOL     OW20512   3.968   2.663   9.505  0.2905 -0.5191 -0.1510
 3018SOL    HW120513   3.989   2.579   9.548 -0.9810 -0.3682  0.7511
 3018SOL    HW220514   3.908   2.623   9.442  1.6091 -0.4378 -1.4610
 3019SOL     OW20515   0.738   2.417   6.699 -0.4575  0.2773 -0.2170
 3019SOL    HW120516   0.733   2.405   6.604  0.4323  4.3377 -0.8076
 3019SOL    HW220517   0.707   2.333   6.731  1.3385 -0.2633  0.1058
 3020SOL     OW20518   0.398   3.076   2.094 -0.5259 -0.1773  0.6464
 3020SOL    HW120519   0.369   3.167   2.093 -0.2133 -0.0533  3.0517
 3020SOL    HW220520   0.455   3.085   2.017 -1.4955  1.2038  0.0977
 3021SOL     OW20521   1.534   3.164  16.443  0.2919 -0.8711 -0.0106
 3021SOL    HW120522   1.604   3.101  16.461  1.2878 -0.2161 -1.6002
 3021SOL    HW220523   1.466   3.101  16.422  1.4649 -2.0539 -0.2800
 3022SOL     OW20524   3.573   0.168   6.151 -0.2338  0.0238 -0.1986
 3022SOL    HW120525   3.663   0.141   6.170 -0.0810  0.2813 -0.5489
 3022SOL    HW220526   3.593   0.256   6.119 -1.4490  0.0186 -0.9738
 3023SOL     OW20527   0.415   0.864   4.262  0.1228 -0.1693 -0.0109
 3023SOL    HW120528   0.493   0.920   4.262  0.1482 -0.2059 -1.3125
 3023SOL    HW220529   0.445   0.798   4.324 -1.8916 -1.2556 -0.2066
 3024SOL     OW20530   0.313   3.830   9.082  1.0495  0.2512  0.0937
 3024SOL    HW120531   0.351   3.914   9.107 -0.4313  1.0063 -0.1801
 3024SOL    HW220532   0.389   3.772   9.074 -0.8923 -2.0860 -1.4581
 3025SOL     OW20533   2.289   2.787   0.549 -0.1156 -0.0785 -0.2573
 3025SOL    HW120534   2.347   2.727   0.595  0.3608 -0.2453 -1.0722
 3025SOL    HW220535   2.323   2.871   0.580 -1.6437 -0.1251  1.5755
 3026SOL     OW20536   0.067   1.425   2.832  1.1345  0.0187  0.1231
 3026SOL    HW120537   0.011   1.474   2.892  1.5643 -0.0604  0.5978
 3026SOL    HW220538   0.077   1.487   2.760  0.0437 -0.4971 -0.4602
 3027SOL     OW20539   4.362   1.307   2.196 -0.2197 -0.0575  0.3251
 3027SOL    HW120540   4.389   1.232   2.250  1.4484  0.6818  0.5125
 3027SOL    HW220541   4.267   1.307   2.209 -0.3166  0.1938 -0.4097
 3028SOL     OW20542   0.564   3.989  12.214 -0.0237  0.1165  0.4067
 3028SOL    HW120543   0.489   3.934  12.191  1.0375 -0.4380 -1.6977
 3028SOL    HW220544   0.517   4.064  12.252 -0.7459  0.2817 -0.8146
 3029SOL     OW20545   3.941   1.268  16.745  0.3140 -0.5103  0.1265
 3029SOL    HW120546   3.851   1.301  16.737  0.1487 -1.5648 -2.2877
 3029SOL    HW220547   3.976   1.322  16.817 -0.9511 -1.2034  1.2601
 3030SOL     OW20548   0.762   2.960  14.234 -0.1806  0.4119 -0.2828
 3030SOL    HW120549   0.788   3.008  14.156  1.8307  0.4153  0.3945
 3030SOL    HW220550   0.674   2.997  14.233 -1.2372 -1.9376  3.0993
 3031SOL     OW20551   1.886   0.256  12.945 -0.1016 -0.2591  0.3912
 3031SOL    HW120552   1.932   0.212  13.017  2.0950 -0.0529 -0.9010
 3031SOL    HW220553   1.946   0.331  12.941 -3.1369  2.2116  1.5105
 3032SOL     OW20554   2.467   0.666   0.328 -0.1780  0.2968  0.0917
 3032SOL    HW120555   2.473   0.762   0.327 -0.0059  0.2717 -0.7178
 3032SOL    HW220556   2.557   0.637   0.339 -0.4241 -1.4450 -2.6311
 3033SOL     OW20557   3.968   0.683  11.725  0.4936  0.9068  0.1836
 3033SOL    HW120558   4.033   0.632  11.772  1.8139  1.1180 -1.4289
 3033SOL    HW220559   4.012   0.707  11.644 -1.6620  2.7587 -0.4649
 3034SOL     OW20560   0.597   2.836   4.040  0.1620  0.4125 -0.0581
 3034SOL    HW120561   0.594   2.749   4.082  1.3927  1.1967  1.6520
 3034SOL    HW220562   0.645   2.815   3.960 -0.9778 -0.3554 -0.5481
 3035SOL     OW20563   3.955   0.609  15.385  0.0186 -0.2291 -0.1917
 3035SOL    HW120564   3.963   0.519  15.353 -2.2186 -0.1831 -0.9283
 3035SOL    HW220565   4.033   0.640  15.338 -0.4522 -1.1063 -1.5672
 3036SOL     OW20566   0.571   3.113  11.376  0.5526  0.0739  0.2537
 3036SOL    HW120567   0.646   3.067  11.339  1.9991  1.1194  1.9331
 3036SOL    HW220568   0.526   3.031  11.398  0.4630  0.0762  0.0821
 3037SOL     OW20569   2.803   1.034   4.782 -0.4251  0.0307 -0.4330
 3037SOL    HW120570   2.741   0.961   4.784  1.9578 -1.9839 -1.0744
 3037SOL    HW220571   2.775   1.069   4.697 -3.2737 -1.5219 -0.1376
 3038SOL     OW20572   1.282   1.036   7.820  0.2202  0.5377 -0.1973
 3038SOL    HW120573   1.195   0.998   7.831  0.1272  0.6532 -0.5262
 3038SOL    HW220574   1.339   0.960   7.827 -1.1421 -0.2670  2.1905
 3039SOL     OW20575   4.399   4.084  12.179 -0.5135  0.0818 -0.1872
 3039SOL    HW120576   4.389   4.089  12.274 -1.0133 -0.8515 -0.1895
 3039SOL    HW220577   4.439   4.169  12.160 -0.6397  0.3150  0.5643
 3040SOL     OW20578   1.735   1.979   3.912 -0.1535 -0.2261 -0.5343
 3040SOL    HW120579   1.777   2.065   3.911 -1.3308  0.3559  0.3125
 3040SOL    HW220580   1.768   1.925   3.840  0.1119 -0.4098 -0.2767
 3041SOL     OW20581   1.702   2.869   6.655 -0.0639 -0.3542  0.0181
 3041SOL    HW120582   1.611   2.841   6.641 -0.7078  1.7644  0.0063
 3041SOL    HW220583   1.728   2.821   6.734  0.6224  1.5083  0.9217
 3042SOL     OW20584   1.484   2.878   3.729  0.0012 -0.5618  0.0407
 3042SOL    HW120585   1.459   2.887   3.821 -1.8023 -3.1972 -0.1769
 3042SOL    HW220586   1.551   2.946   3.725  0.0367 -0.5968  0.0384
 3043SOL     OW20587   4.482   2.045  15.153  0.1282  0.1666 -0.5124
 3043SOL    HW120588   4.436   2.117  15.197 -0.1953  0.4145 -1.2509
 3043SOL    HW220589   4.516   2.004  15.232 -2.1158  0.8423  0.8112
 3044SOL     OW20590   0.909   1.202   6.060  0.2970  0.3875 -0.4519
 3044SOL    HW120591   0.881   1.277   6.008 -0.0279  0.8697  0.4188
 3044SOL    HW220592   0.935   1.141   5.991 -0.3549 -0.6005  0.1858
 3045SOL     OW20593   2.465   2.896  14.315  0.1837  0.1664 -0.2566
 3045SOL    HW120594   2.420   2.895  14.230 -0.1862  1.0379 -0.0684
 3045SOL    HW220595   2.431   2.979  14.349 -0.3822  0.0271 -0.4845
 3046SOL     OW20596   2.597   4.369  10.806  1.0077  0.4000  0.1664
 3046SOL    HW120597   2.587   4.287  10.758  1.7039 -1.0290  2.4455
 3046SOL    HW220598   2.519   4.362  10.860  1.3754 -0.3548  0.5920
 3047SOL     OW20599   3.825   3.078   3.382 -0.2511 -0.3071  0.3108
 3047SOL    HW120600   3.792   3.029   3.307 -0.3877  0.7310 -0.3124
 3047SOL    HW220601   3.771   3.047   3.454 -3.3887  1.5631 -1.2542
 3048SOL     OW20602   4.519   2.651  17.412  0.3496  0.5349  0.2628
 3048SOL    HW120603   4.586   2.611  17.357 -0.6890  1.5099 -1.7044
 3048SOL    HW220604   4.475   2.570  17.436  1.8917 -0.3709  0.0317
 3049SOL     OW20605   3.040   2.418   8.517  0.3217  0.3195  0.4451
 3049SOL    HW120606   3.122   2.373   8.496  0.0169 -0.0568  0.0569
 3049SOL    HW220607   3.083   2.503   8.505 -0.8511  0.7080 -1.0076
 3050SOL     OW20608   3.028   1.913   2.467 -0.6487 -0.1815 -0.4630
 3050SOL    HW120609   3.075   1.829   2.466  0.8496  0.6545 -0.0199
 3050SOL    HW220610   3.067   1.946   2.548 -0.2337  1.3932 -1.3282
 3051SOL     OW20611   3.651   4.493   3.372 -0.0147  1.5845  0.5782
 3051SOL    HW120612   3.691   4.443   3.301 -0.3130  1.7717  0.2778
 3051SOL    HW220613   3.579   4.438   3.402  2.0951 -1.0544  0.7380
 3052SOL     OW20614   4.073   4.053  15.014  0.2423  0.1604 -0.0374
 3052SOL    HW120615   4.032   4.042  15.099  2.9836 -2.9426  0.8689
 3052SOL    HW220616   4.006   4.026  14.950 -0.7483 -4.2359  2.8651
 3053SOL     OW20617   3.494   1.746   4.589 -0.3596  0.4454 -0.3620
 3053SOL    HW120618   3.477   1.833   4.553 -4.3104 -0.5302 -0.8759
 3053SOL    HW220619   3.508   1.774   4.679 -0.6348  1.4451 -0.6367
 3054SOL     OW20620   2.326   0.448   7.242 -0.1662  0.0716 -0.0759
 3054SOL    HW120621   2.344   0.492   7.325 -2.1093 -2.8463  1.8982
 3054SOL    HW220622   2.237   0.479   7.224 -0.3418 -0.2583  0.2338
 3055SOL     OW20623   2.615   1.752  11.519 -1.1811  0.7280  0.2000
 3055SOL    HW120624   2.687   1.808  11.549 -0.2448 -0.3162 -0.0939
 3055SOL    HW220625   2.548   1.788  11.577 -1.2539  0.6952  0.1360
 3056SOL     OW20626   3.481   2.716   5.461 -0.9200  0.2289  0.3082
 3056SOL    HW120627   3.446   2.803   5.479 -0.8885  0.1597  0.6974
 3056SOL    HW220628   3.480   2.669   5.544 -0.2261 -2.1759 -1.0491
 3057SOL     OW20629   2.304   4.482   1.489  0.1612  0.0263 -0.0130
 3057SOL    HW120630   2.282   4.424   1.562  1.1782 -0.7574 -0.3352
 3057SOL    HW220631   2.386   4.441   1.463  0.7495 -0.1199  2.1086
 3058SOL     OW20632   3.809   4.157  13.753 -0.6628  0.5675 -0.2250
 3058SOL    HW120633   3.726   4.193  13.724  0.1119  2.5914  0.0418
 3058SOL    HW220634   3.790   4.129  13.843  2.2521  0.1421  0.2683
 3059SOL     OW20635   0.380   1.507   8.297  0.2085  0.6404  0.5112
 3059SOL    HW120636   0.439   1.558   8.241 -1.4931  1.1878 -0.7901
 3059SOL    HW220637   0.380   1.428   8.243 -1.5722  0.3579  0.9481
 3060SOL     OW20638   0.390   0.466  12.500 -0.0479 -0.2312 -0.5000
 3060SOL    HW120639   0.346   0.462  12.415 -0.0407  0.6945 -0.5537
 3060SOL    HW220640   0.472   0.437  12.462  0.2521 -0.1671  0.0954
 3061SOL     OW20641   4.596   3.063  12.592 -0.6995 -0.1950 -0.1500
 3061SOL    HW120642   4.505   3.087  12.575 -0.6624  0.8172  1.0985
 3061SOL    HW220643   4.598   2.972  12.561 -1.2715  1.1068 -3.9081
 3062SOL     OW20644   3.150   3.501  13.054 -0.0002 -0.8516 -0.2290
 3062SOL    HW120645   3.153   3.502  12.958 -0.2000  0.2910 -0.2189
 3062SOL    HW220646   3.063   3.464  13.069  0.0048  0.2328  2.5013
 3063SOL     OW20647   1.824   1.134   5.088 -0.4169 -0.0969 -0.1104
 3063SOL    HW120648   1.763   1.135   5.015  0.5449 -0.4719 -0.9215
 3063SOL    HW220649   1.856   1.220   5.060 -1.9846  0.1780 -1.0576
 3064SOL     OW20650   4.687   1.845   7.534 -0.4881 -0.1797 -0.4223
 3064SOL    HW120651   4.669   1.913   7.469  2.3090  1.5800  0.6488
 3064SOL    HW220652   4.649   1.885   7.613 -0.4660 -1.4236  0.2105
 3065SOL     OW20653   3.846   0.329   0.084  0.2207  0.1866  0.2660
 3065SOL    HW120654   3.830   0.404   0.142 -0.2442  1.3264 -1.3509
 3065SOL    HW220655   3.929   0.298   0.120  0.4244  2.0409  1.4383
 3066SOL     OW20656   2.276   0.978   7.010 -0.0328 -0.1102 -0.8112
 3066SOL    HW120657   2.287   0.905   7.070  1.3382  1.0196  0.3243
 3066SOL    HW220658   2.270   0.939   6.923 -1.2035 -0.8469 -0.3937
 3067SOL     OW20659   0.966   0.258  11.076 -0.3905 -0.1395 -0.0741
 3067SOL    HW120660   0.964   0.354  11.076 -1.3924 -0.1643  1.5094
 3067SOL    HW220661   1.020   0.242  10.999  0.6402 -1.7302  0.9693
 3068SOL     OW20662   3.198   0.221   6.709 -0.1845  0.8545  0.1476
 3068SOL    HW120663   3.146   0.151   6.670 -1.0484  1.6564 -0.1412
 3068SOL    HW220664   3.132   0.285   6.736 -1.5258 -0.7865  0.7046
 3069SOL     OW20665   0.869   1.793  11.551  0.2170 -0.3725 -0.0549
 3069SOL    HW120666   0.928   1.806  11.476 -0.1674 -0.0397 -0.3017
 3069SOL    HW220667   0.921   1.760  11.625 -0.2990 -0.1985  0.3812
 3070SOL     OW20668   4.621   4.280   5.277 -0.1963 -0.8327  0.6354
 3070SOL    HW120669   4.621   4.185   5.267  2.9898 -0.6340 -1.3717
 3070SOL    HW220670   4.714   4.291   5.257 -0.5064 -0.0106 -0.3942
 3071SOL     OW20671   4.162   2.223   5.006 -0.3612 -0.1255 -0.6502
 3071SOL    HW120672   4.169   2.131   5.033 -1.9401  0.5139  1.8656
 3071SOL    HW220673   4.244   2.234   4.957  0.5370 -0.0125  0.8767
 3072SOL     OW20674   1.782   3.399   6.708  0.4715  0.6424 -0.4641
 3072SOL    HW120675   1.717   3.450   6.756  0.5391  0.7976 -0.5401
 3072SOL    HW220676   1.772   3.309   6.740  1.1193  0.4724 -0.7510
 3073SOL     OW20677   0.202   1.103   7.558 -0.0636 -0.0807  0.0860
 3073SOL    HW120678   0.170   1.180   7.606 -0.4512  0.0374 -0.3516
 3073SOL    HW220679   0.295   1.120   7.574 -0.7554  1.8126  2.1002
 3074SOL     OW20680   1.224   1.815   2.932 -0.3950 -0.0002  0.0809
 3074SOL    HW120681   1.299   1.874   2.926 -0.3863  0.0432  0.6667
 3074SOL    HW220682   1.225   1.797   3.026  3.0594 -3.7606 -0.6649
 3075SOL     OW20683   3.030   2.640   4.321 -0.4369  0.1252  0.0863
 3075SOL    HW120684   2.993   2.603   4.401 -1.1337 -1.1033 -0.8094
 3075SOL    HW220685   3.092   2.571   4.299  3.0310  2.3686  2.7399
 3076SOL     OW20686   3.787   3.318  15.622 -0.0160 -0.1236 -0.6185
 3076SOL    HW120687   3.721   3.349  15.684 -0.2029 -0.9414 -0.4149
 3076SOL    HW220688   3.748   3.256  15.560  1.7128 -0.8510 -0.9767
 3077SOL     OW20689   0.059   0.006  17.024  0.6635  0.0003 -0.4589
 3077SOL    HW120690   0.096   4.703  17.108 -0.3519  0.0700  0.0080
 3077SOL    HW220691   4.690   0.010  17.052  1.2403 -0.9281  1.5266
 3078SOL     OW20692   4.327   3.287   5.168 -0.2549  0.3096  0.3333
 3078SOL    HW120693   4.364   3.229   5.101  1.5645  0.4294  1.2425
 3078SOL    HW220694   4.232   3.271   5.165  0.0794 -1.2369 -1.6343
 3079SOL     OW20695   1.711   2.644   8.065 -0.1164  0.1427  0.8279
 3079SOL    HW120696   1.663   2.647   7.982 -1.2918  1.8539  1.5747
 3079SOL    HW220697   1.678   2.565   8.106  0.1743 -0.7354 -0.6094
 3080SOL     OW20698   1.414   2.893   4.925 -0.3690 -0.2210 -0.3858
 3080SOL    HW120699   1.448   2.948   4.854 -1.4745  0.3837 -0.4585
 3080SOL    HW220700   1.339   2.848   4.886 -0.0172  0.1037 -1.4423
 3081SOL     OW20701   0.974   1.798  11.301  0.1266  0.0685 -0.1975
 3081SOL    HW120702   1.067   1.774  11.303  0.9652  3.2272 -1.3681
 3081SOL    HW220703   0.934   1.711  11.306  2.3160 -0.9550 -0.7068
 3082SOL     OW20704   0.597   0.073  14.855  0.6379 -0.0517  0.4054
 3082SOL    HW120705   0.525   0.111  14.805  1.7789  1.3691 -0.1866
 3082SOL    HW220706   0.557   0.006  14.910  0.2545  0.6628  0.9992
 3083SOL     OW20707   1.199   3.994   9.742 -0.0338  0.1956 -0.3645
 3083SOL    HW120708   1.180   3.944   9.821 -2.4691  1.4536 -0.1723
 3083SOL    HW220709   1.252   3.933   9.691 -2.7121 -2.2312 -0.2073
 3084SOL     OW20710   0.244   4.355  17.267 -0.6709  0.1369  0.5769
 3084SOL    HW120711   0.287   4.275  17.237  1.0428  0.8979  1.0232
 3084SOL    HW220712   0.250   4.337  17.361  2.1119  0.4770  0.4671
 3085SOL     OW20713   1.503   0.071   2.137 -0.4280  0.0072 -0.1517
 3085SOL    HW120714   1.517   0.108   2.224  0.3842  2.3100 -1.2828
 3085SOL    HW220715   1.430   0.010   2.153  0.9289 -1.3936  0.6935
 3086SOL     OW20716   2.494   3.535   7.154 -0.2260 -0.2328  0.2365
 3086SOL    HW120717   2.477   3.507   7.064 -2.2860  0.5598  0.3839
 3086SOL    HW220718   2.568   3.593   7.137 -0.2520 -0.6992 -1.4147
 3087SOL     OW20719   4.003   0.674   5.468  0.0812 -0.7663  0.7477
 3087SOL    HW120720   3.939   0.729   5.514 -0.1883 -0.8643  0.4936
 3087SOL    HW220721   4.029   0.726   5.392  0.0251  0.6080  1.6760
 3088SOL     OW20722   1.098   3.498   7.900  0.1172 -0.1459  0.7318
 3088SOL    HW120723   1.060   3.488   7.813 -0.7536 -1.1925  1.2358
 3088SOL    HW220724   1.064   3.582   7.931  0.7048  0.5025 -0.3855
 3089SOL     OW20725   4.278   2.910   2.244 -0.1241 -0.3785 -0.3963
 3089SOL    HW120726   4.353   2.948   2.198 -1.5254  2.4203 -0.3681
 3089SOL    HW220727   4.206   2.911   2.181  1.1908  2.8280 -1.8235
 3090SOL     OW20728   2.972   4.421  12.857 -0.9723 -0.3649 -0.5503
 3090SOL    HW120729   2.972   4.456  12.768  0.2109  2.6536  0.6402
 3090SOL    HW220730   3.025   4.483  12.907 -3.4276  0.1935  1.3680
 3091SOL     OW20731   0.554   3.025   9.951  0.1421 -0.0445 -0.9046
 3091SOL    HW120732   0.585   3.015   9.861  2.0886 -0.6531 -0.1742
 3091SOL    HW220733   0.518   3.114   9.951  0.0685 -0.0819  0.4350
 3092SOL     OW20734   2.883   2.237   6.060  0.1115 -0.8396 -0.7984
 3092SOL    HW120735   2.932   2.227   6.142  1.4444  0.0788 -1.4753
 3092SOL    HW220736   2.896   2.329   6.039 -1.1535 -0.6455 -0.6820
 3093SOL     OW20737   0.734   3.087   9.239 -0.8700  0.1860 -0.1025
 3093SOL    HW120738   0.694   3.046   9.162  0.2016  0.8189 -0.9844
 3093SOL    HW220739   0.786   3.162   9.212 -1.6020  0.4324 -0.8333
 3094SOL     OW20740   0.816   2.957   2.057 -0.5473 -0.3141  0.4589
 3094SOL    HW120741   0.794   2.869   2.026  0.0315 -0.3918  0.2754
 3094SOL    HW220742   0.797   3.008   1.978  1.6000 -0.7310 -0.3387
 3095SOL     OW20743   2.363   1.302  12.332 -0.1027  0.1063 -0.0379
 3095SOL    HW120744   2.432   1.268  12.389 -1.2383 -1.0003  0.6856
 3095SOL    HW220745   2.311   1.221  12.329 -0.9841  0.6812 -0.3707
 3096SOL     OW20746   3.958   1.937   9.377  0.4561 -0.3742  0.3628
 3096SOL    HW120747   3.974   1.883   9.300  1.6549  0.9369 -0.3105
 3096SOL    HW220748   3.863   1.946   9.377  0.7340  2.4629  4.8132
 3097SOL     OW20749   3.476   1.289  12.101  0.1332 -0.1216  0.2947
 3097SOL    HW120750   3.425   1.255  12.175  1.4880 -1.5646  0.5736
 3097SOL    HW220751   3.533   1.351  12.146  1.9763 -1.8883  0.3905
 3098SOL     OW20752   0.017   2.590   3.210 -0.1834 -0.7007  0.5953
 3098SOL    HW120753   4.673   2.656   3.231 -0.0428 -0.0685 -0.9516
 3098SOL    HW220754   4.722   2.575   3.117 -0.3237 -3.5297  1.0841
 3099SOL     OW20755   2.797   0.729  12.496  0.3045  0.4709 -0.4505
 3099SOL    HW120756   2.825   0.639  12.515 -1.9516 -0.3049 -0.8505
 3099SOL    HW220757   2.812   0.734  12.402 -2.5494 -0.4796 -0.9532
 3100SOL     OW20758   1.193   4.436   4.685 -0.3642 -0.3539 -0.3680
 3100SOL    HW120759   1.222   4.346   4.675 -0.6094 -0.6040  1.1611
 3100SOL    HW220760   1.161   4.462   4.598  1.1012 -1.6595 -1.2992
 3101SOL     OW20761   3.575   3.010   2.535 -0.2299 -0.7461 -0.4696
 3101SOL    HW120762   3.603   3.101   2.522 -2.1355 -0.0488  0.3162
 3101SOL    HW220763   3.491   3.005   2.490  0.4011 -0.2308 -1.7035
 3102SOL     OW20764   0.478   3.657  14.732  0.1216 -0.0841 -0.0340
 3102SOL    HW120765   0.487   3.562  14.739 -1.8820 -0.2269  0.4426
 3102SOL    HW220766   0.387   3.660  14.703  1.5884  0.8576 -4.6341
 3103SOL     OW20767   1.789   0.822  15.989  0.3526 -0.1015 -0.2059
 3103SOL    HW120768   1.882   0.805  15.977  0.6550  1.3749 -0.0145
 3103SOL    HW220769   1.795   0.909  16.030  0.8887 -0.2861  0.1003
 3104SOL     OW20770   3.270   4.245   6.360 -0.8635  0.1136  0.1727
 3104SOL    HW120771   3.206   4.294   6.308  0.6781 -0.0864 -1.8836
 3104SOL    HW220772   3.295   4.180   6.295  0.8309  1.7935 -0.8346
 3105SOL     OW20773   3.765   4.308   5.021  0.3761  0.2168 -0.0605
 3105SOL    HW120774   3.842   4.297   4.964  1.0544 -0.7878  1.0610
 3105SOL    HW220775   3.696   4.300   4.955 -0.6538  0.4195  1.0045
 3106SOL     OW20776   1.569   2.865   8.160  0.0911  0.3909  0.0411
 3106SOL    HW120777   1.595   2.773   8.164 -0.7523  0.2826  2.7987
 3106SOL    HW220778   1.574   2.888   8.252  1.4434  0.5006 -0.0704
 3107SOL     OW20779   1.414   0.793   3.326  0.0629  0.8833 -0.5613
 3107SOL    HW120780   1.461   0.788   3.243  1.5317  0.0537  0.3201
 3107SOL    HW220781   1.361   0.873   3.318 -0.1158  0.9420  1.1123
 3108SOL     OW20782   2.525   0.338   3.330 -0.0923 -0.2454 -0.0509
 3108SOL    HW120783   2.489   0.250   3.323 -0.7327 -0.1205  1.5734
 3108SOL    HW220784   2.445   0.384   3.303  0.2914  0.0420 -0.6968
 3109SOL     OW20785   3.320   0.002   7.994 -0.7954 -0.2699  0.0550
 3109SOL    HW120786   3.350   0.041   8.076  0.3225  0.3914 -0.6812
 3109SOL    HW220787   3.329   0.083   7.945 -1.8061 -0.9284 -1.2551
 3110SOL     OW20788   2.782   1.065   1.839 -0.3772 -0.0794 -0.3519
 3110SOL    HW120789   2.712   1.124   1.811  2.4410  2.1760 -2.6967
 3110SOL    HW220790   2.796   1.074   1.934  1.8357 -1.1490 -0.5699
 3111SOL     OW20791   4.293   3.504  11.091 -0.5851 -0.3809  0.4263
 3111SOL    HW120792   4.341   3.473  11.014  1.2690 -1.6013  2.0589
 3111SOL    HW220793   4.358   3.508  11.161  0.1551 -1.8219 -0.1803
 3112SOL     OW20794   3.068   4.201  16.086  0.3492 -0.1267 -0.4020
 3112SOL    HW120795   3.015   4.124  16.063 -0.3512  0.0549  0.6100
 3112SOL    HW220796   3.141   4.164  16.136 -0.1848  0.3170  0.6851
 3113SOL     OW20797   1.611   0.398   1.204 -0.1031 -0.0729  0.9035
 3113SOL    HW120798   1.642   0.334   1.267  1.5583 -1.0126 -0.8379
 3113SOL    HW220799   1.633   0.343   1.128 -0.2245 -1.5297  1.9436
 3114SOL     OW20800   4.387   0.489  17.424 -0.0669  0.3163 -0.0236
 3114SOL    HW120801   4.358   0.575  17.394 -0.5738 -0.1878 -1.0126
 3114SOL    HW220802   4.339   0.485  17.507  0.8188 -2.0448  0.3698
 3115SOL     OW20803   3.517   2.881  17.269  0.3967  0.1015 -0.3662
 3115SOL    HW120804   3.477   2.811  17.320 -0.2582  0.0586 -0.9459
 3115SOL    HW220805   3.557   2.935  17.337  0.3339  0.3956 -0.5631
 3116SOL     OW20806   1.118   0.475   7.281 -0.4467  0.6140 -0.1607
 3116SOL    HW120807   1.035   0.432   7.301  0.0017  0.3489  1.1156
 3116SOL    HW220808   1.124   0.527   7.360  0.7495 -0.0109  0.1617
 3117SOL     OW20809   4.588   0.383   6.428  0.3304  0.2000  0.5744
 3117SOL    HW120810   4.654   0.346   6.486  0.0836  0.0137  0.7367
 3117SOL    HW220811   4.519   0.318   6.443  1.4588 -0.2800  3.6221
 3118SOL     OW20812   0.372   2.881   5.038  0.7305 -0.1725  1.1061
 3118SOL    HW120813   0.363   2.878   5.133 -0.5054 -1.1379  0.9561
 3118SOL    HW220814   0.281   2.892   5.008 -0.3872  0.2598  4.6557
 3119SOL     OW20815   1.868   1.735   8.433  0.3025 -0.0445  0.1622
 3119SOL    HW120816   1.962   1.717   8.430  0.2779 -0.4201  1.8085
 3119SOL    HW220817   1.849   1.718   8.525  1.2930 -1.0191  0.1890
 3120SOL     OW20818   0.476   2.090   8.068  0.0557 -0.5300  0.4563
 3120SOL    HW120819   0.568   2.116   8.069 -0.2561  0.6109 -0.2281
 3120SOL    HW220820   0.480   1.996   8.089  0.3162 -0.4744  0.6436
 3121SOL     OW20821   3.198   2.482   8.104 -0.2857  0.5892 -0.1161
 3121SOL    HW120822   3.172   2.516   8.190 -1.4293  2.1694 -1.0627
 3121SOL    HW220823   3.272   2.425   8.123  2.3048  4.1977  0.6818
 3122SOL     OW20824   2.255   0.186   9.848  0.7629 -0.4696  0.2785
 3122SOL    HW120825   2.265   0.186   9.753  2.5628  2.2070  0.4574
 3122SOL    HW220826   2.324   0.248   9.870 -0.4046  1.7479 -2.2317
 3123SOL     OW20827   0.452   1.083   8.007  0.5699 -0.5569 -0.4609
 3123SOL    HW120828   0.516   1.025   8.048  1.3946  0.5612 -0.1527
 3123SOL    HW220829   0.463   1.061   7.915  0.8089 -0.5946 -0.4229
 3124SOL     OW20830   1.304   0.838   1.256 -0.0195 -0.4829 -0.1069
 3124SOL    HW120831   1.216   0.852   1.291 -0.8473 -2.0278 -1.5213
 3124SOL    HW220832   1.304   0.745   1.232 -0.0255 -0.4014 -0.4260
 3125SOL     OW20833   3.687   0.636   8.616  0.4141 -0.3318  0.0212
 3125SOL    HW120834   3.729   0.552   8.599 -1.0192 -0.9800 -0.2611
 3125SOL    HW220835   3.596   0.619   8.593  0.1190  0.7705  0.3555
 3126SOL     OW20836   2.319   2.848   7.998  0.6139  0.5081 -0.0621
 3126SOL    HW120837   2.269   2.807   7.928  0.0527  0.8994  0.1142
 3126SOL    HW220838   2.370   2.773   8.028 -1.4256 -2.4903 -4.1179
 3127SOL     OW20839   3.099   0.558  16.218  0.2142 -0.3218  0.1312
 3127SOL    HW120840   3.136   0.612  16.288 -0.4626  1.4060 -0.8629
 3127SOL    HW220841   3.004   0.548  16.230  0.2517  0.1451  0.8401
 3128SOL     OW20842   0.376   2.215   3.868  0.3269 -0.4980  0.4011
 3128SOL    HW120843   0.424   2.243   3.790 -0.6695 -1.0743 -0.4124
 3128SOL    HW220844   0.300   2.273   3.869 -0.5426 -1.6065 -1.4574
 3129SOL     OW20845   0.402   3.203   8.150 -0.5461 -0.4989  0.7117
 3129SOL    HW120846   0.321   3.155   8.164 -1.0114  0.5682  1.7820
 3129SOL    HW220847   0.413   3.174   8.060 -0.9724 -0.1543  0.5481
 3130SOL     OW20848   2.629   2.037   5.714  0.1180  0.7930 -0.0207
 3130SOL    HW120849   2.550   2.072   5.754  1.8261  0.2591  3.8731
 3130SOL    HW220850   2.633   2.092   5.636  1.9360  1.2451  0.3931
 3131SOL     OW20851   0.337   4.198   3.715 -0.4248 -0.2289  0.3504
 3131SOL    HW120852   0.349   4.180   3.621  0.8305  4.1356 -0.3223
 3131SOL    HW220853   0.431   4.211   3.732 -1.0623  0.9768  2.8167
 3132SOL     OW20854   4.371   2.887   4.963 -0.1893 -0.2659 -0.4390
 3132SOL    HW120855   4.388   2.843   5.047  0.6102 -0.4636 -0.7021
 3132SOL    HW220856   4.392   2.979   4.973  0.4392 -0.5684  1.0440
 3133SOL     OW20857   3.863   0.687   1.249 -1.0474  0.0849  0.2028
 3133SOL    HW120858   3.840   0.642   1.330 -2.2649  0.3372  0.0033
 3133SOL    HW220859   3.816   0.640   1.181  3.0567 -1.4940 -1.5476
 3134SOL     OW20860   0.892   4.469   5.040  0.1778  0.7876 -0.6613
 3134SOL    HW120861   0.854   4.454   5.126  2.1757  0.2091  0.1229
 3134SOL    HW220862   0.979   4.438   5.065  0.0259  0.9023 -0.0066
 3135SOL     OW20863   2.018   2.271  14.366  0.3826  0.4692 -0.4492
 3135SOL    HW120864   2.103   2.285  14.325  0.0661  1.7725 -0.6553
 3135SOL    HW220865   2.038   2.311  14.451  3.5948  1.0220 -1.4701
 3136SOL     OW20866   1.908   4.441   5.526  0.8457 -0.4809  0.2423
 3136SOL    HW120867   1.815   4.417   5.527  0.1958  2.0649  1.4139
 3136SOL    HW220868   1.933   4.378   5.594  2.1578  1.3880  1.4961
 3137SOL     OW20869   2.305   0.373  15.553  0.2005 -0.1905 -0.1797
 3137SOL    HW120870   2.331   0.411  15.637  0.4151 -0.1271 -0.2720
 3137SOL    HW220871   2.284   0.452  15.503 -0.1133  0.1159  0.4362
 3138SOL     OW20872   4.386   3.199   3.077  0.0940 -0.0160  0.3723
 3138SOL    HW120873   4.292   3.215   3.088  0.0037 -1.3417  1.4550
 3138SOL    HW220874   4.399   3.155   2.993  0.9873  4.1834 -1.7080
 3139SOL     OW20875   2.832   4.676   5.478  0.1709  0.1916 -0.0947
 3139SOL    HW120876   2.738   4.692   5.486 -0.2484 -1.7718 -1.0867
 3139SOL    HW220877   2.858   4.680   5.570  3.0806 -1.9164 -0.8156
 3140SOL     OW20878   3.670   3.166   4.140 -0.1040  0.1284 -0.4706
 3140SOL    HW120879   3.706   3.223   4.208  2.0908 -1.1852 -0.5183
 3140SOL    HW220880   3.578   3.163   4.167 -0.0074 -2.1681 -0.3773
 3141SOL     OW20881   2.688   0.031  11.099 -0.6027  0.1191 -0.0039
 3141SOL    HW120882   2.714   4.687  11.036  1.6223  0.5665  0.4419
 3141SOL    HW220883   2.655   0.097  11.038 -1.6793  0.2571  0.7134
 3142SOL     OW20884   3.318   4.383   3.978  0.0318 -0.1489 -0.5802
 3142SOL    HW120885   3.349   4.312   3.922  1.6228  0.2960 -0.2763
 3142SOL    HW220886   3.362   4.461   3.944  1.9547 -0.8446  0.3002
 3143SOL     OW20887   2.455   2.521  12.560  0.0954  0.0641  0.0664
 3143SOL    HW120888   2.441   2.442  12.612 -0.1067  0.0787  0.0336
 3143SOL    HW220889   2.363   2.544  12.548 -0.4360 -1.0568  2.1317
 3144SOL     OW20890   0.940   4.476   0.016  0.3117  0.1608  0.0442
 3144SOL    HW120891   0.968   4.404  17.653  0.7706  0.9796 -0.7804
 3144SOL    HW220892   0.847   4.453   0.021  0.9935 -2.3389  0.6924
 3145SOL     OW20893   0.342   2.675   5.602  0.3729  0.5946 -0.0011
 3145SOL    HW120894   0.408   2.630   5.550 -0.2257  0.3816 -0.5668
 3145SOL    HW220895   0.270   2.613   5.607  0.4072  0.3533 -2.4645
 3146SOL     OW20896   1.376   3.069   9.427  0.3929 -0.1286 -0.3820
 3146SOL    HW120897   1.375   3.000   9.361 -3.4885  0.2887 -0.7405
 3146SOL    HW220898   1.307   3.042   9.487 -1.0970  2.2157 -1.0265
 3147SOL     OW20899   2.104   3.323   8.114 -0.5353 -0.3039 -0.1595
 3147SOL    HW120900   2.136   3.240   8.079 -1.8021 -0.3744 -1.1370
 3147SOL    HW220901   2.057   3.360   8.039 -2.2773 -1.2639  0.4581
 3148SOL     OW20902   3.142   1.234   7.860 -0.3065 -0.4550  0.2443
 3148SOL    HW120903   3.111   1.274   7.779 -0.5152 -0.4767  0.3128
 3148SOL    HW220904   3.066   1.236   7.919 -0.7045 -0.7922 -0.2574
 3149SOL     OW20905   2.147   0.849   8.120  0.2715 -0.3092  0.1002
 3149SOL    HW120906   2.082   0.845   8.191 -0.3097  2.3619 -0.2933
 3149SOL    HW220907   2.117   0.784   8.057  2.9676 -0.4138 -1.0692
 3150SOL     OW20908   0.213   4.549   4.061 -0.1768 -0.2241  0.0156
 3150SOL    HW120909   0.183   4.568   4.150 -0.1417  1.1834 -0.2742
 3150SOL    HW220910   0.274   4.620   4.043 -1.1551  0.7597  0.6017
 3151SOL     OW20911   3.938   1.344   5.198 -0.3419  0.3317  1.0087
 3151SOL    HW120912   3.855   1.339   5.246 -0.0641  0.2953  1.4826
 3151SOL    HW220913   3.927   1.411   5.132 -0.0291 -1.3381 -0.7426
 3152SOL     OW20914   1.099   1.080   5.349 -0.1903  1.0875 -0.0060
 3152SOL    HW120915   1.180   1.120   5.381  0.5601 -0.5307  0.0992
 3152SOL    HW220916   1.089   1.119   5.262 -0.1903  1.0217 -0.0351
 3153SOL     OW20917   3.995   1.432   6.450 -0.0711 -0.0307 -0.2788
 3153SOL    HW120918   3.910   1.398   6.421 -0.4843  1.4738 -0.7845
 3153SOL    HW220919   4.053   1.398   6.381 -0.1469 -0.9183  0.0842
 3154SOL     OW20920   3.236   2.020   1.854 -0.5146 -0.5607  0.0583
 3154SOL    HW120921   3.212   1.969   1.777  0.8571 -1.7649  0.4436
 3154SOL    HW220922   3.186   2.098   1.829  0.1927 -0.1748 -0.1835
 3155SOL     OW20923   2.244   3.159   2.330  0.2925  0.0007  0.2640
 3155SOL    HW120924   2.292   3.157   2.248  2.2555  0.6005  1.4066
 3155SOL    HW220925   2.290   3.098   2.388  0.5200 -0.5074 -0.4562
 3156SOL     OW20926   0.337   1.155   0.807 -0.0994  0.0214 -1.0753
 3156SOL    HW120927   0.243   1.144   0.791  0.0140 -3.4702  0.8178
 3156SOL    HW220928   0.371   1.084   0.753 -0.4403 -0.4990 -0.6012
 3157SOL     OW20929   0.307   4.123   3.124  1.1386  0.1488 -0.1897
 3157SOL    HW120930   0.329   4.194   3.184 -1.9825 -0.8413  2.0582
 3157SOL    HW220931   0.213   4.131   3.134  1.1148 -1.3397  0.7688
 3158SOL     OW20932   4.094   2.906   3.597  0.2736  0.0932 -0.0481
 3158SOL    HW120933   4.090   2.923   3.691  2.1834 -0.8179  0.2034
 3158SOL    HW220934   4.026   2.840   3.589 -1.9792  2.3096  0.8153
 3159SOL     OW20935   4.067   3.489   4.314  0.0412  0.3645 -0.2365
 3159SOL    HW120936   4.067   3.584   4.322  1.6714  0.2055  1.6366
 3159SOL    HW220937   4.145   3.480   4.259  1.1102 -1.3829  1.5989
 3160SOL     OW20938   0.842   4.617   3.672 -0.3540 -0.2247  0.6315
 3160SOL    HW120939   0.897   4.562   3.616 -0.6768 -1.5979  1.6605
 3160SOL    HW220940   0.861   4.581   3.759  2.6332  0.7258  0.3712
 3161SOL     OW20941   4.364   1.995   5.299  0.4013  0.0421  0.0235
 3161SOL    HW120942   4.423   2.070   5.305  0.4866 -0.0726  0.6373
 3161SOL    HW220943   4.338   1.982   5.391 -0.3014 -1.8112 -0.4465
 3162SOL     OW20944   2.906   2.442   4.584  0.0500 -0.0521  0.1023
 3162SOL    HW120945   2.865   2.410   4.504 -1.5602 -1.0124  1.2914
 3162SOL    HW220946   2.901   2.369   4.646  2.0573  1.3788  1.9349
 3163SOL     OW20947   2.838   1.859   3.232  0.2610  0.0212 -0.0875
 3163SOL    HW120948   2.868   1.777   3.194  1.7815  1.2896 -1.6459
 3163SOL    HW220949   2.762   1.871   3.176 -0.1868 -0.8706  0.3384
 3164SOL     OW20950   1.746   1.068   3.389  0.2918 -0.1732  0.0791
 3164SOL    HW120951   1.766   0.992   3.443  2.3543  1.1563  1.1846
 3164SOL    HW220952   1.825   1.083   3.337 -0.0413  0.4166 -0.2534
 3165SOL     OW20953   2.896   3.788  13.730  0.7116 -0.1103 -0.0245
 3165SOL    HW120954   2.807   3.765  13.704  0.2027  0.0930  1.5375
 3165SOL    HW220955   2.940   3.704  13.716 -1.6768 -0.9166 -2.7527
 3166SOL     OW20956   4.382   3.384   9.040  0.4052 -0.7016 -0.3431
 3166SOL    HW120957   4.364   3.416   9.128 -0.9102  0.6384 -1.0835
 3166SOL    HW220958   4.408   3.293   9.053  0.8144 -0.2431  1.9503
 3167SOL     OW20959   0.869   3.324   2.373 -0.2774 -0.5541 -0.6126
 3167SOL    HW120960   0.805   3.254   2.372 -0.0243 -0.7812 -1.0172
 3167SOL    HW220961   0.911   3.321   2.459 -0.6186 -2.3872 -0.5246
 3168SOL     OW20962   3.988   4.284   5.415  0.0657  0.2312 -0.3217
 3168SOL    HW120963   4.066   4.332   5.388  0.0346  0.5622  0.1648
 3168SOL    HW220964   3.979   4.318   5.504 -0.3117 -0.4324 -0.1020
 3169SOL     OW20965   0.235   1.687   8.443 -0.2542 -0.0150 -0.0689
 3169SOL    HW120966   0.301   1.634   8.398  0.0327  0.5465 -0.3236
 3169SOL    HW220967   0.231   1.640   8.526  0.1260  1.2672  0.6779
 3170SOL     OW20968   1.022   2.831   0.703 -0.0650  0.4981 -0.5515
 3170SOL    HW120969   1.007   2.847   0.609 -1.9434  1.1111 -0.1456
 3170SOL    HW220970   1.118   2.833   0.706 -0.0271  0.1492 -1.3673
 3171SOL     OW20971   1.827   1.123   1.022  0.2344 -0.6608  0.2023
 3171SOL    HW120972   1.747   1.101   0.976  0.7450  1.8111 -1.8675
 3171SOL    HW220973   1.799   1.168   1.101 -3.3458  0.3950 -1.6939
 3172SOL     OW20974   3.509   2.137   0.463  0.3286  0.4176  0.1403
 3172SOL    HW120975   3.574   2.094   0.518 -1.9393 -3.8022 -0.5213
 3172SOL    HW220976   3.550   2.118   0.379  1.3065  0.7500  0.5382
 3173SOL     OW20977   1.807   0.056   3.480  0.4119  0.2325 -0.7300
 3173SOL    HW120978   1.816   4.685   3.465 -0.0760  0.0267  0.2681
 3173SOL    HW220979   1.746   0.043   3.553  1.7907 -0.7547  0.2321
 3174SOL     OW20980   0.362   3.259   5.935 -0.6657  0.1768 -0.7475
 3174SOL    HW120981   0.267   3.269   5.934 -0.4652  2.0065 -1.6268
 3174SOL    HW220982   0.368   3.174   5.979  2.6166  0.9804  0.3506
 3175SOL     OW20983   1.939   3.901   4.637  0.0295  0.5347 -0.5064
 3175SOL    HW120984   1.866   3.955   4.668  1.5643  1.1572  2.0475
 3175SOL    HW220985   1.908   3.903   4.546  1.3905  3.0283 -0.9146
 3176SOL     OW20986   1.651   3.393  12.720  0.5609  0.5228  0.1944
 3176SOL    HW120987   1.685   3.305  12.703 -0.1494  0.2693  0.0739
 3176SOL    HW220988   1.719   3.414  12.784  0.5569  0.1692  0.3100
 3177SOL     OW20989   2.631   0.434   3.065  0.3131  0.3204 -0.5857
 3177SOL    HW120990   2.582   0.354   3.044  0.9793 -0.2454  0.0364
 3177SOL    HW220991   2.721   0.404   3.075  0.3689  1.1450  1.3015
 3178SOL     OW20992   3.347   1.368   5.046  0.1879  0.0397 -0.5749
 3178SOL    HW120993   3.440   1.358   5.062  0.1618 -1.7711 -1.5698
 3178SOL    HW220994   3.339   1.316   4.966  0.4996 -2.3717  0.9845
 3179SOL     OW20995   0.137   2.570   0.347 -0.3644  0.0844 -0.2267
 3179SOL    HW120996   0.224   2.532   0.358  0.1986  1.4671  0.2398
 3179SOL    HW220997   0.082   2.503   0.387  4.0201 -3.6010 -0.4380
 3180SOL     OW20998   0.893   4.411   8.160 -0.1259  0.1593 -0.8364
 3180SOL    HW120999   0.966   4.379   8.107 -0.5288  0.2816 -1.4622
 3180SOL    HW221000   0.888   4.506   8.148  0.8286  0.4455  0.9717
 3181SOL     OW21001   2.610   3.622  14.635 -0.0832 -0.4601  0.3584
 3181SOL    HW121002   2.559   3.549  14.670 -1.1339  0.0829 -0.0625
 3181SOL    HW221003   2.540   3.685  14.646  2.1193  1.6440  2.2789
 3182SOL     OW21004   1.037   1.105   2.412  0.5739 -0.5440  0.1210
 3182SOL    HW121005   1.009   1.050   2.339  0.9875  0.7499 -1.0234
 3182SOL    HW221006   1.078   1.176   2.363  0.5013 -0.4401  0.2119
 3183SOL     OW21007   0.594   0.582   1.663  0.1175 -0.5320 -0.2141
 3183SOL    HW121008   0.682   0.552   1.685  0.1838  0.2135  0.5526
 3183SOL    HW221009   0.538   0.523   1.714 -0.4550 -0.8572 -1.2110
 3184SOL     OW21010   3.612   2.363   2.782 -0.5035  0.5149 -0.1698
 3184SOL    HW121011   3.595   2.297   2.849 -1.1744 -0.6704 -1.4957
 3184SOL    HW221012   3.665   2.425   2.832 -0.7885  1.0070 -0.4694
 3185SOL     OW21013   0.978   0.245   2.274  0.0292 -0.3932  0.4943
 3185SOL    HW121014   0.906   0.254   2.337 -1.2147 -1.7218 -0.7281
 3185SOL    HW221015   1.001   0.338   2.266 -1.3034 -0.2621 -1.7366
 3186SOL     OW21016   0.592   0.761   1.031  0.6470 -0.2524 -0.3307
 3186SOL    HW121017   0.640   0.844   1.026 -0.1485  0.2663  0.8350
 3186SOL    HW221018   0.581   0.743   0.937  0.3860  0.2955 -0.4032
 3187SOL     OW21019   2.606   0.192  10.878  0.1374 -0.1762 -0.1025
 3187SOL    HW121020   2.644   0.127  10.819 -0.5369  1.8889 -2.7748
 3187SOL    HW221021   2.569   0.247  10.810 -0.9001  0.6900  1.1623
 3188SOL     OW21022   3.839   1.362   4.926  0.5499 -0.1577  0.5618
 3188SOL    HW121023   3.807   1.358   4.835 -1.2625  0.6056  1.1676
 3188SOL    HW221024   3.931   1.384   4.913  0.0104  0.2401 -2.6331
 3189SOL     OW21025   3.028   0.321  12.111  0.1161  0.3279  0.2442
 3189SOL    HW121026   2.942   0.280  12.099  0.8124 -0.8160 -0.8067
 3189SOL    HW221027   3.001   0.380  12.181 -1.7772 -0.0026 -0.2067
 3190SOL     OW21028   2.772   0.111   3.926 -0.8193 -0.0494  0.4605
 3190SOL    HW121029   2.688   0.120   3.882 -1.4804  1.8322  2.1218
 3190SOL    HW221030   2.792   0.023   3.895 -0.2163 -0.4361  1.9046
 3191SOL     OW21031   4.258   3.376   9.299 -0.5280 -0.4710  0.1249
 3191SOL    HW121032   4.287   3.339   9.383  1.3234 -1.4572 -0.9340
 3191SOL    HW221033   4.275   3.469   9.314 -0.3370  0.2783 -4.7256
 3192SOL     OW21034   1.651   1.768  15.070  0.1083  0.8371 -0.5125
 3192SOL    HW121035   1.606   1.808  15.145  0.2495  1.9592 -1.0153
 3192SOL    HW221036   1.745   1.779  15.082  0.2017 -0.3678 -0.1677
 3193SOL     OW21037   2.237   1.542   2.870 -0.1762 -0.5044 -0.3977
 3193SOL    HW121038   2.310   1.522   2.812  1.4352 -0.0479  1.4685
 3193SOL    HW221039   2.247   1.470   2.933  3.5202 -0.7539 -1.2607
 3194SOL     OW21040   3.828   0.432  17.525 -0.4017  0.5435  0.0598
 3194SOL    HW121041   3.829   0.401  17.616 -1.5385 -0.9259 -0.4101
 3194SOL    HW221042   3.896   0.386  17.477  0.3093 -0.2987  1.8542
 3195SOL     OW21043   0.726   0.929   0.127  0.0259  0.3445  0.2412
 3195SOL    HW121044   0.653   0.985   0.154  0.4276  1.5951 -1.1979
 3195SOL    HW221045   0.746   0.905   0.217  1.4462  0.2704 -0.0930
 3196SOL     OW21046   4.422   3.527   1.958  0.0058  0.3181 -0.4797
 3196SOL    HW121047   4.399   3.471   1.884  1.3999  0.2678 -0.8712
 3196SOL    HW221048   4.423   3.611   1.910 -0.3346 -0.4300 -1.8000
 3197SOL     OW21049   1.832   4.171   4.906  0.3222  0.2296  0.4311
 3197SOL    HW121050   1.806   4.258   4.876 -2.5216 -0.3654  1.2114
 3197SOL    HW221051   1.799   4.124   4.830 -0.3709 -0.9562  1.4807
 3198SOL     OW21052   4.453   4.628   9.686 -0.2709 -0.0119  0.1485
 3198SOL    HW121053   4.504   4.604   9.763 -0.1987  2.4620  0.8626
 3198SOL    HW221054   4.433   4.718   9.711  1.8631  0.6370 -0.4666
 3199SOL     OW21055   1.329   3.476   3.768  0.5811  0.0291  0.6856
 3199SOL    HW121056   1.238   3.476   3.799  0.4904  0.8075  0.4329
 3199SOL    HW221057   1.351   3.388   3.798 -0.1778 -0.0099  1.1452
 3200SOL     OW21058   1.193   0.256  14.814  0.6094  0.4033 -0.0182
 3200SOL    HW121059   1.140   0.327  14.850 -1.0799 -0.0660 -1.6009
 3200SOL    HW221060   1.278   0.266  14.857  1.3481  0.1620 -1.4037
 3201SOL     OW21061   3.189   3.319  13.818  0.3647  0.0313 -0.0436
 3201SOL    HW121062   3.247   3.393  13.800 -0.4960  1.3458  2.4411
 3201SOL    HW221063   3.235   3.300  13.900  1.8061 -4.1101 -1.8352
 3202SOL     OW21064   2.286   1.340   4.267 -0.0346  0.1138  0.1431
 3202SOL    HW121065   2.313   1.415   4.213 -2.3815  2.5695  2.3526
 3202SOL    HW221066   2.223   1.300   4.207 -1.2345  0.8074  0.9290
 3203SOL     OW21067   1.039   1.988   2.300 -1.0722 -0.5734 -0.4920
 3203SOL    HW121068   1.069   1.898   2.284  1.2258  0.6649 -3.2306
 3203SOL    HW221069   1.118   2.039   2.278  0.7184 -2.8016  0.7291
 3204SOL     OW21070   4.610   3.290   4.892 -0.0741  0.0516  0.2874
 3204SOL    HW121071   4.595   3.327   4.979 -0.1043  0.5515  0.0678
 3204SOL    HW221072   4.677   3.221   4.900 -0.4439 -0.3946 -0.5433
 3205SOL     OW21073   1.858   3.569   4.487 -0.3904 -0.4426  0.5828
 3205SOL    HW121074   1.784   3.556   4.546 -0.7270  0.1191  0.2928
 3205SOL    HW221075   1.923   3.603   4.549 -0.8785 -1.1030  1.4605
 3206SOL     OW21076   1.446   4.704   9.447 -0.4131  1.1754 -0.2404
 3206SOL    HW121077   1.440   0.004   9.540  0.6115  3.5823 -0.7613
 3206SOL    HW221078   1.469   0.063   9.402 -0.3387  0.5673 -1.2980
 3207SOL     OW21079   0.863   3.116   4.591  0.4164  0.5447  0.4266
 3207SOL    HW121080   0.770   3.097   4.610  0.2740 -0.1686 -0.9799
 3207SOL    HW221081   0.887   3.029   4.559 -0.7179  0.2758  0.2973
 3208SOL     OW21082   4.608   3.792   8.928 -0.2030 -0.3789  0.1453
 3208SOL    HW121083   4.548   3.807   8.855 -1.7079 -1.1391  1.2342
 3208SOL    HW221084   4.544   3.759   8.991  0.2191 -0.0313  0.7577
 3209SOL     OW21085   1.372   2.647  13.955 -0.5039  0.1467 -0.7581
 3209SOL    HW121086   1.330   2.696  14.025  0.2974 -0.1825 -0.0612
 3209SOL    HW221087   1.465   2.667  13.961 -0.6725  0.7332 -0.2111
 3210SOL     OW21088   1.964   1.746   1.812  0.1010 -0.1432  0.6545
 3210SOL    HW121089   1.925   1.668   1.852 -0.4031  0.2195  0.8664
 3210SOL    HW221090   1.900   1.816   1.823  1.6164  1.1420  1.1815
 3211SOL     OW21091   2.886   4.689   5.813  0.2850 -0.5222 -0.6878
 3211SOL    HW121092   2.980   4.681   5.796  0.4541  1.7682 -0.9156
 3211SOL    HW221093   2.868   4.620   5.877 -0.1614  0.7553  0.5788
 3212SOL     OW21094   2.344   2.522   7.787  0.4535  0.1024 -0.5439
 3212SOL    HW121095   2.326   2.457   7.855 -0.8153  1.2587  0.2090
 3212SOL    HW221096   2.306   2.482   7.709 -2.2703  1.9404 -0.1219
 3213SOL     OW21097   0.124   1.296  16.351 -0.3908  0.2045 -0.5290
 3213SOL    HW121098   0.081   1.350  16.418 -1.8357  1.0068 -2.0868
 3213SOL    HW221099   0.199   1.259  16.397 -1.2250 -0.7285  0.0645
 3214SOL     OW21100   3.031   2.750   7.695  0.3994  0.3202 -0.1706
 3214SOL    HW121101   3.078   2.679   7.651  1.4315  1.1059 -0.3435
 3214SOL    HW221102   3.102   2.814   7.699  1.2567 -0.6197 -0.3064
 3215SOL     OW21103   2.333   0.752  10.726  0.6283  0.2974 -0.7152
 3215SOL    HW121104   2.299   0.783  10.642 -0.4637  2.4238  0.5280
 3215SOL    HW221105   2.261   0.779  10.783 -0.1646 -1.2309 -1.0027
 3216SOL     OW21106   0.562   0.395   0.679  0.1180 -0.1794 -0.2386
 3216SOL    HW121107   0.505   0.354   0.744 -0.2339  1.8992  0.7917
 3216SOL    HW221108   0.632   0.331   0.666  0.2616 -0.0816  0.0444
 3217SOL     OW21109   3.080   1.417   5.391  0.0627  0.0491  0.1290
 3217SOL    HW121110   3.147   1.370   5.440 -2.2712 -2.4759  0.8842
 3217SOL    HW221111   3.006   1.396   5.448 -0.8403  1.8701 -0.3745
 3218SOL     OW21112   4.601   4.194  12.632  0.4431  0.4325 -0.1760
 3218SOL    HW121113   4.669   4.159  12.575  0.2501 -1.1429  0.5444
 3218SOL    HW221114   4.540   4.223  12.565 -1.7833  1.4498  2.2740
 3219SOL     OW21115   2.702   0.211   6.183  0.6087 -0.5209 -0.0925
 3219SOL    HW121116   2.760   0.284   6.202  0.7279 -0.2212 -1.6218
 3219SOL    HW221117   2.774   0.147   6.186  0.2564 -0.8997  0.3674
 3220SOL     OW21118   2.379   3.854  13.333 -0.0541 -0.3385  0.3469
 3220SOL    HW121119   2.288   3.859  13.303 -0.5292 -1.4960  1.6255
 3220SOL    HW221120   2.424   3.856  13.248  1.2866  1.5964  1.1084
 3221SOL     OW21121   0.898   0.985   5.487 -0.4273  0.3666  0.4588
 3221SOL    HW121122   0.881   0.896   5.456 -3.0682 -0.0741  3.1842
 3221SOL    HW221123   0.971   1.015   5.433  0.2349 -2.7217 -0.3609
 3222SOL     OW21124   2.327   0.711   7.764 -0.3411 -0.3611 -0.0506
 3222SOL    HW121125   2.319   0.790   7.817 -2.4354  0.3242 -1.3794
 3222SOL    HW221126   2.284   0.645   7.818 -3.7537  1.8516 -0.0388
 3223SOL     OW21127   2.776   2.346   4.356 -0.6220  0.4183 -0.2090
 3223SOL    HW121128   2.700   2.298   4.389 -0.0060 -0.1265  0.4087
 3223SOL    HW221129   2.807   2.290   4.286 -1.4391  0.5375 -0.6616
 3224SOL     OW21130   0.305   0.889  15.382  0.3588 -0.1316  0.2987
 3224SOL    HW121131   0.378   0.880  15.444  1.5484  0.5415 -1.0130
 3224SOL    HW221132   0.319   0.800  15.350  1.4971  0.4508 -0.8318
 3225SOL     OW21133   3.930   2.766   8.832 -0.3118  0.3171  0.5112
 3225SOL    HW121134   3.848   2.746   8.877 -0.0040 -1.8017  0.1590
 3225SOL    HW221135   3.987   2.776   8.908  1.8959 -1.0267 -0.9634
 3226SOL     OW21136   0.541   3.330   5.651 -0.4775  0.0655  0.0746
 3226SOL    HW121137   0.525   3.314   5.744  2.3525  1.3285  0.8068
 3226SOL    HW221138   0.489   3.410   5.645 -0.2718  0.3875  2.6448
 3227SOL     OW21139   4.417   1.222   4.807  0.1590  0.0034 -0.1555
 3227SOL    HW121140   4.502   1.197   4.770 -0.0201 -0.8347 -0.0160
 3227SOL    HW221141   4.406   1.155   4.875 -0.3773 -0.3264 -0.5609
 3228SOL     OW21142   1.316   2.446   2.272  0.0106 -0.3981 -0.4041
 3228SOL    HW121143   1.394   2.446   2.327  1.2880 -0.4963 -2.2030
 3228SOL    HW221144   1.274   2.527   2.298  0.2350 -1.2101  2.4843
 3229SOL     OW21145   1.818   3.786  13.946 -0.0337 -0.4216  0.9000
 3229SOL    HW121146   1.903   3.774  13.988  0.2532 -2.2573 -0.1912
 3229SOL    HW221147   1.842   3.797  13.854 -2.8107 -0.3774  0.1829
 3230SOL     OW21148   0.743   4.475   1.533 -0.2801 -0.1479 -0.3999
 3230SOL    HW121149   0.746   4.541   1.463 -3.1089 -0.9528 -1.2871
 3230SOL    HW221150   0.724   4.391   1.491  1.4226 -0.7854  0.1111
 3231SOL     OW21151   3.387   2.318   8.176 -0.6736  0.0513  0.1700
 3231SOL    HW121152   3.406   2.247   8.115 -0.6589 -0.6124  0.9616
 3231SOL    HW221153   3.472   2.355   8.201 -0.9223  0.5833  0.2502
 3232SOL     OW21154   4.045   0.060   1.048 -0.4956  0.3107 -0.1341
 3232SOL    HW121155   3.964   0.043   1.097 -0.1572 -0.7560  0.0572
 3232SOL    HW221156   4.008   0.127   0.991 -1.6936 -0.4196 -0.2017
 3233SOL     OW21157   3.358   1.082  17.678 -0.0855 -0.1297  0.0662
 3233SOL    HW121158   3.366   1.173   0.015  1.9739 -0.0877 -0.5945
 3233SOL    HW221159   3.329   1.090  17.587  0.0889  0.0006  0.0197
 3234SOL     OW21160   0.156   0.801   0.049 -0.6739  0.1376  0.0398
 3234SOL    HW121161   0.077   0.799  17.688  0.0072 -0.4063 -0.9490
 3234SOL    HW221162   0.138   0.872   0.109 -2.4344  0.5385 -0.9488
 3235SOL     OW21163   1.729   4.313   7.825 -0.1988 -0.1351  0.0700
 3235SOL    HW121164   1.671   4.360   7.885  0.4157  0.6157  0.0773
 3235SOL    HW221165   1.736   4.367   7.746 -0.1666 -0.3831 -0.0962
 3236SOL     OW21166   2.846   0.808   9.507 -0.5256  0.0431  0.4194
 3236SOL    HW121167   2.833   0.804   9.412  1.4107  1.2933  0.0984
 3236SOL    HW221168   2.928   0.759   9.514  0.7886  2.0729 -0.5815
 3237SOL     OW21169   3.326   2.504  16.911 -0.4545  0.6862  0.3257
 3237SOL    HW121170   3.356   2.581  16.959  0.5875  0.2254  0.4320
 3237SOL    HW221171   3.414   2.474  16.887 -1.0243 -0.5659 -0.2156
 3238SOL     OW21172   3.239   0.372   9.998 -0.3165  0.5754  0.2638
 3238SOL    HW121173   3.325   0.415  10.007 -0.3498  1.0652 -1.7872
 3238SOL    HW221174   3.261   0.283  10.025 -1.9919  0.8662  2.5386
 3239SOL     OW21175   0.650   2.480   0.439  0.6256  0.1055  0.0981
 3239SOL    HW121176   0.698   2.408   0.398 -0.8263 -0.2434 -0.9787
 3239SOL    HW221177   0.727   2.531   0.467  0.3290  0.3546  0.4609
 3240SOL     OW21178   1.548   4.196  12.410  0.2617  0.0177 -0.1527
 3240SOL    HW121179   1.601   4.117  12.396  2.6884  1.4552  1.0624
 3240SOL    HW221180   1.611   4.263  12.437 -0.1730  0.8851 -1.2624
 3241SOL     OW21181   0.729   2.320  13.347  0.1575  0.4920 -0.5859
 3241SOL    HW121182   0.819   2.299  13.322  0.8898 -0.5879  2.8314
 3241SOL    HW221183   0.735   2.409  13.312 -0.4630  0.7894  0.0576
 3242SOL     OW21184   4.548   4.606  17.436 -0.1285 -0.3335  0.1631
 3242SOL    HW121185   4.581   4.578  17.521  0.7416  0.5668  0.1248
 3242SOL    HW221186   4.607   4.676  17.408 -1.9484  1.2456  0.2663
 3243SOL     OW21187   4.419   4.179   7.453  0.2278  0.1128 -0.6632
 3243SOL    HW121188   4.429   4.105   7.394 -0.2709  0.2697 -0.9482
 3243SOL    HW221189   4.382   4.142   7.533  0.0480  2.6570  0.4525
 3244SOL     OW21190   1.549   0.964   2.405  0.1006  0.8581  0.1107
 3244SOL    HW121191   1.590   0.928   2.327 -0.6093 -1.0338  0.5955
 3244SOL    HW221192   1.456   0.951   2.386  0.3523  0.0747 -0.5832
 3245SOL     OW21193   1.405   4.084   0.103 -0.1548  0.1469  0.4388
 3245SOL    HW121194   1.332   4.068   0.163 -0.7324 -1.3286 -0.6783
 3245SOL    HW221195   1.409   3.996   0.066 -2.9420 -1.1325  3.1430
 3246SOL     OW21196   0.407   3.684   0.943  0.1780  0.3226  0.0643
 3246SOL    HW121197   0.343   3.746   0.977 -2.5042 -1.3808 -1.8628
 3246SOL    HW221198   0.447   3.655   1.025 -0.1155 -0.9038 -0.2252
 3247SOL     OW21199   4.015   1.653   5.146 -0.2113 -0.3280  0.2892
 3247SOL    HW121200   3.942   1.621   5.199 -0.8035 -1.2569 -1.0811
 3247SOL    HW221201   4.059   1.712   5.207 -2.0418  1.5119 -0.1468
 3248SOL     OW21202   3.221   4.645   4.260  0.4506 -0.6825 -0.1310
 3248SOL    HW121203   3.221   4.641   4.164  3.2852  0.4610 -0.1866
 3248SOL    HW221204   3.192   0.012   4.281  0.5654 -0.7331  0.2515
 3249SOL     OW21205   2.555   2.899  13.035 -0.4439  0.3434 -0.0312
 3249SOL    HW121206   2.540   2.835  13.105  0.3873 -1.3999 -1.4271
 3249SOL    HW221207   2.622   2.860  12.979 -3.1570 -2.5692 -1.2726
 3250SOL     OW21208   1.212   1.655   1.259 -0.6932  0.2365  0.0024
 3250SOL    HW121209   1.287   1.598   1.276 -0.6675  1.3562  3.5647
 3250SOL    HW221210   1.228   1.680   1.168 -0.5194  0.6732  0.1523
 3251SOL     OW21211   0.761   3.642   2.628  0.4598  0.1937 -0.0433
 3251SOL    HW121212   0.821   3.577   2.663 -0.9261 -0.5046  1.0416
 3251SOL    HW221213   0.704   3.583   2.578 -0.1994  1.2896 -0.5883
 3252SOL     OW21214   1.045   0.602   6.769 -0.1445  0.3144  0.3246
 3252SOL    HW121215   1.018   0.558   6.849 -4.4208  0.1017 -1.2084
 3252SOL    HW221216   1.052   0.688   6.809  0.0336  0.4538 -0.0031
 3253SOL     OW21217   1.046   0.191   3.629  0.1573  0.0260  0.1234
 3253SOL    HW121218   0.993   0.114   3.646 -1.9196  1.2609 -0.8158
 3253SOL    HW221219   0.991   0.241   3.569 -1.5208 -0.7718  0.9962
 3254SOL     OW21220   2.410   0.439  12.819  0.4851 -0.2486  0.0820
 3254SOL    HW121221   2.361   0.357  12.828  0.7532 -0.4896 -0.6186
 3254SOL    HW221222   2.504   0.423  12.831  0.3922 -1.5290 -0.9170
 3255SOL     OW21223   4.635   1.409   7.277  0.2198  0.8360  0.5553
 3255SOL    HW121224   4.701   1.343   7.299  0.8945  1.1427 -0.5122
 3255SOL    HW221225   4.653   1.478   7.341  0.7911  1.1882  0.0201
 3256SOL     OW21226   2.670   4.261  13.056  0.1873 -0.2456  0.3589
 3256SOL    HW121227   2.592   4.259  13.000  0.3022  0.6664  0.1734
 3256SOL    HW221228   2.655   4.331  13.119  3.2864  3.6237 -3.2938
 3257SOL     OW21229   4.108   2.423   7.650  0.1881 -0.4062  0.4815
 3257SOL    HW121230   4.140   2.442   7.562  0.5024  0.2403  0.7337
 3257SOL    HW221231   4.186   2.460   7.692  1.0735 -1.4675 -0.2607
 3258SOL     OW21232   0.187   1.735  16.162  0.1127 -0.1292 -0.1787
 3258SOL    HW121233   0.198   1.640  16.165  0.5599 -0.1049 -0.8722
 3258SOL    HW221234   0.263   1.761  16.215 -0.2240  2.4438 -0.9726
 3259SOL     OW21235   4.156   3.523  13.027 -0.2115  0.4798  0.3366
 3259SOL    HW121236   4.070   3.480  13.024 -0.5942  1.3720 -1.6478
 3259SOL    HW221237   4.207   3.443  13.041 -0.2143  0.2885 -0.7888
 3260SOL     OW21238   4.212   0.619  15.251 -0.2658 -0.2001  0.2706
 3260SOL    HW121239   4.294   0.572  15.264 -0.0039 -0.1347 -1.1584
 3260SOL    HW221240   4.257   0.701  15.269 -1.2986  0.3958  0.1240
 3261SOL     OW21241   4.421   2.475   8.861  0.3970  0.5703 -0.1388
 3261SOL    HW121242   4.426   2.482   8.956  1.6831  0.0189 -0.1645
 3261SOL    HW221243   4.512   2.490   8.835  1.0755 -0.3096  1.7703
 3262SOL     OW21244   1.902   3.824   2.627  0.7237  0.4979 -0.3514
 3262SOL    HW121245   1.970   3.854   2.688  0.3463  0.9883 -0.1734
 3262SOL    HW221246   1.959   3.828   2.550  1.8404  1.9343  0.5513
 3263SOL     OW21247   0.279   1.370   0.151 -0.2711 -0.3406  0.2710
 3263SOL    HW121248   0.361   1.358   0.103  0.7694  0.6277  1.8399
 3263SOL    HW221249   0.290   1.307   0.223 -2.0600  0.4448  1.2318
 3264SOL     OW21250   1.350   2.411   6.690 -0.1688  0.2068  0.5686
 3264SOL    HW121251   1.315   2.499   6.705 -1.1239 -0.2215  0.7774
 3264SOL    HW221252   1.282   2.354   6.723  1.0803 -0.7329  1.5290
 3265SOL     OW21253   2.389   4.131   1.518 -0.5592 -0.2187  0.1615
 3265SOL    HW121254   2.355   4.070   1.583  2.1524 -1.9046 -0.0136
 3265SOL    HW221255   2.481   4.141   1.546 -0.2968 -1.5299 -0.2666
 3266SOL     OW21256   3.285   1.867   6.057  0.2041 -0.1567 -0.1025
 3266SOL    HW121257   3.317   1.777   6.070  0.2930 -0.2256 -0.8060
 3266SOL    HW221258   3.284   1.894   6.148 -0.6053  2.7697 -0.9877
 3267SOL     OW21259   1.659   3.507   4.694 -0.1277  0.0884  0.3909
 3267SOL    HW121260   1.666   3.578   4.758  2.0706 -1.7912  2.2481
 3267SOL    HW221261   1.650   3.430   4.750  1.3393 -0.6317 -0.3720
 3268SOL     OW21262   0.696   0.840   8.986 -0.3211  0.3984  0.5284
 3268SOL    HW121263   0.636   0.914   8.974 -0.6003  0.3996  1.9841
 3268SOL    HW221264   0.731   0.865   9.071  1.1627  0.5280 -0.1088
 3269SOL     OW21265   2.723   0.808   0.020 -0.0059 -0.2386  0.6084
 3269SOL    HW121266   2.734   0.726   0.068  1.2878  0.0377  0.7706
 3269SOL    HW221267   2.629   0.828   0.018 -0.3714 -1.9846  0.2266
 3270SOL     OW21268   2.553   2.307   8.172  0.1521 -0.4570  0.3000
 3270SOL    HW121269   2.500   2.292   8.250 -0.1689 -0.7684  0.0247
 3270SOL    HW221270   2.476   2.313   8.115  0.3656 -1.4869 -0.0840
 3271SOL     OW21271   1.601   4.037   8.061  0.0278  0.6617 -0.8221
 3271SOL    HW121272   1.598   3.970   8.129  1.1475 -0.2908 -1.7175
 3271SOL    HW221273   1.601   4.116   8.116  0.1227  0.7022 -0.8809
 3272SOL     OW21274   1.656   1.826   2.902 -0.0986  0.3987  0.4283
 3272SOL    HW121275   1.593   1.848   2.971 -0.0942  0.1897  0.4965
 3272SOL    HW221276   1.624   1.884   2.833  0.3520 -0.3511 -0.4017
 3273SOL     OW21277   2.680   0.936   6.836  0.3011  0.1262 -0.3049
 3273SOL    HW121278   2.703   0.987   6.913  0.4691  2.0080 -1.5947
 3273SOL    HW221279   2.765   0.949   6.793  1.4116 -0.9631  1.5647
 3274SOL     OW21280   1.973   2.043   8.254 -0.0077  0.2640 -0.4749
 3274SOL    HW121281   2.058   2.002   8.236  0.3232  0.6088  0.3041
 3274SOL    HW221282   1.918   1.982   8.205 -0.4950 -1.2821  1.9763
 3275SOL     OW21283   3.084   3.787   1.078  0.3777 -0.0362  0.7338
 3275SOL    HW121284   3.059   3.859   1.135  0.5908  0.8147 -0.2502
 3275SOL    HW221285   3.176   3.782   1.104  0.1764 -0.7196  1.3092
 3276SOL     OW21286   0.177   1.995   5.423 -0.3793 -0.4139 -0.4327
 3276SOL    HW121287   0.135   2.038   5.498  0.1415  0.3876 -0.6040
 3276SOL    HW221288   0.119   1.923   5.400  1.6873 -1.5028 -2.2896
 3277SOL     OW21289   2.618   0.778   4.772 -0.0871  0.1084 -0.4896
 3277SOL    HW121290   2.650   0.706   4.717  0.5718 -0.3693  0.4997
 3277SOL    HW221291   2.524   0.762   4.768  0.1469 -1.2550 -0.6748
 3278SOL     OW21292   1.168   3.243   9.274 -0.2865  0.1859  0.1173
 3278SOL    HW121293   1.098   3.250   9.340 -0.3457 -1.6149  0.2549
 3278SOL    HW221294   1.118   3.255   9.193 -0.3004 -0.9892 -0.0446
 3279SOL     OW21295   4.195   2.799  13.991  0.2635  0.4804 -0.3195
 3279SOL    HW121296   4.139   2.784  14.067 -0.9587  2.2377 -0.8652
 3279SOL    HW221297   4.138   2.845  13.930  1.1144 -1.8321 -2.9094
 3280SOL     OW21298   1.109   0.073   6.734  0.4369 -0.3249  0.3462
 3280SOL    HW121299   1.028   0.094   6.687 -0.1430 -2.4043  0.4296
 3280SOL    HW221300   1.171   0.045   6.667  2.2894  0.8461  1.5773
 3281SOL     OW21301   3.333   3.690   4.621 -0.6486 -0.0652  0.0335
 3281SOL    HW121302   3.308   3.782   4.627  0.6748  0.2950 -0.1451
 3281SOL    HW221303   3.284   3.644   4.689  2.2789 -1.5041  1.1809
 3282SOL     OW21304   1.331   2.045   6.117  0.5029 -0.2080  0.3621
 3282SOL    HW121305   1.321   1.951   6.103  1.1353 -0.1016 -0.7875
 3282SOL    HW221306   1.425   2.052   6.100  0.4210  1.3088  0.5367
 3283SOL     OW21307   3.086   2.193   7.262  0.0805  0.5749  0.3369
 3283SOL    HW121308   3.087   2.186   7.357  0.4058  3.0901  0.4989
 3283SOL    HW221309   3.162   2.141   7.234  1.6050  2.5280  0.9000
 3284SOL     OW21310   0.403   0.628   4.917  0.1488  0.2506  0.3023
 3284SOL    HW121311   0.390   0.539   4.949 -0.1679  0.3254  0.3845
 3284SOL    HW221312   0.498   0.620   4.914  0.2389  1.2409  0.4463
 3285SOL     OW21313   4.695   0.066   5.594 -0.0530  0.1832  0.5077
 3285SOL    HW121314   4.618   0.121   5.609 -1.9228 -2.3299  0.1081
 3285SOL    HW221315   4.654   0.018   5.522  0.5329 -1.9676  1.6199
 3286SOL     OW21316   4.074   0.581   2.068  0.4398  0.0418  0.1942
 3286SOL    HW121317   3.996   0.530   2.045  1.1296 -0.9206 -0.0391
 3286SOL    HW221318   4.143   0.526   2.030  0.1302 -0.1809 -0.0481
 3287SOL     OW21319   0.420   0.523  14.356 -0.0110 -0.7084  0.4710
 3287SOL    HW121320   0.409   0.451  14.294 -1.9011 -0.5656  0.6352
 3287SOL    HW221321   0.511   0.551  14.347 -0.1264 -0.7294 -0.8142
 3288SOL     OW21322   2.550   2.356   1.443  0.1385  0.2863 -0.3171
 3288SOL    HW121323   2.558   2.365   1.538  2.0393 -2.5914 -0.2306
 3288SOL    HW221324   2.611   2.284   1.426  0.5311  0.1419  1.6702
 3289SOL     OW21325   0.952   1.723   9.064 -0.4405  0.1464 -0.1228
 3289SOL    HW121326   0.960   1.630   9.040  0.1106  0.0315  0.5129
 3289SOL    HW221327   0.995   1.719   9.149  0.6873  0.9430 -0.6516
 3290SOL     OW21328   2.505   1.538   5.581 -0.1008 -0.0416 -0.2313
 3290SOL    HW121329   2.422   1.580   5.603  0.6368  1.8159 -0.9916
 3290SOL    HW221330   2.550   1.617   5.552  2.5260 -0.9656  1.3296
 3291SOL     OW21331   4.630   2.614  15.438  0.5289  0.0034 -0.4724
 3291SOL    HW121332   4.662   2.648  15.354  2.5495  0.5153  0.5129
 3291SOL    HW221333   4.699   2.562  15.477 -0.8844  0.2276  2.2964
 3292SOL     OW21334   4.197   3.169   7.172 -0.5319 -0.1888 -1.6377
 3292SOL    HW121335   4.239   3.164   7.258  0.3363 -2.9241 -2.2445
 3292SOL    HW221336   4.108   3.150   7.202  0.0389  0.6450  0.5663
 3293SOL     OW21337   0.601   1.378   7.738  0.1197 -1.0165 -0.0719
 3293SOL    HW121338   0.596   1.283   7.730 -0.5341 -1.0638  0.8075
 3293SOL    HW221339   0.581   1.415   7.652  1.4923  0.5307  0.2569
 3294SOL     OW21340   1.009   3.399   8.900 -0.5668 -0.1740 -0.2097
 3294SOL    HW121341   0.975   3.485   8.874  2.9348  1.4073  0.4694
 3294SOL    HW221342   1.097   3.424   8.930 -0.3493 -0.4924 -0.5834
 3295SOL     OW21343   4.705   4.663   3.319  0.4172  0.0907  0.3371
 3295SOL    HW121344   4.620   4.640   3.281  1.2793 -0.8566 -1.0297
 3295SOL    HW221345   4.685   0.030   3.345 -1.6526 -0.4587  0.6911
 3296SOL     OW21346   2.667   3.370   5.562  0.8328  0.2768 -0.1676
 3296SOL    HW121347   2.695   3.461   5.558  1.8269  0.0548  2.1889
 3296SOL    HW221348   2.696   3.339   5.476 -0.8133  1.3440 -1.1081
 3297SOL     OW21349   2.650   3.097   5.740  0.1821  0.3185  0.5165
 3297SOL    HW121350   2.731   3.128   5.699  0.0987  0.7046  0.6460
 3297SOL    HW221351   2.685   3.010   5.763  2.2778  1.0142 -0.0787
 3298SOL     OW21352   4.101   2.638   6.505  0.3041  0.2202  0.1017
 3298SOL    HW121353   4.072   2.552   6.474 -1.7032  0.6297  0.8440
 3298SOL    HW221354   4.028   2.681   6.550  1.6166  1.7204  0.7872
 3299SOL     OW21355   0.096   1.306   7.708  0.1336  0.2481 -0.1232
 3299SOL    HW121356   0.033   1.255   7.759 -0.2219  0.0893 -0.7137
 3299SOL    HW221357   0.053   1.390   7.689 -1.2442 -0.2182  0.9602
 3300SOL     OW21358   3.107   0.753   3.306 -0.1849 -0.3629 -0.3440
 3300SOL    HW121359   3.084   0.667   3.339  1.3742 -0.0832  1.4510
 3300SOL    HW221360   3.066   0.759   3.219 -4.0571  0.2349  1.5377
 3301SOL     OW21361   1.085   4.609   1.296  0.4548  0.7076 -0.2221
 3301SOL    HW121362   1.107   4.537   1.356 -1.6543 -0.2740 -0.6239
 3301SOL    HW221363   1.164   4.639   1.251  0.9456  1.9438  1.4514
 3302SOL     OW21364   3.127   3.435   2.317 -0.0427  0.0344  0.2146
 3302SOL    HW121365   3.108   3.473   2.232  2.2590 -0.0735 -0.3509
 3302SOL    HW221366   3.204   3.383   2.294 -0.4262 -0.3386 -0.2145
 3303SOL     OW21367   4.188   0.540   3.164 -0.1361 -0.2072 -0.2840
 3303SOL    HW121368   4.159   0.477   3.230  1.7344 -2.5747 -1.7277
 3303SOL    HW221369   4.104   0.578   3.138 -0.7553 -1.5233 -0.2086
 3304SOL     OW21370   4.579   4.450   7.183 -0.0233  0.5172 -0.0519
 3304SOL    HW121371   4.577   4.541   7.214 -0.3425  1.7284 -3.6273
 3304SOL    HW221372   4.552   4.456   7.092  0.1059  1.8512 -0.0104
 3305SOL     OW21373   1.301   4.595   7.490 -0.4328  0.3167  0.0390
 3305SOL    HW121374   1.228   4.579   7.430 -0.1528  1.2545 -0.5560
 3305SOL    HW221375   1.281   4.682   7.523 -0.9222  0.2596 -0.1068
 3306SOL     OW21376   3.965   0.790   4.851  0.1134  0.1588 -0.2724
 3306SOL    HW121377   4.032   0.831   4.796 -0.0999  0.7870 -0.0556
 3306SOL    HW221378   3.932   0.876   4.875  1.2863  0.7485 -0.7775
 3307SOL     OW21379   0.519   4.293   4.867  0.2306  0.2777 -0.2504
 3307SOL    HW121380   0.609   4.285   4.898 -0.4129  0.5925  1.7176
 3307SOL    HW221381   0.533   4.256   4.780 -1.0505 -1.6948  0.4000
 3308SOL     OW21382   1.990   1.088   5.529 -0.6077  0.0011 -0.1015
 3308SOL    HW121383   1.915   1.112   5.475  0.3653  1.0272 -1.0105
 3308SOL    HW221384   1.950   1.044   5.604  0.6941  0.7008  1.0013
 3309SOL     OW21385   2.860   1.022   0.142 -0.1951  0.3983 -1.0263
 3309SOL    HW121386   2.844   0.948   0.083  1.2370  0.1231 -1.0753
 3309SOL    HW221387   2.777   1.034   0.187 -0.5029 -2.5890 -0.8205
 3310SOL     OW21388   2.538   2.180   4.368  0.1442  0.5890 -0.2193
 3310SOL    HW121389   2.502   2.268   4.361  1.8683  1.2358 -1.0146
 3310SOL    HW221390   2.576   2.160   4.282  2.1374  0.2944  0.7227
 3311SOL     OW21391   1.063   3.265   2.578  0.2224 -0.2098 -0.5663
 3311SOL    HW121392   1.097   3.177   2.594 -0.3502 -0.6256 -1.6161
 3311SOL    HW221393   1.135   3.314   2.539 -2.1391  1.3796 -2.8779
 3312SOL     OW21394   3.513   3.904   5.852 -0.3805 -0.0736  0.3486
 3312SOL    HW121395   3.527   3.998   5.845  1.0061 -0.3840 -1.0039
 3312SOL    HW221396   3.430   3.905   5.899 -0.4150  2.4965  0.2112
 3313SOL     OW21397   4.589   4.478   6.433 -0.4010  0.2222 -0.0602
 3313SOL    HW121398   4.573   4.385   6.412 -1.8533  0.8524 -1.7705
 3313SOL    HW221399   4.634   4.513   6.356  2.1059 -0.4199  1.1096
 3314SOL     OW21400   1.355   0.280   8.238 -0.0314 -0.6110  0.3401
 3314SOL    HW121401   1.375   0.311   8.326  2.1160 -1.0605  0.0212
 3314SOL    HW221402   1.301   0.202   8.251  0.0330 -0.5183  1.1307
 3315SOL     OW21403   4.037   0.212   4.685 -0.4672  0.3136 -0.4490
 3315SOL    HW121404   4.057   0.122   4.657 -2.8149 -0.3212 -0.0723
 3315SOL    HW221405   4.064   0.260   4.606 -1.7574 -0.8732 -1.6216
 3316SOL     OW21406   4.045   1.041  11.961 -0.4078 -0.0248 -0.6265
 3316SOL    HW121407   3.971   1.098  11.941 -0.3359 -0.1911 -1.3652
 3316SOL    HW221408   4.073   1.081  12.043 -2.3567 -0.5098  0.2830
 3317SOL     OW21409   1.454   1.491  14.649 -0.0126  0.1399 -0.2311
 3317SOL    HW121410   1.411   1.571  14.680  0.5858 -0.4750  2.2002
 3317SOL    HW221411   1.532   1.479  14.703 -1.3214  1.8038  1.9961
 3318SOL     OW21412   3.355   3.421   3.823  0.0121  0.2683  0.2094
 3318SOL    HW121413   3.348   3.427   3.728 -0.6787 -0.1981  0.2380
 3318SOL    HW221414   3.264   3.420   3.852 -0.6478  1.3280 -1.7991
 3319SOL     OW21415   1.160   1.962   3.514 -0.7962 -0.5285  0.7852
 3319SOL    HW121416   1.075   1.950   3.557 -1.3739 -0.8984 -0.4396
 3319SOL    HW221417   1.186   1.870   3.513  2.2839  0.3336  1.3219
 3320SOL     OW21418   3.197   1.165  16.528  0.0891 -0.0073 -0.5788
 3320SOL    HW121419   3.159   1.079  16.547  0.3678 -0.4369 -2.0007
 3320SOL    HW221420   3.291   1.152  16.523  0.1355 -0.1731  0.7233
 3321SOL     OW21421   1.111   4.288   1.867 -0.4752  0.3222 -0.4697
 3321SOL    HW121422   1.119   4.193   1.862 -0.5754  0.2200  1.0314
 3321SOL    HW221423   1.073   4.310   1.783 -1.2489 -0.0556 -0.2243
 3322SOL     OW21424   3.759   1.668   1.047  0.0928  0.6265 -0.2280
 3322SOL    HW121425   3.686   1.669   0.985  1.0156  0.4153 -1.3168
 3322SOL    HW221426   3.817   1.600   1.011 -0.9779  0.2951 -1.3212
 3323SOL     OW21427   2.909   1.846  14.793  0.2083  0.1203  0.0472
 3323SOL    HW121428   2.960   1.771  14.825  0.8106 -0.9419 -3.4185
 3323SOL    HW221429   2.827   1.829  14.839  0.0987 -1.2440 -0.6487
 3324SOL     OW21430   0.348   0.706   1.474  0.1489  0.4318 -0.1863
 3324SOL    HW121431   0.282   0.775   1.477 -0.2028  0.1427 -1.0380
 3324SOL    HW221432   0.418   0.738   1.530  0.1313 -0.3221  0.2623
 3325SOL     OW21433   4.284   0.587   7.636  0.1526  0.4858 -0.2934
 3325SOL    HW121434   4.333   0.518   7.590  1.9727  1.0566  0.7774
 3325SOL    HW221435   4.321   0.667   7.597  0.2906  0.2133 -0.7267
 3326SOL     OW21436   0.692   3.180  10.712  0.1694 -0.5603  0.7296
 3326SOL    HW121437   0.678   3.086  10.698  2.4935 -0.6900 -0.5974
 3326SOL    HW221438   0.605   3.209  10.741  0.9469  1.7654  0.6642
 3327SOL     OW21439   1.878   4.073   8.680  0.3618  0.2561 -0.1774
 3327SOL    HW121440   1.848   4.066   8.771  0.9091 -1.1904 -0.1102
 3327SOL    HW221441   1.971   4.083   8.700  0.5269  1.0058 -1.3110
 3328SOL     OW21442   3.879   3.218   1.820 -0.2923  0.4152 -0.2434
 3328SOL    HW121443   3.848   3.187   1.905 -1.4036  1.3329 -0.3133
 3328SOL    HW221444   3.839   3.154   1.762  2.6357  0.5746 -2.4950
 3329SOL     OW21445   2.165   0.429   3.726 -0.2148 -0.1047  0.5697
 3329SOL    HW121446   2.080   0.467   3.751 -0.4104  1.0250 -1.7752
 3329SOL    HW221447   2.223   0.506   3.724 -0.7864  0.3127 -0.3253
 3330SOL     OW21448   0.150   0.185   0.750  0.5814 -0.5862  0.2398
 3330SOL    HW121449   0.209   0.181   0.675 -2.3407  1.2893 -2.1713
 3330SOL    HW221450   0.070   0.165   0.701 -0.0741 -1.1128  1.5367
 3331SOL     OW21451   3.196   0.055   6.407  0.7280 -0.5225 -0.0035
 3331SOL    HW121452   3.207   0.078   6.315  0.6623  2.1312  0.6342
 3331SOL    HW221453   3.243   4.695   6.415 -1.7564 -1.8857  0.5492
 3332SOL     OW21454   3.897   3.616   8.563 -0.1873  0.4108  0.2227
 3332SOL    HW121455   3.979   3.638   8.519  0.4312 -0.9048  0.7004
 3332SOL    HW221456   3.937   3.575   8.640 -2.9516 -1.4276  0.6958
 3333SOL     OW21457   0.888   2.550   0.569 -0.2474  0.1636 -0.7882
 3333SOL    HW121458   0.904   2.465   0.611  2.7496  0.8819 -0.4524
 3333SOL    HW221459   0.961   2.560   0.507 -0.7797  0.2624 -1.4055
 3334SOL     OW21460   2.826   3.725   9.859  0.2705 -0.2363  0.0001
 3334SOL    HW121461   2.756   3.755   9.918  1.2085 -0.3326  1.1707
 3334SOL    HW221462   2.901   3.774   9.892 -0.4312 -1.1407  3.0127
 3335SOL     OW21463   4.658   4.428   5.982  0.2289  0.1778  0.3430
 3335SOL    HW121464   4.591   4.480   6.026  1.8432  1.3298  1.4335
 3335SOL    HW221465   0.012   4.483   5.997  1.0056 -0.6168 -0.7055
 3336SOL     OW21466   2.696   3.770   3.239  0.1146 -0.6032 -0.0148
 3336SOL    HW121467   2.630   3.824   3.195  1.9022  0.0680 -1.8775
 3336SOL    HW221468   2.708   3.695   3.182  0.4057 -0.6149  0.0634
 3337SOL     OW21469   0.348   1.169  16.450  0.1714  0.3213  0.9619
 3337SOL    HW121470   0.441   1.160  16.471  0.7625  0.2024 -1.7435
 3337SOL    HW221471   0.334   1.080  16.418 -0.4358  0.5847  0.4912
 3338SOL     OW21472   4.064   4.693   7.720 -0.2206  0.1788 -0.2389
 3338SOL    HW121473   4.037   4.638   7.794  1.5590 -1.8406 -1.0798
 3338SOL    HW221474   4.158   4.702   7.739  0.0744 -0.6258 -1.3298
 3339SOL     OW21475   3.704   1.228  11.505  0.4124 -1.1615 -0.2671
 3339SOL    HW121476   3.645   1.252  11.433  0.6394 -1.9260 -0.7128
 3339SOL    HW221477   3.642   1.201  11.573 -0.4343  0.0791 -0.5485
 3340SOL     OW21478   0.360   2.564   9.109  0.3283  0.1998  0.3225
 3340SOL    HW121479   0.418   2.490   9.127  1.7302  1.0559 -0.6309
 3340SOL    HW221480   0.292   2.540   9.172  1.1146  2.2146  1.9411
 3341SOL     OW21481   3.665   2.132   4.154  0.2995  0.1441  0.1063
 3341SOL    HW121482   3.678   2.226   4.145 -2.0819  0.5108  0.4393
 3341SOL    HW221483   3.728   2.098   4.217 -1.6961 -2.4378  0.6782
 3342SOL     OW21484   2.109   2.504   5.445 -0.5275 -0.1547  0.2341
 3342SOL    HW121485   2.053   2.555   5.387 -0.1511 -1.6730 -1.4710
 3342SOL    HW221486   2.156   2.579   5.481  0.0426 -0.7395  0.7111
 3343SOL     OW21487   3.105   0.806   2.995  0.5423 -0.7070 -0.0615
 3343SOL    HW121488   3.052   0.738   3.036  0.4355  0.2165  1.2982
 3343SOL    HW221489   3.042   0.854   2.942  0.8857 -2.4328 -2.0549
 3344SOL     OW21490   0.588   0.989   9.466  0.0134  0.0819 -0.2518
 3344SOL    HW121491   0.558   1.039   9.543 -2.0560 -1.4195 -0.0978
 3344SOL    HW221492   0.511   0.980   9.410  2.2613 -0.4541 -3.2261
 3345SOL     OW21493   4.260   1.571   9.488  0.2580 -0.1049  0.2977
 3345SOL    HW121494   4.194   1.562   9.419  0.1725 -1.1907  0.5182
 3345SOL    HW221495   4.262   1.481   9.521  2.3001  0.0856  0.6901
 3346SOL     OW21496   1.194   0.135  11.802 -0.3445  0.2669  0.1634
 3346SOL    HW121497   1.170   0.164  11.714  1.9026  0.2587 -0.4545
 3346SOL    HW221498   1.109   0.098  11.826 -0.1462 -0.2513  0.0596
 3347SOL     OW21499   4.392   0.838   6.067 -0.0492  0.5476  0.3029
 3347SOL    HW121500   4.483   0.845   6.038 -0.2193  3.8591  0.5116
 3347SOL    HW221501   4.407   0.901   6.138  1.3942  1.4087 -0.7835
 3348SOL     OW21502   0.012   4.101   4.419 -0.0118 -0.0403 -0.0966
 3348SOL    HW121503   0.015   4.048   4.499  1.2709  1.8801  1.1524
 3348SOL    HW221504   4.642   4.123   4.427  0.0635  0.9569 -1.9829
 3349SOL     OW21505   4.224   2.382   4.609 -0.7115 -0.0321 -0.0714
 3349SOL    HW121506   4.274   2.429   4.542  0.9055 -1.6314  0.0127
 3349SOL    HW221507   4.260   2.294   4.609  1.8650  1.0069 -0.7626
 3350SOL     OW21508   0.085   2.375  17.414  0.0315 -0.5310 -0.4679
 3350SOL    HW121509   0.011   2.377  17.352  0.3397  2.2043 -0.7438
 3350SOL    HW221510   0.064   2.429  17.490  2.0508  0.7967 -0.8544
 3351SOL     OW21511   3.623   3.143  11.473 -0.0181  0.4894  0.0979
 3351SOL    HW121512   3.712   3.177  11.466  0.6080 -1.0193  0.7121
 3351SOL    HW221513   3.579   3.217  11.516 -1.1918  0.2035 -0.6142
 3352SOL     OW21514   3.962   2.998   8.691 -0.2904 -0.6035 -0.8943
 3352SOL    HW121515   3.945   2.905   8.707  0.8842 -0.4391  1.1520
 3352SOL    HW221516   4.012   3.025   8.768 -0.6547  0.6580 -1.1009
 3353SOL     OW21517   3.361   4.453   1.558 -0.2204  0.3524  0.6182
 3353SOL    HW121518   3.331   4.388   1.621  2.1422  0.5945  1.9968
 3353SOL    HW221519   3.323   4.536   1.585 -1.1238  1.1514 -3.1796
 3354SOL     OW21520   0.153   4.604   6.016 -0.1766 -0.5389 -0.3142
 3354SOL    HW121521   0.156   4.652   6.099 -1.5672 -1.7441  0.4327
 3354SOL    HW221522   0.126   4.678   5.960 -1.5332 -1.2023 -0.5470
 3355SOL     OW21523   0.524   3.753   8.814 -0.1143 -0.0010 -0.6489
 3355SOL    HW121524   0.470   3.677   8.838  1.0827 -0.8773 -0.7560
 3355SOL    HW221525   0.457   3.796   8.761 -1.3784 -2.1354 -0.8002
 3356SOL     OW21526   1.360   2.884  16.540  0.2692 -0.5318 -0.5802
 3356SOL    HW121527   1.406   2.806  16.570 -1.0300 -1.6843 -1.5541
 3356SOL    HW221528   1.267   2.861  16.547  0.3608 -1.2832 -1.7354
 3357SOL     OW21529   3.164   4.051   6.816 -0.1329 -0.1053 -0.2774
 3357SOL    HW121530   3.094   4.111   6.791  0.4570  0.3937 -0.7743
 3357SOL    HW221531   3.234   4.102   6.774  1.2238 -0.7325  1.2319
 3358SOL     OW21532   1.562   2.636  11.894  0.5442 -0.4828  0.3395
 3358SOL    HW121533   1.553   2.676  11.808  3.9848 -0.6058 -0.0749
 3358SOL    HW221534   1.654   2.645  11.920  1.1423 -0.9078 -1.6554
 3359SOL     OW21535   1.829   0.570  14.228  0.0024 -0.5403 -0.2859
 3359SOL    HW121536   1.914   0.606  14.203 -1.3683  2.7823 -0.2866
 3359SOL    HW221537   1.836   0.559  14.322  0.8437  0.1417 -0.2754
 3360SOL     OW21538   2.107   0.596   0.165  0.9502 -0.6284  0.2950
 3360SOL    HW121539   2.172   0.603   0.096  1.2039 -0.4545  0.5497
 3360SOL    HW221540   2.152   0.635   0.240  1.9793 -1.1155 -0.0769
 3361SOL     OW21541   1.820   2.581  17.307  1.0686  0.6617  0.8185
 3361SOL    HW121542   1.788   2.514  17.366 -1.9377  1.1123 -0.2967
 3361SOL    HW221543   1.868   2.538  17.236  0.6579  0.1816  0.8368
 3362SOL     OW21544   2.248   2.070   0.273  0.2917 -0.1668 -0.2168
 3362SOL    HW121545   2.238   2.054   0.180  1.5641 -2.0546 -0.0245
 3362SOL    HW221546   2.294   2.154   0.264 -0.2788  0.1933  0.1700
 3363SOL     OW21547   1.733   3.844   6.036 -0.6583  0.1055 -0.3339
 3363SOL    HW121548   1.663   3.800   5.989  0.2184 -1.1391 -0.4726
 3363SOL    HW221549   1.733   3.803   6.123 -0.6681 -1.2773 -0.9890
 3364SOL     OW21550   3.701   3.386   2.654 -0.3425  0.5297  0.2086
 3364SOL    HW121551   3.758   3.402   2.579  0.3289  0.7473  0.7659
 3364SOL    HW221552   3.767   3.368   2.721 -0.7426 -2.2235 -0.1748
 3365SOL     OW21553   2.483   3.897   3.475 -0.2956  0.0267  0.0430
 3365SOL    HW121554   2.502   3.854   3.559 -1.8004  0.7822  0.7749
 3365SOL    HW221555   2.392   3.868   3.468 -0.2902 -0.0360  0.2209
 3366SOL     OW21556   4.378   0.460  10.725 -0.7723 -0.7125 -0.2986
 3366SOL    HW121557   4.319   0.420  10.661  0.3801 -3.7371  0.5537
 3366SOL    HW221558   4.344   0.422  10.807  1.9911 -0.1589  1.1054
 3367SOL     OW21559   2.896   0.850   3.613  0.2664 -0.0072 -0.0188
 3367SOL    HW121560   2.866   0.814   3.697 -3.3378  1.1577 -0.7803
 3367SOL    HW221561   2.894   0.943   3.635  0.7406  0.0740 -0.3301
 3368SOL     OW21562   3.616   1.303   3.355  0.4494  0.1963 -0.3193
 3368SOL    HW121563   3.633   1.383   3.305  0.1554  0.9899  0.8376
 3368SOL    HW221564   3.529   1.319   3.391  1.1968  1.6211  0.8795
 3369SOL     OW21565   2.059   1.259   2.963 -0.4716 -0.1780  0.1609
 3369SOL    HW121566   1.976   1.254   2.915  0.7559  0.2000 -2.0268
 3369SOL    HW221567   2.112   1.242   2.885 -0.2211 -0.4460  0.3902
 3370SOL     OW21568   1.984   3.388   3.144 -0.2073  0.3907  0.1507
 3370SOL    HW121569   2.052   3.393   3.211  2.4774 -0.4564 -2.5124
 3370SOL    HW221570   1.987   3.294   3.128 -0.2005  0.4982 -0.4713
 3371SOL     OW21571   2.310   3.282  15.619 -0.1387  0.0812  0.8430
 3371SOL    HW121572   2.245   3.264  15.550  0.4723 -1.2422  0.6167
 3371SOL    HW221573   2.290   3.373  15.644 -0.2087  0.0749  0.8121
 3372SOL     OW21574   2.013   1.988   3.557 -0.4571  0.8367 -0.1280
 3372SOL    HW121575   2.031   1.921   3.491 -0.8828  1.8132 -1.2425
 3372SOL    HW221576   2.066   2.065   3.535  0.1163 -0.1710 -2.2197
 3373SOL     OW21577   2.854   0.216  14.428 -0.2831 -0.2984  0.8375
 3373SOL    HW121578   2.785   0.192  14.490  0.4255 -0.2543  1.6383
 3373SOL    HW221579   2.811   0.298  14.404  0.7558  0.0496  0.1531
 3374SOL     OW21580   4.031   3.897   0.431 -1.0192  0.1387  0.3026
 3374SOL    HW121581   3.999   3.809   0.452 -0.1593 -0.6414 -1.6051
 3374SOL    HW221582   4.091   3.921   0.502  1.6656 -0.2490 -1.8314
 3375SOL     OW21583   1.626   2.841   1.450 -0.1343 -0.3901  0.0727
 3375SOL    HW121584   1.613   2.933   1.428  0.5806 -0.5961 -1.2339
 3375SOL    HW221585   1.716   2.830   1.420 -0.0049  0.3542  0.1904
 3376SOL     OW21586   3.616   4.627   2.161 -0.3589  0.2056  0.0736
 3376SOL    HW121587   3.613   4.535   2.184  1.6004 -0.0207 -0.5741
 3376SOL    HW221588   3.702   4.649   2.195  1.0505 -2.1723 -1.9557
 3377SOL     OW21589   3.207   2.359   0.315  0.1985 -0.1469 -0.2181
 3377SOL    HW121590   3.218   2.265   0.300  0.1499 -0.4777  1.7581
 3377SOL    HW221591   3.280   2.383   0.372 -0.1236 -2.5167  1.2069
 3378SOL     OW21592   0.258   3.344   8.410  0.3125 -0.0259 -0.1509
 3378SOL    HW121593   0.256   3.402   8.487 -0.6782  2.2407 -1.8927
 3378SOL    HW221594   0.308   3.269   8.441  1.6500 -0.5864 -3.7019
 3379SOL     OW21595   0.725   2.761   0.620 -0.0331  0.0003  0.3368
 3379SOL    HW121596   0.793   2.694   0.627 -1.6943 -1.4319  2.5905
 3379SOL    HW221597   0.769   2.819   0.558  1.4525 -1.5373 -0.0658
 3380SOL     OW21598   0.800   1.858   4.742 -0.2942 -0.6544  0.1252
 3380SOL    HW121599   0.710   1.888   4.736  0.3247  1.0016 -0.8343
 3380SOL    HW221600   0.840   1.885   4.660 -1.4851 -1.5656 -0.7375
 3381SOL     OW21601   2.929   3.790   6.807 -0.4755  0.2137  0.0328
 3381SOL    HW121602   2.960   3.703   6.781 -0.0727  0.0020  1.2253
 3381SOL    HW221603   2.917   3.777   6.901 -0.7449 -1.6764 -0.2668
 3382SOL     OW21604   0.697   3.230   4.108  0.2008  0.5341  0.6962
 3382SOL    HW121605   0.639   3.256   4.037 -0.1197 -1.8450  0.1001
 3382SOL    HW221606   0.780   3.246   4.063 -0.5327 -0.2663 -0.9405
 3383SOL     OW21607   4.042   1.934   2.306  0.3802  0.1205 -0.1597
 3383SOL    HW121608   4.002   1.955   2.390 -0.1218  0.2312 -0.4278
 3383SOL    HW221609   4.084   2.018   2.290  1.9579 -1.1726 -2.7940
 3384SOL     OW21610   2.443   2.011   2.339  0.0782 -0.2935  0.1822
 3384SOL    HW121611   2.430   1.922   2.307 -0.8224  0.2250 -0.9012
 3384SOL    HW221612   2.352   2.041   2.334 -0.0968 -0.9713 -0.7626
 3385SOL     OW21613   4.673   2.764  17.589  0.5021 -0.4089  0.0744
 3385SOL    HW121614   4.677   2.859  17.579  0.6702 -0.4690 -0.4380
 3385SOL    HW221615   4.596   2.747  17.535 -0.1962  1.6386  0.4178
 3386SOL     OW21616   4.307   3.493   8.310 -0.1209 -0.1598 -0.8518
 3386SOL    HW121617   4.272   3.563   8.365  1.8132 -1.2684  1.7737
 3386SOL    HW221618   4.321   3.429   8.379  1.0931  0.3735 -0.6031
 3387SOL     OW21619   0.065   1.069   8.813  0.1528 -0.4083 -0.0087
 3387SOL    HW121620   0.054   1.164   8.817 -0.1988 -0.4711  0.5581
 3387SOL    HW221621   4.695   1.043   8.815  0.1659 -0.4525  0.0315
 3388SOL     OW21622   3.365   2.944   5.468 -0.0428 -0.0425 -0.4001
 3388SOL    HW121623   3.288   2.970   5.519  0.8631  2.3749 -0.2558
 3388SOL    HW221624   3.333   2.957   5.379 -1.7144  0.5702  0.2877
 3389SOL     OW21625   0.306   0.346   5.175  0.2544 -0.3156 -0.2940
 3389SOL    HW121626   0.316   0.390   5.259 -0.3401 -0.6973 -0.0217
 3389SOL    HW221627   0.237   0.399   5.135 -1.1447  0.0086  2.5942
 3390SOL     OW21628   2.132   0.740  14.989  0.2941  0.3110  0.8633
 3390SOL    HW121629   2.065   0.677  15.017  0.1309  0.7349  1.4214
 3390SOL    HW221630   2.213   0.695  15.015  0.7602  1.1449  0.8306
 3391SOL     OW21631   0.769   2.290  14.969  0.3850  0.7766 -0.2066
 3391SOL    HW121632   0.681   2.279  15.005  1.3649 -0.3536  1.8279
 3391SOL    HW221633   0.752   2.340  14.889  5.1570  0.6994 -1.2746
 3392SOL     OW21634   4.275   2.679   2.839 -0.2168  0.2706  0.1223
 3392SOL    HW121635   4.200   2.738   2.843 -0.3160  0.1517  0.0008
 3392SOL    HW221636   4.225   2.603   2.811 -0.7472  0.0955  1.5457
 3393SOL     OW21637   2.296   3.440   2.369 -0.0932 -0.2137  0.0916
 3393SOL    HW121638   2.294   3.345   2.380 -1.3743 -0.1187  0.6486
 3393SOL    HW221639   2.224   3.451   2.306 -0.1613  0.2630  0.2547
 3394SOL     OW21640   2.252   4.218  13.854 -0.0757 -0.0122 -0.3340
 3394SOL    HW121641   2.208   4.170  13.923 -1.2721 -1.6062 -2.2265
 3394SOL    HW221642   2.203   4.297  13.829  0.4650  0.2854 -0.4679
 3395SOL     OW21643   1.503   4.493  16.451  0.0227 -0.3318 -0.4386
 3395SOL    HW121644   1.564   4.559  16.416  0.1163 -0.0395  0.2780
 3395SOL    HW221645   1.470   4.459  16.368 -0.4982 -1.3544  0.1917
 3396SOL     OW21646   0.944   2.820   4.581  0.0814  0.0045 -0.9544
 3396SOL    HW121647   0.939   2.849   4.672 -1.5221  0.4418 -1.1697
 3396SOL    HW221648   1.026   2.771   4.581 -0.4974 -0.9282  2.4152
 3397SOL     OW21649   2.513   1.241   8.045 -0.1432 -0.5937  0.3050
 3397SOL    HW121650   2.440   1.302   8.033 -0.3738 -0.8765  0.2572
 3397SOL    HW221651   2.479   1.158   8.079 -1.1606 -0.2384  0.1583
 3398SOL     OW21652   3.255   0.718   9.697  0.1143 -0.3341 -0.2884
 3398SOL    HW121653   3.232   0.684   9.783  2.5131  1.4569  1.0769
 3398SOL    HW221654   3.338   0.681   9.667 -1.0259 -0.4104 -3.3482
 3399SOL     OW21655   0.707   2.102   0.780  0.4791  0.1389 -0.0359
 3399SOL    HW121656   0.629   2.131   0.827  0.3789 -1.2499  0.6324
 3399SOL    HW221657   0.664   2.039   0.722 -2.2853  2.7263 -0.8302
 3400SOL     OW21658   0.519   0.691   4.453  0.2284 -0.6873 -0.4762
 3400SOL    HW121659   0.537   0.759   4.519 -3.1609 -0.1453 -0.1527
 3400SOL    HW221660   0.471   0.625   4.504 -1.9309  0.3847 -1.1343
 3401SOL     OW21661   0.205   2.899   3.647 -0.2942  0.1551 -0.2475
 3401SOL    HW121662   0.145   2.882   3.574  1.3189  1.3326 -1.8291
 3401SOL    HW221663   0.227   2.811   3.677  0.8119  0.9923  1.3223
 3402SOL     OW21664   3.631   4.306   1.678  0.2281  0.1899 -0.3024
 3402SOL    HW121665   3.604   4.370   1.745 -0.4981 -0.8146  0.3599
 3402SOL    HW221666   3.573   4.233   1.697 -0.2878  0.3104 -1.4162
 3403SOL     OW21667   0.999   2.171  10.122  0.5881  0.0471 -0.5523
 3403SOL    HW121668   1.020   2.156  10.030 -1.0623  0.5541 -1.0114
 3403SOL    HW221669   1.005   2.267  10.112  1.0399 -0.0511 -1.2468
 3404SOL     OW21670   2.972   4.025   2.133 -0.0091  0.5380  0.0997
 3404SOL    HW121671   2.997   4.103   2.084  1.5329 -0.1754 -0.2444
 3404SOL    HW221672   3.030   4.034   2.208 -1.4272  0.6237  1.1851
 3405SOL     OW21673   0.455   0.585  10.607 -0.0895  0.1110 -0.3382
 3405SOL    HW121674   0.466   0.532  10.528 -2.1740  0.4000 -0.8138
 3405SOL    HW221675   0.543   0.617  10.625 -0.9076  1.6465  0.9395
 3406SOL     OW21676   3.803   3.438   6.473 -0.4575 -0.2669 -0.3894
 3406SOL    HW121677   3.862   3.363   6.472 -0.4964 -0.3172  0.8683
 3406SOL    HW221678   3.715   3.401   6.465 -0.5420 -0.5557  1.7864
 3407SOL     OW21679   3.176   4.338   4.820  0.5099  0.2610 -0.5975
 3407SOL    HW121680   3.140   4.302   4.739 -1.2673  0.1917  0.2085
 3407SOL    HW221681   3.150   4.273   4.885 -1.1243  2.8589  1.3782
 3408SOL     OW21682   3.279   0.374  10.798 -0.6146 -0.0364  0.2407
 3408SOL    HW121683   3.255   0.323  10.721 -3.0139  0.2302  0.8172
 3408SOL    HW221684   3.201   0.358  10.852  0.9708  2.7302  3.3586
 3409SOL     OW21685   3.073   2.416  13.054  0.5191 -0.1798  0.0041
 3409SOL    HW121686   3.043   2.491  13.105  1.3766 -0.2587  0.6235
 3409SOL    HW221687   3.168   2.425  13.044  0.0586  3.5244 -0.9710
 3410SOL     OW21688   1.538   1.022   3.200 -0.4017  0.7536  0.0258
 3410SOL    HW121689   1.552   1.112   3.172  1.1377  0.6533  0.4809
 3410SOL    HW221690   1.591   1.028   3.279 -0.0356 -1.0933 -0.0753
 3411SOL     OW21691   0.570   3.492   7.592 -0.2219 -0.4592  0.1162
 3411SOL    HW121692   0.538   3.476   7.680 -1.3989 -0.5270 -0.3215
 3411SOL    HW221693   0.628   3.567   7.607  0.5741 -0.8719 -0.8972
 3412SOL     OW21694   0.420   3.331  12.640  0.2550 -0.0354  0.0135
 3412SOL    HW121695   0.470   3.367  12.714 -0.4495 -0.3008  0.6088
 3412SOL    HW221696   0.342   3.298  12.683 -0.1111  1.7339  0.7013
 3413SOL     OW21697   0.959   2.580   6.704  0.6461  0.2699  0.3678
 3413SOL    HW121698   0.884   2.522   6.686  0.3727  1.1243 -1.3052
 3413SOL    HW221699   0.909   2.662   6.700 -0.1017 -0.1074  1.9234
 3414SOL     OW21700   0.349   0.043   4.842 -0.0372  0.1959  0.5674
 3414SOL    HW121701   0.308   0.008   4.763  0.6230  1.6169 -0.3976
 3414SOL    HW221702   0.408   0.110   4.807 -0.2012  0.8350  1.5359
 3415SOL     OW21703   3.810   2.060  14.639 -0.0736 -0.3948  0.0019
 3415SOL    HW121704   3.813   2.141  14.689  1.9014 -0.6093  0.2458
 3415SOL    HW221705   3.860   2.089  14.562  0.1365  0.4574  0.4690
 3416SOL     OW21706   1.865   3.947   4.361  0.7664  0.1727  0.0231
 3416SOL    HW121707   1.813   4.026   4.376 -0.3486 -0.5127 -0.2223
 3416SOL    HW221708   1.942   3.978   4.314  1.4062  1.2481  1.7829
 3417SOL     OW21709   2.545   2.095   8.395  0.0263 -0.7919  0.2669
 3417SOL    HW121710   2.609   2.160   8.424 -0.4398  0.2052 -0.9353
 3417SOL    HW221711   2.593   2.015   8.418 -0.8884 -1.1706  0.8509
 3418SOL     OW21712   4.031   4.451   4.067 -0.1958 -0.4616  0.0772
 3418SOL    HW121713   3.970   4.414   4.002 -1.1457  0.0521  0.6880
 3418SOL    HW221714   4.010   4.544   4.058  0.7511 -0.3327 -0.8729
 3419SOL     OW21715   1.818   0.201   4.556  0.1015 -0.5283  0.3259
 3419SOL    HW121716   1.740   0.163   4.517  0.2030  0.6049 -0.9526
 3419SOL    HW221717   1.892   0.160   4.511  0.5750  0.1713  0.4744
 3420SOL     OW21718   1.689   3.864   6.643 -0.2795 -0.1334  0.1740
 3420SOL    HW121719   1.660   3.935   6.699  2.3290 -0.5714  2.0536
 3420SOL    HW221720   1.723   3.797   6.703 -0.7896 -0.3341  0.2386
 3421SOL     OW21721   1.591   3.275   0.789 -0.2523  0.6088 -0.2991
 3421SOL    HW121722   1.606   3.205   0.853  3.0252  0.1842 -1.4941
 3421SOL    HW221723   1.661   3.264   0.725  0.5363 -0.5471  0.7574
 3422SOL     OW21724   3.425   4.227   4.195  0.5765 -0.0932  0.2833
 3422SOL    HW121725   3.387   4.300   4.146 -0.4566  0.0337  1.2730
 3422SOL    HW221726   3.474   4.275   4.263 -0.7126 -0.2312  1.3080
 3423SOL     OW21727   1.420   3.345   0.186  0.0239 -0.5624  0.1699
 3423SOL    HW121728   1.496   3.391   0.221 -0.3124 -1.6850  2.3942
 3423SOL    HW221729   1.413   3.266   0.239  1.9029  0.9130  2.6059
 3424SOL     OW21730   3.112   1.941  12.783  0.4721 -0.3214 -0.5852
 3424SOL    HW121731   3.167   2.007  12.741  0.4406  0.0155 -0.0943
 3424SOL    HW221732   3.167   1.867  12.758  1.4778 -0.3467  1.7686
 3425SOL     OW21733   1.946   4.681   7.853 -0.0578  0.7825 -0.4213
 3425SOL    HW121734   2.026   0.006   7.833  0.5265 -0.0688 -0.1006
 3425SOL    HW221735   1.973   4.590   7.867 -0.6855  0.9397  1.7267
 3426SOL     OW21736   4.135   1.512   1.573 -0.1455  0.0133  0.1286
 3426SOL    HW121737   4.160   1.453   1.503  0.8258 -0.0073  0.5037
 3426SOL    HW221738   4.201   1.492   1.639 -0.5926 -0.6175  0.3863
 3427SOL     OW21739   0.809   2.505   3.678 -0.1292 -0.1713  0.2053
 3427SOL    HW121740   0.861   2.443   3.729 -0.1794  1.0142  1.7166
 3427SOL    HW221741   0.770   2.446   3.615  1.9349 -2.7719  1.3548
 3428SOL     OW21742   3.492   1.917   0.679  0.2304 -0.5106  0.5621
 3428SOL    HW121743   3.561   1.853   0.698 -0.3003 -1.5739 -0.9893
 3428SOL    HW221744   3.422   1.862   0.715  1.0837 -1.7238  0.3905
 3429SOL     OW21745   1.974   0.365   3.539 -0.2255  0.6481 -0.0062
 3429SOL    HW121746   2.068   0.374   3.551 -0.3495 -0.2561  1.5214
 3429SOL    HW221747   1.940   0.318   3.614 -1.7976  1.0316 -0.4679
 3430SOL     OW21748   2.388   1.688   8.829 -0.5426 -0.1762 -0.2700
 3430SOL    HW121749   2.406   1.671   8.921  2.1650  0.0871 -0.7724
 3430SOL    HW221750   2.437   1.618   8.787 -0.7026 -1.1368  1.1555
 3431SOL     OW21751   2.813   1.153  13.008 -0.1832  0.1017  0.2315
 3431SOL    HW121752   2.843   1.242  12.987 -0.4328  0.4965  1.5234
 3431SOL    HW221753   2.723   1.165  13.037 -0.0022 -0.4655  1.0242
 3432SOL     OW21754   3.289   2.653  12.545  0.2868  0.0174  0.0988
 3432SOL    HW121755   3.323   2.601  12.618 -0.1874 -2.9568 -1.8347
 3432SOL    HW221756   3.204   2.610  12.550 -0.0654  0.9579  2.3094
 3433SOL     OW21757   4.440   1.931   6.401  0.0863 -0.4468  0.7264
 3433SOL    HW121758   4.378   1.953   6.471  0.1325  0.5423  0.4627
 3433SOL    HW221759   4.384   1.938   6.324 -1.6317  1.4119  2.1363
 3434SOL     OW21760   4.602   0.839   8.524 -0.5080 -0.2133 -0.2662
 3434SOL    HW121761   4.591   0.789   8.443  1.2246  1.5790 -1.5996
 3434SOL    HW221762   4.682   0.889   8.505 -1.4288  1.3979  0.1126
 3435SOL     OW21763   3.229   0.222   9.478  0.0375  0.5936  0.1646
 3435SOL    HW121764   3.143   0.256   9.451 -0.1657 -0.5082 -0.6079
 3435SOL    HW221765   3.217   0.248   9.569 -2.5561 -1.7981  0.5026
 3436SOL     OW21766   1.345   3.353   6.510 -0.4241 -0.6820 -0.1473
 3436SOL    HW121767   1.326   3.436   6.467  2.1218 -0.3721 -0.6446
 3436SOL    HW221768   1.275   3.346   6.576 -0.0984  0.2119  0.2920
 3437SOL     OW21769   3.582   1.598  12.018  0.1162  0.1849  0.2522
 3437SOL    HW121770   3.610   1.539  12.089 -0.1649  0.6402  0.7355
 3437SOL    HW221771   3.660   1.653  12.009 -1.2203  2.3716  2.3158
 3438SOL     OW21772   1.925   3.624  10.717 -0.4777 -0.6198  0.2841
 3438SOL    HW121773   1.981   3.611  10.793 -0.1770 -0.7860  0.0333
 3438SOL    HW221774   1.897   3.712  10.741 -2.2101 -1.2994  0.7711
 3439SOL     OW21775   2.438   0.366   7.617  0.3809  0.4808  0.3334
 3439SOL    HW121776   2.451   0.448   7.570 -0.5351  0.4160 -0.0512
 3439SOL    HW221777   2.344   0.370   7.638  0.2753 -1.0849  0.2265
 3440SOL     OW21778   2.742   2.723   2.398 -0.5736 -0.6846 -0.1294
 3440SOL    HW121779   2.799   2.766   2.461 -1.5995  1.5607 -0.7358
 3440SOL    HW221780   2.784   2.638   2.384 -0.9195 -0.6604 -1.3236
 3441SOL     OW21781   0.319   1.557   7.666  0.2375  0.2479 -0.5313
 3441SOL    HW121782   0.245   1.547   7.726 -0.3643  1.4147 -1.0836
 3441SOL    HW221783   0.397   1.565   7.720  0.5120  0.0287 -0.8934
 3442SOL     OW21784   0.215   0.765   4.058 -0.2729 -0.3096  0.0339
 3442SOL    HW121785   0.284   0.699   4.051 -2.5485 -2.6946  0.4324
 3442SOL    HW221786   0.269   0.842   4.076 -2.0036  0.4243  2.1296
 3443SOL     OW21787   3.511   1.938   6.363  0.1593 -0.4792  0.2511
 3443SOL    HW121788   3.606   1.942   6.353  0.3074  0.5256  2.1784
 3443SOL    HW221789   3.498   1.846   6.386  1.4730 -0.7280  0.0256
 3444SOL     OW21790   1.846   2.812   2.701 -0.1905  0.7305 -0.0672
 3444SOL    HW121791   1.870   2.869   2.774 -2.5825  0.3746  1.0075
 3444SOL    HW221792   1.844   2.872   2.626  0.6873  0.3288 -0.3987
 3445SOL     OW21793   0.422   2.085  15.017 -0.0833 -0.3761  0.3232
 3445SOL    HW121794   0.486   2.156  15.023  0.9076 -1.1566 -0.7947
 3445SOL    HW221795   0.478   2.027  15.069 -0.0274  0.4945  1.2349
 3446SOL     OW21796   3.288   4.457  15.354 -0.5560 -0.5700 -0.2943
 3446SOL    HW121797   3.290   4.551  15.337  2.1736 -0.6355 -0.4146
 3446SOL    HW221798   3.351   4.420  15.292 -1.8466  1.6242 -2.9314
 3447SOL     OW21799   4.694   4.477   5.058  0.1122 -0.3498 -0.4426
 3447SOL    HW121800   4.671   4.398   5.107  1.5393  0.3477  1.3781
 3447SOL    HW221801   0.064   4.479   5.084  0.1102  1.0121 -0.5405
 3448SOL     OW21802   1.814   4.538   8.633  0.2433 -0.0106 -0.3780
 3448SOL    HW121803   1.868   4.465   8.665 -1.1430 -0.5741  0.6627
 3448SOL    HW221804   1.870   4.591   8.577  0.9469  0.2225  0.5433
 3449SOL     OW21805   1.044   0.090  17.554  0.2884  0.4222 -0.2081
 3449SOL    HW121806   0.955   0.122  17.541 -0.4227 -1.7545 -0.7012
 3449SOL    HW221807   1.088   0.129  17.478 -0.4017  1.3990 -0.1003
 3450SOL     OW21808   2.943   1.617   8.289 -0.1865 -0.2337  0.4985
 3450SOL    HW121809   3.012   1.618   8.356 -2.0722  1.7871  2.4309
 3450SOL    HW221810   2.866   1.611   8.346 -0.9493 -2.4294 -0.7924
 3451SOL     OW21811   3.690   3.032   5.453 -0.4151  0.0901  0.7261
 3451SOL    HW121812   3.777   3.045   5.490  0.2472  1.6269 -1.4092
 3451SOL    HW221813   3.654   3.116   5.478 -1.3809  1.0499 -3.8599
 3452SOL     OW21814   4.239   4.131  15.885  0.4126  0.4520 -0.1940
 3452SOL    HW121815   4.171   4.193  15.859 -0.7388 -0.6860  0.1061
 3452SOL    HW221816   4.254   4.143  15.978 -1.2649 -0.7921  0.2448
 3453SOL     OW21817   1.506   2.410   5.186  0.5261  0.3020  0.0179
 3453SOL    HW121818   1.478   2.501   5.180  0.6030  0.2536 -1.0775
 3453SOL    HW221819   1.452   2.379   5.258 -1.9286  3.6593 -0.3700
 3454SOL     OW21820   4.424   1.340   7.535 -0.0229 -0.4106  0.1282
 3454SOL    HW121821   4.474   1.300   7.605  2.0041 -1.0444 -1.6859
 3454SOL    HW221822   4.494   1.353   7.471 -0.6275 -1.5697 -0.7694
 3455SOL     OW21823   1.463   3.044   6.783 -0.0902  0.0619 -0.1155
 3455SOL    HW121824   1.395   3.079   6.841  0.7462  1.0722  0.2674
 3455SOL    HW221825   1.446   2.950   6.779 -0.0757  0.0514  0.0702
 3456SOL     OW21826   1.516   4.558   7.890 -0.7414  0.0841  0.4622
 3456SOL    HW121827   1.423   4.551   7.914 -0.3457 -1.1949  1.6908
 3456SOL    HW221828   1.521   4.544   7.796  2.0547  0.7238  0.5267
 3457SOL     OW21829   0.913   1.437   3.104 -0.0730  0.2247  0.5140
 3457SOL    HW121830   0.916   1.436   3.008  1.1763 -0.4336  0.5594
 3457SOL    HW221831   0.943   1.528   3.112 -0.2408  0.2283  1.0811
 3458SOL     OW21832   0.799   0.874   8.503  0.2368 -0.4135  0.1016
 3458SOL    HW121833   0.704   0.873   8.503  0.2238  0.5857  0.1427
 3458SOL    HW221834   0.813   0.895   8.596  0.2490 -1.3205  0.3061
 3459SOL     OW21835   4.144   1.201  10.787  0.4554 -0.1522 -0.1025
 3459SOL    HW121836   4.208   1.230  10.852  1.7350  1.3858 -2.0469
 3459SOL    HW221837   4.105   1.287  10.769 -0.5932 -0.5926  0.1423
 3460SOL     OW21838   1.635   4.461   9.719  0.4028  0.0545  0.0485
 3460SOL    HW121839   1.724   4.452   9.753  0.2596  4.0700  1.4114
 3460SOL    HW221840   1.647   4.416   9.636 -2.5553 -1.5176  0.4753
 3461SOL     OW21841   2.877   3.631   4.894  0.1977  0.4241 -0.5273
 3461SOL    HW121842   2.790   3.607   4.926  0.5219 -0.6474 -0.4640
 3461SOL    HW221843   2.854   3.688   4.821 -1.6178 -1.2809 -1.3028
 3462SOL     OW21844   1.831   3.549  13.309  0.0358  0.3824  0.3203
 3462SOL    HW121845   1.805   3.545  13.401 -0.1445  0.9758  0.2958
 3462SOL    HW221846   1.904   3.487  13.305  0.9101  1.5079 -1.3846
 3463SOL     OW21847   3.993   2.955   8.434 -0.2126 -0.2907  0.5067
 3463SOL    HW121848   3.986   2.865   8.465  0.1600 -0.7151 -0.6341
 3463SOL    HW221849   3.985   3.005   8.515 -0.5545  0.6377 -0.0917
 3464SOL     OW21850   0.412   2.620  13.726  0.5594  0.1759 -0.6999
 3464SOL    HW121851   0.320   2.637  13.746  0.6721  0.8787 -0.8147
 3464SOL    HW221852   0.442   2.631  13.816 -0.7085 -1.3688 -0.0849
 3465SOL     OW21853   2.857   1.867   7.176 -0.4744 -0.3062  0.2559
 3465SOL    HW121854   2.827   1.777   7.163 -2.2495  0.1764  1.0086
 3465SOL    HW221855   2.906   1.868   7.258 -0.9570 -3.7448  0.5649
 3466SOL     OW21856   3.473   3.154   7.355  1.1629  0.0027 -0.6955
 3466SOL    HW121857   3.500   3.179   7.443 -1.7034 -2.4325  0.9049
 3466SOL    HW221858   3.554   3.173   7.309  1.8697 -0.9838  0.1400
 3467SOL     OW21859   0.616   1.974   6.096  0.1230 -0.1055 -0.5179
 3467SOL    HW121860   0.608   1.937   6.008  1.7124 -1.9837  0.1373
 3467SOL    HW221861   0.631   2.067   6.076 -0.2096 -0.3962 -2.1697
 3468SOL     OW21862   0.375   1.011   9.278  0.0856  0.1407 -0.1108
 3468SOL    HW121863   0.392   1.043   9.190 -0.1277 -0.9558 -0.5492
 3468SOL    HW221864   0.279   1.008   9.285 -0.0113  0.2034 -1.4192
 3469SOL     OW21865   1.486   1.903   9.731  0.7522  0.4586 -0.1250
 3469SOL    HW121866   1.564   1.927   9.681  0.6279  0.8100 -0.1547
 3469SOL    HW221867   1.433   1.981   9.716 -1.0005 -1.0426 -1.5614
 3470SOL     OW21868   3.255   0.618  13.854  0.2076 -0.5833 -0.4230
 3470SOL    HW121869   3.229   0.636  13.763 -0.4005  0.2478 -0.0889
 3470SOL    HW221870   3.341   0.659  13.851 -0.7267  1.4211  0.2693
 3471SOL     OW21871   0.116   4.515   9.166 -0.0662 -0.3042  0.4211
 3471SOL    HW121872   0.182   4.475   9.109 -1.6197 -2.4897  0.1422
 3471SOL    HW221873   0.036   4.490   9.120  0.7437  0.9004 -1.6742
 3472SOL     OW21874   3.607   3.404  15.778  0.4120 -0.7014  0.0099
 3472SOL    HW121875   3.527   3.452  15.802  1.0228  0.9292 -1.2410
 3472SOL    HW221876   3.666   3.455  15.833  2.2539 -2.2843 -0.4918
 3473SOL     OW21877   2.062   0.345   4.393 -0.3112  0.1274  0.2076
 3473SOL    HW121878   2.135   0.284   4.407  0.0893  0.9462  1.6399
 3473SOL    HW221879   2.092   0.416   4.449 -1.4632  1.4991 -0.9194
 3474SOL     OW21880   0.081   2.962   8.263 -0.0431 -0.2923  0.2702
 3474SOL    HW121881   0.120   2.875   8.267  1.7752  0.4531 -1.0317
 3474SOL    HW221882   0.122   3.009   8.336 -0.3614  0.7792 -0.2366
 3475SOL     OW21883   0.107   4.715  16.711  0.3923 -0.1995 -0.0322
 3475SOL    HW121884   0.037   4.685  16.653 -2.2974  1.0877  2.5701
 3475SOL    HW221885   0.176   4.649  16.708  0.2086 -0.3292 -1.3594
 3476SOL     OW21886   4.044   2.786   6.146  0.2033  0.0930  0.3765
 3476SOL    HW121887   4.006   2.873   6.145 -1.3576 -0.6082 -0.3648
 3476SOL    HW221888   3.973   2.728   6.171 -1.7678  2.3954  0.0659
 3477SOL     OW21889   4.478   1.536   5.690  0.2120  0.8158  0.1821
 3477SOL    HW121890   4.385   1.559   5.686 -0.3566 -1.5795 -1.0175
 3477SOL    HW221891   4.483   1.467   5.623  0.4015  0.3899  0.6346
 3478SOL     OW21892   4.431   0.861   7.918 -0.0691 -0.1309 -0.1211
 3478SOL    HW121893   4.432   0.898   8.006  0.1976  0.4034 -0.3505
 3478SOL    HW221894   4.339   0.864   7.894 -0.3057  0.0217  0.8134
 3479SOL     OW21895   1.057   4.362   3.635 -0.4903  0.6924 -0.3362
 3479SOL    HW121896   1.106   4.279   3.636 -2.0560 -0.2486 -1.0278
 3479SOL    HW221897   1.029   4.377   3.725  2.2279 -1.4766  0.8492
 3480SOL     OW21898   4.687   0.477  16.244 -0.1714  0.1832  0.2993
 3480SOL    HW121899   4.654   0.388  16.259 -0.6137  0.3050  0.0440
 3480SOL    HW221900   4.651   0.493  16.157  0.3848  1.8715  0.3826
 3481SOL     OW21901   1.363   1.323  14.393 -0.2850  0.3413 -0.0504
 3481SOL    HW121902   1.389   1.231  14.399  0.2920  0.5252  0.2875
 3481SOL    HW221903   1.405   1.366  14.468  1.7311 -0.3596 -0.7831
 3482SOL     OW21904   0.466   0.046  13.417  0.3098  0.1534 -0.0146
 3482SOL    HW121905   0.434   0.087  13.498 -0.1149  1.7562 -1.0049
 3482SOL    HW221906   0.391   0.063  13.360  2.2424  1.5433 -2.1468
 3483SOL     OW21907   0.038   2.592   2.810  0.1614 -0.2002 -0.0061
 3483SOL    HW121908   0.076   2.554   2.731  1.0252  0.1864  0.2203
 3483SOL    HW221909   0.111   2.579   2.871  0.6408 -2.9247 -1.1892
 3484SOL     OW21910   1.589   0.841  14.579 -0.1737 -0.0339  0.0336
 3484SOL    HW121911   1.650   0.775  14.546 -2.0543 -0.8699 -1.7082
 3484SOL    HW221912   1.539   0.783  14.636 -2.2598  1.1155 -0.6255
 3485SOL     OW21913   1.308   2.949   8.451 -0.2234  0.3542  0.1812
 3485SOL    HW121914   1.277   2.888   8.384  0.0897  0.6330 -0.2198
 3485SOL    HW221915   1.231   2.996   8.483 -0.7464  0.4220 -1.1657
 3486SOL     OW21916   1.420   4.703  17.357 -0.4969  0.6434  0.4067
 3486SOL    HW121917   1.336   4.658  17.348 -0.8461  1.1787  1.0475
 3486SOL    HW221918   1.477   4.632  17.388  1.1012  1.5738 -0.4161
 3487SOL     OW21919   3.660   3.333   3.609  0.4614  0.2720 -0.0016
 3487SOL    HW121920   3.641   3.316   3.701 -1.4749 -0.5235 -0.5474
 3487SOL    HW221921   3.680   3.426   3.614 -2.8354  0.9940  0.0255
 3488SOL     OW21922   0.379   0.163   0.569 -0.5330 -0.0661 -0.2790
 3488SOL    HW121923   0.455   0.167   0.511 -0.4908  3.0552  0.0159
 3488SOL    HW221924   0.327   0.233   0.531 -1.6501  1.2620  3.7124
 3489SOL     OW21925   0.379   3.643   2.233 -0.2177  0.0584  0.3311
 3489SOL    HW121926   0.454   3.699   2.213  1.4751 -2.5376 -0.5571
 3489SOL    HW221927   0.376   3.636   2.328  1.3392 -1.2368  0.2782
 3490SOL     OW21928   3.523   4.052   7.066  0.2256  1.1009  0.3142
 3490SOL    HW121929   3.456   4.065   7.134  0.9204  0.0392  1.2193
 3490SOL    HW221930   3.465   4.037   6.992 -0.2172 -1.3775  1.1302
 3491SOL     OW21931   4.001   0.868   2.622 -0.5064 -0.2153 -0.3461
 3491SOL    HW121932   3.930   0.918   2.663  0.3700  0.1093  0.7696
 3491SOL    HW221933   4.072   0.913   2.667 -1.1947 -0.6285  1.1606
 3492SOL     OW21934   3.273   1.830  17.241 -0.3959  0.2855  0.1430
 3492SOL    HW121935   3.292   1.828  17.147 -0.0663 -1.4781  0.2503
 3492SOL    HW221936   3.299   1.744  17.274  0.7842  1.0141  1.1026
 3493SOL     OW21937   3.546   2.940  15.379  0.9927 -0.3344  0.2619
 3493SOL    HW121938   3.472   2.909  15.430 -0.6346  3.0121 -0.0458
 3493SOL    HW221939   3.611   2.870  15.387  3.0673  1.0611 -4.4795
 3494SOL     OW21940   1.065   2.876  16.880 -0.0356 -0.3812 -0.3901
 3494SOL    HW121941   1.042   2.783  16.887  1.2790 -0.6279  0.4119
 3494SOL    HW221942   1.024   2.893  16.795 -1.4546  0.5172  0.4631
 3495SOL     OW21943   4.364   0.804   0.408  0.1520 -0.3710  0.3224
 3495SOL    HW121944   4.407   0.878   0.451  2.4464 -1.3769 -0.2260
 3495SOL    HW221945   4.273   0.834   0.408 -0.1023 -1.1652 -0.8034
 3496SOL     OW21946   2.486   1.857   0.517 -0.1275  0.2757 -0.2208
 3496SOL    HW121947   2.514   1.881   0.429  0.6768  0.5514  0.1054
 3496SOL    HW221948   2.399   1.893   0.506 -0.0552  0.7022  0.6186
 3497SOL     OW21949   4.188   1.800  11.663  0.0581 -0.4353  0.1461
 3497SOL    HW121950   4.177   1.806  11.568  0.9690  1.7099  0.1677
 3497SOL    HW221951   4.272   1.844  11.677 -0.1149  0.6189 -2.2719
 3498SOL     OW21952   1.964   0.208   6.920 -0.4724  0.0894 -0.0664
 3498SOL    HW121953   1.917   0.144   6.867 -0.6446  0.1807 -0.0240
 3498SOL    HW221954   2.019   0.258   6.860 -0.3798  1.1096  0.8684
 3499SOL     OW21955   4.026   0.806   0.846  0.1792  0.3932  0.2990
 3499SOL    HW121956   4.070   0.766   0.921 -0.1013  1.6181  1.1020
 3499SOL    HW221957   3.976   0.732   0.810  1.5476 -0.1802 -0.4386
 3500SOL     OW21958   1.006   2.043   4.852 -0.0775 -0.3702 -0.1717
 3500SOL    HW121959   0.991   2.102   4.778  0.6191 -0.6494 -0.5422
 3500SOL    HW221960   0.926   1.990   4.851  0.0121 -0.5203  0.4961
 3501SOL     OW21961   0.658   0.504  16.291  0.3416  0.4880 -0.0908
 3501SOL    HW121962   0.564   0.508  16.311  0.6361 -0.3359  1.4692
 3501SOL    HW221963   0.696   0.436  16.347 -0.0654 -0.5780 -1.1361
 3502SOL     OW21964   2.262   2.617   1.099  0.3264  0.3106 -0.2483
 3502SOL    HW121965   2.197   2.598   1.031  1.2222 -3.3744 -0.0464
 3502SOL    HW221966   2.320   2.666   1.041 -0.1587  0.7091 -0.3951
 3503SOL     OW21967   4.170   2.404   8.447 -0.1430  0.0147 -0.3026
 3503SOL    HW121968   4.223   2.431   8.371  0.0617  3.0467  0.9144
 3503SOL    HW221969   4.236   2.369   8.506 -0.0607  2.8675  1.3045
 3504SOL     OW21970   3.222   2.546   9.099 -0.0467  0.0667 -0.4973
 3504SOL    HW121971   3.301   2.535   9.152  1.0204  0.7985 -1.9676
 3504SOL    HW221972   3.147   2.559   9.158 -0.2688  1.8773 -1.1809
 3505SOL     OW21973   1.419   4.364   7.581  0.0824 -0.1569  0.4118
 3505SOL    HW121974   1.379   4.423   7.517 -1.6968 -0.2479  1.4412
 3505SOL    HW221975   1.482   4.431   7.609  1.1609 -1.0266  0.0785
 3506SOL     OW21976   1.105   3.278   7.118 -0.0674  0.3420 -0.5210
 3506SOL    HW121977   1.105   3.211   7.049 -0.6023 -0.1061 -0.0850
 3506SOL    HW221978   1.161   3.346   7.080  0.4043  2.0549  3.3034
 3507SOL     OW21979   3.248   2.026  14.377  0.2844  0.3112 -0.3491
 3507SOL    HW121980   3.175   1.967  14.395 -0.1478  1.3957  1.4332
 3507SOL    HW221981   3.241   2.047  14.284  0.3698  1.4763 -0.0925
 3508SOL     OW21982   0.471   1.039   3.267 -0.0628  0.6499 -0.0216
 3508SOL    HW121983   0.472   1.133   3.286  0.6215  0.3612  1.3956
 3508SOL    HW221984   0.493   1.046   3.174  0.9215 -1.7827  0.0178
 3509SOL     OW21985   4.592   2.637   6.262 -0.5651 -0.4083  0.1578
 3509SOL    HW121986   4.663   2.697   6.285 -1.4304  0.1054  1.4846
 3509SOL    HW221987   4.547   2.627   6.346 -0.7694  3.7283  0.5019
 3510SOL     OW21988   0.563   2.446   1.954  0.3915 -0.1106  0.1155
 3510SOL    HW121989   0.547   2.434   2.047  2.4987 -1.3249  0.3232
 3510SOL    HW221990   0.540   2.358   1.923 -0.9134  1.4794 -3.3842
 3511SOL     OW21991   3.175   2.369   2.930 -0.0253 -0.1836 -0.0533
 3511SOL    HW121992   3.252   2.422   2.952 -1.3381  0.7678  2.2371
 3511SOL    HW221993   3.213   2.324   2.854 -1.0731  0.3576 -0.9020
 3512SOL     OW21994   2.941   2.554   3.675 -0.6584 -0.0255  0.0247
 3512SOL    HW121995   2.862   2.535   3.624  0.9182  0.8923 -2.7753
 3512SOL    HW221996   2.932   2.492   3.747 -1.9609  0.1921  0.0470
 3513SOL     OW21997   4.104   0.245   8.130 -0.0830  0.0238  0.4953
 3513SOL    HW121998   4.138   0.207   8.049  0.8078 -0.0410  0.8918
 3513SOL    HW221999   4.151   0.197   8.199  0.9835  0.5397  0.1286
 3514SOL     OW22000   1.292   4.169   6.771 -0.4405  0.2899  0.2659
 3514SOL    HW122001   1.336   4.215   6.699  0.3219  0.4453  0.8204
 3514SOL    HW222002   1.239   4.240   6.806 -0.6064  0.8703 -1.1707
 3515SOL     OW22003   4.169   0.922   4.466 -0.1669  0.3798 -0.3548
 3515SOL    HW122004   4.139   0.863   4.397 -2.6321  0.1171  0.9450
 3515SOL    HW222005   4.210   0.990   4.412  0.6222  0.3286  0.1900
 3516SOL     OW22006   3.807   2.243   3.882 -0.2419 -0.6437  0.0602
 3516SOL    HW122007   3.752   2.189   3.939 -1.5134  1.5393  0.8942
 3516SOL    HW222008   3.748   2.315   3.859  3.4912  2.6698  0.7710
 3517SOL     OW22009   3.517   0.832   3.581  0.6899  0.2932 -0.6294
 3517SOL    HW122010   3.547   0.923   3.580  1.2258  0.1198 -0.1922
 3517SOL    HW222011   3.525   0.813   3.675 -0.5225  0.5651 -0.4715
 3518SOL     OW22012   1.093   2.145   0.476 -1.2488 -0.0724 -0.2959
 3518SOL    HW122013   1.145   2.129   0.554  0.2115  0.1873 -1.2126
 3518SOL    HW222014   1.002   2.129   0.501 -1.8398  1.0047 -1.7590
 3519SOL     OW22015   4.155   0.132   2.135  0.2499  0.1056  0.1628
 3519SOL    HW122016   4.140   0.153   2.227  1.7736  4.1059 -0.4930
 3519SOL    HW222017   4.235   0.079   2.134 -1.0111 -1.7740  0.1234
 3520SOL     OW22018   3.497   1.823  15.019  0.1984  0.3512 -0.2500
 3520SOL    HW122019   3.407   1.834  14.987 -0.5619 -2.3523  0.8959
 3520SOL    HW222020   3.535   1.838  14.932 -2.0646  0.6176 -1.2079
 3521SOL     OW22021   2.236   3.304   2.775  0.5764  0.0188 -0.3728
 3521SOL    HW122022   2.324   3.310   2.812 -0.4079  1.4583  1.7343
 3521SOL    HW222023   2.194   3.236   2.828  1.7113  0.0977  0.6281
 3522SOL     OW22024   0.616   1.872   5.823  0.0322  0.1777 -0.0264
 3522SOL    HW122025   0.680   1.933   5.785  2.3297 -0.8324  2.2322
 3522SOL    HW222026   0.628   1.795   5.768 -0.3678 -2.1833  3.2167
 3523SOL     OW22027   1.321   4.258   8.957  0.1049  0.3752 -0.1775
 3523SOL    HW122028   1.321   4.201   9.034 -0.4455  0.0452 -0.4191
 3523SOL    HW222029   1.415   4.264   8.940  0.1969  0.8093  0.4616
 3524SOL     OW22030   0.387   3.199   7.252 -0.2712 -0.0901 -0.5068
 3524SOL    HW122031   0.471   3.153   7.256  0.6646  1.5810 -0.8197
 3524SOL    HW222032   0.416   3.283   7.289  1.7900 -0.3816 -1.4451
 3525SOL     OW22033   4.411   1.679   6.513  0.0871 -0.2546  0.0407
 3525SOL    HW122034   4.355   1.712   6.583 -1.3034  0.6716 -1.5207
 3525SOL    HW222035   4.475   1.749   6.505 -0.3593  0.3637  1.9301
 3526SOL     OW22036   3.496   2.940  11.334  0.2836  0.0578  0.7084
 3526SOL    HW122037   3.449   3.007  11.284 -0.7226 -1.5681 -0.5423
 3526SOL    HW222038   3.527   2.984  11.413  1.0880  2.5242 -0.9979
 3527SOL     OW22039   0.278   2.677   6.692 -0.1692  0.1125 -0.8097
 3527SOL    HW122040   0.303   2.591   6.658 -0.7909 -1.1952  2.0826
 3527SOL    HW222041   0.285   2.735   6.615 -0.5492  0.9536 -0.2093
 3528SOL     OW22042   0.056   0.154   8.498 -0.2427  0.5579  0.0224
 3528SOL    HW122043   0.031   0.120   8.584  1.7666  0.4084  0.5561
 3528SOL    HW222044   0.067   0.067   8.459 -0.5491 -0.4762  2.1977
 3529SOL     OW22045   2.876   4.318   8.870  0.1923  0.4626  0.1303
 3529SOL    HW122046   2.912   4.345   8.954  0.2251 -0.5127  0.4320
 3529SOL    HW222047   2.843   4.230   8.886  0.6819  0.0172 -1.2815
 3530SOL     OW22048   1.834   1.849  15.538 -0.1514 -0.2229 -0.0976
 3530SOL    HW122049   1.896   1.908  15.495 -1.8385 -1.2444 -3.8698
 3530SOL    HW222050   1.768   1.846  15.469 -1.6708  2.5136  1.2454
 3531SOL     OW22051   2.038   2.357   3.707 -0.5106 -0.4110 -0.0542
 3531SOL    HW122052   2.070   2.445   3.729 -1.6158  0.1596 -0.7466
 3531SOL    HW222053   1.951   2.376   3.674 -0.3726  1.1282  0.4352
 3532SOL     OW22054   3.411   1.368  11.855 -0.5698  0.2273 -0.2557
 3532SOL    HW122055   3.421   1.332  11.943  0.7889  4.1043  1.1610
 3532SOL    HW222056   3.485   1.429  11.852 -0.3238 -0.1195 -1.6770
 3533SOL     OW22057   4.220   0.698  14.658  0.0025 -0.4206 -0.9026
 3533SOL    HW122058   4.160   0.624  14.645  0.2153 -0.9643  1.3217
 3533SOL    HW222059   4.174   0.753  14.722  1.2074  0.2171 -0.5865
 3534SOL     OW22060   0.208   0.214  10.317 -0.1204  0.0867 -0.3609
 3534SOL    HW122061   0.181   0.141  10.260 -0.7295  1.2390 -1.5361
 3534SOL    HW222062   0.156   0.289  10.291 -0.4527  0.1117  0.3912
 3535SOL     OW22063   3.911   1.828  14.463 -0.0943 -0.0059 -0.5474
 3535SOL    HW122064   3.997   1.866  14.446 -0.3616  0.2131 -1.4249
 3535SOL    HW222065   3.856   1.904  14.484  1.3933  0.4672  1.5646
 3536SOL     OW22066   1.669   0.164  14.555 -0.6023  0.3942  0.1133
 3536SOL    HW122067   1.636   0.210  14.478 -0.5750 -0.2806 -0.3056
 3536SOL    HW222068   1.586   0.136  14.592  0.2389  0.7296  2.2686
 3537SOL     OW22069   1.969   2.680   5.295  0.0711  0.6800 -0.0276
 3537SOL    HW122070   1.989   2.638   5.211  1.2649  1.8057 -0.2975
 3537SOL    HW222071   2.008   2.766   5.285  2.1053 -0.0784  1.2761
 3538SOL     OW22072   1.973   2.167   4.817 -0.3370 -0.4524  0.2852
 3538SOL    HW122073   2.014   2.242   4.773  0.5103 -0.1893  1.5288
 3538SOL    HW222074   1.997   2.187   4.907  2.1733 -0.2358 -0.4446
 3539SOL     OW22075   0.518   0.546   6.489 -0.2779  0.1678  0.2660
 3539SOL    HW122076   0.569   0.626   6.500 -0.3722 -0.1491  2.9905
 3539SOL    HW222077   0.561   0.484   6.547 -1.2626  0.0646  0.8956
 3540SOL     OW22078   3.345   1.507   8.183 -0.3548  0.0737  0.1577
 3540SOL    HW122079   3.336   1.417   8.152 -0.0875  0.8847 -2.2572
 3540SOL    HW222080   3.355   1.486   8.276  0.1281 -1.0115 -0.1369
 3541SOL     OW22081   4.056   0.547   8.096  0.3948 -0.6841 -0.1128
 3541SOL    HW122082   4.048   0.452   8.104  1.2301 -0.7461 -0.1104
 3541SOL    HW222083   4.115   0.551   8.021  0.1350  2.0639 -0.1449
 3542SOL     OW22084   4.503   0.853   5.352  0.4288 -0.3330  0.0628
 3542SOL    HW122085   4.425   0.807   5.320  0.7578 -2.4055  2.1710
 3542SOL    HW222086   4.532   0.890   5.269 -1.4272 -1.1622 -0.9581
 3543SOL     OW22087   3.142   0.062  12.221 -0.5111 -0.0214 -0.1627
 3543SOL    HW122088   3.235   0.076  12.200 -0.1599  0.4959  1.7478
 3543SOL    HW222089   3.099   0.143  12.197 -0.0550 -0.1389 -1.3837
 3544SOL     OW22090   3.319   2.649   5.194  0.0740 -0.2507  0.0070
 3544SOL    HW122091   3.384   2.593   5.152  0.4716 -0.9181  1.5042
 3544SOL    HW222092   3.349   2.658   5.285  2.5576  1.0941 -0.9371
 3545SOL     OW22093   2.463   2.445  15.922  0.5381 -0.0112 -0.1628
 3545SOL    HW122094   2.465   2.541  15.928 -3.2876 -0.0560  1.5693
 3545SOL    HW222095   2.553   2.412  15.931  1.3860  2.7480  1.6094
 3546SOL     OW22096   4.089   3.460  14.267  0.4752  0.0806  0.3982
 3546SOL    HW122097   4.166   3.490  14.316 -0.8421  2.5130  0.9528
 3546SOL    HW222098   4.061   3.377  14.305  0.6932  0.3089  1.0678
 3547SOL     OW22099   1.854   1.161  11.783  0.5767  0.1804 -0.2161
 3547SOL    HW122100   1.849   1.121  11.870 -0.8716 -0.4565 -0.6018
 3547SOL    HW222101   1.923   1.112  11.740  0.4376 -0.1854 -0.0222
 3548SOL     OW22102   2.991   1.196   6.892 -0.0222  0.0739 -0.6919
 3548SOL    HW122103   2.982   1.291   6.895  2.5888  0.2889  0.0967
 3548SOL    HW222104   3.075   1.186   6.936  1.0915  1.1829 -2.5796
 3549SOL     OW22105   0.289   0.819   3.308  0.1100 -0.1721  0.2433
 3549SOL    HW122106   0.260   0.905   3.278  1.1035  0.0339 -0.1393
 3549SOL    HW222107   0.384   0.823   3.302  0.1519  1.5557  1.8693
 3550SOL     OW22108   3.541   3.729  13.317 -0.3911 -0.1410 -0.6631
 3550SOL    HW122109   3.461   3.703  13.273 -1.9260 -0.0544  2.0851
 3550SOL    HW222110   3.575   3.797  13.259 -0.8294  0.7571  0.1206
 3551SOL     OW22111   0.399   4.110  17.271  0.2744  0.2383  0.1195
 3551SOL    HW122112   0.410   4.044  17.339  0.3910 -0.9671 -1.0787
 3551SOL    HW222113   0.374   4.050  17.201 -0.3252 -0.5038  0.9528
 3552SOL     OW22114   4.536   2.335  15.685  0.0230 -0.7231 -0.3197
 3552SOL    HW122115   4.570   2.391  15.755  1.1951 -2.4517  0.4645
 3552SOL    HW222116   4.485   2.275  15.740 -0.8074  0.7684  0.5549
 3553SOL     OW22117   1.400   0.836   5.803  0.2905  0.9367 -0.7563
 3553SOL    HW122118   1.396   0.930   5.821  0.1548  0.8312 -0.2308
 3553SOL    HW222119   1.317   0.811   5.763 -0.8935  0.5202  1.9982
 3554SOL     OW22120   0.496   1.173  11.053 -0.3776  0.2836 -0.0018
 3554SOL    HW122121   0.536   1.191  11.137  0.1465 -0.2626 -0.1350
 3554SOL    HW222122   0.437   1.102  11.079  2.9875 -2.0504  1.1831
 3555SOL     OW22123   2.442   1.529   0.694  0.5794 -0.3624  0.7136
 3555SOL    HW122124   2.498   1.452   0.703 -0.7309 -1.5588 -1.1215
 3555SOL    HW222125   2.358   1.486   0.711  0.3169  0.1528  0.7132
 3556SOL     OW22126   2.024   1.938   0.198  0.4049  0.0113  0.6417
 3556SOL    HW122127   2.092   1.970   0.257  1.2336  1.9677 -1.3703
 3556SOL    HW222128   1.946   1.975   0.241 -2.2980  0.2966 -4.4544
 3557SOL     OW22129   3.280   4.520   6.465 -0.1965  0.1608  0.4125
 3557SOL    HW122130   3.365   4.523   6.421 -0.7534 -1.1345 -0.7776
 3557SOL    HW222131   3.228   4.467   6.404  1.0676 -1.2665  0.5826
 3558SOL     OW22132   1.611   0.454   5.761 -0.0228  0.1536  0.2329
 3558SOL    HW122133   1.699   0.486   5.781 -0.9950  3.3726 -0.6233
 3558SOL    HW222134   1.633   0.390   5.693  2.8241 -0.5073  1.7559
 3559SOL     OW22135   0.450   0.460   7.857  0.4407 -0.7757  0.0961
 3559SOL    HW122136   0.422   0.400   7.788  0.7187  1.4549 -1.9465
 3559SOL    HW222137   0.393   0.535   7.842  1.7527  0.0994 -0.5380
 3560SOL     OW22138   3.594   2.149   2.955  0.0616 -0.2185 -0.0401
 3560SOL    HW122139   3.539   2.089   2.904  1.0770 -0.6924 -0.5631
 3560SOL    HW222140   3.584   2.111   3.042 -2.7239 -1.5906 -0.9363
 3561SOL     OW22141   2.032   0.224   5.212  0.0436  0.2083 -1.1668
 3561SOL    HW122142   2.039   0.295   5.276  1.1742  0.3669 -1.4672
 3561SOL    HW222143   1.974   0.267   5.149 -1.6641  0.5232  0.6094
 3562SOL     OW22144   3.180   0.912   4.056  0.5038 -0.2265 -0.0299
 3562SOL    HW122145   3.181   1.006   4.073  3.4709  0.2381 -2.7906
 3562SOL    HW222146   3.089   0.888   4.073  0.8657 -2.5400 -1.2572
 3563SOL     OW22147   0.628   4.590  15.621 -0.6485  0.0329 -0.0623
 3563SOL    HW122148   0.636   4.671  15.672  0.1963 -0.7618  1.0527
 3563SOL    HW222149   0.719   4.562  15.610 -1.1903 -1.6132 -0.2548
 3564SOL     OW22150   3.373   0.929   6.497 -0.4331  0.1940 -0.1911
 3564SOL    HW122151   3.350   0.903   6.586  1.1542 -0.1664  0.1254
 3564SOL    HW222152   3.354   1.023   6.504 -0.4123  0.2980 -1.5891
 3565SOL     OW22153   1.763   0.836   1.381 -0.2551 -0.1072  0.2403
 3565SOL    HW122154   1.852   0.806   1.399 -1.0934 -1.5675  1.9795
 3565SOL    HW222155   1.708   0.758   1.381  1.3142 -1.2061  0.7349
 3566SOL     OW22156   3.232   2.833   8.720  0.2925  0.2465  0.3030
 3566SOL    HW122157   3.322   2.818   8.692  0.9556  1.4354  1.7735
 3566SOL    HW222158   3.237   2.809   8.812 -2.2450 -1.9095 -0.1089
 3567SOL     OW22159   0.891   0.505  11.499 -0.3253  0.8328 -0.0151
 3567SOL    HW122160   0.801   0.512  11.532  0.3665  1.3768  1.7585
 3567SOL    HW222161   0.868   0.500  11.406  2.6585 -0.1512 -0.7009
 3568SOL     OW22162   2.365   3.406   5.712 -0.0351  0.4819 -0.3387
 3568SOL    HW122163   2.433   3.401   5.645  0.1866  1.4115 -0.1811
 3568SOL    HW222164   2.310   3.475   5.677 -2.4801  0.2115  2.9919
 3569SOL     OW22165   1.112   4.199   8.616 -0.1749 -0.4402  0.0258
 3569SOL    HW122166   1.119   4.190   8.711 -0.2640  1.5594  0.2339
 3569SOL    HW222167   1.176   4.270   8.621 -0.8470  0.3478 -2.8640
 3570SOL     OW22168   3.618   1.627  10.549  0.0760 -0.2673  0.3795
 3570SOL    HW122169   3.669   1.602  10.626  0.9024 -1.4264 -0.5651
 3570SOL    HW222170   3.632   1.547  10.498 -0.7989  0.9597 -1.7959
 3571SOL     OW22171   2.355   3.044   0.632  0.2771  0.2131  0.1311
 3571SOL    HW122172   2.439   3.079   0.661 -0.7985  1.2960  1.9213
 3571SOL    HW222173   2.298   3.120   0.626 -0.9251 -0.6843  0.2810
 3572SOL     OW22174   2.498   3.035   3.207  0.6492 -0.2886 -0.0223
 3572SOL    HW122175   2.429   3.046   3.141 -1.3217 -1.6139  1.8559
 3572SOL    HW222176   2.492   2.940   3.206  0.5134 -0.2685 -1.7366
 3573SOL     OW22177   2.182   0.382  13.100  0.5869  0.0276 -0.2399
 3573SOL    HW122178   2.225   0.463  13.128  0.0287  0.2483 -0.0182
 3573SOL    HW222179   2.160   0.408  13.010  0.2360  0.7076  0.0487
 3574SOL     OW22180   0.023   2.711   6.783 -0.1381  0.4405  0.0255
 3574SOL    HW122181   0.118   2.714   6.790 -0.1882 -0.3786  1.0734
 3574SOL    HW222182   0.010   2.618   6.800  2.9729  0.1972  1.0477
 3575SOL     OW22183   1.539   4.685  15.124  0.2655  0.1583 -0.0164
 3575SOL    HW122184   1.491   4.602  15.123  1.9663 -0.8281  0.6845
 3575SOL    HW222185   1.495   0.007  15.051 -2.4370 -2.2201  0.1379
 3576SOL     OW22186   1.401   2.646   5.565 -0.2298 -0.1153  0.1387
 3576SOL    HW122187   1.471   2.705   5.538  1.2785 -2.6238 -1.4894
 3576SOL    HW222188   1.428   2.631   5.655  1.4465 -1.8844 -0.6511
 3577SOL     OW22189   0.232   3.858   0.097  0.2577 -1.0163  0.0241
 3577SOL    HW122190   0.226   3.771   0.058  0.1491 -0.8901 -0.2481
 3577SOL    HW222191   0.257   3.833   0.186 -2.2518 -1.4468  0.6139
 3578SOL     OW22192   2.739   0.501   3.828 -0.0449  0.0946  0.3842
 3578SOL    HW122193   2.801   0.574   3.836  0.8123 -0.4905 -0.9558
 3578SOL    HW222194   2.661   0.555   3.819  1.1853  1.6025 -1.2202
 3579SOL     OW22195   2.127   3.058   2.859 -0.0176  0.3068 -0.2224
 3579SOL    HW122196   2.031   3.059   2.850  0.0235  1.3713 -0.5077
 3579SOL    HW222197   2.144   3.025   2.771  0.2594 -0.2364  0.0392
 3580SOL     OW22198   2.189   3.867   6.510  0.5261  0.3258 -0.4408
 3580SOL    HW122199   2.274   3.905   6.531  0.5360 -1.1828  2.2062
 3580SOL    HW222200   2.133   3.924   6.563  1.3903  0.3826  0.4230
 3581SOL     OW22201   4.592   2.463   4.887 -0.3289 -0.0564  0.1238
 3581SOL    HW122202   4.685   2.485   4.884  0.1854 -2.2690 -0.0979
 3581SOL    HW222203   4.560   2.528   4.825  1.4169  0.7273  0.0332
 3582SOL     OW22204   1.226   3.045   4.434  0.3272  0.3119  0.1510
 3582SOL    HW122205   1.147   3.075   4.389  1.8223  3.0729 -0.6227
 3582SOL    HW222206   1.196   3.037   4.525  3.1531  0.6101  1.1078
 3583SOL     OW22207   0.418   3.795   0.539 -0.0221 -0.4075 -0.5558
 3583SOL    HW122208   0.404   3.888   0.557 -1.3776 -0.9216  1.0478
 3583SOL    HW222209   0.509   3.787   0.511 -0.0930 -0.0533 -0.8884
 3584SOL     OW22210   0.874   0.183  15.633 -0.1290  0.7885 -0.2505
 3584SOL    HW122211   0.816   0.245  15.589  0.3054  0.5282 -1.1819
 3584SOL    HW222212   0.809   0.122  15.669 -0.9847  1.8989  0.0860
 3585SOL     OW22213   3.153   2.116   4.031 -0.4713  0.0503  0.4488
 3585SOL    HW122214   3.232   2.167   4.013 -0.7721  0.3477 -0.0221
 3585SOL    HW222215   3.183   2.067   4.108 -0.0678 -0.6441 -0.1418
 3586SOL     OW22216   3.164   3.624   8.230  0.5580 -0.5995  0.0283
 3586SOL    HW122217   3.235   3.684   8.252  0.7889  0.2237 -2.8653
 3586SOL    HW222218   3.108   3.633   8.307  0.0599 -0.4693 -0.3449
 3587SOL     OW22219   1.287   0.797   4.901  0.4419 -0.4530 -0.1831
 3587SOL    HW122220   1.270   0.883   4.863 -1.6344 -0.5756  0.4773
 3587SOL    HW222221   1.233   0.781   4.979  0.7957  0.1021  0.1740
 3588SOL     OW22222   0.749   0.168  13.504  0.1639  0.0688  0.0991
 3588SOL    HW122223   0.711   0.136  13.586 -1.1471  1.0743 -0.1006
 3588SOL    HW222224   0.810   0.239  13.524  0.2434 -0.2684  1.0104
 3589SOL     OW22225   4.449   3.752  13.615  0.0863  0.0055 -0.0627
 3589SOL    HW122226   4.470   3.725  13.526  0.6333 -0.0384  0.0815
 3589SOL    HW222227   4.376   3.806  13.583  0.6259  0.4931 -0.4583
 3590SOL     OW22228   3.294   3.420   6.413 -0.1006  0.5035 -0.2500
 3590SOL    HW122229   3.229   3.465   6.467  1.8225  3.2218 -0.1751
 3590SOL    HW222230   3.328   3.498   6.369 -0.5762 -0.9357 -3.1430
 3591SOL     OW22231   2.827   3.589   2.441  0.0654  0.6703  0.3221
 3591SOL    HW122232   2.833   3.658   2.374  1.6237 -0.7863 -1.0589
 3591SOL    HW222233   2.896   3.533   2.405 -0.5787  0.4109 -0.5181
 3592SOL     OW22234   3.715   1.535   5.711  0.0176  0.0266 -0.1343
 3592SOL    HW122235   3.774   1.586   5.768  0.5365  1.3414 -1.8590
 3592SOL    HW222236   3.668   1.597   5.655 -0.2263 -0.3846 -0.3852
 3593SOL     OW22237   0.875   2.927   6.179 -0.5046 -0.3483 -0.4222
 3593SOL    HW122238   0.936   2.913   6.107  1.0840 -0.5661  0.9878
 3593SOL    HW222239   0.808   2.868   6.144  0.8655 -1.7945 -0.6054
 3594SOL     OW22240   3.060   1.557   7.595  0.2425 -0.2622 -0.1520
 3594SOL    HW122241   3.029   1.578   7.683  1.3023 -1.4839  0.4993
 3594SOL    HW222242   3.101   1.639   7.566  2.1041 -1.2285 -0.2332
 3595SOL     OW22243   3.508   1.352   3.725 -0.2114 -0.2621  0.0160
 3595SOL    HW122244   3.490   1.381   3.815  0.4273  1.3414 -0.3634
 3595SOL    HW222245   3.419   1.358   3.688 -0.7385  0.2301  1.3653
 3596SOL     OW22246   4.616   4.128   6.625 -0.5903 -0.6122  0.2212
 3596SOL    HW122247   4.578   4.127   6.537  0.8730  0.0652 -0.4160
 3596SOL    HW222248   4.587   4.213   6.660  0.5573 -0.0993 -0.0605
 3597SOL     OW22249   3.505   1.167  11.658 -0.4130 -0.0723 -0.1357
 3597SOL    HW122250   3.432   1.109  11.678 -0.5344 -0.1060 -0.6799
 3597SOL    HW222251   3.488   1.229  11.729  1.3022  0.3947 -0.1209
 3598SOL     OW22252   3.179   2.461   4.667  0.7297 -0.3314 -0.4650
 3598SOL    HW122253   3.085   2.449   4.655  0.7837  0.9591 -2.1641
 3598SOL    HW222254   3.172   2.529   4.733 -0.0672  1.2384 -2.1800
 3599SOL     OW22255   2.727   4.147  13.685 -0.7651 -0.2676  0.1018
 3599SOL    HW122256   2.667   4.208  13.727 -0.9726  0.7190 -1.6279
 3599SOL    HW222257   2.667   4.122  13.615  0.3601 -1.7146 -0.3456
 3600SOL     OW22258   3.578   4.280   4.813 -0.3811  0.4529  0.0170
 3600SOL    HW122259   3.514   4.342   4.780 -1.3881 -1.3110 -1.3491
 3600SOL    HW222260   3.601   4.235   4.732 -0.3106 -2.2894  1.5208
 3601SOL     OW22261   2.869   2.109   8.942 -0.2771  0.2920 -0.0401
 3601SOL    HW122262   2.792   2.052   8.941 -1.2040  1.5404 -0.3351
 3601SOL    HW222263   2.931   2.067   8.883  1.4812  1.4819  0.9610
 3602SOL     OW22264   3.768   1.978   6.301  0.3809 -0.1511 -0.1121
 3602SOL    HW122265   3.817   1.985   6.219 -1.7847  0.6333 -1.3336
 3602SOL    HW222266   3.829   1.929   6.358  1.5907  0.6672 -0.6908
 3603SOL     OW22267   3.977   1.156   9.381  1.1513 -0.1525 -0.2914
 3603SOL    HW122268   4.036   1.083   9.403 -0.3852 -1.5306 -0.7328
 3603SOL    HW222269   3.923   1.168   9.459  1.2492 -2.0508  0.0753
 3604SOL     OW22270   0.825   1.234  14.035  0.4053  0.3028  0.2594
 3604SOL    HW122271   0.848   1.173  13.965  1.9677 -1.5152  2.3512
 3604SOL    HW222272   0.912   1.241  14.076  1.5401  0.8479 -2.2604
 3605SOL     OW22273   3.540   2.537   5.069  0.0314 -0.1774  0.4251
 3605SOL    HW122274   3.584   2.538   5.154 -1.5682  1.7293  1.2189
 3605SOL    HW222275   3.600   2.566   5.000 -1.2660 -1.9263 -1.4768
 3606SOL     OW22276   3.891   2.012   6.751  0.4805  0.2149  0.4400
 3606SOL    HW122277   3.909   2.067   6.675 -1.6282 -0.5142 -0.5894
 3606SOL    HW222278   3.909   2.062   6.831  2.4347 -1.4791  1.0630
 3607SOL     OW22279   2.462   0.029   7.055  0.2836 -0.0202 -0.3723
 3607SOL    HW122280   2.547   0.062   7.024  0.0865  0.5453 -0.3151
 3607SOL    HW222281   2.410   0.048   6.976  1.6980 -1.0207 -1.5469
 3608SOL     OW22282   2.182   4.351   3.976 -0.1246 -0.1707  0.3300
 3608SOL    HW122283   2.098   4.395   3.964 -0.1966 -1.1250 -2.7561
 3608SOL    HW222284   2.164   4.272   3.924  2.0211  0.2860 -1.1033
 3609SOL     OW22285   1.155   3.418  14.067  0.1371 -0.1843 -0.2263
 3609SOL    HW122286   1.170   3.487  14.002  0.2992 -1.3093 -1.3784
 3609SOL    HW222287   1.166   3.345  14.006  1.1498 -0.8505  0.7635
 3610SOL     OW22288   1.930   0.020   0.549 -0.5061 -0.2631 -0.2221
 3610SOL    HW122289   1.869   0.077   0.595 -2.7230 -1.7224 -1.3345
 3610SOL    HW222290   1.888   0.028   0.463 -3.7637 -0.7285  1.3426
 3611SOL     OW22291   4.673   4.271  10.691  0.0208 -0.0051  0.7797
 3611SOL    HW122292   4.658   4.203  10.757  1.7385 -0.3289  0.8293
 3611SOL    HW222293   0.032   4.240  10.651  0.8602  1.4242  1.3909
 3612SOL     OW22294   0.101   2.383   3.364 -0.2189 -0.1911 -0.5772
 3612SOL    HW122295   0.037   2.319   3.333 -0.9464  0.6229 -0.7889
 3612SOL    HW222296   0.078   2.458   3.308 -0.2652  0.5012  0.3583
 3613SOL     OW22297   3.954   4.261   1.032 -0.4893 -0.1379  0.0156
 3613SOL    HW122298   4.041   4.302   1.030 -0.7190  0.2533 -2.0009
 3613SOL    HW222299   3.969   4.237   1.123 -3.4290  0.1926  0.5643
 3614SOL     OW22300   0.797   4.193  16.654 -0.0058  0.3383 -0.5359
 3614SOL    HW122301   0.891   4.199  16.636  0.0414  1.4144  0.0273
 3614SOL    HW222302   0.752   4.221  16.574 -0.0107 -0.4788 -0.8152
 3615SOL     OW22303   0.468   4.054   5.572  0.5391  0.0446 -0.4607
 3615SOL    HW122304   0.407   4.077   5.642 -1.6929 -1.7985 -1.7559
 3615SOL    HW222305   0.470   3.958   5.570 -2.3603 -0.0286 -0.3846
 3616SOL     OW22306   4.518   3.431   7.240 -0.6624 -0.1380 -0.1530
 3616SOL    HW122307   4.583   3.392   7.182 -1.6184  0.0496 -1.3453
 3616SOL    HW222308   4.561   3.394   7.317 -0.1954  0.4055 -0.1494
 3617SOL     OW22309   1.010   0.215   9.033  0.4838 -0.0298 -0.8369
 3617SOL    HW122310   0.989   0.122   9.036  0.4511 -0.0446 -1.5088
 3617SOL    HW222311   0.922   0.251   9.016 -0.1534 -0.5951  1.2845
 3618SOL     OW22312   3.625   2.818   6.415 -0.1615  0.5984 -0.2487
 3618SOL    HW122313   3.626   2.822   6.320 -0.1749 -0.6998 -0.2937
 3618SOL    HW222314   3.677   2.897   6.432  0.4009 -0.0924  1.2266
 3619SOL     OW22315   2.693   3.360   9.959 -0.5154  0.1063 -0.5487
 3619SOL    HW122316   2.618   3.418   9.974 -0.7562 -0.4165  0.2724
 3619SOL    HW222317   2.677   3.305   9.883 -1.2163 -0.3305 -0.0853
 3620SOL     OW22318   3.207   1.901   5.267  0.7972 -0.0502  0.5004
 3620SOL    HW122319   3.148   1.838   5.307  0.4065 -0.6140 -0.9537
 3620SOL    HW222320   3.198   1.882   5.174 -1.1438  1.7498  0.3292
 3621SOL     OW22321   3.008   3.364  12.695 -0.2219  0.8243  0.2544
 3621SOL    HW122322   3.015   3.396  12.605 -0.9539  0.2716  0.0052
 3621SOL    HW222323   2.924   3.404  12.715 -0.7001 -0.3790  0.6438
 3622SOL     OW22324   3.191   2.513  16.413  0.0379  0.1446  0.4412
 3622SOL    HW122325   3.194   2.523  16.508 -0.4757  0.6043  0.4080
 3622SOL    HW222326   3.110   2.462  16.405  1.0152 -1.1472 -1.3123
 3623SOL     OW22327   0.973   4.647  11.791  0.4703  0.3425  0.0339
 3623SOL    HW122328   1.024   4.593  11.851  0.7547  0.3564 -0.1946
 3623SOL    HW222329   0.887   4.610  11.811  0.5401  0.5648  0.7629
 3624SOL     OW22330   4.372   3.037   7.811  0.6239 -0.6380  0.4706
 3624SOL    HW122331   4.371   3.068   7.901 -2.7500  1.1817 -0.1840
 3624SOL    HW222332   4.286   3.058   7.774  0.0686 -2.2964  0.7808
 3625SOL     OW22333   3.605   3.626   7.826 -0.6044  0.2416 -0.6508
 3625SOL    HW122334   3.531   3.591   7.777  0.5932 -0.4223 -1.9826
 3625SOL    HW222335   3.666   3.625   7.752 -1.9059 -0.8142 -1.7090
 3626SOL     OW22336   2.353   3.331  16.646 -0.8147  0.2404 -0.4508
 3626SOL    HW122337   2.414   3.378  16.703  0.0441 -2.8296  1.1563
 3626SOL    HW222338   2.382   3.239  16.647 -1.2863  0.0907 -0.3716
 3627SOL     OW22339   0.556   1.388   6.445  0.4487  0.3140 -0.6998
 3627SOL    HW122340   0.605   1.406   6.525 -0.6582 -0.0340  0.0511
 3627SOL    HW222341   0.625   1.345   6.393  0.7403  0.4502 -0.4241
 3628SOL     OW22342   2.117   3.401   9.630  0.4323 -0.1317 -0.1111
 3628SOL    HW122343   2.158   3.482   9.599 -0.2310 -0.1621 -1.0881
 3628SOL    HW222344   2.192   3.359   9.670 -0.8796 -2.1534  0.2364
 3629SOL     OW22345   4.147   2.080   4.273  0.1256 -0.0690  0.6724
 3629SOL    HW122346   4.222   2.022   4.289 -1.5045 -1.8823  1.7909
 3629SOL    HW222347   4.183   2.129   4.199  0.7743  2.3026  2.5353
 3630SOL     OW22348   3.606   4.099   6.755 -0.3994  0.6128  0.4891
 3630SOL    HW122349   3.547   4.107   6.680  0.6551  0.5043 -0.3555
 3630SOL    HW222350   3.593   4.005   6.768 -0.2170  0.4621 -0.4467
 3631SOL     OW22351   4.158   2.141  11.239  0.0899 -0.0384  0.4309
 3631SOL    HW122352   4.164   2.169  11.148  0.9298  2.2637  1.1885
 3631SOL    HW222353   4.156   2.223  11.289  2.4831  0.1583  0.1759
 3632SOL     OW22354   0.690   2.700   5.047  0.5421 -0.1592  0.4328
 3632SOL    HW122355   0.646   2.735   5.125 -0.2617 -1.3486  0.5168
 3632SOL    HW222356   0.735   2.621   5.078  0.8026 -0.4106 -0.5793
 3633SOL     OW22357   1.248   4.324   5.016  0.8390  0.6655 -0.0151
 3633SOL    HW122358   1.236   4.399   4.957 -0.2272 -0.0922 -0.7569
 3633SOL    HW222359   1.281   4.372   5.092  2.8968 -0.3512 -0.2843
 3634SOL     OW22360   1.084   4.577   0.838 -0.3348  0.0875 -0.8041
 3634SOL    HW122361   1.122   4.521   0.906 -0.0866  1.8279  0.5003
 3634SOL    HW222362   1.125   4.661   0.857  0.5120 -0.1549 -1.5535
 3635SOL     OW22363   3.241   4.642   2.404 -0.5559 -0.1590 -0.1895
 3635SOL    HW122364   3.148   4.646   2.427 -0.1944  2.6661  0.8075
 3635SOL    HW222365   3.283   4.686   2.478 -0.7625 -0.1172 -0.0960
 3636SOL     OW22366   1.678   1.357   3.714 -0.7842 -0.1793  0.4382
 3636SOL    HW122367   1.638   1.412   3.782  0.7896  1.0006  0.3963
 3636SOL    HW222368   1.771   1.378   3.726 -0.9823  1.9384 -1.7753
 3637SOL     OW22369   0.680   0.908   5.075 -0.0706  0.9058  0.1685
 3637SOL    HW122370   0.656   0.949   4.992 -0.7580 -0.2576 -0.2033
 3637SOL    HW222371   0.598   0.921   5.123  0.9937  2.2081  1.6507
 3638SOL     OW22372   3.735   1.214   7.445  0.2920  0.0061 -0.1260
 3638SOL    HW122373   3.717   1.286   7.505 -0.9909 -0.7633  0.4244
 3638SOL    HW222374   3.657   1.162   7.465 -0.6599  0.9250 -1.4752
 3639SOL     OW22375   3.698   4.206  16.637 -0.4914  0.3424  0.1215
 3639SOL    HW122376   3.665   4.118  16.650  0.3614 -0.1258 -0.8342
 3639SOL    HW222377   3.792   4.193  16.626 -0.7808 -0.4290 -1.4037
 3640SOL     OW22378   1.416   3.572   4.522 -0.6976  0.2834  0.3811
 3640SOL    HW122379   1.503   3.540   4.545 -0.9057 -0.7494 -0.2665
 3640SOL    HW222380   1.373   3.583   4.606 -0.2065 -0.2898  0.7042
 3641SOL     OW22381   0.284   2.188  12.118 -0.3999  0.0821 -0.0198
 3641SOL    HW122382   0.367   2.209  12.075  1.9067 -0.8573  3.9926
 3641SOL    HW222383   0.309   2.104  12.156 -1.6116  0.0095  0.6113
 3642SOL     OW22384   3.692   3.522  12.794  0.4237 -0.2664  0.1963
 3642SOL    HW122385   3.721   3.598  12.744 -0.6567 -2.0790 -3.2170
 3642SOL    HW222386   3.707   3.454  12.728  0.5088 -1.7400  1.7303
 3643SOL     OW22387   3.532   4.274   3.850 -0.3929 -0.2654  0.1348
 3643SOL    HW122388   3.594   4.285   3.922 -0.3845 -0.4530  0.1564
 3643SOL    HW222389   3.565   4.337   3.786 -1.8724 -1.8347 -2.1498
 3644SOL     OW22390   3.290   4.687  11.264 -0.2061 -0.3360 -0.6654
 3644SOL    HW122391   3.300   0.046  11.215  1.2583  0.6626  1.3247
 3644SOL    HW222392   3.363   4.637  11.229 -1.4969 -1.8640 -1.2079
 3645SOL     OW22393   2.756   4.371   5.005  0.2551  0.3937  0.7199
 3645SOL    HW122394   2.757   4.362   4.910 -0.5437 -1.9837  0.9392
 3645SOL    HW222395   2.760   4.467   5.005  2.6564  0.2919 -0.7205
 3646SOL     OW22396   2.654   2.205   5.522 -0.1358  0.0694 -0.3978
 3646SOL    HW122397   2.663   2.301   5.525 -1.4387  0.1761 -0.0143
 3646SOL    HW222398   2.743   2.187   5.491 -0.1100 -0.3350 -0.0858
 3647SOL     OW22399   3.516   0.311   4.808 -0.2274  0.0261  0.1652
 3647SOL    HW122400   3.545   0.226   4.838  0.8323 -0.3180 -1.8621
 3647SOL    HW222401   3.586   0.372   4.833  0.4789 -0.1079 -1.5058
 3648SOL     OW22402   2.170   2.908   8.294 -0.3799  0.6755  0.6602
 3648SOL    HW122403   2.089   2.872   8.257  0.7133  0.3057 -1.4233
 3648SOL    HW222404   2.203   2.943   8.211  0.0141 -2.3305 -0.4337
 3649SOL     OW22405   1.970   0.107  13.175  0.3033 -0.1914  0.1113
 3649SOL    HW122406   1.943   0.159  13.251 -0.9164 -1.7575  0.7519
 3649SOL    HW222407   2.058   0.086  13.207  0.8430  1.9703  0.0432
 3650SOL     OW22408   1.226   2.915  14.824  0.2694 -0.1021  0.2679
 3650SOL    HW122409   1.312   2.925  14.864  0.4790  1.7050 -0.6465
 3650SOL    HW222410   1.248   2.825  14.799 -0.8950  0.2688 -2.0704
 3651SOL     OW22411   3.929   1.862   7.396  0.1733 -0.3411 -0.1835
 3651SOL    HW122412   4.000   1.841   7.335 -0.7125  1.2239 -1.7387
 3651SOL    HW222413   3.855   1.868   7.336  0.9847  0.2196 -1.1304
 3652SOL     OW22414   0.326   0.913   1.153 -0.0277 -0.4401  0.0001
 3652SOL    HW122415   0.405   0.860   1.168 -0.4859 -0.8200  1.0188
 3652SOL    HW222416   0.352   1.005   1.154  2.4921 -1.1489  1.7311
 3653SOL     OW22417   4.681   0.977   5.722  0.5435 -0.0271  0.4514
 3653SOL    HW122418   4.586   0.977   5.728  0.3838  1.8689 -2.2101
 3653SOL    HW222419   4.687   1.069   5.695  0.1874  0.2382  1.2745
 3654SOL     OW22420   0.243   2.236   2.432  0.3104 -0.0502  0.2296
 3654SOL    HW122421   0.191   2.183   2.492  1.1457 -0.6219  0.4485
 3654SOL    HW222422   0.206   2.204   2.349 -0.9172  0.2527  0.6660
 3655SOL     OW22423   2.175   3.767  15.369  0.3547 -0.7928  0.1648
 3655SOL    HW122424   2.241   3.836  15.364 -1.1946  0.6463 -0.5396
 3655SOL    HW222425   2.197   3.711  15.295 -1.9219  0.7225 -1.6424
 3656SOL     OW22426   1.796   4.539  11.801  0.1769 -0.2391 -0.2709
 3656SOL    HW122427   1.847   4.528  11.881  0.9859 -0.7229 -0.8472
 3656SOL    HW222428   1.837   4.618  11.765 -0.5283 -0.0465 -0.6487
 3657SOL     OW22429   4.220   2.240   8.188 -0.5428  0.1777 -0.2881
 3657SOL    HW122430   4.129   2.245   8.219  0.0546  1.0571  1.2519
 3657SOL    HW222431   4.263   2.321   8.211 -1.9447  0.6035  0.8400
 3658SOL     OW22432   0.411   2.643  11.289 -0.2104  0.1893  0.0416
 3658SOL    HW122433   0.426   2.559  11.332  0.2812  0.2582  0.0116
 3658SOL    HW222434   0.469   2.625  11.215  2.0378  0.8451  1.6218
 3659SOL     OW22435   0.561   2.687   8.981 -0.5360  0.5899  0.1668
 3659SOL    HW122436   0.616   2.619   9.020  1.6271  2.6414  0.6793
 3659SOL    HW222437   0.474   2.663   9.014 -0.3364 -0.4437 -0.0656
 3660SOL     OW22438   0.485   3.404   3.616  0.2290 -0.3856 -0.1864
 3660SOL    HW122439   0.445   3.391   3.530  1.5644 -1.6843 -0.6143
 3660SOL    HW222440   0.476   3.315   3.651  1.1991  0.3559  1.9123
 3661SOL     OW22441   2.870   1.905  16.864  0.2170  0.0579  0.1464
 3661SOL    HW122442   2.839   1.994  16.882 -2.5109 -1.1507  1.4470
 3661SOL    HW222443   2.795   1.848  16.881  1.7868 -1.5469  1.5437
 3662SOL     OW22444   1.930   3.819   5.314  0.4759 -0.1073  0.4268
 3662SOL    HW122445   1.843   3.817   5.353 -0.2893 -1.3360 -1.3086
 3662SOL    HW222446   1.925   3.868   5.232 -0.9090 -0.0980  0.5090
 3663SOL     OW22447   1.823   0.018  16.629 -0.2970  0.3685 -0.3136
 3663SOL    HW122448   1.763   4.720  16.558  0.2075 -0.1811 -0.5798
 3663SOL    HW222449   1.869   4.659  16.646 -1.8211 -0.5720 -0.7997
 3664SOL     OW22450   2.810   3.581   9.622 -0.6436 -0.4631 -0.5258
 3664SOL    HW122451   2.838   3.668   9.593  0.6213 -1.3828 -2.1266
 3664SOL    HW222452   2.823   3.597   9.715  2.6781  1.8205 -1.3815
 3665SOL     OW22453   0.811   4.272   0.720 -0.3317 -0.1456 -0.0548
 3665SOL    HW122454   0.895   4.316   0.709 -0.4501  0.1687  0.3024
 3665SOL    HW222455   0.828   4.191   0.673  0.5487 -0.4274  0.7628
 3666SOL     OW22456   3.622   3.835  12.230 -0.0896  0.0943  0.0831
 3666SOL    HW122457   3.685   3.766  12.250 -1.2814 -1.4036 -1.2668
 3666SOL    HW222458   3.673   3.882  12.165  0.0329 -2.3532 -1.6039
 3667SOL     OW22459   3.183   3.857  12.505 -0.3837 -0.2054 -0.2264
 3667SOL    HW122460   3.195   3.770  12.542 -2.4787 -0.3301  0.1837
 3667SOL    HW222461   3.265   3.881  12.461 -0.8646 -2.6520 -2.4537
 3668SOL     OW22462   0.375   4.014   6.515 -0.0695  0.1600 -0.3447
 3668SOL    HW122463   0.357   4.050   6.601 -0.2955 -1.9295  0.4918
 3668SOL    HW222464   0.321   4.070   6.459  4.2342  1.3596 -3.3364
 3669SOL     OW22465   2.917   3.809   3.001  0.7961  0.0563 -0.3212
 3669SOL    HW122466   2.996   3.839   2.956  0.1331  0.8394 -0.9869
 3669SOL    HW222467   2.920   3.851   3.088  0.4201  1.4992 -0.9917
 3670SOL     OW22468   1.299   3.590   7.180  0.4089  0.2102 -0.1302
 3670SOL    HW122469   1.304   3.531   7.105  1.3620 -0.6460  0.6053
 3670SOL    HW222470   1.393   3.591   7.200  0.1712 -1.0411  0.9818
 3671SOL     OW22471   2.316   2.406   2.694  0.2637 -0.1097 -0.3503
 3671SOL    HW122472   2.380   2.338   2.717 -0.6595 -1.0353 -0.5380
 3671SOL    HW222473   2.242   2.349   2.674  1.8982 -2.8548  1.3191
 3672SOL     OW22474   1.321   1.740  11.776 -0.0645  0.2035 -0.3842
 3672SOL    HW122475   1.336   1.807  11.843 -2.3340 -0.6298  0.9805
 3672SOL    HW222476   1.403   1.693  11.783  0.1993  0.7804  0.4163
 3673SOL     OW22477   0.794   0.964   6.734  0.3858  0.1790 -0.4943
 3673SOL    HW122478   0.884   0.993   6.720  1.8956 -2.7129  3.2396
 3673SOL    HW222479   0.753   0.994   6.653  2.1788  5.1209  0.4178
 3674SOL     OW22480   3.185   1.525   5.655 -0.0813 -0.0823 -0.1574
 3674SOL    HW122481   3.210   1.433   5.666 -0.8989 -0.1648  1.1165
 3674SOL    HW222482   3.264   1.568   5.688 -0.1315 -0.3472  0.3187
 3675SOL     OW22483   0.029   4.590   1.985 -0.5025  0.4229  0.2839
 3675SOL    HW122484   0.023   4.607   1.891  0.5339 -0.9392 -0.0326
 3675SOL    HW222485   0.047   4.679   2.013 -1.4625  0.8014 -0.3132
 3676SOL     OW22486   1.390   0.172   5.508 -0.2530  0.1035  0.0849
 3676SOL    HW122487   1.467   0.228   5.498 -0.5270  0.4926  0.1455
 3676SOL    HW222488   1.369   0.186   5.600 -0.1824  1.1792 -0.0613
 3677SOL     OW22489   2.885   4.286   6.113  0.2799 -0.2309 -0.1709
 3677SOL    HW122490   2.822   4.252   6.177  1.2246 -0.5218  0.5990
 3677SOL    HW222491   2.929   4.356   6.161  0.5138 -0.0881 -0.5897
 3678SOL     OW22492   0.309   1.235   8.148 -0.4648  0.1964 -0.0036
 3678SOL    HW122493   0.361   1.192   8.080  0.6961  0.5027  0.6777
 3678SOL    HW222494   0.254   1.158   8.162  0.9003 -0.8709 -0.5226
 3679SOL     OW22495   1.950   1.052   3.760  0.3355  0.3831  0.3687
 3679SOL    HW122496   1.888   1.015   3.824  1.6558 -2.4519  0.0279
 3679SOL    HW222497   1.912   1.003   3.688  0.3801  1.1094 -0.1426
 3680SOL     OW22498   3.264   0.204   8.178  0.0201 -1.0852 -0.2078
 3680SOL    HW122499   3.346   0.254   8.178 -0.9789  0.5762  1.1276
 3680SOL    HW222500   3.201   0.258   8.130  0.8124  0.9342  0.9836
 3681SOL     OW22501   1.549   1.825   3.263 -0.2282 -0.3916 -0.7865
 3681SOL    HW122502   1.542   1.875   3.344  0.6943  0.8406 -1.4805
 3681SOL    HW222503   1.642   1.805   3.261  0.2126  1.5165  0.9451
 3682SOL     OW22504   4.300   3.214   1.129  0.3069 -0.0213 -0.0922
 3682SOL    HW122505   4.323   3.292   1.079 -1.4786 -0.4534 -1.6055
 3682SOL    HW222506   4.361   3.214   1.203 -1.5319  1.2385  1.4464
 3683SOL     OW22507   3.987   2.889   1.196 -0.0877  0.0196 -0.1775
 3683SOL    HW122508   4.038   2.934   1.129  0.7597 -0.6599  0.0191
 3683SOL    HW222509   3.972   2.950   1.269 -1.1223 -0.2343 -0.1671
 3684SOL     OW22510   2.519   1.200  14.270  0.1857 -0.3708 -0.5587
 3684SOL    HW122511   2.458   1.163  14.333  0.4082  0.3450  0.0866
 3684SOL    HW222512   2.483   1.287  14.257 -2.6614 -1.6275 -0.9760
 3685SOL     OW22513   0.195   3.771   6.775  0.4515 -0.0481 -0.5217
 3685SOL    HW122514   0.110   3.728   6.786 -0.1731  0.8793 -1.7825
 3685SOL    HW222515   0.168   3.857   6.743 -1.1820 -0.2563  0.2572
 3686SOL     OW22516   1.734   1.975   5.635 -0.9360  0.1853  0.1468
 3686SOL    HW122517   1.675   1.958   5.708  0.4762 -0.8729  1.0610
 3686SOL    HW222518   1.816   1.992   5.682 -1.0699 -0.5855  0.6511
 3687SOL     OW22519   4.002   4.556   7.951 -0.3440  0.8217  0.1372
 3687SOL    HW122520   3.910   4.566   7.974 -0.1186  0.1115  1.3783
 3687SOL    HW222521   4.052   4.562   8.033  1.3866  1.8488 -0.9814
 3688SOL     OW22522   3.918   1.429  12.574  0.9439 -0.1281 -0.1424
 3688SOL    HW122523   3.830   1.450  12.546  0.9411  0.3284  0.2178
 3688SOL    HW222524   3.949   1.504  12.624 -0.4170  0.8774 -0.8304
 3689SOL     OW22525   2.844   0.753   3.845 -0.4388 -0.0500 -0.0311
 3689SOL    HW122526   2.887   0.811   3.909 -1.5804 -0.5048  1.1456
 3689SOL    HW222527   2.765   0.806   3.836 -0.0939  0.0942 -2.2331
 3690SOL     OW22528   0.622   2.611   8.109  0.3356 -0.7149  0.3590
 3690SOL    HW122529   0.678   2.650   8.176  1.3576 -1.4146 -0.0825
 3690SOL    HW222530   0.594   2.686   8.057  0.1642 -0.6196  0.5944
 3691SOL     OW22531   0.988   1.206   3.830 -0.2272 -0.1855 -0.4871
 3691SOL    HW122532   0.936   1.208   3.750  0.5972 -0.1481 -1.0202
 3691SOL    HW222533   1.046   1.281   3.823 -2.1688  1.5476  1.8280
 3692SOL     OW22534   3.941   3.044   6.193  0.3863 -0.0174  0.2726
 3692SOL    HW122535   3.859   3.084   6.223  0.1557 -0.8997  0.8163
 3692SOL    HW222536   4.003   3.055   6.265  1.2993  0.8789 -0.6280
 3693SOL     OW22537   0.807   4.611  11.539 -0.4465  0.7505  0.0737
 3693SOL    HW122538   0.734   4.664  11.569 -0.5266 -0.0663  1.2912
 3693SOL    HW222539   0.868   4.627  11.611 -2.5654  0.1249  1.9747
 3694SOL     OW22540   0.756   2.670   6.511  0.8978 -0.0164 -0.3621
 3694SOL    HW122541   0.744   2.713   6.596  2.1052 -1.7171  0.6674
 3694SOL    HW222542   0.697   2.595   6.522  0.8161  0.2221  0.8012
 3695SOL     OW22543   2.864   0.773  16.690  0.3237 -0.1496  0.2983
 3695SOL    HW122544   2.814   0.824  16.626 -1.2344 -0.4727  1.2739
 3695SOL    HW222545   2.951   0.781  16.651  1.1505  2.4273  2.6950
 3696SOL     OW22546   3.590   0.145  14.598 -0.1666  0.1431 -0.2486
 3696SOL    HW122547   3.556   0.113  14.682  0.4276 -0.9139 -0.4164
 3696SOL    HW222548   3.611   0.061  14.557  2.3097  0.6288  0.0282
 3697SOL     OW22549   3.240   0.966   6.164 -0.3275  0.3226 -0.0051
 3697SOL    HW122550   3.224   0.971   6.070  1.5925 -1.4472 -0.4129
 3697SOL    HW222551   3.333   0.984   6.172 -0.8516  3.3221 -0.5716
 3698SOL     OW22552   3.081   2.681   5.056  0.5797 -0.4415  0.1878
 3698SOL    HW122553   3.149   2.684   5.123  0.0992 -0.8774  0.6864
 3698SOL    HW222554   3.123   2.738   4.991  0.2007 -1.9514 -1.3888
 3699SOL     OW22555   2.578   3.038   3.953 -0.8801  0.5316  0.4425
 3699SOL    HW122556   2.603   2.967   3.894 -0.1390  2.0353 -1.0665
 3699SOL    HW222557   2.573   3.115   3.895  0.6203 -0.4687 -1.0195
 3700SOL     OW22558   2.612   1.018  16.647 -0.0430  0.4986  0.5367
 3700SOL    HW122559   2.556   0.942  16.659  0.1701 -0.0227 -1.7937
 3700SOL    HW222560   2.661   1.013  16.729  2.1148  1.3437 -0.7045
 3701SOL     OW22561   4.470   4.553   4.867 -0.5677  0.5473  0.0594
 3701SOL    HW122562   4.555   4.537   4.827 -1.0886 -0.9541 -0.4379
 3701SOL    HW222563   4.508   4.568   4.954 -0.9539  1.7084  0.0312
 3702SOL     OW22564   1.275   1.740   9.749  0.1761 -0.5656  0.5820
 3702SOL    HW122565   1.350   1.797   9.731  1.0083 -1.6367  0.7021
 3702SOL    HW222566   1.265   1.759   9.843 -0.0180 -0.7926  0.6062
 3703SOL     OW22567   2.313   1.887   4.908  0.3637 -0.2811 -0.8479
 3703SOL    HW122568   2.275   1.851   4.829  2.6537  1.5527 -2.8124
 3703SOL    HW222569   2.283   1.827   4.976  0.2247  1.2625  0.4704
 3704SOL     OW22570   2.078   4.642   6.850 -0.4287 -0.2021  0.6553
 3704SOL    HW122571   2.140   4.710   6.877 -0.3593 -0.5663  1.4014
 3704SOL    HW222572   2.036   4.617   6.932 -2.0246 -0.2997 -0.1981
 3705SOL     OW22573   0.947   2.610   0.886  0.0691 -0.7664 -0.6236
 3705SOL    HW122574   0.960   2.534   0.830 -1.5628 -0.1697 -1.8090
 3705SOL    HW222575   0.951   2.682   0.822  0.8617  0.6211  0.9770
 3706SOL     OW22576   3.518   2.115   8.062 -0.2763  0.2337  0.2972
 3706SOL    HW122577   3.607   2.141   8.036 -0.0213 -0.8453  0.0697
 3706SOL    HW222578   3.513   2.022   8.041  1.4508 -0.2584  1.9220
 3707SOL     OW22579   2.503   2.139  16.735 -1.1091 -0.2164 -0.4705
 3707SOL    HW122580   2.519   2.127  16.828  2.2394 -0.9467 -1.1351
 3707SOL    HW222581   2.561   2.213  16.717  0.0865 -0.8484  0.7411
 3708SOL     OW22582   3.835   2.502   7.615 -0.4349  0.1717 -0.1489
 3708SOL    HW122583   3.909   2.443   7.626  1.5001  2.0043 -3.4263
 3708SOL    HW222584   3.846   2.546   7.700 -0.2638  1.4730 -0.8393
 3709SOL     OW22585   1.815   3.676  13.073  0.2536 -0.0974 -0.0693
 3709SOL    HW122586   1.810   3.616  13.148 -1.9174 -0.5981 -0.6165
 3709SOL    HW222587   1.910   3.684  13.063  0.2408  1.8110  1.4103
 3710SOL     OW22588   1.995   0.148   6.428  0.8914 -0.2067  0.1680
 3710SOL    HW122589   2.046   0.152   6.347 -0.4282 -0.8071 -0.6816
 3710SOL    HW222590   2.030   0.073   6.477  0.0883 -1.0627 -0.5811
 3711SOL     OW22591   4.576   4.437   8.633  0.1623  0.0327 -0.0696
 3711SOL    HW122592   4.530   4.412   8.713 -0.3544 -2.8257 -1.2411
 3711SOL    HW222593   4.663   4.428   8.672  0.5969 -0.1521 -1.0664
 3712SOL     OW22594   1.768   4.717   9.673 -0.2313  0.1409 -0.0818
 3712SOL    HW122595   1.730   0.038   9.597  0.3905  0.9800  0.0962
 3712SOL    HW222596   1.692   4.673   9.712  0.4821  0.9404  2.2242
 3713SOL     OW22597   2.561   0.687   5.215  0.1792 -0.1272  0.3270
 3713SOL    HW122598   2.478   0.676   5.262  0.0982 -0.3339  0.1338
 3713SOL    HW222599   2.622   0.694   5.288  0.6570 -2.6054  0.1874
 3714SOL     OW22600   0.683   2.269   5.290 -0.0499 -0.5818 -0.1989
 3714SOL    HW122601   0.647   2.184   5.263 -0.9954 -0.8530  1.8641
 3714SOL    HW222602   0.753   2.238   5.348 -0.6754 -1.6733 -0.0299
 3715SOL     OW22603   0.815   3.055   4.952  0.2578  0.1427 -0.7862
 3715SOL    HW122604   0.720   3.051   4.966  0.4082 -0.4540  0.0104
 3715SOL    HW222605   0.817   3.150   4.936  3.4022 -0.0075 -1.1551
 3716SOL     OW22606   0.966   2.929   3.538 -0.1548 -0.1449  0.5800
 3716SOL    HW122607   1.008   3.004   3.580 -1.1757 -0.4362  2.1340
 3716SOL    HW222608   1.033   2.860   3.535 -1.5208 -1.4660  0.5972
 3717SOL     OW22609   0.215   0.579   0.720  0.3288 -0.0534  0.1946
 3717SOL    HW122610   0.199   0.566   0.814  2.3391 -0.5290  0.4680
 3717SOL    HW222611   0.193   0.670   0.698  0.1582 -0.2625 -0.4785
 3718SOL     OW22612   3.911   0.457   6.394 -0.2782  0.7370  0.1265
 3718SOL    HW122613   3.820   0.442   6.418  0.3157 -1.0362  1.3266
 3718SOL    HW222614   3.948   0.374   6.425  0.8079  0.2983 -2.3876
 3719SOL     OW22615   1.152   3.343   7.536 -0.0892  0.1418  0.4950
 3719SOL    HW122616   1.087   3.351   7.607  0.9576  3.2562  1.0762
 3719SOL    HW222617   1.207   3.421   7.541 -0.6911  0.5238  1.0883
 3720SOL     OW22618   0.291   1.356  15.007 -0.4403 -0.1296 -0.2510
 3720SOL    HW122619   0.284   1.439  15.053 -0.8048  0.2043 -0.9131
 3720SOL    HW222620   0.332   1.389  14.927  0.5218  2.4484  1.3261
 3721SOL     OW22621   3.869   3.924   3.518  0.6058  0.0352 -0.0566
 3721SOL    HW122622   3.863   3.912   3.613 -0.0319  1.7041  0.1063
 3721SOL    HW222623   3.780   3.900   3.491 -0.8787  2.9386  2.2670
 3722SOL     OW22624   0.411   4.630   0.094  1.1044 -0.6720 -0.1235
 3722SOL    HW122625   0.326   4.586   0.086  0.6424 -0.0155  1.1678
 3722SOL    HW222626   0.432   4.619   0.187 -2.6758 -2.5339  0.4817
 3723SOL     OW22627   2.226   2.971   6.223 -0.7098  0.3041 -0.0002
 3723SOL    HW122628   2.318   2.952   6.203 -0.6868 -0.9052  1.2629
 3723SOL    HW222629   2.233   3.066   6.234  0.8806  0.1528  0.3593
 3724SOL     OW22630   4.586   2.403   2.617 -0.0987 -0.2778  0.1269
 3724SOL    HW122631   4.577   2.445   2.532 -0.7405  0.6191  0.6382
 3724SOL    HW222632   4.664   2.444   2.654 -0.0136 -0.4918  0.1888
 3725SOL     OW22633   4.086   2.491   3.740  0.7327  0.3720 -0.4134
 3725SOL    HW122634   4.100   2.478   3.834  0.1042  1.4334 -0.1831
 3725SOL    HW222635   3.991   2.490   3.725  0.3614 -2.0378  2.0765
 3726SOL     OW22636   3.087   4.522   8.984  0.7738  0.0096 -0.4851
 3726SOL    HW122637   3.171   4.562   9.007 -0.9107  1.3472  3.4138
 3726SOL    HW222638   3.102   4.435   9.022 -1.6987  0.2630  1.1134
 3727SOL     OW22639   0.562   3.834   4.096 -0.2399 -0.3468  0.5317
 3727SOL    HW122640   0.470   3.838   4.067 -0.0672 -1.6438 -0.2255
 3727SOL    HW222641   0.583   3.911   4.149 -3.2614  0.2915  0.7944
 3728SOL     OW22642   2.007   4.499  10.389  0.2260  0.1275 -0.1145
 3728SOL    HW122643   2.093   4.479  10.352  0.2314 -0.9158  0.4485
 3728SOL    HW222644   1.981   4.409  10.408 -0.7725  0.1425 -1.4166
 3729SOL     OW22645   0.202   1.566  13.000 -0.7247 -0.5283 -0.1566
 3729SOL    HW122646   0.117   1.534  12.969 -0.4736 -1.0920 -0.2556
 3729SOL    HW222647   0.190   1.558  13.095  1.6925 -1.7294  0.0327
 3730SOL     OW22648   2.975   1.513   6.026  0.2983  0.1471 -0.2420
 3730SOL    HW122649   2.992   1.603   5.998  0.1798  0.4145  0.5511
 3730SOL    HW222650   3.054   1.492   6.076  0.5006 -1.0251 -1.0740
 3731SOL     OW22651   0.626   4.123   8.399  0.2047 -0.0723  0.5780
 3731SOL    HW122652   0.541   4.100   8.436  0.4479 -1.8819 -0.0189
 3731SOL    HW222653   0.667   4.147   8.482  1.6768 -1.5975  0.2763
 3732SOL     OW22654   0.365   0.279   9.175 -0.0775  0.5533  0.5718
 3732SOL    HW122655   0.377   0.308   9.265  0.1428  2.4027 -0.0725
 3732SOL    HW222656   0.303   0.207   9.187 -2.6761  2.6642 -0.2446
 3733SOL     OW22657   4.660   4.255   4.143 -0.2015 -0.3570  0.1484
 3733SOL    HW122658   4.629   4.343   4.167 -0.5010 -0.1599 -0.9599
 3733SOL    HW222659   4.578   4.214   4.114 -0.5838  1.4972 -1.3881
 3734SOL     OW22660   1.174   4.654  11.118  0.1233 -0.0689  0.2859
 3734SOL    HW122661   1.196   0.006  11.063 -1.1720 -0.2953 -0.5290
 3734SOL    HW222662   1.087   4.631  11.085 -0.9206  0.0446  2.9506
 3735SOL     OW22663   4.088   0.525   2.641 -0.6433 -0.3716 -0.0787
 3735SOL    HW122664   4.158   0.464   2.619  0.9518  0.6119  2.1905
 3735SOL    HW222665   4.011   0.471   2.659 -1.2078 -0.3468 -2.4069
 3736SOL     OW22666   2.977   1.236   0.030  0.0338 -0.1481 -0.2778
 3736SOL    HW122667   3.050   1.209   0.086 -1.1238  1.0722  1.7951
 3736SOL    HW222668   2.908   1.185   0.071 -0.8076  2.1427  1.0970
 3737SOL     OW22669   1.197   1.669  12.770 -0.3446 -0.4478  0.1241
 3737SOL    HW122670   1.281   1.710  12.749 -2.1647  3.0223 -0.3643
 3737SOL    HW222671   1.129   1.711  12.717  0.4634  0.2232 -0.3740
 3738SOL     OW22672   3.179   0.983   1.865 -0.3248  0.1279 -0.7830
 3738SOL    HW122673   3.107   0.973   1.803 -0.9877 -0.4809  0.0897
 3738SOL    HW222674   3.254   1.018   1.817  1.4856 -0.7208  1.4590
 3739SOL     OW22675   0.130   3.665   3.709  0.3736  0.0586 -0.4364
 3739SOL    HW122676   0.088   3.738   3.754 -0.1717 -0.5852  0.1047
 3739SOL    HW222677   0.080   3.639   3.632 -1.1044  0.5463  0.3467
 3740SOL     OW22678   3.931   2.225   8.200 -0.5101 -0.6969 -0.4280
 3740SOL    HW122679   3.894   2.204   8.115 -0.7687  0.9219 -0.7237
 3740SOL    HW222680   3.908   2.152   8.258  1.3194  1.6223  3.2030
 3741SOL     OW22681   1.137   2.635   5.116 -0.4678  0.2272  0.1365
 3741SOL    HW122682   1.126   2.593   5.201 -1.8319  4.0100  1.8056
 3741SOL    HW222683   1.217   2.686   5.128  0.1024 -1.1630  2.1774
 3742SOL     OW22684   2.062   3.069  13.801 -0.3575  0.0044 -0.3534
 3742SOL    HW122685   2.020   3.056  13.887  0.6306  0.5906  0.2223
 3742SOL    HW222686   2.148   3.110  13.812 -0.4840  0.0808  0.3793
 3743SOL     OW22687   2.689   4.329   5.460 -0.3933 -0.0127 -0.2475
 3743SOL    HW122688   2.653   4.319   5.372  3.2044  3.0563 -2.0115
 3743SOL    HW222689   2.647   4.408   5.495  1.6713  0.0748  2.0730
 3744SOL     OW22690   3.642   2.763   2.458  0.2866  0.3889 -0.2786
 3744SOL    HW122691   3.630   2.855   2.482  0.6676  0.3228  0.1604
 3744SOL    HW222692   3.608   2.766   2.368 -0.6062  0.1647  0.0534
 3745SOL     OW22693   0.408   0.721   9.242 -0.2175  0.5356  0.2555
 3745SOL    HW122694   0.419   0.816   9.253 -1.7676  0.6140  1.1659
 3745SOL    HW222695   0.446   0.677   9.318  1.2447  0.9771 -0.2135
 3746SOL     OW22696   4.398   4.297   4.758 -0.1419  0.1683  0.4218
 3746SOL    HW122697   4.382   4.386   4.791 -1.1151 -0.3948  1.4684
 3746SOL    HW222698   4.360   4.239   4.824  0.6447  1.8715  2.3744
 3747SOL     OW22699   0.361   3.188   6.693  0.1180 -0.0608 -0.4850
 3747SOL    HW122700   0.298   3.120   6.669 -0.4683  0.0376  0.8146
 3747SOL    HW222701   0.329   3.269   6.653  1.6055  0.8039  0.0487
 3748SOL     OW22702   2.148   1.830   6.101 -0.1438  0.4306 -0.7151
 3748SOL    HW122703   2.066   1.818   6.052  0.1427  0.9603 -1.3167
 3748SOL    HW222704   2.126   1.775   6.176  0.4007  1.5493  0.2717
 3749SOL     OW22705   4.592   1.359   4.161  0.2685 -0.0789  0.5085
 3749SOL    HW122706   4.652   1.431   4.142 -1.3870  0.9782 -0.7770
 3749SOL    HW222707   4.522   1.413   4.199 -1.5702 -1.6852 -0.5907
 3750SOL     OW22708   4.110   3.031   1.005 -0.0637 -0.4957 -0.1673
 3750SOL    HW122709   4.180   3.083   1.045  1.3476 -2.8119  0.4216
 3750SOL    HW222710   4.137   3.026   0.914  1.5005  0.2137  0.2650
 3751SOL     OW22711   3.269   3.117   2.632 -0.2406 -0.3450  0.2152
 3751SOL    HW122712   3.342   3.177   2.648  1.8252 -3.3834  2.0821
 3751SOL    HW222713   3.253   3.138   2.540 -0.4878  0.2207  0.3878
 3752SOL     OW22714   3.744   4.245   4.029 -0.3672  0.4776 -0.3544
 3752SOL    HW122715   3.704   4.159   4.018  1.7138 -0.7680  1.8833
 3752SOL    HW222716   3.787   4.233   4.113 -0.1240 -0.6876 -0.6489
 3753SOL     OW22717   3.082   3.469  12.455 -0.8651  0.2484 -0.0465
 3753SOL    HW122718   3.097   3.383  12.415  0.2079  0.0736  0.7335
 3753SOL    HW222719   3.174   3.497  12.462 -1.3303  2.0557 -1.0064
 3754SOL     OW22720   2.079   0.533   7.155 -0.2130  0.2715  0.0842
 3754SOL    HW122721   2.040   0.602   7.209  0.3759 -0.6414  1.6920
 3754SOL    HW222722   2.007   0.497   7.103  1.2834  0.0980 -1.8985
 3755SOL     OW22723   3.225   3.974  11.572 -0.9115  0.2599  0.1113
 3755SOL    HW122724   3.265   3.910  11.631 -2.1105 -0.3411  0.2872
 3755SOL    HW222725   3.196   3.920  11.498 -1.2372  1.4188 -0.6019
 3756SOL     OW22726   0.608   0.668  12.059  0.2214 -0.0919 -0.3130
 3756SOL    HW122727   0.546   0.710  12.119 -0.5202 -0.6193 -0.7197
 3756SOL    HW222728   0.558   0.694  11.982  0.1239 -1.0417 -0.5717
 3757SOL     OW22729   4.015   0.837   2.169 -0.4924 -0.4083  0.2041
 3757SOL    HW122730   4.033   0.754   2.124  1.6268  0.1218  0.0786
 3757SOL    HW222731   4.012   0.798   2.257  1.3210  1.2048  0.9670
 3758SOL     OW22732   4.270   4.113   6.376 -0.4761 -0.2725 -0.3222
 3758SOL    HW122733   4.213   4.175   6.421  0.4168  1.3138 -1.3823
 3758SOL    HW222734   4.266   4.042   6.440  2.1250  1.0312  1.2876
 3759SOL     OW22735   0.579   0.143   8.134  0.4010  0.0665  0.8449
 3759SOL    HW122736   0.609   0.229   8.106  0.9775 -0.2309  0.5699
 3759SOL    HW222737   0.490   0.171   8.155  0.8730  0.3888  2.4302
 3760SOL     OW22738   4.460   3.242   1.337 -0.0439 -0.4250  0.0714
 3760SOL    HW122739   4.436   3.308   1.402 -0.2444  0.3086 -0.7389
 3760SOL    HW222740   4.520   3.197   1.396 -0.3394  0.7849  1.2895
 3761SOL     OW22741   1.466   0.071  15.710 -0.6028 -0.2579  0.3586
 3761SOL    HW122742   1.438   0.159  15.684  1.1683  0.2838  0.3015
 3761SOL    HW222743   1.474   0.036  15.621 -1.3071 -0.8549  0.5262
 3762SOL     OW22744   0.489   1.109   2.971 -0.3404  0.2317  0.0737
 3762SOL    HW122745   0.533   1.193   2.960  0.8487 -0.1430  1.9882
 3762SOL    HW222746   0.400   1.137   2.949 -0.4203 -0.3274 -0.3140
 3763SOL     OW22747   3.852   4.044   5.709 -0.6317  0.2582  0.6344
 3763SOL    HW122748   3.799   4.114   5.671 -0.7546 -0.2280 -0.1036
 3763SOL    HW222749   3.799   3.968   5.687  0.7847 -1.7126  4.0023
 3764SOL     OW22750   0.676   0.381   7.987  0.1999  0.5934 -0.0504
 3764SOL    HW122751   0.590   0.419   7.969 -0.8146 -1.4240  0.6275
 3764SOL    HW222752   0.712   0.374   7.898  0.0386  1.9499 -0.2307
 3765SOL     OW22753   0.002   4.359   2.569 -0.1941  0.1269  0.1808
 3765SOL    HW122754   0.093   4.370   2.542  0.0287 -0.5836  0.6265
 3765SOL    HW222755   0.026   4.335   2.659 -0.8022  1.5688  0.7242
 3766SOL     OW22756   3.452   4.673   3.231 -0.5924 -0.2163  0.3251
 3766SOL    HW122757   3.499   0.018   3.183  0.8232 -0.6030  1.1523
 3766SOL    HW222758   3.525   4.654   3.290 -0.7921 -0.1683  0.5879
 3767SOL     OW22759   0.048   3.352   3.911 -0.2169  0.3081 -0.0893
 3767SOL    HW122760   0.105   3.282   3.878  1.0415  1.8274 -1.1999
 3767SOL    HW222761   4.717   3.377   3.836 -1.9628 -1.1645  0.6826
 3768SOL     OW22762   4.039   3.890   6.127 -0.6389  0.9397 -0.1765
 3768SOL    HW122763   3.946   3.868   6.115 -0.6529 -0.7745  2.8461
 3768SOL    HW222764   4.058   3.906   6.035 -0.2204  1.4288 -0.0071
 3769SOL     OW22765   1.561   1.219  11.055  0.2593  0.5310  0.2196
 3769SOL    HW122766   1.563   1.236  11.149 -0.6559 -0.1480  0.3668
 3769SOL    HW222767   1.651   1.242  11.033 -0.7834  0.8636 -3.7099
 3770SOL     OW22768   1.104   0.008  14.895 -0.2901 -0.1009 -0.3808
 3770SOL    HW122769   1.009   4.723  14.900 -0.2360  0.5022  1.8826
 3770SOL    HW222770   1.117   0.090  14.848  2.3889  0.6012  1.5163
 3771SOL     OW22771   2.118   4.662   3.724 -0.3114  0.3446  0.0580
 3771SOL    HW122772   2.147   0.015   3.774  0.3217 -0.8626  1.5141
 3771SOL    HW222773   2.042   4.630   3.773 -1.3563  2.5140 -0.1244
 3772SOL     OW22774   0.199   1.739  15.869 -0.0765 -0.6322 -0.8008
 3772SOL    HW122775   0.118   1.699  15.838 -0.1562 -1.1053  0.0080
 3772SOL    HW222776   0.221   1.695  15.951  0.4131  0.1531 -0.5097
 3773SOL     OW22777   0.464   0.517  10.951  0.2759 -0.0268 -0.1162
 3773SOL    HW122778   0.494   0.588  11.008 -2.3511  0.4278  0.7010
 3773SOL    HW222779   0.443   0.561  10.869  0.6138  0.6276  0.1486
 3774SOL     OW22780   4.038   2.844   4.243  0.3121  0.0170 -0.3995
 3774SOL    HW122781   3.952   2.859   4.203  0.5432 -1.0489 -1.3065
 3774SOL    HW222782   4.099   2.845   4.170  1.1623  1.0320  0.3274
 3775SOL     OW22783   2.500   0.300   5.186  0.5523  0.5070 -0.1377
 3775SOL    HW122784   2.433   0.326   5.249  0.9368  2.7961 -0.6674
 3775SOL    HW222785   2.575   0.355   5.210 -0.2788  1.1552  0.9783
 3776SOL     OW22786   4.455   0.209   4.970  0.0323  0.1420  0.1878
 3776SOL    HW122787   4.373   0.174   4.934  0.8070 -1.1504 -0.3258
 3776SOL    HW222788   4.450   0.177   5.060 -2.5463  1.0975  0.3935
 3777SOL     OW22789   3.281   0.089   1.930  0.1719  0.2429 -0.3413
 3777SOL    HW122790   3.367   0.106   1.969  0.3290  0.5163 -0.8091
 3777SOL    HW222791   3.269   0.174   1.890  1.8070 -0.4390 -2.2728
 3778SOL     OW22792   0.029   1.242   6.067 -0.4299 -0.1716 -0.2709
 3778SOL    HW122793   0.100   1.221   6.127 -1.4276 -1.0922  0.5728
 3778SOL    HW222794   0.079   1.225   5.986 -0.0637  2.8761 -0.7195
 3779SOL     OW22795   3.275   4.602  10.240 -0.0438 -0.3873 -0.2152
 3779SOL    HW122796   3.242   4.513  10.231 -1.5246 -0.0308  1.6382
 3779SOL    HW222797   3.357   4.577  10.282 -0.6631 -0.8960  0.7052
 3780SOL     OW22798   3.982   3.329   8.465 -0.0261  0.7156 -1.2248
 3780SOL    HW122799   4.028   3.246   8.467 -0.6867  0.3542 -1.2081
 3780SOL    HW222800   3.988   3.353   8.557 -0.1509  0.0311 -1.0396
 3781SOL     OW22801   3.399   0.637   7.551 -0.3308  0.5715  0.7021
 3781SOL    HW122802   3.471   0.696   7.574 -1.6428  1.2829  2.9710
 3781SOL    HW222803   3.455   0.585   7.494 -0.5341  0.1445  0.8924
 3782SOL     OW22804   2.498   0.213   4.847 -0.1447  0.5523  0.1800
 3782SOL    HW122805   2.407   0.187   4.857  0.0805 -0.6844 -0.8582
 3782SOL    HW222806   2.525   0.244   4.933 -1.8856 -0.2157  0.9904
 3783SOL     OW22807   2.933   2.030   5.892  0.0751 -0.2603  0.4062
 3783SOL    HW122808   2.928   2.110   5.944  0.7124  0.6026 -0.8667
 3783SOL    HW222809   2.846   2.029   5.853 -0.0208  3.6953  0.5455
 3784SOL     OW22810   4.078   2.246  15.915  0.3646  0.2712  0.4750
 3784SOL    HW122811   4.083   2.198  15.832  2.3189  1.5823 -0.1744
 3784SOL    HW222812   4.062   2.168  15.968 -0.0148  1.0355  1.4823
 3785SOL     OW22813   1.041   0.805   0.482  0.5792 -0.3578  0.8210
 3785SOL    HW122814   1.119   0.752   0.499  1.3784  0.5447 -0.0815
 3785SOL    HW222815   1.077   0.870   0.422 -1.2664 -0.7271 -0.6730
 3786SOL     OW22816   1.166   2.104   2.850 -0.5783  0.5631 -0.0592
 3786SOL    HW122817   1.090   2.162   2.852 -1.0496 -0.0571  0.1113
 3786SOL    HW222818   1.151   2.043   2.923 -0.3959 -1.1133 -1.4224
 3787SOL     OW22819   1.871   0.445   1.544  0.7546  0.0797 -0.3649
 3787SOL    HW122820   1.807   0.399   1.597 -0.4802  3.5536  1.1371
 3787SOL    HW222821   1.810   0.483   1.481  0.4669 -2.4526 -1.5988
 3788SOL     OW22822   1.498   0.562  13.151  0.6891  0.1401 -0.4481
 3788SOL    HW122823   1.506   0.650  13.188  0.6156 -0.5294  1.1482
 3788SOL    HW222824   1.453   0.580  13.068 -2.5137  0.5226  1.3693
 3789SOL     OW22825   3.488   1.156  13.111  0.8672 -0.3832 -0.2174
 3789SOL    HW122826   3.547   1.094  13.154 -1.0652 -2.4235 -0.5355
 3789SOL    HW222827   3.443   1.089  13.060 -1.4707  0.1360  1.1545
 3790SOL     OW22828   0.867   1.602   2.328  0.1682  0.1503 -0.1532
 3790SOL    HW122829   0.876   1.673   2.265 -0.2488  1.1468  0.9208
 3790SOL    HW222830   0.846   1.527   2.271 -0.2168  0.0886  0.0741
 3791SOL     OW22831   4.471   2.352   7.289  0.5377  0.2827  0.5044
 3791SOL    HW122832   4.459   2.298   7.367  0.5475 -0.5679 -0.0825
 3791SOL    HW222833   4.466   2.444   7.315 -0.2365 -0.1385  1.8913
 3792SOL     OW22834   0.822   1.727   8.255  0.2388  0.0254 -0.4386
 3792SOL    HW122835   0.811   1.632   8.256  0.6130 -0.0129 -0.2811
 3792SOL    HW222836   0.829   1.746   8.161 -0.7735 -0.8530 -0.6950
 3793SOL     OW22837   3.061   2.097  10.769  0.3951  0.2066  0.4975
 3793SOL    HW122838   2.975   2.057  10.778  0.5220  0.6414  3.5244
 3793SOL    HW222839   3.116   2.021  10.748  1.4531  1.0172  0.3499
 3794SOL     OW22840   1.968   0.222   8.353 -0.2683  0.4270  0.7201
 3794SOL    HW122841   2.042   0.282   8.358 -1.0605  1.6214 -1.9130
 3794SOL    HW222842   1.939   0.241   8.264 -0.1817  1.2837  0.8765
 3795SOL     OW22843   0.679   1.795   1.840  0.3116 -0.0452  0.0056
 3795SOL    HW122844   0.666   1.886   1.813  0.9512 -0.3400 -1.2797
 3795SOL    HW222845   0.621   1.752   1.778  1.3033 -1.1950 -0.1265
 3796SOL     OW22846   3.646   2.377   1.534  0.5435  0.4925  0.2103
 3796SOL    HW122847   3.639   2.289   1.496  0.2128  0.4094  0.4625
 3796SOL    HW222848   3.741   2.387   1.536  0.4900  0.3107  4.0073
 3797SOL     OW22849   3.008   3.166   0.150 -0.0615 -0.0803  0.0150
 3797SOL    HW122850   2.947   3.239   0.140 -1.3781 -1.3942 -1.4988
 3797SOL    HW222851   3.028   3.169   0.244 -0.5857  1.4926  0.0799
 3798SOL     OW22852   1.545   1.555   4.323 -0.1617  0.1223  0.3013
 3798SOL    HW122853   1.616   1.498   4.293  0.8031  1.4122  0.1451
 3798SOL    HW222854   1.470   1.500   4.300 -0.8795  0.7090  1.2416
 3799SOL     OW22855   1.611   3.306   7.579  0.0995 -0.5577 -0.6001
 3799SOL    HW122856   1.571   3.375   7.631 -0.1492 -1.1329 -0.0310
 3799SOL    HW222857   1.703   3.327   7.563  0.2300 -2.2427 -2.1305
 3800SOL     OW22858   1.746   3.071   5.338  0.2442 -0.1306  0.3147
 3800SOL    HW122859   1.823   3.115   5.301 -0.2274 -0.3206 -0.8886
 3800SOL    HW222860   1.689   3.083   5.262  0.3751 -1.7977 -0.0340
 3801SOL     OW22861   2.660   2.293  16.271  0.0977  0.2638  0.3785
 3801SOL    HW122862   2.612   2.287  16.189  0.5572 -1.9931  0.2821
 3801SOL    HW222863   2.698   2.207  16.285  0.9074  0.4581 -0.6264
 3802SOL     OW22864   0.097   4.315  10.134 -0.5244 -0.0543  0.2789
 3802SOL    HW122865   0.018   4.342  10.086 -0.4271  0.6183  0.4990
 3802SOL    HW222866   0.166   4.378  10.114 -0.1281 -0.7226 -0.4869
 3803SOL     OW22867   4.521   0.047   7.237 -0.2777 -0.0111  0.4524
 3803SOL    HW122868   4.559   0.055   7.150 -2.8612  2.0239 -0.5010
 3803SOL    HW222869   4.441   0.094   7.214 -1.5411 -2.4263  0.0019
 3804SOL     OW22870   2.807   0.775  15.991 -0.3632  0.1389 -0.0317
 3804SOL    HW122871   2.798   0.690  16.033 -1.6841  0.6351  0.6709
 3804SOL    HW222872   2.804   0.826  16.072 -0.5844 -0.5048  0.3622
 3805SOL     OW22873   3.979   3.516   2.026 -0.0438 -0.3393 -0.1367
 3805SOL    HW122874   4.027   3.472   1.957 -0.0264 -0.9846  0.2911
 3805SOL    HW222875   3.892   3.501   1.988 -0.5059  0.9234  0.4062
 3806SOL     OW22876   3.571   2.371   9.476 -0.0441 -0.2849 -0.2507
 3806SOL    HW122877   3.541   2.286   9.446  1.6182 -1.3346  1.0335
 3806SOL    HW222878   3.537   2.421   9.402  0.6665  2.3665  1.1788
 3807SOL     OW22879   0.253   1.165  16.702 -0.2136 -0.1906 -0.3225
 3807SOL    HW122880   0.281   1.144  16.613  3.1680 -0.4735  0.7911
 3807SOL    HW222881   0.162   1.136  16.714 -0.1519 -0.6141 -0.8428
 3808SOL     OW22882   2.739   4.178   3.564 -0.4723 -0.1756 -0.5373
 3808SOL    HW122883   2.744   4.158   3.470 -0.8096 -0.2628 -0.5359
 3808SOL    HW222884   2.772   4.097   3.602  2.0935  1.8904  1.5909
 3809SOL     OW22885   3.175   0.518   0.834 -0.0223  0.0826  0.3825
 3809SOL    HW122886   3.096   0.523   0.779  2.3239  0.7438 -2.8933
 3809SOL    HW222887   3.140   0.503   0.922 -0.6055  1.2631  0.3463
 3810SOL     OW22888   3.505   3.170  11.154  0.0488  0.2790  0.3812
 3810SOL    HW122889   3.600   3.178  11.156  0.0662 -0.5614  3.0692
 3810SOL    HW222890   3.490   3.105  11.086  0.6819 -0.0868  0.5889
 3811SOL     OW22891   0.998   1.433   1.386 -0.2286 -0.5605 -0.1959
 3811SOL    HW122892   0.993   1.407   1.294  0.5812  0.2487 -0.4628
 3811SOL    HW222893   0.980   1.526   1.376 -1.8027 -0.8718 -0.3302
 3812SOL     OW22894   2.199   0.143   0.586  0.3629  0.0001 -0.1679
 3812SOL    HW122895   2.165   0.198   0.658  1.1344  0.7715 -0.3897
 3812SOL    HW222896   2.119   0.094   0.569 -0.7099  0.7599  2.5823
 3813SOL     OW22897   1.741   2.675   5.858 -0.3502 -0.2888  0.1726
 3813SOL    HW122898   1.755   2.742   5.925  1.6410  0.0455 -0.5731
 3813SOL    HW222899   1.809   2.704   5.797 -1.5119  1.1628 -0.4300
 3814SOL     OW22900   4.487   3.196   7.053 -0.4795  0.0656 -0.7755
 3814SOL    HW122901   4.413   3.161   7.102 -0.1929  1.2348  0.4917
 3814SOL    HW222902   4.552   3.140   7.097 -1.0543  1.1400  1.4557
 3815SOL     OW22903   1.163   0.349   3.856  0.2106  0.1953 -0.0399
 3815SOL    HW122904   1.213   0.273   3.886 -0.5051  0.0384  0.7678
 3815SOL    HW222905   1.083   0.308   3.822  0.9470 -0.0407 -1.4747
 3816SOL     OW22906   3.679   3.146   5.216 -0.2817  0.5244  0.1042
 3816SOL    HW122907   3.637   3.124   5.299 -0.7482  0.5466 -0.1280
 3816SOL    HW222908   3.767   3.111   5.227 -0.1069  0.6768 -0.7684
 3817SOL     OW22909   1.406   1.641   0.886 -0.2055  0.1529 -0.4376
 3817SOL    HW122910   1.346   1.582   0.932  0.2439  1.5398  1.9586
 3817SOL    HW222911   1.363   1.716   0.928 -0.3942  0.7672 -1.7435
 3818SOL     OW22912   1.883   3.010   3.954  0.0043  0.3464  0.3585
 3818SOL    HW122913   1.925   2.995   4.039 -0.9284 -1.3568  0.5177
 3818SOL    HW222914   1.881   2.920   3.923 -1.2468 -0.2354  2.1755
 3819SOL     OW22915   1.747   3.192   3.342 -0.2157 -0.0429 -0.3011
 3819SOL    HW122916   1.675   3.133   3.319 -0.6222  0.7237 -0.9888
 3819SOL    HW222917   1.715   3.279   3.318  0.5975  0.2194 -0.4323
 3820SOL     OW22918   4.288   1.282  16.409  0.2068  0.4495  0.2796
 3820SOL    HW122919   4.195   1.264  16.400  0.3245  2.1151 -4.0865
 3820SOL    HW222920   4.308   1.194  16.441 -2.3739 -0.5503 -0.8934
 3821SOL     OW22921   2.232   2.024   0.559 -0.0729 -0.2840  0.4774
 3821SOL    HW122922   2.227   2.042   0.465  1.4108 -0.5811  0.3440
 3821SOL    HW222923   2.232   2.108   0.606  1.6476  0.1773 -0.3480
 3822SOL     OW22924   0.116   2.588   2.238 -0.3813 -0.6646  0.0900
 3822SOL    HW122925   0.059   2.651   2.280 -1.0208 -0.9552 -0.3424
 3822SOL    HW222926   0.095   2.610   2.147  1.0037  2.0475  0.4418
 3823SOL     OW22927   2.818   0.989   4.320  0.1326  0.7562  0.1281
 3823SOL    HW122928   2.774   0.905   4.337  0.3608  1.5030  4.4050
 3823SOL    HW222929   2.882   0.989   4.391 -1.8764 -0.6205  1.9302
 3824SOL     OW22930   2.996   2.897   4.404 -0.3373 -1.0098  0.0620
 3824SOL    HW122931   3.024   2.806   4.397  1.2854 -0.4420 -0.9166
 3824SOL    HW222932   2.902   2.887   4.389 -0.4777 -0.1022  0.3093
 3825SOL     OW22933   3.947   1.031  10.746 -0.5589  0.2079 -0.3126
 3825SOL    HW122934   4.016   1.093  10.772 -1.3736  0.9062  0.1630
 3825SOL    HW222935   3.935   0.992  10.833  0.6380 -1.1014 -0.7315
 3826SOL     OW22936   3.702   2.909  13.933  0.6612  0.0591  0.7393
 3826SOL    HW122937   3.667   2.852  14.002 -0.6400 -0.9685 -0.7612
 3826SOL    HW222938   3.792   2.922  13.962  0.7689 -1.3808  1.0207
 3827SOL     OW22939   0.239   0.459   6.570 -0.5695  0.3179 -0.6359
 3827SOL    HW122940   0.190   0.501   6.500 -0.4707 -1.2370 -1.6348
 3827SOL    HW222941   0.329   0.476   6.542  0.5449 -1.3862  1.9027
 3828SOL     OW22942   0.583   2.134   0.310 -0.0312 -0.6352 -0.3575
 3828SOL    HW122943   0.567   2.209   0.253  0.3718 -0.3521 -0.0982
 3828SOL    HW222944   0.531   2.075   0.256  0.5927 -1.9179  0.4400
 3829SOL     OW22945   2.823   0.507   2.332 -0.2786  0.0125  0.1672
 3829SOL    HW122946   2.885   0.445   2.370 -0.3156 -0.1867 -0.0911
 3829SOL    HW222947   2.866   0.584   2.368 -0.2968 -0.1464  0.5281
 3830SOL     OW22948   2.783   3.178   5.359 -0.0030  0.2900  0.2745
 3830SOL    HW122949   2.848   3.110   5.342  1.3964  1.9453 -1.0583
 3830SOL    HW222950   2.834   3.258   5.346 -1.9589  1.8074  2.0040
 3831SOL     OW22951   0.432   3.674   5.929  0.7047 -0.2769 -0.1233
 3831SOL    HW122952   0.459   3.582   5.929  3.6552  0.6036  1.5154
 3831SOL    HW222953   0.508   3.722   5.899  0.3531 -0.4255 -1.2525
 3832SOL     OW22954   0.497   0.246   2.050 -0.1985  0.3970  0.0841
 3832SOL    HW122955   0.553   0.243   1.972  0.1442 -1.8826  0.4156
 3832SOL    HW222956   0.539   0.173   2.097  1.0197 -0.4972 -2.3820
 3833SOL     OW22957   0.090   1.637  17.606 -0.1157 -0.3731 -0.0800
 3833SOL    HW122958   0.167   1.671  17.652 -0.7235  0.8184  0.0326
 3833SOL    HW222959   0.087   1.549  17.643 -0.9613 -0.2341  0.1660
 3834SOL     OW22960   1.182   1.481   0.958  0.4317  0.0223  0.0151
 3834SOL    HW122961   1.089   1.504   0.962 -0.0188 -1.5670 -1.4172
 3834SOL    HW222962   1.185   1.468   0.863  0.4386  0.2421 -0.0149
 3835SOL     OW22963   1.857   4.458   6.619 -0.8367  0.2167 -0.0184
 3835SOL    HW122964   1.848   4.409   6.700 -1.7043 -1.7994 -1.3353
 3835SOL    HW222965   1.780   4.440   6.565  0.2708 -0.2379 -1.4546
 3836SOL     OW22966   0.146   0.811  16.046  0.2412  0.4285 -0.0301
 3836SOL    HW122967   0.085   0.883  16.061  0.5294  1.0548 -1.8661
 3836SOL    HW222968   0.229   0.857  16.056  1.4275 -2.1941  2.2377
 3837SOL     OW22969   0.599   0.929   1.923 -0.3384  0.4396  0.0678
 3837SOL    HW122970   0.599   0.890   2.011  0.1218  1.1271  0.3789
 3837SOL    HW222971   0.609   1.022   1.944 -0.5907  0.7081 -1.0115
 3838SOL     OW22972   3.019   2.670   6.451 -0.1237 -0.6204 -0.0096
 3838SOL    HW122973   3.106   2.639   6.476  0.5393  0.5774 -0.8275
 3838SOL    HW222974   3.031   2.760   6.482  4.1633 -0.9383 -0.6217
 3839SOL     OW22975   0.596   1.447   2.340 -0.0954  0.2262 -0.0141
 3839SOL    HW122976   0.642   1.408   2.414 -0.4001  2.3075  1.2777
 3839SOL    HW222977   0.668   1.458   2.278  0.5159  0.8305  0.8044
 3840SOL     OW22978   3.092   0.764   1.509 -0.0566  0.0126  0.4126
 3840SOL    HW122979   3.034   0.834   1.540 -1.5010 -1.9865  2.2930
 3840SOL    HW222980   3.082   0.768   1.414  0.2854  0.1260  0.3828
 3841SOL     OW22981   0.742   2.006   7.550 -0.3430  0.0886 -0.1464
 3841SOL    HW122982   0.766   1.915   7.565  1.2844  0.0969 -2.8918
 3841SOL    HW222983   0.818   2.043   7.505  0.8873 -1.4970  0.6475
 3842SOL     OW22984   3.249   3.423   5.932  0.0707 -0.0423 -0.0269
 3842SOL    HW122985   3.220   3.462   5.850  0.4949 -1.3994 -0.8141
 3842SOL    HW222986   3.266   3.501   5.986  1.1154 -1.3542  1.5386
 3843SOL     OW22987   3.059   2.381   6.681 -0.4660  0.0873 -0.3138
 3843SOL    HW122988   3.109   2.455   6.646 -0.9291  0.2319 -0.6674
 3843SOL    HW222989   3.007   2.349   6.607  0.3056  0.7205 -1.1296
 3844SOL     OW22990   3.180   1.098   8.265 -0.3539 -0.3930 -0.1156
 3844SOL    HW122991   3.182   1.032   8.334 -2.4664 -0.9478 -0.5935
 3844SOL    HW222992   3.108   1.150   8.301 -0.8438 -0.9212 -0.3408
 3845SOL     OW22993   1.617   0.908   2.161  0.4098 -0.0240  0.0564
 3845SOL    HW122994   1.698   0.931   2.116  0.2050 -0.7588 -0.6945
 3845SOL    HW222995   1.549   0.907   2.093 -0.7078 -0.5907  1.1708
 3846SOL     OW22996   4.188   0.952   1.807  0.6963  0.4486  0.1291
 3846SOL    HW122997   4.156   0.991   1.888  1.7019  1.9599 -0.1936
 3846SOL    HW222998   4.122   0.885   1.790  0.0650  0.9025  0.8217
 3847SOL     OW22999   3.153   1.351   6.154  0.2720  0.2684  0.5540
 3847SOL    HW123000   3.220   1.325   6.091 -2.6819 -2.6285 -1.4262
 3847SOL    HW223001   3.199   1.400   6.221  0.3840 -1.4156  1.7253
 3848SOL     OW23002   1.836   2.431   7.385 -0.4543 -0.0680  0.3198
 3848SOL    HW123003   1.839   2.512   7.335 -2.5794 -0.3854 -0.3143
 3848SOL    HW223004   1.853   2.369   7.314 -2.6791 -0.3499  0.0401
 3849SOL     OW23005   1.956   4.686   5.886  0.3618  0.2635 -0.0858
 3849SOL    HW123006   1.971   4.597   5.919 -1.9625 -1.1248 -2.7778
 3849SOL    HW223007   2.032   0.005   5.927 -0.4466  2.3289 -0.7150
 3850SOL     OW23008   4.011   3.432   5.804 -0.1395 -0.2021  0.2691
 3850SOL    HW123009   4.037   3.384   5.883  2.6612  1.4645  0.3696
 3850SOL    HW223010   4.016   3.368   5.733 -2.7503  1.4619 -1.4234
 3851SOL     OW23011   3.895   1.393   7.953  0.0404  0.5494 -0.1113
 3851SOL    HW123012   3.813   1.347   7.935  0.9575 -0.6247 -1.2519
 3851SOL    HW223013   3.887   1.465   7.890  1.1949  1.1084  0.3739
 3852SOL     OW23014   0.431   0.260  16.528 -0.6680  0.3493 -0.6220
 3852SOL    HW123015   0.516   0.260  16.571 -0.9377  0.4865 -0.0786
 3852SOL    HW223016   0.425   0.337  16.471 -2.2114 -0.1776 -1.1720
 3853SOL     OW23017   0.527   1.289  10.082  0.4645  0.5417  0.3814
 3853SOL    HW123018   0.467   1.339  10.027  0.7222 -1.0027 -1.3171
 3853SOL    HW223019   0.462   1.241  10.133  0.6630  0.0101  0.1369
 3854SOL     OW23020   3.362   2.340   4.957  0.2997  0.2169  0.4983
 3854SOL    HW123021   3.413   2.410   4.998 -0.5348 -0.0606  2.0242
 3854SOL    HW223022   3.332   2.285   5.030  0.7772  2.3604  2.2986
 3855SOL     OW23023   3.579   1.889  14.776  0.1603  0.3534 -0.6385
 3855SOL    HW123024   3.654   1.937  14.744  1.6334 -0.3192  1.7701
 3855SOL    HW223025   3.515   1.905  14.707 -2.0055  0.1756  1.2914
 3856SOL     OW23026   0.275   4.004  10.806 -0.1505 -0.2026 -0.5719
 3856SOL    HW123027   0.198   4.026  10.858  0.0355  0.2188 -0.4735
 3856SOL    HW223028   0.340   4.070  10.831 -1.5733  1.0343 -0.1644
 3857SOL     OW23029   4.365   4.437   7.950  0.3909 -0.3286 -0.0974
 3857SOL    HW123030   4.332   4.407   8.034 -1.1479 -1.5420 -1.1370
 3857SOL    HW223031   4.394   4.353   7.913 -0.8003 -0.5828 -0.4549
 3858SOL     OW23032   3.402   2.246   4.156  0.0258  0.4495 -0.0568
 3858SOL    HW123033   3.470   2.183   4.182  0.3610  0.9189  0.1964
 3858SOL    HW223034   3.388   2.214   4.067  4.0878  0.5991 -0.7572
 3859SOL     OW23035   0.351   0.490   7.320 -0.2688 -0.2707 -0.4505
 3859SOL    HW123036   0.419   0.423   7.310 -0.8249 -0.7535 -0.9916
 3859SOL    HW223037   0.315   0.476   7.407  0.5923 -0.7872 -0.1794
 3860SOL     OW23038   3.498   1.878   7.567 -0.0849 -0.1476 -0.0937
 3860SOL    HW123039   3.434   1.869   7.497  0.2541  1.5212 -0.6146
 3860SOL    HW223040   3.469   1.964   7.597  0.9134 -0.1844  0.9799
 3861SOL     OW23041   1.085   1.655   1.929 -0.3762  0.2402 -0.3432
 3861SOL    HW123042   1.024   1.607   1.872  0.5954  0.6145 -1.7028
 3861SOL    HW223043   1.016   1.694   1.983 -1.2826 -0.0194 -1.3113
 3862SOL     OW23044   3.909   2.904  14.123  0.1560  0.7955  0.1311
 3862SOL    HW123045   3.984   2.875  14.177 -0.6018 -1.3305  0.0339
 3862SOL    HW223046   3.852   2.945  14.188  2.1968  1.3261  1.6145
 3863SOL     OW23047   2.528   3.004   4.225 -0.0875 -0.1858 -0.3525
 3863SOL    HW123048   2.543   3.008   4.131 -1.3363  0.3031 -0.5342
 3863SOL    HW223049   2.612   3.036   4.256 -0.6653 -0.0467  1.0556
 3864SOL     OW23050   2.918   0.553   4.399 -0.3330  0.2200  0.6982
 3864SOL    HW123051   3.006   0.591   4.396 -0.5962  0.5960 -2.2260
 3864SOL    HW223052   2.932   0.460   4.415 -0.4194  0.2287  0.8244
 3865SOL     OW23053   0.244   2.619  15.607  0.4469 -0.5808  0.3033
 3865SOL    HW123054   0.237   2.548  15.670  1.2146 -1.4919 -0.6416
 3865SOL    HW223055   0.211   2.557  15.542  0.4886 -0.8660  0.5560
 3866SOL     OW23056   0.947   0.768   4.732  0.1405 -0.2497 -0.1199
 3866SOL    HW123057   1.021   0.815   4.694  0.6425  0.7663  2.1242
 3866SOL    HW223058   0.977   0.677   4.731  0.0792 -0.2672 -0.3395
 3867SOL     OW23059   4.273   0.438   8.791 -0.1420 -0.1616 -1.0216
 3867SOL    HW123060   4.295   0.518   8.744  1.2585  1.4960  2.4521
 3867SOL    HW223061   4.357   0.413   8.830 -0.8081 -0.9142 -0.0499
 3868SOL     OW23062   4.655   3.937   5.226 -0.2019 -0.6150  0.0507
 3868SOL    HW123063   4.594   3.917   5.155 -2.1804  3.3645  0.6603
 3868SOL    HW223064   4.609   3.899   5.301  2.3355 -1.6612  1.0893
 3869SOL     OW23065   3.827   0.121   6.245 -0.4780 -0.0069  0.2765
 3869SOL    HW123066   3.841   0.081   6.330  1.0227 -1.3441 -0.5921
 3869SOL    HW223067   3.901   0.091   6.191 -1.0833 -0.2546 -0.4234
 3870SOL     OW23068   1.886   3.890   0.179 -0.6736 -0.1667 -0.0606
 3870SOL    HW123069   1.933   3.875   0.260 -0.0511 -0.7638 -0.5325
 3870SOL    HW223070   1.936   3.968   0.152 -0.1040  0.2130  2.1515
 3871SOL     OW23071   2.108   1.815   6.783 -0.0564  0.0592 -0.0369
 3871SOL    HW123072   2.184   1.807   6.841 -1.3169  1.1209  1.7741
 3871SOL    HW223073   2.149   1.819   6.697 -1.0880 -1.5394 -0.5993
 3872SOL     OW23074   2.246   0.890  10.495  0.3250 -0.2454  0.6535
 3872SOL    HW123075   2.151   0.884  10.492  0.4699 -1.2107 -1.8138
 3872SOL    HW223076   2.269   0.978  10.463  0.2793 -0.3259  0.4012
 3873SOL     OW23077   2.824   0.840   7.541  0.3046 -0.4031  0.0952
 3873SOL    HW123078   2.875   0.863   7.463 -2.0166  1.3132 -0.9303
 3873SOL    HW223079   2.872   0.774   7.590  1.2246 -0.9013 -1.4689
 3874SOL     OW23080   2.453   2.207   0.130  0.2313  0.0514 -0.2897
 3874SOL    HW123081   2.542   2.183   0.154  0.7017  2.1553  0.0306
 3874SOL    HW223082   2.456   2.290   0.177  2.9324 -0.3396  0.1886
 3875SOL     OW23083   1.361   1.618  15.868  1.1245  0.2453 -0.3856
 3875SOL    HW123084   1.355   1.713  15.883 -0.3289  0.1638 -0.4553
 3875SOL    HW223085   1.304   1.581  15.935  1.4603  2.2696  1.0199
 3876SOL     OW23086   0.721   3.505  12.144 -0.6445  0.5674 -0.1974
 3876SOL    HW123087   0.742   3.504  12.237 -0.9634 -1.3787 -0.1476
 3876SOL    HW223088   0.635   3.545  12.128 -1.1445 -1.0325 -1.5497
 3877SOL     OW23089   0.941   4.585  11.303 -0.3989 -0.2146  0.3912
 3877SOL    HW123090   0.893   4.624  11.377 -0.4068  1.3898 -0.4503
 3877SOL    HW223091   0.956   4.499  11.342 -1.8713  0.1890  1.8747
 3878SOL     OW23092   2.532   3.482  14.184 -0.2750 -0.5669 -0.1952
 3878SOL    HW123093   2.525   3.449  14.274 -0.8560 -1.9251 -0.7359
 3878SOL    HW223094   2.573   3.568  14.193 -1.2204 -0.0780 -0.4723
 3879SOL     OW23095   0.021   2.169   3.622  0.4091  0.2562 -0.1714
 3879SOL    HW123096   0.007   2.080   3.653  1.6495  0.0428 -0.2271
 3879SOL    HW223097   0.083   2.154   3.552  1.0747  0.1357  0.4438
 3880SOL     OW23098   2.066   4.275   3.303  0.6778 -0.4433  0.0188
 3880SOL    HW123099   2.148   4.324   3.308 -0.0291  0.5596  1.6260
 3880SOL    HW223100   2.025   4.319   3.228 -1.8091 -3.2128 -0.2598
 3881SOL     OW23101   3.299   1.438  10.881  0.2782  0.2349  0.6902
 3881SOL    HW123102   3.229   1.483  10.929 -0.2437  0.2217 -0.0657
 3881SOL    HW223103   3.344   1.389  10.951 -0.0322 -0.9079  0.0872
 3882SOL     OW23104   1.658   1.731   7.159 -0.3213 -0.5777 -0.1954
 3882SOL    HW123105   1.728   1.786   7.124 -0.8853  0.6879  0.6580
 3882SOL    HW223106   1.585   1.793   7.157 -0.8527 -1.1319  1.2968
 3883SOL     OW23107   1.109   2.166   6.269  0.1882  0.1756 -0.0032
 3883SOL    HW123108   1.183   2.133   6.219  1.2719  0.0334  1.7301
 3883SOL    HW223109   1.082   2.088   6.317 -0.0912  0.5843  0.5035
 3884SOL     OW23110   0.840   2.274   3.222  0.7636  0.0519  0.0190
 3884SOL    HW123111   0.920   2.222   3.228 -0.0779 -1.3973 -1.1278
 3884SOL    HW223112   0.781   2.231   3.160  1.1681  2.8390 -2.2643
 3885SOL     OW23113   0.059   2.303   8.429 -0.3591  0.5109 -0.2095
 3885SOL    HW123114   0.016   2.284   8.512  2.0157 -2.0602  0.4518
 3885SOL    HW223115   0.023   2.231   8.377  1.9181 -1.2224  0.5749
 3886SOL     OW23116   0.304   3.643   5.094  0.3533  0.2558  1.1643
 3886SOL    HW123117   0.263   3.557   5.107 -0.5302  0.4871 -0.0126
 3886SOL    HW223118   0.372   3.619   5.156  1.5963  1.5328  0.3087
 3887SOL     OW23119   3.541   3.318   8.577  0.4381  0.5052  0.3563
 3887SOL    HW123120   3.576   3.235   8.610  0.4252  0.7113  0.8847
 3887SOL    HW223121   3.606   3.337   8.510 -1.0927  0.7185 -1.0493
 3888SOL     OW23122   2.783   4.413   7.138  0.2264 -0.2200  0.1264
 3888SOL    HW123123   2.720   4.443   7.073  2.0243  0.0522 -1.4640
 3888SOL    HW223124   2.794   4.322   7.109 -1.9994  0.1628 -1.8857
 3889SOL     OW23125   2.528   4.412   2.048 -0.4008 -0.1410 -0.0708
 3889SOL    HW123126   2.553   4.500   2.019 -3.4531  1.1974  1.3637
 3889SOL    HW223127   2.497   4.377   1.964  0.8390 -1.5635  0.0613
 3890SOL     OW23128   3.922   1.389   2.821  0.6019 -0.3369 -0.0116
 3890SOL    HW123129   3.919   1.315   2.880  1.8576  0.1860  0.7162
 3890SOL    HW223130   3.997   1.435   2.858  2.3425 -2.6369 -0.7273
 3891SOL     OW23131   3.772   4.202   2.403 -0.2574  0.6809 -0.6025
 3891SOL    HW123132   3.737   4.226   2.317  1.1081 -0.5641 -1.5120
 3891SOL    HW223133   3.695   4.202   2.460 -0.3915 -4.9457 -0.7206
 3892SOL     OW23134   0.307   0.249   8.733  0.2357  0.1128 -0.0974
 3892SOL    HW123135   0.279   0.203   8.812 -0.9008  2.1560  0.6909
 3892SOL    HW223136   0.364   0.307   8.783  0.7616 -0.8714  0.4338
 3893SOL     OW23137   2.359   0.886   3.291 -0.3097  0.1550  0.2944
 3893SOL    HW123138   2.318   0.966   3.325 -2.7483 -1.1285  0.3512
 3893SOL    HW223139   2.343   0.886   3.196  0.7286  0.8215  0.1130
 3894SOL     OW23140   4.646   3.315   5.176  0.1927 -0.2276 -0.2752
 3894SOL    HW123141   4.691   3.323   5.261  0.3133 -0.2218 -0.3395
 3894SOL    HW223142   4.584   3.242   5.177  2.4086 -2.1103 -0.7313
 3895SOL     OW23143   1.110   1.795   2.685 -0.0634 -0.2787 -0.5700
 3895SOL    HW123144   1.147   1.782   2.772 -0.4371  1.8323 -0.0931
 3895SOL    HW223145   1.186   1.830   2.639  1.0026 -1.5254  0.2570
 3896SOL     OW23146   4.013   3.651   9.101  0.0989  0.6312  0.4431
 3896SOL    HW123147   3.998   3.710   9.175 -2.4789 -1.8307  1.8435
 3896SOL    HW223148   3.961   3.689   9.030  1.1445 -1.5383 -1.4987
 3897SOL     OW23149   3.027   3.991   5.142  0.4652  0.3298 -0.3886
 3897SOL    HW123150   2.936   3.990   5.173  1.3740  0.5389  2.2511
 3897SOL    HW223151   3.068   4.058   5.196 -0.1925  0.0918  0.4141
 3898SOL     OW23152   3.376   3.540   8.544 -0.6183 -0.3848  0.0284
 3898SOL    HW123153   3.454   3.594   8.555 -1.3277  0.7451 -0.6070
 3898SOL    HW223154   3.421   3.455   8.544  0.3335  0.1183  0.3819
 3899SOL     OW23155   0.398   2.061   8.860  0.4714 -0.2082 -0.3149
 3899SOL    HW123156   0.397   2.069   8.765  0.5929  0.8492 -0.2290
 3899SOL    HW223157   0.450   1.982   8.876 -0.4707 -1.1193 -1.7726
 3900SOL     OW23158   2.169   0.088   6.009 -0.0018 -0.2890  0.2403
 3900SOL    HW123159   2.176   0.144   6.086  0.2645 -0.7083  0.5238
 3900SOL    HW223160   2.181   0.156   5.942 -0.2470 -0.8220 -0.3511
 3901SOL     OW23161   1.289   0.973   3.989  0.0622  0.1484 -0.6468
 3901SOL    HW123162   1.336   0.891   3.999 -2.6879 -1.4325 -0.8224
 3901SOL    HW223163   1.220   0.950   3.927  0.6287 -0.0500 -1.2017
 3902SOL     OW23164   1.131   3.385   0.224 -0.4005 -0.2512 -0.2786
 3902SOL    HW123165   1.137   3.464   0.278 -1.4345  1.1677 -2.2856
 3902SOL    HW223166   1.223   3.358   0.230  0.5264  2.5991 -1.6281
 3903SOL     OW23167   2.838   3.476  11.477  0.2130 -0.3418  0.1824
 3903SOL    HW123168   2.893   3.540  11.522 -1.3116  0.8150  0.4116
 3903SOL    HW223169   2.893   3.443  11.406 -1.4045 -1.7384 -0.4187
 3904SOL     OW23170   0.785   0.807   0.391 -0.1576 -0.1635  0.2942
 3904SOL    HW123171   0.730   0.803   0.469  0.5557 -0.7686  0.7614
 3904SOL    HW223172   0.867   0.794   0.439  1.2983 -0.4883 -2.2931
 3905SOL     OW23173   2.679   3.556   6.568 -0.4826 -0.0646 -0.4181
 3905SOL    HW123174   2.633   3.545   6.485 -0.8798  0.1538 -0.2234
 3905SOL    HW223175   2.648   3.642   6.597 -0.1303 -0.8484  2.2351
 3906SOL     OW23176   4.649   0.735   6.467 -0.3158  0.4854 -0.2809
 3906SOL    HW123177   4.669   0.804   6.404 -0.3007  1.8843  1.2592
 3906SOL    HW223178   0.003   0.723   6.523  1.0368 -1.3324 -2.5065
 3907SOL     OW23179   0.059   3.214   9.110 -0.1332  0.6107  0.2484
 3907SOL    HW123180   0.030   3.124   9.120  0.1509  0.5003  0.0837
 3907SOL    HW223181   0.095   3.207   9.021 -2.7120  1.0831 -0.8442
 3908SOL     OW23182   4.359   2.336  11.331  0.0971 -0.1255  0.6783
 3908SOL    HW123183   4.370   2.292  11.246  2.3060 -0.7373  1.2773
 3908SOL    HW223184   4.450   2.340  11.360  0.5581  0.5866 -0.8556
 3909SOL     OW23185   2.182   2.187   4.373  0.4855  0.2053  0.4251
 3909SOL    HW123186   2.200   2.253   4.440  0.9655 -0.7392  1.2251
 3909SOL    HW223187   2.149   2.112   4.422  0.7493  0.1173  0.4687
 3910SOL     OW23188   1.813   1.703   2.715  0.3063 -0.3852  0.4192
 3910SOL    HW123189   1.725   1.670   2.735 -0.5375  0.9389 -1.0868
 3910SOL    HW223190   1.834   1.760   2.788  1.2100 -0.3262  0.1159
 3911SOL     OW23191   1.419   2.721   4.379  0.0446 -0.2449  0.0558
 3911SOL    HW123192   1.378   2.790   4.326 -1.8025 -1.3653  0.0044
 3911SOL    HW223193   1.472   2.769   4.443  1.1052 -2.0072  0.4718
 3912SOL     OW23194   3.938   0.829   9.090  0.0036  0.0496 -0.6269
 3912SOL    HW123195   4.014   0.780   9.061  0.3908  0.2068  0.1287
 3912SOL    HW223196   3.940   0.899   9.025 -2.3886  1.7806  1.1384
 3913SOL     OW23197   3.968   2.996   6.485 -0.2704 -0.4916  0.1623
 3913SOL    HW123198   3.933   2.908   6.499 -0.7697 -0.6195 -1.8844
 3913SOL    HW223199   4.029   2.989   6.559 -1.2710  1.3663  1.1741
 3914SOL     OW23200   2.703   3.308   7.112 -0.5681  0.1292  0.0831
 3914SOL    HW123201   2.779   3.359   7.140 -1.1935  0.6331  0.8553
 3914SOL    HW223202   2.665   3.283   7.196 -1.4099  0.3930 -0.2174
 3915SOL     OW23203   2.584   2.201   6.059 -0.0576 -0.6604 -0.1193
 3915SOL    HW123204   2.680   2.196   6.062  0.1111  3.2281  0.9243
 3915SOL    HW223205   2.562   2.116   6.098 -0.5180 -0.7621 -0.6131
 3916SOL     OW23206   2.153   2.735  15.692 -0.2588 -0.5063  0.2622
 3916SOL    HW123207   2.117   2.805  15.636 -1.1923 -2.0640 -1.0872
 3916SOL    HW223208   2.236   2.739  15.644  0.5271 -2.4477  1.4602
 3917SOL     OW23209   4.590   2.931  12.974 -0.1379 -0.0643 -0.1204
 3917SOL    HW123210   4.518   2.968  12.924 -0.0958  0.7232  0.4016
 3917SOL    HW223211   4.545   2.847  12.987  1.8790 -1.3321 -1.3094
 3918SOL     OW23212   3.572   1.313  12.806  0.5196  0.6093  0.1111
 3918SOL    HW123213   3.654   1.289  12.849 -0.6297 -0.9216  1.4504
 3918SOL    HW223214   3.513   1.244  12.834  1.5368  0.3454  1.6004
 3919SOL     OW23215   4.549   2.321   6.176 -0.3002 -0.5929  0.0728
 3919SOL    HW123216   4.499   2.337   6.256 -0.6484  0.1167 -0.2880
 3919SOL    HW223217   4.524   2.390   6.115 -1.9770 -0.5681  0.7945
 3920SOL     OW23218   0.041   0.081   2.539  0.0812 -0.3330  0.0579
 3920SOL    HW123219   4.704   0.009   2.521 -0.4498  0.8117 -2.6036
 3920SOL    HW223220   0.033   0.151   2.475 -1.8817 -1.2913 -0.7535
 3921SOL     OW23221   0.533   4.283  13.397  0.3134 -0.5291 -0.4836
 3921SOL    HW123222   0.576   4.198  13.406  1.1268 -0.1081 -0.4028
 3921SOL    HW223223   0.445   4.273  13.433 -0.8134  1.2933 -2.7543
 3922SOL     OW23224   0.061   3.087  15.618  0.0127  0.1509  0.1519
 3922SOL    HW123225   4.690   3.086  15.598  0.0908  2.3761 -0.3349
 3922SOL    HW223226   0.106   3.057  15.539  1.4902 -2.0511  1.8281
 3923SOL     OW23227   1.161   0.427   4.408 -0.1501 -0.5016 -0.5817
 3923SOL    HW123228   1.140   0.386   4.324  1.7993  0.3428 -1.4894
 3923SOL    HW223229   1.086   0.485   4.422 -0.0103 -0.3805 -0.3341
 3924SOL     OW23230   0.318   2.883   6.490 -0.0240  0.0215  0.2737
 3924SOL    HW123231   0.409   2.912   6.495  0.0525  0.0552 -1.1599
 3924SOL    HW223232   0.318   2.869   6.395 -0.4476 -1.7339  0.5317
 3925SOL     OW23233   2.318   3.314  10.991  0.0890 -0.5359  0.4347
 3925SOL    HW123234   2.328   3.388  11.051 -0.0806 -0.5535  0.4859
 3925SOL    HW223235   2.257   3.349  10.926 -0.1843 -0.2906  0.8150
 3926SOL     OW23236   0.720   1.920  10.870 -0.0347 -0.0638  0.1216
 3926SOL    HW123237   0.632   1.954  10.853 -0.9048 -1.8278  1.0757
 3926SOL    HW223238   0.737   1.943  10.962 -0.7356  1.9807 -0.2611
 3927SOL     OW23239   4.278   1.395   4.020 -0.6582  1.0233 -0.4425
 3927SOL    HW123240   4.303   1.358   3.936  0.9855  0.5754  0.2432
 3927SOL    HW223241   4.193   1.434   3.999 -0.6343  1.5292  0.3626
 3928SOL     OW23242   1.963   2.495   1.906 -0.5091 -0.2663 -0.0998
 3928SOL    HW123243   2.049   2.513   1.869  0.3613  2.8670  3.5491
 3928SOL    HW223244   1.931   2.585   1.906  0.6682  0.1480 -0.9437
 3929SOL     OW23245   1.378   1.497   9.672  0.3653  0.2795 -0.4869
 3929SOL    HW123246   1.336   1.580   9.695  1.7182  0.9583 -0.4417
 3929SOL    HW223247   1.350   1.439   9.742  1.9042  0.6014  0.3874
 3930SOL     OW23248   0.216   2.990   3.165 -0.3279 -0.7912 -0.0925
 3930SOL    HW123249   0.158   2.973   3.239 -0.4755 -0.5904 -0.1634
 3930SOL    HW223250   0.287   2.927   3.182 -0.7238 -1.4881 -0.9959
 3931SOL     OW23251   3.030   1.163  11.072 -0.2026  0.3073 -0.0234
 3931SOL    HW123252   3.090   1.109  11.021 -1.6676  0.9919 -2.4758
 3931SOL    HW223253   3.009   1.228  11.005 -0.7510  0.0564 -0.0929
 3932SOL     OW23254   2.694   0.034   3.507 -0.0054 -0.0497 -0.5228
 3932SOL    HW123255   2.707   0.119   3.548 -0.7517  0.4496 -1.3260
 3932SOL    HW223256   2.769   0.050   3.450 -0.0123 -2.0475 -1.1205
 3933SOL     OW23257   1.195   3.120   4.033 -0.0021  0.1428 -0.0321
 3933SOL    HW123258   1.103   3.107   4.008  0.7006 -0.3472 -2.3489
 3933SOL    HW223259   1.201   3.179   4.108 -0.9099  0.5760 -0.2853
 3934SOL     OW23260   1.393   4.471  10.966  0.5101  0.5057 -0.1875
 3934SOL    HW123261   1.370   4.479  10.873  0.6564 -0.2410 -0.2927
 3934SOL    HW223262   1.338   4.538  11.006 -1.3019 -1.3973  0.5381
 3935SOL     OW23263   1.451   0.912   9.440 -0.1625 -0.2437  0.1586
 3935SOL    HW123264   1.531   0.963   9.451 -0.1198  0.1637 -2.0600
 3935SOL    HW223265   1.481   0.822   9.439  0.8620  0.1162 -0.6767
 3936SOL     OW23266   2.087   2.505  13.239 -0.1239  0.3615  0.0396
 3936SOL    HW123267   2.079   2.429  13.298  2.2400 -0.3597 -0.5897
 3936SOL    HW223268   2.036   2.484  13.161  0.7406 -0.4827 -0.2860
 3937SOL     OW23269   1.182   4.175   3.039 -0.2754 -0.5403  0.0004
 3937SOL    HW123270   1.231   4.212   3.113 -0.2988 -1.1112  0.3005
 3937SOL    HW223271   1.130   4.251   3.011  0.4278  0.2579  0.8421
 3938SOL     OW23272   2.356   1.779   5.919  0.0745  0.1396 -0.1120
 3938SOL    HW123273   2.321   1.790   6.007  0.1807 -0.4943  0.0078
 3938SOL    HW223274   2.296   1.838   5.873 -0.1270 -0.2211 -0.3116
 3939SOL     OW23275   0.400   4.710  13.981  0.4073  0.2479  0.0788
 3939SOL    HW123276   0.422   4.627  14.024 -0.5202  0.5940  1.2235
 3939SOL    HW223277   0.490   0.019  13.972  0.9100 -0.9970  0.6961
 3940SOL     OW23278   0.178   2.189   6.623  0.3340  0.1544  0.0220
 3940SOL    HW123279   0.129   2.107   6.619 -1.0972  0.9933  0.4544
 3940SOL    HW223280   0.252   2.153   6.573 -0.5086  0.0556 -1.1380
 3941SOL     OW23281   4.367   0.901  14.791  0.5666  0.3891 -0.7465
 3941SOL    HW123282   4.377   0.857  14.707  0.5164  0.4550 -0.7870
 3941SOL    HW223283   4.275   0.928  14.790  0.8662  1.4326 -0.2807
 3942SOL     OW23284   1.712   4.064   4.682  0.0644  0.6149 -0.4388
 3942SOL    HW123285   1.640   4.010   4.714 -0.2911  1.2086 -0.2442
 3942SOL    HW223286   1.660   4.103   4.611 -1.7764  0.3994  0.8137
 3943SOL     OW23287   2.819   2.725   4.952  0.6651 -0.3873  0.1678
 3943SOL    HW123288   2.832   2.630   4.951  2.6790 -0.1212  0.6298
 3943SOL    HW223289   2.903   2.746   4.994 -0.0973  0.9747  1.0312
 3944SOL     OW23290   1.849   2.533  11.465 -0.0374  0.0752  0.7728
 3944SOL    HW123291   1.759   2.501  11.465  1.1500 -3.2877 -0.9692
 3944SOL    HW223292   1.853   2.581  11.382  2.0828 -1.4992 -0.0306
 3945SOL     OW23293   0.850   2.150   4.323  0.8103 -0.1664  0.5880
 3945SOL    HW123294   0.920   2.212   4.343 -0.2694  0.6348  1.8722
 3945SOL    HW223295   0.776   2.206   4.345  0.4514 -0.6469  0.6065
 3946SOL     OW23296   2.566   2.580   9.480  0.0729 -0.2137  0.0147
 3946SOL    HW123297   2.659   2.602   9.475  0.4685 -2.0628 -0.9518
 3946SOL    HW223298   2.544   2.588   9.387 -2.5021 -1.8361  0.4883
 3947SOL     OW23299   4.139   3.526  13.987 -0.2632  0.0718  0.0555
 3947SOL    HW123300   4.057   3.479  13.972  0.7500 -1.7696  0.2471
 3947SOL    HW223301   4.147   3.520  14.082  0.0444 -2.6871 -0.1364
 3948SOL     OW23302   2.929   2.149   5.481 -0.4610  0.2223  0.6795
 3948SOL    HW123303   3.018   2.175   5.507 -0.8091  2.4769 -0.3327
 3948SOL    HW223304   2.927   2.054   5.489  0.3028  0.0540 -1.1645
 3949SOL     OW23305   0.631   1.624   4.151  0.2557 -0.0881  0.1639
 3949SOL    HW123306   0.714   1.630   4.198  0.7038 -0.9113 -0.5205
 3949SOL    HW223307   0.617   1.718   4.158 -1.2266 -0.2939  0.0152
 3950SOL     OW23308   4.482   0.308   8.145  0.0956  0.1700  0.2090
 3950SOL    HW123309   4.540   0.260   8.085 -0.5239  0.5451 -0.6933
 3950SOL    HW223310   4.400   0.263   8.126  1.5095 -2.3873  0.2320
 3951SOL     OW23311   4.582   0.116   6.519 -0.2690  0.3580  0.0416
 3951SOL    HW123312   4.514   0.055   6.547  0.5844 -0.2809  0.7311
 3951SOL    HW223313   4.657   0.096   6.575 -1.0292 -0.3555  0.8009
 3952SOL     OW23314   2.549   0.191   2.392  0.2010  0.0314  0.4973
 3952SOL    HW123315   2.623   0.143   2.429  0.7198 -1.5356 -2.5367
 3952SOL    HW223316   2.541   0.146   2.308 -1.5626  1.4764 -0.0921
 3953SOL     OW23317   4.179   0.136  17.167 -0.0095 -0.0112 -0.1426
 3953SOL    HW123318   4.251   0.173  17.218 -1.5549  1.1924  1.1292
 3953SOL    HW223319   4.230   0.125  17.086  0.1583  0.6129 -0.1184
 3954SOL     OW23320   3.564   2.331   7.782  0.3234 -0.4702  0.3284
 3954SOL    HW123321   3.590   2.266   7.847  1.4762  0.3017  0.6461
 3954SOL    HW223322   3.625   2.405   7.785  0.6846 -0.8863  3.1257
 3955SOL     OW23323   0.415   3.251   4.869  0.2875 -0.3171 -0.0702
 3955SOL    HW123324   0.434   3.270   4.961 -0.6308 -2.3527  0.5324
 3955SOL    HW223325   0.482   3.191   4.836  1.0707  1.0680 -0.9987
 3956SOL     OW23326   4.409   2.036   4.398  0.4017 -0.2615 -0.0431
 3956SOL    HW123327   4.447   1.949   4.383  0.0892 -0.5965  1.1376
 3956SOL    HW223328   4.480   2.096   4.375 -0.1528  0.1589 -0.6639
 3957SOL     OW23329   1.420   3.356   9.448  0.1349  0.2963 -0.2163
 3957SOL    HW123330   1.337   3.377   9.406  0.3711  1.2047 -0.2261
 3957SOL    HW223331   1.416   3.265   9.476 -0.2088 -0.1270 -1.6292
 3958SOL     OW23332   1.652   0.694  16.943 -0.1085  0.1655  0.0958
 3958SOL    HW123333   1.746   0.672  16.943 -0.4646 -1.3990  0.8982
 3958SOL    HW223334   1.654   0.769  16.884 -1.6740  0.5390  0.5247
 3959SOL     OW23335   3.805   4.327   9.157 -0.1644 -0.3741 -0.4833
 3959SOL    HW123336   3.776   4.257   9.215  0.0788  1.9868  2.4812
 3959SOL    HW223337   3.892   4.354   9.188  0.2821 -0.2458 -1.8084
 3960SOL     OW23338   0.861   2.784   7.884  0.0692  0.0678  0.1283
 3960SOL    HW123339   0.864   2.717   7.952 -3.2114  2.1058  2.3058
 3960SOL    HW223340   0.935   2.841   7.906  1.0634 -1.9164  1.9543
 3961SOL     OW23341   1.243   3.744   6.782 -0.6835 -0.6485  0.0756
 3961SOL    HW123342   1.167   3.717   6.731 -0.0355 -0.7122 -0.8565
 3961SOL    HW223343   1.209   3.793   6.857 -1.7901  0.8279 -1.4209
 3962SOL     OW23344   1.466   3.278   9.078 -0.0357 -0.0120  0.2780
 3962SOL    HW123345   1.484   3.221   9.004 -1.4016 -0.8832  0.6261
 3962SOL    HW223346   1.409   3.340   9.033 -0.5194 -0.6618 -0.0025
 3963SOL     OW23347   4.610   3.674   1.369  0.3069 -0.4945 -0.0828
 3963SOL    HW123348   4.568   3.755   1.399 -0.6533 -0.7246 -0.8219
 3963SOL    HW223349   4.530   3.628   1.347  0.9618 -0.9753 -1.4746
 3964SOL     OW23350   3.076   2.941   7.195  0.1190  0.7598  0.1051
 3964SOL    HW123351   3.171   2.955   7.193  0.0635  1.0082 -0.6441
 3964SOL    HW223352   3.036   3.019   7.157 -1.1067  0.1743  0.2018
 3965SOL     OW23353   4.488   3.579   5.624 -0.0726  0.5122  0.8282
 3965SOL    HW123354   4.455   3.523   5.554 -1.6877  0.6729  1.4574
 3965SOL    HW223355   4.409   3.586   5.679 -0.6453 -1.6512  0.2963
 3966SOL     OW23356   3.380   4.137   4.998 -0.9551 -0.4323 -0.1379
 3966SOL    HW123357   3.442   4.160   5.067 -0.9356 -2.2769  0.4594
 3966SOL    HW223358   3.442   4.117   4.927 -1.7396 -1.7179 -0.4644
 3967SOL     OW23359   0.427   2.594   6.355 -0.6975  0.4202  0.3500
 3967SOL    HW123360   0.464   2.512   6.390  2.4282  1.1856 -1.0916
 3967SOL    HW223361   0.336   2.579   6.380 -1.7791  2.2328 -2.5274
 3968SOL     OW23362   2.131   1.944   4.465  0.0870 -0.2409  0.3133
 3968SOL    HW123363   2.160   1.889   4.537 -0.2391  1.8676  2.0456
 3968SOL    HW223364   2.176   1.893   4.397  0.0159  0.0551  0.0426
 3969SOL     OW23365   3.350   2.639   2.834 -0.3750  0.0735  0.2814
 3969SOL    HW123366   3.403   2.610   2.908 -1.7601 -0.9844  0.8588
 3969SOL    HW223367   3.408   2.704   2.793 -0.0584  0.5809  1.5221
 3970SOL     OW23368   0.910   1.304   8.506 -0.2043  0.1976 -0.2584
 3970SOL    HW123369   0.964   1.228   8.527  0.0650  0.7980  1.2454
 3970SOL    HW223370   0.973   1.372   8.482 -1.6650  1.2440 -1.1514
 3971SOL     OW23371   0.242   4.446   6.413 -0.1902  0.0071  0.3939
 3971SOL    HW123372   0.261   4.535   6.385 -1.8562 -0.1795 -1.3371
 3971SOL    HW223373   0.318   4.397   6.381  1.8292  2.4757  1.3889
 3972SOL     OW23374   4.304   2.457  14.977  0.9292 -0.1274  0.5733
 3972SOL    HW123375   4.392   2.423  14.962 -0.1622 -2.7632  0.1683
 3972SOL    HW223376   4.255   2.378  14.998  0.9502 -0.8119 -1.9738
 3973SOL     OW23377   2.788   2.645   3.405  0.0556 -0.0871  0.2916
 3973SOL    HW123378   2.841   2.644   3.326  2.1000  1.4833  1.6310
 3973SOL    HW223379   2.771   2.739   3.415  0.2960  0.3330 -3.3107
 3974SOL     OW23380   0.354   0.377   5.916  0.3895 -0.1473  0.2232
 3974SOL    HW123381   0.385   0.326   5.842 -0.2701  0.1436 -0.2465
 3974SOL    HW223382   0.394   0.341   5.996 -0.1530  1.0651  1.0410
 3975SOL     OW23383   1.703   0.760   9.328 -0.2041 -0.5704 -0.1765
 3975SOL    HW123384   1.772   0.768   9.394  0.6358 -0.6269 -1.0416
 3975SOL    HW223385   1.731   0.682   9.279  3.1323 -0.1356  1.0327
 3976SOL     OW23386   1.963   3.997  15.214 -0.2653  0.0285  0.0105
 3976SOL    HW123387   1.990   4.084  15.244 -0.6732 -0.3802  1.5736
 3976SOL    HW223388   2.043   3.967  15.171 -0.7536 -2.1522  0.6605
 3977SOL     OW23389   2.029   2.240   3.280  0.2952  0.0952  0.1568
 3977SOL    HW123390   2.112   2.245   3.328  0.4268  0.3656 -0.0982
 3977SOL    HW223391   2.028   2.330   3.248  1.6672 -0.1293 -0.5160
 3978SOL     OW23392   3.871   3.134   2.143  0.5468 -0.4739  0.5237
 3978SOL    HW123393   3.861   3.149   2.237 -0.0563  0.4884  0.3131
 3978SOL    HW223394   3.897   3.043   2.154  0.9952 -0.1824  1.8565
 3979SOL     OW23395   2.476   4.140   5.720 -0.1936  0.4674 -0.0074
 3979SOL    HW123396   2.491   4.097   5.636  0.1212 -1.3930  1.0250
 3979SOL    HW223397   2.382   4.157   5.710 -0.7548 -1.8462  1.4273
 3980SOL     OW23398   2.377   2.139   6.564 -0.3689 -0.1364  0.5082
 3980SOL    HW123399   2.414   2.162   6.479  1.9566 -1.2707  1.2263
 3980SOL    HW223400   2.285   2.162   6.547 -0.7819 -0.6330  2.0709
 3981SOL     OW23401   0.967   2.241   7.485  0.3524  0.2115 -0.0869
 3981SOL    HW123402   1.016   2.313   7.527 -0.3399  0.1160  0.8850
 3981SOL    HW223403   1.008   2.243   7.399 -1.2414 -0.4283 -0.8393
 3982SOL     OW23404   2.075   4.455  13.038  0.2210  0.1504  0.2793
 3982SOL    HW123405   2.030   4.430  13.119  0.3459  0.3156  0.3991
 3982SOL    HW223406   2.160   4.490  13.066  0.1237  0.3135  0.3727
 3983SOL     OW23407   2.049   1.428  16.203 -0.0826 -0.2605  0.1308
 3983SOL    HW123408   2.082   1.365  16.267  0.7952  0.7588  0.6732
 3983SOL    HW223409   2.022   1.495  16.265 -1.1959 -0.2319 -0.3778
 3984SOL     OW23410   3.150   2.282   5.922 -0.2063 -0.2435 -0.0990
 3984SOL    HW123411   3.122   2.219   5.855 -1.5771 -0.5480  0.7600
 3984SOL    HW223412   3.088   2.355   5.914 -0.0032  0.2258  2.5733
 3985SOL     OW23413   3.634   3.557   6.935 -0.1576  0.2204 -0.2942
 3985SOL    HW123414   3.540   3.576   6.933 -0.4625 -1.0428  2.3079
 3985SOL    HW223415   3.638   3.504   7.015  0.2396  1.1170  0.2826
 3986SOL     OW23416   0.181   0.097   5.199 -0.0033 -0.4050 -0.1746
 3986SOL    HW123417   0.243   0.170   5.194  1.1835 -1.4639 -0.6814
 3986SOL    HW223418   0.123   0.131   5.130  0.0547 -0.3479 -0.1947
 3987SOL     OW23419   2.457   1.663   2.662  0.1522  0.2870 -0.0085
 3987SOL    HW123420   2.502   1.655   2.746  1.6727  0.0619 -0.8496
 3987SOL    HW223421   2.532   1.694   2.611  0.7769  1.6160  1.6944
 3988SOL     OW23422   4.225   2.716   9.356 -0.3719  0.5698 -0.1748
 3988SOL    HW123423   4.276   2.648   9.401 -0.5113  0.9530  0.5623
 3988SOL    HW223424   4.138   2.702   9.394 -0.9332  1.2112 -1.2324
 3989SOL     OW23425   0.748   2.348  13.889  0.6184  0.4800  0.1210
 3989SOL    HW123426   0.722   2.265  13.849  2.0159 -0.7613  1.7332
 3989SOL    HW223427   0.824   2.316  13.939  1.3586  1.5639 -0.3047
 3990SOL     OW23428   3.719   2.553  14.520  0.4366 -0.0558  0.0924
 3990SOL    HW123429   3.703   2.622  14.585 -0.6553  2.4468 -2.8419
 3990SOL    HW223430   3.721   2.466  14.560 -3.6976  0.3731  1.2281
 3991SOL     OW23431   4.441   0.136   1.817  0.7543 -0.4132  0.0093
 3991SOL    HW123432   4.514   0.183   1.859  0.6733  1.0557 -1.5160
 3991SOL    HW223433   4.459   0.046   1.844  0.2465  0.4127  3.2213
 3992SOL     OW23434   2.471   3.878  14.456 -0.3252 -0.2590  0.7439
 3992SOL    HW123435   2.543   3.841  14.405  0.5711  3.2095 -0.4624
 3992SOL    HW223436   2.518   3.944  14.508 -1.1049  0.1377  0.9439
 3993SOL     OW23437   3.613   4.564   5.784  0.2105 -0.4094  0.2309
 3993SOL    HW123438   3.625   4.552   5.689 -0.5153  2.3398 -0.1927
 3993SOL    HW223439   3.520   4.540   5.786 -0.0885  0.7501 -0.1274
 3994SOL     OW23440   2.015   3.400   4.264  0.8544  0.2794  0.0705
 3994SOL    HW123441   2.073   3.332   4.229  0.7670  0.2409  0.0025
 3994SOL    HW223442   1.930   3.370   4.233 -0.2397  2.2895  1.2005
 3995SOL     OW23443   2.228   3.205   6.071  0.1519  0.4644 -0.7402
 3995SOL    HW123444   2.300   3.217   6.009  0.6785  1.7038  0.1026
 3995SOL    HW223445   2.196   3.295   6.068 -1.4316 -0.0642 -0.0473
 3996SOL     OW23446   4.137   0.793   6.004 -0.5661 -0.6317 -0.4913
 3996SOL    HW123447   4.223   0.814   6.040 -0.0047  0.1104 -2.2445
 3996SOL    HW223448   4.165   0.761   5.918 -1.9418 -0.4451 -1.0070
 3997SOL     OW23449   0.624   4.048   4.282  0.3279  0.4590  0.4590
 3997SOL    HW123450   0.707   4.096   4.281  1.0610 -0.7816  1.8891
 3997SOL    HW223451   0.580   4.085   4.359 -0.3647 -2.7075  1.5713
 3998SOL     OW23452   2.053   1.118  11.580 -0.0305  0.3895 -0.5291
 3998SOL    HW123453   1.999   1.197  11.568 -0.6511 -0.2896 -2.1929
 3998SOL    HW223454   2.013   1.068  11.509  1.6709 -1.6877 -0.0188
 3999SOL     OW23455   2.503   3.967   7.435  0.2331  0.0701  0.7362
 3999SOL    HW123456   2.459   3.883   7.419 -0.9711  1.4417 -3.1703
 3999SOL    HW223457   2.436   4.035   7.436 -1.7773 -1.8572 -2.6490
 4000SOL     OW23458   0.492   2.233  12.889  0.3169 -0.1490 -0.7201
 4000SOL    HW123459   0.516   2.157  12.835 -0.0095 -1.6900  1.3023
 4000SOL    HW223460   0.398   2.235  12.873  0.3395 -3.6132 -1.3512
 4001SOL     OW23461   2.572   2.836   7.799  0.4081 -0.1363  0.3502
 4001SOL    HW123462   2.552   2.748   7.833  0.1603 -0.5712 -0.9213
 4001SOL    HW223463   2.666   2.825   7.794  0.3592 -1.2420  1.6965
 4002SOL     OW23464   0.129   0.945   8.482  0.7443 -0.4018 -0.2457
 4002SOL    HW123465   0.209   0.909   8.518  0.6189  1.3557  1.7834
 4002SOL    HW223466   0.110   1.019   8.540 -3.6491 -1.5114 -0.2447
 4003SOL     OW23467   0.612   0.148   2.505  0.2501 -0.1132  0.3860
 4003SOL    HW123468   0.579   0.235   2.482  0.0721 -0.6244 -1.3007
 4003SOL    HW223469   0.692   0.171   2.552  0.4600  1.4010 -0.6993
 4004SOL     OW23470   2.897   0.493   0.786  0.1751  0.6032 -0.2760
 4004SOL    HW123471   2.836   0.419   0.793  1.5662 -0.6391 -1.1200
 4004SOL    HW223472   2.840   0.566   0.761 -0.8023 -0.0960 -0.0839
 4005SOL     OW23473   0.145   3.410   9.275  0.4994 -0.6511 -0.1847
 4005SOL    HW123474   0.221   3.385   9.327  0.0917 -1.4877  0.0172
 4005SOL    HW223475   0.142   3.335   9.215  1.0137 -0.0981 -0.8976
 4006SOL     OW23476   3.829   2.345  11.213 -0.3113  0.3663  0.1858
 4006SOL    HW123477   3.808   2.434  11.186 -1.6785  0.4097  1.4284
 4006SOL    HW223478   3.909   2.353  11.266 -0.7157  1.7483  0.5713
 4007SOL     OW23479   1.223   1.039   6.792 -0.0966 -0.3175  0.1794
 4007SOL    HW123480   1.307   1.038   6.746  0.0208  0.7799  0.3698
 4007SOL    HW223481   1.204   0.946   6.808 -2.1356 -0.4377 -3.0104
 4008SOL     OW23482   0.765   1.454   3.956  0.5692 -0.3734 -0.1307
 4008SOL    HW123483   0.714   1.375   3.938 -0.1322 -0.0303  0.3358
 4008SOL    HW223484   0.706   1.503   4.013 -0.6047  0.4094 -2.0314
 4009SOL     OW23485   1.819   0.489   7.054  0.1146  0.1601 -0.3976
 4009SOL    HW123486   1.825   0.502   6.959  0.3221 -2.6709 -0.7784
 4009SOL    HW223487   1.745   0.436   7.081 -0.2215  1.0020  0.3597
 4010SOL     OW23488   1.351   0.871   4.369  0.0289 -0.3489  0.1622
 4010SOL    HW123489   1.394   0.807   4.426  1.5167  2.2358  1.9630
 4010SOL    HW223490   1.316   0.814   4.301  0.7077 -0.4695 -0.0831
 4011SOL     OW23491   4.523   1.594  15.998  0.5440 -0.2505 -0.5331
 4011SOL    HW123492   4.553   1.541  16.072 -0.8855  2.9434  2.3569
 4011SOL    HW223493   4.430   1.569  15.991  0.6259 -1.0924  1.2070
 4012SOL     OW23494   0.878   3.240   5.624 -0.1282 -0.4729 -0.1358
 4012SOL    HW123495   0.799   3.223   5.675 -0.3878 -1.4327 -0.8491
 4012SOL    HW223496   0.941   3.214   5.692 -1.8112 -0.0242  1.5843
 4013SOL     OW23497   4.261   2.045   6.937  0.0511  0.2997 -0.3493
 4013SOL    HW123498   4.200   2.022   7.007  0.7837  0.9576  0.5082
 4013SOL    HW223499   4.227   2.130   6.909 -0.0703  0.5794  0.6611
 4014SOL     OW23500   4.517   3.666  10.776  0.6755  0.0272 -0.1618
 4014SOL    HW123501   4.453   3.728  10.743  2.3546  2.5015  1.2376
 4014SOL    HW223502   4.574   3.724  10.826 -0.8111  1.9791 -0.7311
 4015SOL     OW23503   1.808   2.071   0.294 -0.0387  0.1330 -0.2934
 4015SOL    HW123504   1.833   2.159   0.324  0.6780  0.7161 -2.6072
 4015SOL    HW223505   1.741   2.052   0.360 -0.5198 -0.6499 -1.0272
 4016SOL     OW23506   0.815   4.237   4.070  0.0554  0.6809 -0.5242
 4016SOL    HW123507   0.903   4.260   4.099 -0.5961  0.3057  1.7056
 4016SOL    HW223508   0.830   4.170   4.002 -3.2192 -0.8721  0.2977
 4017SOL     OW23509   0.381   3.333   3.385 -0.5577 -0.4110  0.1255
 4017SOL    HW123510   0.371   3.288   3.300  0.7252 -2.8565  1.2781
 4017SOL    HW223511   0.313   3.280   3.427 -1.0219 -1.1554 -1.5337
 4018SOL     OW23512   0.909   4.563  15.656 -0.0778  0.0637  0.0693
 4018SOL    HW123513   0.995   4.570  15.614 -0.1042  0.8106  0.1479
 4018SOL    HW223514   0.931   4.603  15.739  0.5208  0.6736 -0.3831
 4019SOL     OW23515   3.747   3.464   7.579 -0.1336  0.2227  0.1518
 4019SOL    HW123516   3.810   3.501   7.517 -0.2937  1.7717  0.9359
 4019SOL    HW223517   3.665   3.457   7.530  0.9468 -0.0251 -1.6463
 4020SOL     OW23518   0.716   2.169   3.003  0.3405  0.5310  0.6814
 4020SOL    HW123519   0.801   2.174   2.959  0.2166 -3.9108 -0.0417
 4020SOL    HW223520   0.660   2.234   2.961  0.5630  0.1159 -0.2572
 4021SOL     OW23521   0.720   2.720  11.157 -0.0776  0.0167 -0.1644
 4021SOL    HW123522   0.715   2.644  11.099 -2.1447 -0.2837  0.3933
 4021SOL    HW223523   0.678   2.797  11.120  1.2384  1.1278  0.6240
 4022SOL     OW23524   1.354   0.701   3.977 -0.3002 -0.0347  0.0265
 4022SOL    HW123525   1.318   0.612   3.982 -2.4601  0.7148 -2.7655
 4022SOL    HW223526   1.358   0.720   3.884  1.9767  0.2744  0.1990
 4023SOL     OW23527   1.964   4.384   4.207  0.2971 -0.6498  0.5084
 4023SOL    HW123528   2.013   4.341   4.277 -0.3456  0.3698  1.5819
 4023SOL    HW223529   2.013   4.347   4.133  2.2471  1.3140  0.8287
 4024SOL     OW23530   2.893   4.029  13.878  0.2991 -0.1569  0.2044
 4024SOL    HW123531   2.823   4.055  13.818 -0.0502 -0.0501  0.6581
 4024SOL    HW223532   2.917   3.950  13.830  0.7678 -0.1979  0.4991
 4025SOL     OW23533   0.619   0.957   6.217 -0.3703  0.2926 -0.1253
 4025SOL    HW123534   0.567   0.995   6.147  0.1033 -2.7365 -2.1136
 4025SOL    HW223535   0.690   0.914   6.170  0.2067  2.0705 -0.8710
 4026SOL     OW23536   1.126   4.222   8.123  0.0507  0.0248 -0.0736
 4026SOL    HW123537   1.142   4.220   8.217 -1.8067  0.3602  0.2537
 4026SOL    HW223538   1.210   4.198   8.084 -0.3010 -0.9564 -0.2149
 4027SOL     OW23539   1.168   4.540  11.983  0.2889 -0.2284  0.0233
 4027SOL    HW123540   1.142   4.608  12.044 -1.3754  0.7480 -1.7864
 4027SOL    HW223541   1.231   4.484  12.029  1.1563  0.9587  0.2703
 4028SOL     OW23542   3.255   2.270   2.089  0.0931 -0.1980  0.3596
 4028SOL    HW123543   3.236   2.235   2.002 -1.3018  3.0934 -0.6611
 4028SOL    HW223544   3.247   2.188   2.138  1.7388 -1.2035 -1.0463
 4029SOL     OW23545   1.455   2.374   7.874  0.2965  0.2521  0.0064
 4029SOL    HW123546   1.462   2.316   7.950 -0.8030 -1.0026 -0.8455
 4029SOL    HW223547   1.370   2.345   7.842 -1.0582  1.7049  2.3043
 4030SOL     OW23548   1.899   2.452   8.857 -0.1433 -0.3893 -0.3524
 4030SOL    HW123549   1.924   2.446   8.765  0.1340 -0.0067 -0.3034
 4030SOL    HW223550   1.887   2.546   8.875 -0.2978 -0.5004  0.1202
 4031SOL     OW23551   1.880   1.992   2.830 -0.0163 -0.2368  0.2494
 4031SOL    HW123552   1.926   1.954   2.755 -0.3701 -2.6804  1.2541
 4031SOL    HW223553   1.793   1.956   2.813  0.3185  0.2593 -2.5202
 4032SOL     OW23554   4.536   3.118  10.078  0.1082 -0.1854 -0.8575
 4032SOL    HW123555   4.484   3.041  10.100  0.4495 -0.6251 -1.6039
 4032SOL    HW223556   4.478   3.188  10.109  2.2740  1.4272 -0.4161
 4033SOL     OW23557   2.605   2.590   6.163 -0.0159  0.1675  0.1651
 4033SOL    HW123558   2.559   2.609   6.245 -2.2365 -0.3751 -0.9672
 4033SOL    HW223559   2.647   2.676   6.150  0.4543 -0.1716 -0.5423
 4034SOL     OW23560   0.222   3.304   4.564 -0.0605 -0.0858 -0.0613
 4034SOL    HW123561   0.275   3.362   4.510 -1.7634  2.3524  0.8808
 4034SOL    HW223562   0.133   3.329   4.539 -0.0173 -0.8324 -0.9907
 4035SOL     OW23563   4.506   0.050   8.825  0.7208  0.2741 -0.3624
 4035SOL    HW123564   4.556   0.126   8.795  0.2868  0.0676 -1.5861
 4035SOL    HW223565   4.457   0.093   8.895  0.1077 -2.2529  0.7645
 4036SOL     OW23566   4.522   1.118   4.393  0.3968 -0.2284  0.5707
 4036SOL    HW123567   4.565   1.075   4.319  0.3084 -0.8151  0.8670
 4036SOL    HW223568   4.430   1.109   4.367  0.0537  0.2911  1.6100
 4037SOL     OW23569   0.519   0.012   5.371  0.1265 -0.0195 -0.6298
 4037SOL    HW123570   0.428   0.017   5.398  0.1813  0.3580 -0.5132
 4037SOL    HW223571   0.530   4.640   5.368  2.8071  0.3235 -1.9902
 4038SOL     OW23572   2.259   0.016   9.460  0.0223  0.1281 -0.1389
 4038SOL    HW123573   2.326   0.073   9.498 -1.4847  0.9707  1.2163
 4038SOL    HW223574   2.190   0.033   9.524 -1.1360  0.7065 -1.5398
 4039SOL     OW23575   0.525   2.023   3.172  0.0836  0.0817  0.4992
 4039SOL    HW123576   0.446   2.070   3.148 -1.1256 -1.1570  2.0488
 4039SOL    HW223577   0.591   2.053   3.110  0.7702  0.1097  1.2366
 4040SOL     OW23578   0.334   0.392  12.738  0.2685 -0.2146  0.6523
 4040SOL    HW123579   0.246   0.420  12.763 -0.5884 -1.7440 -0.6035
 4040SOL    HW223580   0.340   0.392  12.642  0.7563 -1.8881  0.6691
 4041SOL     OW23581   4.517   0.636   0.804 -0.2119 -0.5808  0.3209
 4041SOL    HW123582   4.566   0.665   0.881  0.6692 -1.5082  0.1046
 4041SOL    HW223583   4.428   0.646   0.837 -0.5336  0.7757 -0.9224
 4042SOL     OW23584   3.757   3.095   2.932 -0.1061 -0.1312 -0.6141
 4042SOL    HW123585   3.663   3.078   2.938 -0.2309  0.8336  0.2214
 4042SOL    HW223586   3.783   3.034   3.001  1.0536 -0.0031 -0.9505
 4043SOL     OW23587   1.180   0.118   8.392 -0.3066  0.4438 -0.0219
 4043SOL    HW123588   1.107   0.098   8.450 -0.8392 -0.8222 -1.1176
 4043SOL    HW223589   1.253   0.076   8.436 -2.6668 -1.9114  1.6415
 4044SOL     OW23590   1.365   1.819   4.183  0.2561  0.6018 -1.0805
 4044SOL    HW123591   1.384   1.733   4.147 -0.3213  0.2549 -0.5519
 4044SOL    HW223592   1.444   1.868   4.160  0.4484  1.1965  0.8119
 4045SOL     OW23593   1.764   2.497   6.622  0.1553 -0.4215  0.4586
 4045SOL    HW123594   1.800   2.547   6.548  2.5182 -3.1372 -0.2299
 4045SOL    HW223595   1.775   2.553   6.699  3.9838 -0.5917  0.0719
 4046SOL     OW23596   0.418   0.071   3.006  0.0035  0.0324  0.0278
 4046SOL    HW123597   0.396   0.110   3.091  1.2433  2.9529 -1.0116
 4046SOL    HW223598   0.345   0.097   2.950 -0.4322 -1.1979  0.0168
 4047SOL     OW23599   4.289   0.381   2.905  0.1278 -0.2665 -0.0203
 4047SOL    HW123600   4.296   0.453   2.968  2.4827 -0.4769 -0.0261
 4047SOL    HW223601   4.256   0.315   2.966 -0.4423  0.0233 -0.0197
 4048SOL     OW23602   0.967   0.973  15.688 -0.0374  0.0004 -0.2455
 4048SOL    HW123603   1.036   1.033  15.715  0.7682 -1.3405  0.6422
 4048SOL    HW223604   1.011   0.892  15.664  0.5524  0.1983  0.1824
 4049SOL     OW23605   2.705   1.612   7.460 -0.0047  0.3976  0.3496
 4049SOL    HW123606   2.668   1.606   7.549  0.6785  0.4668  0.6416
 4049SOL    HW223607   2.631   1.653   7.416  0.2565 -0.8153 -1.1870
 4050SOL     OW23608   0.788   0.671   7.711 -0.7951 -0.2482 -0.1402
 4050SOL    HW123609   0.741   0.710   7.785 -1.3340 -1.1718  0.0003
 4050SOL    HW223610   0.869   0.648   7.756 -0.8699 -0.9025 -0.3306
 4051SOL     OW23611   3.475   2.379   3.300  0.0906  0.5660 -0.3974
 4051SOL    HW123612   3.535   2.325   3.352  1.0602  0.3701 -1.7122
 4051SOL    HW223613   3.401   2.319   3.287 -0.8831  1.5512  0.5907
 4052SOL     OW23614   0.825   3.206   5.352 -0.2402 -0.3303 -0.8197
 4052SOL    HW123615   0.847   3.205   5.445 -1.3864  1.5218 -0.5505
 4052SOL    HW223616   0.791   3.117   5.338 -0.3358 -0.5075  0.5241
 4053SOL     OW23617   1.667   4.685   6.856 -0.2468 -0.6527  0.0936
 4053SOL    HW123618   1.696   4.641   6.936  1.1117 -0.1604 -0.1181
 4053SOL    HW223619   1.594   4.631   6.828 -0.3328 -0.9148  0.8126
 4054SOL     OW23620   3.591   0.164   3.102  0.0159 -0.2308  0.2508
 4054SOL    HW123621   3.596   0.259   3.091 -0.7739 -0.4761 -2.2370
 4054SOL    HW223622   3.574   0.133   3.013  0.4630  0.0395  0.0717
 4055SOL     OW23623   4.190   2.481   1.829  0.0114 -0.3328  0.1258
 4055SOL    HW123624   4.103   2.498   1.865  0.0801 -0.9871  0.5888
 4055SOL    HW223625   4.162   2.465   1.738 -2.5656  0.8791  0.7153
 4056SOL     OW23626   2.910   0.883   2.802  0.4627  0.5390  0.3267
 4056SOL    HW123627   2.914   0.904   2.709  2.8331  0.6706  0.4510
 4056SOL    HW223628   2.815   0.869   2.806  0.5483 -0.0803  0.3067
 4057SOL     OW23629   0.131   0.410  15.196 -0.0352 -0.2164 -0.5651
 4057SOL    HW123630   0.122   0.450  15.109  0.8976  1.0544 -0.0651
 4057SOL    HW223631   0.215   0.365  15.190 -1.0660 -1.9551 -1.9775
 4058SOL     OW23632   2.816   4.148   7.068 -0.2428  0.0970 -0.1735
 4058SOL    HW123633   2.898   4.106   7.041  0.1617 -0.3035  1.6883
 4058SOL    HW223634   2.773   4.078   7.117 -0.4782  0.8542  0.6980
 4059SOL     OW23635   0.754   2.124   8.147  0.2638 -0.3531 -0.5506
 4059SOL    HW123636   0.829   2.068   8.167  0.6243  1.3629  2.8204
 4059SOL    HW223637   0.706   2.116   8.229  0.3821 -3.5460 -0.8127
 4060SOL     OW23638   4.340   1.103   1.334  1.1396 -0.1822 -0.0146
 4060SOL    HW123639   4.343   1.052   1.415  0.0384  0.3098  0.3357
 4060SOL    HW223640   4.370   1.046   1.264 -0.1496  1.1571 -1.6660
 4061SOL     OW23641   0.256   3.551   3.923  0.3140  0.2942 -0.7528
 4061SOL    HW123642   0.192   3.480   3.928  1.1370 -0.5380 -2.1737
 4061SOL    HW223643   0.221   3.583   3.840 -0.3459 -0.2500 -0.6860
 4062SOL     OW23644   1.439   4.607   2.813  0.8372 -0.0862 -0.3012
 4062SOL    HW123645   1.378   4.549   2.767  3.3849 -2.5352 -0.6103
 4062SOL    HW223646   1.403   4.594   2.900 -1.8803  0.7043 -1.2979
 4063SOL     OW23647   1.774   3.285   2.164  0.8196 -0.0750 -0.0155
 4063SOL    HW123648   1.685   3.298   2.196  1.1268  1.1750  0.3527
 4063SOL    HW223649   1.815   3.371   2.179  1.6611 -0.8012  1.8661
 4064SOL     OW23650   2.250   3.009   3.080 -0.6856  0.1797 -0.2345
 4064SOL    HW123651   2.202   2.926   3.085 -1.2546  0.5247  0.0457
 4064SOL    HW223652   2.209   3.052   3.005  0.3890  0.4091 -0.6992
 4065SOL     OW23653   1.551   3.315   4.474 -0.6534  0.2374  0.2869
 4065SOL    HW123654   1.571   3.392   4.421  0.9217 -0.5474 -0.2447
 4065SOL    HW223655   1.622   3.308   4.539  1.1189  3.0385 -1.3316
 4066SOL     OW23656   0.901   2.789   4.877  0.6747 -0.0487  0.1479
 4066SOL    HW123657   0.855   2.866   4.910 -0.6311 -0.6069 -0.3528
 4066SOL    HW223658   0.856   2.714   4.918 -0.2856 -0.5996 -1.9245
 4067SOL     OW23659   0.151   3.119   7.351  0.2597 -0.0036 -0.9441
 4067SOL    HW123660   0.155   3.041   7.405 -0.8574 -0.2040 -1.1407
 4067SOL    HW223661   0.244   3.123   7.329  0.4698 -1.8337 -0.3847
 4068SOL     OW23662   3.699   2.710   5.964 -0.0214  0.0703  0.1431
 4068SOL    HW123663   3.708   2.627   6.011 -1.2664  0.9764  1.9677
 4068SOL    HW223664   3.786   2.722   5.926 -1.1404 -0.8614 -2.7357
 4069SOL     OW23665   0.154   0.087  13.958 -0.0025  0.2544 -0.1396
 4069SOL    HW123666   0.248   0.075  13.945 -0.0063  0.3564 -0.2634
 4069SOL    HW223667   0.138   0.001  13.996 -2.8464  0.1322 -1.6417
 4070SOL     OW23668   0.151   2.658   6.113 -0.1025  0.2407  0.3465
 4070SOL    HW123669   0.122   2.602   6.184  0.5246  1.0945  1.2798
 4070SOL    HW223670   0.202   2.726   6.157  1.5598  0.4846 -1.9503
 4071SOL     OW23671   0.454   0.555   1.103  0.3981  0.1513 -0.2862
 4071SOL    HW123672   0.523   0.489   1.100  1.4807  1.3388 -1.0317
 4071SOL    HW223673   0.502   0.630   1.070  0.4821 -0.3034 -1.2049
 4072SOL     OW23674   2.749   3.711   1.848 -0.0738  0.6745 -0.3046
 4072SOL    HW123675   2.661   3.747   1.830  0.4213  1.5717 -0.9809
 4072SOL    HW223676   2.724   3.620   1.860  2.3707 -0.0724 -1.0007
 4073SOL     OW23677   2.816   2.853   7.082 -0.0159 -0.0514  0.8604
 4073SOL    HW123678   2.875   2.875   7.154  2.0453 -1.6831 -0.3731
 4073SOL    HW223679   2.770   2.937   7.070  0.8344  0.4776  1.3007
 4074SOL     OW23680   3.588   1.965   8.641  0.0598  0.4131  0.0305
 4074SOL    HW123681   3.657   2.024   8.670 -0.1230  0.9798 -0.7187
 4074SOL    HW223682   3.586   1.912   8.721  2.4004  0.0699 -0.1267
 4075SOL     OW23683   0.995   4.470   7.791 -0.2316  0.6085  0.5201
 4075SOL    HW123684   1.064   4.529   7.823  1.4910 -0.5989 -1.0071
 4075SOL    HW223685   1.050   4.395   7.772 -0.6783 -0.4859  3.6115
 4076SOL     OW23686   2.668   2.327  16.547  0.0573 -0.4308  0.3797
 4076SOL    HW123687   2.736   2.259  16.552  1.6874  1.1211 -0.5175
 4076SOL    HW223688   2.597   2.294  16.492 -0.2456  0.4928  0.2296
 4077SOL     OW23689   1.242   4.458  14.086 -0.2537  0.8594 -0.1747
 4077SOL    HW123690   1.275   4.524  14.147  2.2507 -0.3745 -0.2108
 4077SOL    HW223691   1.311   4.394  14.104  0.0597  1.5332  0.9927
 4078SOL     OW23692   2.158   1.792   4.682  0.2028  0.0833  0.7795
 4078SOL    HW123693   2.078   1.845   4.686 -0.2861 -0.3132 -3.1144
 4078SOL    HW223694   2.125   1.717   4.732 -0.2900 -1.2920 -1.5990
 4079SOL     OW23695   3.203   0.777  12.097  0.0284 -0.2026 -0.1190
 4079SOL    HW123696   3.119   0.754  12.136 -0.0009 -2.4081 -1.4530
 4079SOL    HW223697   3.223   0.692  12.059  1.0586  0.2364 -0.5601
 4080SOL     OW23698   1.401   3.992   6.168 -0.1261  0.0651  0.3374
 4080SOL    HW123699   1.366   4.005   6.256  0.0639 -0.7987  0.5449
 4080SOL    HW223700   1.494   3.975   6.184 -0.2310 -0.2198  0.6383
 4081SOL     OW23701   1.585   1.681   1.196 -0.4291  0.0437 -0.2397
 4081SOL    HW123702   1.528   1.645   1.128  1.9493 -1.8815 -1.2250
 4081SOL    HW223703   1.534   1.742   1.249  1.3041  0.6295  0.7459
 4082SOL     OW23704   2.518   3.486  17.562 -0.1872 -0.2251 -0.4499
 4082SOL    HW123705   2.467   3.567  17.568 -0.1851 -0.3584  1.1815
 4082SOL    HW223706   2.460   3.421  17.601 -1.1686 -0.9147 -3.0233
 4083SOL     OW23707   1.902   1.505   4.417  0.4772  0.3173  0.2024
 4083SOL    HW123708   1.874   1.484   4.328  1.0803 -0.8744  0.2957
 4083SOL    HW223709   1.995   1.528   4.405  0.6195 -0.3672 -0.0043
 4084SOL     OW23710   2.235   1.069  15.404  0.3525 -0.3148 -0.3015
 4084SOL    HW123711   2.194   1.079  15.490 -1.8760  2.9821 -1.7351
 4084SOL    HW223712   2.295   1.144  15.405  1.2529 -1.0542  0.7756
 4085SOL     OW23713   0.080   1.011   8.162  0.5735 -0.0506  0.6005
 4085SOL    HW123714   4.707   0.999   8.164  0.6424 -0.8111 -0.3537
 4085SOL    HW223715   0.107   0.941   8.222 -1.4746 -2.0991 -0.8642
 4086SOL     OW23716   1.166   1.224   3.007  0.6127 -0.5414 -0.4854
 4086SOL    HW123717   1.072   1.203   3.005  0.8409 -1.5073 -1.1104
 4086SOL    HW223718   1.168   1.314   3.039  0.9293 -0.2826 -1.2456
 4087SOL     OW23719   4.034   1.573  11.649  0.1157 -0.2923  0.1193
 4087SOL    HW123720   4.076   1.647  11.692 -0.6917  0.6047 -0.6374
 4087SOL    HW223721   3.992   1.610  11.571  0.3458 -0.7204 -0.2154
 4088SOL     OW23722   4.713   2.338   0.436  0.0150  0.5552  0.8327
 4088SOL    HW123723   4.635   2.287   0.458 -2.0952  2.4033 -2.4106
 4088SOL    HW223724   0.047   2.269   0.402 -3.2322 -1.5075 -0.3852
 4089SOL     OW23725   1.255   3.972   2.854 -0.3824  0.1375 -0.4674
 4089SOL    HW123726   1.251   4.059   2.892  0.1872  0.8675 -2.0664
 4089SOL    HW223727   1.173   3.966   2.804 -0.1888  2.4752 -1.0353
 4090SOL     OW23728   0.754   3.711   3.594 -0.3703 -0.4641  0.3189
 4090SOL    HW123729   0.715   3.667   3.518  1.8506  1.4079 -1.9065
 4090SOL    HW223730   0.832   3.750   3.556 -0.6391  1.6968  1.9794
 4091SOL     OW23731   2.083   3.228   7.236 -0.2597  0.0661 -0.4190
 4091SOL    HW123732   2.161   3.259   7.283  0.5623 -0.3660 -1.4743
 4091SOL    HW223733   2.118   3.182   7.159 -0.6528 -1.3498  0.2428
 4092SOL     OW23734   0.838   2.024   0.545  0.0176  0.3726  0.4126
 4092SOL    HW123735   0.813   2.092   0.607 -1.0200  1.6879 -1.4549
 4092SOL    HW223736   0.901   1.972   0.595 -1.0493  0.7127  2.0722
 4093SOL     OW23737   2.584   3.001   8.236 -0.1175 -0.2873 -0.5960
 4093SOL    HW123738   2.556   2.922   8.191 -1.8987 -0.5545  0.9740
 4093SOL    HW223739   2.655   2.976   8.295  0.3376 -0.3401 -1.1687
 4094SOL     OW23740   2.270   3.955   8.901 -0.0143  0.1270  0.4096
 4094SOL    HW123741   2.210   3.955   8.976 -0.7027 -0.7926 -0.1439
 4094SOL    HW223742   2.349   3.964   8.954 -0.2283 -0.3551  0.8084
 4095SOL     OW23743   1.982   0.912   8.336 -0.1571  0.2961 -0.0312
 4095SOL    HW123744   2.005   0.906   8.429 -0.1998 -0.8656 -0.0863
 4095SOL    HW223745   1.887   0.907   8.329  0.0766  0.4988 -3.4409
 4096SOL     OW23746   3.873   0.780   5.107 -0.3947 -0.6486 -0.1852
 4096SOL    HW123747   3.793   0.800   5.059  1.9936  0.8081 -3.6134
 4096SOL    HW223748   3.937   0.759   5.038  1.3897 -0.5696  1.4403
 4097SOL     OW23749   0.537   2.368   7.691  0.1276 -0.1718 -0.4469
 4097SOL    HW123750   0.597   2.295   7.706  0.9970  0.8202  0.8830
 4097SOL    HW223751   0.592   2.437   7.654 -0.1170 -0.2592 -0.9711
 4098SOL     OW23752   2.061   2.508  10.790  0.4450  0.0060 -0.5516
 4098SOL    HW123753   2.024   2.422  10.770 -1.3240  0.4380  0.8955
 4098SOL    HW223754   1.984   2.541  10.836  1.9644  1.3291  1.0372
 4099SOL     OW23755   4.661   0.061   7.008 -0.6366  0.0953  0.1258
 4099SOL    HW123756   4.622   0.003   6.943  3.3676  0.4912 -2.6292
 4099SOL    HW223757   0.025   0.021   7.006  0.6799  2.8519  1.0927
 4100SOL     OW23758   0.618   2.226   2.636  0.2656  0.7817 -0.1398
 4100SOL    HW123759   0.637   2.258   2.724 -1.8979 -0.7351  0.8830
 4100SOL    HW223760   0.558   2.295   2.607  0.5534  0.6281 -1.0787
 4101SOL     OW23761   1.529   4.237   3.631  0.2741 -0.1567 -0.4473
 4101SOL    HW123762   1.468   4.283   3.573  2.8392  1.0291 -2.1858
 4101SOL    HW223763   1.554   4.166   3.572  0.5070 -0.3677 -0.0926
 4102SOL     OW23764   0.556   3.504   4.900  0.0825 -0.7991 -0.0033
 4102SOL    HW123765   0.462   3.503   4.883  0.0469 -1.7987  0.2376
 4102SOL    HW223766   0.561   3.425   4.955  3.1308 -0.7286 -0.1611
 4103SOL     OW23767   1.056   4.474   6.265 -0.2859 -0.3173 -0.3254
 4103SOL    HW123768   0.969   4.514   6.258  0.4196  1.1922 -0.2975
 4103SOL    HW223769   1.052   4.409   6.194  3.0571 -0.1981 -0.5958
 4104SOL     OW23770   1.706   0.489  14.907 -0.1389 -0.3029  0.3803
 4104SOL    HW123771   1.667   0.462  14.990  1.4572  1.2676  1.6275
 4104SOL    HW223772   1.711   0.404  14.863  1.3580  0.2138 -0.4523
 4105SOL     OW23773   1.641   0.368  13.320  0.0229  0.0969  0.5188
 4105SOL    HW123774   1.646   0.458  13.353 -1.9494  1.0990 -1.8421
 4105SOL    HW223775   1.718   0.326  13.357  0.4623  0.2952 -0.1823
 4106SOL     OW23776   3.291   3.085  16.559  0.1343  0.3210 -0.0008
 4106SOL    HW123777   3.260   3.134  16.483 -0.4347 -1.1001 -0.6925
 4106SOL    HW223778   3.214   3.040  16.593  0.7348 -0.6667  0.0671
 4107SOL     OW23779   1.418   3.076   8.062  0.3161  0.7691  0.2673
 4107SOL    HW123780   1.441   2.992   8.100 -0.2357 -0.1927 -1.5106
 4107SOL    HW223781   1.501   3.123   8.067 -0.0627  1.3125  1.4271
 4108SOL     OW23782   0.042   3.290  10.569 -0.1492 -0.6171 -0.1250
 4108SOL    HW123783   0.014   3.380  10.587  2.8354 -0.3594  3.1689
 4108SOL    HW223784   0.023   3.289  10.475 -0.6827  3.0119 -0.0562
 4109SOL     OW23785   0.131   4.594   7.499  0.3428 -0.0657  0.1427
 4109SOL    HW123786   0.159   4.529   7.434 -2.2333 -2.5263  1.4920
 4109SOL    HW223787   0.101   4.667   7.444  2.0429  1.7912  1.6854
 4110SOL     OW23788   2.430   1.119  10.455 -0.1431  0.0244 -0.2622
 4110SOL    HW123789   2.504   1.093  10.510  0.7640  1.4415 -0.7927
 4110SOL    HW223790   2.448   1.213  10.449 -0.7524  0.0924 -1.0489
 4111SOL     OW23791   0.395   0.423  17.184  0.6748  0.3946 -0.6406
 4111SOL    HW123792   0.323   0.454  17.239  0.2431  1.8977 -2.0629
 4111SOL    HW223793   0.464   0.444  17.247  2.2263 -1.0952 -1.8709
 4112SOL     OW23794   2.208   0.783   2.110  0.5766  0.6193  0.3586
 4112SOL    HW123795   2.205   0.851   2.043  0.9611 -0.3201 -0.6316
 4112SOL    HW223796   2.146   0.812   2.176  0.3047  1.0863 -0.1076
 4113SOL     OW23797   2.049   0.532   3.291 -0.1941  0.1497 -0.3556
 4113SOL    HW123798   1.963   0.574   3.288 -0.5712 -0.6821 -1.1553
 4113SOL    HW223799   2.039   0.484   3.373  1.9924  3.2554  1.7381
 4114SOL     OW23800   2.034   3.030   7.906 -0.2457  0.3400  0.6774
 4114SOL    HW123801   2.074   3.017   7.820 -2.9550 -1.6432 -0.2813
 4114SOL    HW223802   2.113   3.054   7.955  0.6749  0.7193 -0.9894
 4115SOL     OW23803   4.499   4.257  13.105 -0.1921 -0.0067  0.9805
 4115SOL    HW123804   4.504   4.352  13.116  2.7158 -0.0765  0.2540
 4115SOL    HW223805   4.515   4.222  13.192  1.0423 -1.8463  0.0326
 4116SOL     OW23806   4.444   3.982  10.009 -0.7927  0.0265 -0.2112
 4116SOL    HW123807   4.471   3.916   9.945  1.9539  0.3307  0.6042
 4116SOL    HW223808   4.351   3.962  10.014 -1.1045  1.9263  1.3056
 4117SOL     OW23809   0.629   4.351  14.141  0.0127  0.2852 -0.0860
 4117SOL    HW123810   0.668   4.321  14.058  0.6390  1.4144 -0.2062
 4117SOL    HW223811   0.645   4.277  14.199  0.5360 -1.6709 -2.7520
 4118SOL     OW23812   1.613   2.282   6.656  0.1074  0.1367 -0.0778
 4118SOL    HW123813   1.533   2.331   6.676  2.0037  2.4172  1.8528
 4118SOL    HW223814   1.681   2.350   6.658  1.1600 -0.9556  0.8476
 4119SOL     OW23815   4.491   4.244   2.864 -0.6030 -0.4858  0.2413
 4119SOL    HW123816   4.541   4.280   2.938 -1.3741 -0.9399  0.9926
 4119SOL    HW223817   4.418   4.212   2.918  0.0916 -2.0367  0.2558
 4120SOL     OW23818   3.208   4.562   4.520  0.1161 -0.8325  0.1060
 4120SOL    HW123819   3.217   4.591   4.429 -2.0404 -0.1005  0.1287
 4120SOL    HW223820   3.191   4.641   4.572 -0.3840 -0.9804  0.1681
 4121SOL     OW23821   3.328   2.885   1.160 -0.1016 -0.7881  0.0878
 4121SOL    HW123822   3.338   2.952   1.092 -1.5187  1.7496  2.3907
 4121SOL    HW223823   3.347   2.937   1.238  0.2903  0.5548 -0.8909
 4122SOL     OW23824   3.805   1.178  11.927 -0.0926  0.2036 -0.0729
 4122SOL    HW123825   3.785   1.254  11.872 -0.2502 -1.3276 -2.1380
 4122SOL    HW223826   3.741   1.120  11.887 -1.1184  1.8478 -0.8087
 4123SOL     OW23827   2.217   3.474   5.957  0.0420  0.7463 -0.3117
 4123SOL    HW123828   2.149   3.540   5.970 -3.4294 -2.5014 -2.0567
 4123SOL    HW223829   2.225   3.476   5.862 -0.5096 -1.7220 -0.4150
 4124SOL     OW23830   1.695   1.019   6.711 -0.2824  0.3753 -0.2988
 4124SOL    HW123831   1.765   1.001   6.648 -1.0050 -0.5495 -0.8344
 4124SOL    HW223832   1.718   0.950   6.773 -1.1457 -0.3754 -0.8209
 4125SOL     OW23833   2.737   1.963   4.166 -0.5852 -0.0085  0.6853
 4125SOL    HW123834   2.782   1.911   4.233 -1.9824 -0.8324  0.9868
 4125SOL    HW223835   2.770   2.050   4.185 -0.3329  0.0825 -0.1960
 4126SOL     OW23836   1.062   2.419   5.701  0.3186 -0.1463  0.1726
 4126SOL    HW123837   1.156   2.410   5.686  0.0970  1.3165 -2.1963
 4126SOL    HW223838   1.061   2.483   5.772  1.4656 -0.1148  0.1528
 4127SOL     OW23839   0.515   4.053   6.168  0.1491 -0.7222 -0.0247
 4127SOL    HW123840   0.549   4.084   6.084 -0.8492 -0.5365 -0.3668
 4127SOL    HW223841   0.430   4.026   6.131  1.0512 -1.6056 -1.4588
 4128SOL     OW23842   1.537   0.617   9.941 -0.4429 -0.0105  0.0649
 4128SOL    HW123843   1.570   0.530   9.920  1.3880  0.5648  0.5781
 4128SOL    HW223844   1.453   0.619   9.896 -0.1227  1.2204 -0.4531
 4129SOL     OW23845   0.864   0.551   4.419 -0.0797 -0.3787 -0.1371
 4129SOL    HW123846   0.840   0.620   4.357 -0.3922  0.0133  0.4163
 4129SOL    HW223847   0.897   0.595   4.497  1.4840  0.6725 -1.3829
 4130SOL     OW23848   0.399   3.951   8.253  0.1396  0.2325 -0.1715
 4130SOL    HW123849   0.356   3.997   8.325  1.0569  3.3328 -1.6185
 4130SOL    HW223850   0.349   3.869   8.255 -1.9439  1.5355  1.4258
 4131SOL     OW23851   3.663   2.923   0.831  0.5819  0.2968 -0.1188
 4131SOL    HW123852   3.740   2.905   0.885  0.7256  0.6768 -0.1978
 4131SOL    HW223853   3.644   2.836   0.795 -1.9381  0.5043  0.7157
 4132SOL     OW23854   2.903   1.676   2.791  0.0824 -0.0806 -0.4824
 4132SOL    HW123855   2.937   1.765   2.784 -0.5793  0.1053 -1.2695
 4132SOL    HW223856   2.973   1.655   2.854  0.3745  1.8067 -0.1656
 4133SOL     OW23857   3.934   2.176   3.181  0.0467 -0.3747 -0.0738
 4133SOL    HW123858   4.028   2.187   3.172 -0.0751 -1.6591 -2.7345
 4133SOL    HW223859   3.920   2.268   3.203  0.5436 -0.7599  1.8464
 4134SOL     OW23860   0.777   3.750   3.959 -0.4107  0.2302  0.4756
 4134SOL    HW123861   0.740   3.682   3.904  0.6185  1.0779 -1.2662
 4134SOL    HW223862   0.699   3.764   4.012 -0.9109  0.1123 -0.2311
 4135SOL     OW23863   4.199   3.528   7.658  0.2043  0.1651  0.2007
 4135SOL    HW123864   4.248   3.449   7.681  0.6888  0.2416 -0.5623
 4135SOL    HW223865   4.118   3.518   7.708  0.2124  1.7400  0.5338
 4136SOL     OW23866   4.297   1.237   8.549 -0.1158 -0.4030 -0.4987
 4136SOL    HW123867   4.294   1.172   8.619  1.4152  3.2217  2.8516
 4136SOL    HW223868   4.316   1.317   8.596 -0.0221 -0.5044 -0.3652
 4137SOL     OW23869   2.016   1.692   2.967 -0.2475 -0.4725 -0.5703
 4137SOL    HW123870   2.067   1.617   2.935 -3.4536 -2.8251 -0.1153
 4137SOL    HW223871   2.076   1.730   3.031 -2.1391 -0.4042  1.1635
 4138SOL     OW23872   4.310   4.387   8.255 -0.6382  0.0003  0.0824
 4138SOL    HW123873   4.260   4.469   8.249  0.4095  0.6453  0.1264
 4138SOL    HW223874   4.273   4.333   8.324 -2.2302  2.6682  1.3042
 4139SOL     OW23875   3.281   1.722   0.755 -0.0196  0.2692  0.5759
 4139SOL    HW123876   3.244   1.760   0.835  1.8548  0.2331  1.4594
 4139SOL    HW223877   3.205   1.735   0.699  0.5116 -0.2457 -0.2754
 4140SOL     OW23878   3.123   1.753   6.577 -0.3359 -0.2659  0.1224
 4140SOL    HW123879   3.139   1.819   6.644  0.7189 -3.0605  2.6563
 4140SOL    HW223880   3.139   1.671   6.625  0.6364 -1.7755 -2.7614
 4141SOL     OW23881   2.740   3.965  12.945  0.4838  0.1608  0.2419
 4141SOL    HW123882   2.757   4.008  12.861 -0.9854  0.9015  0.3199
 4141SOL    HW223883   2.751   3.878  12.907 -2.1817 -0.0602 -0.0289
 4142SOL     OW23884   0.301   3.259   0.022 -0.2212 -0.4667 -0.4126
 4142SOL    HW123885   0.219   3.274   0.069  0.8789  1.0913  1.0179
 4142SOL    HW223886   0.274   3.208  17.639  1.7455 -0.6150 -1.0130
 4143SOL     OW23887   4.416   2.209   2.412 -0.9121  0.5241  0.2273
 4143SOL    HW123888   4.471   2.234   2.486  1.1751  0.8780 -1.4273
 4143SOL    HW223889   4.480   2.180   2.346 -1.7132  0.1778 -0.3977
 4144SOL     OW23890   1.898   4.298  12.313 -0.2159  0.1333  0.2410
 4144SOL    HW123891   1.840   4.325  12.385 -0.7542 -0.5320  0.0590
 4144SOL    HW223892   1.837   4.314  12.241 -1.8842  1.0861  1.8358
 4145SOL     OW23893   0.322   1.030  16.117 -0.1474  0.5939 -0.4922
 4145SOL    HW123894   0.297   1.103  16.061  1.4175  0.2400 -1.6602
 4145SOL    HW223895   0.391   1.076  16.165  0.2234 -0.8901  0.4001
 4146SOL     OW23896   4.692   3.286  10.831  0.2850 -0.1298 -0.0524
 4146SOL    HW123897   0.034   3.262  10.765  1.8281  1.7785  0.7351
 4146SOL    HW223898   0.001   3.370  10.865 -2.2596 -0.9532  4.4640
 4147SOL     OW23899   1.286   3.843  12.277 -0.9360  0.1579  0.2600
 4147SOL    HW123900   1.231   3.776  12.239 -0.1776  0.8704 -2.1250
 4147SOL    HW223901   1.368   3.828  12.230 -1.2255  1.0949 -0.5422
 4148SOL     OW23902   1.737   1.583   9.408 -0.3403  0.0874 -0.1527
 4148SOL    HW123903   1.728   1.667   9.363  3.0063 -0.6868 -2.2495
 4148SOL    HW223904   1.831   1.568   9.402 -0.2362  1.2086 -1.2675
 4149SOL     OW23905   3.409   4.248  11.322 -0.3292 -0.7350 -0.2267
 4149SOL    HW123906   3.463   4.326  11.308 -2.7186  1.1774  1.1412
 4149SOL    HW223907   3.400   4.248  11.417 -2.2605  4.3642 -0.3898
 4150SOL     OW23908   0.012   2.474   8.939 -0.0918 -0.2557  0.1684
 4150SOL    HW123909   4.682   2.541   8.983 -0.4376 -0.3499 -0.0999
 4150SOL    HW223910   0.031   2.416   9.013  0.7628  1.5813  1.3885
 4151SOL     OW23911   0.455   2.480   6.965 -0.6764  0.1584  0.1831
 4151SOL    HW123912   0.367   2.509   6.941 -0.4538 -0.3100 -1.1647
 4151SOL    HW223913   0.495   2.453   6.883 -1.1457 -0.5301  0.1756
 4152SOL     OW23914   3.930   2.022   6.096  0.1892  0.2531 -0.3571
 4152SOL    HW123915   4.020   2.053   6.106  0.4947 -0.9084  0.5664
 4152SOL    HW223916   3.897   2.088   6.035 -1.7910 -0.8552 -0.4796
 4153SOL     OW23917   3.609   3.281   5.505 -0.2177 -0.1117 -0.2054
 4153SOL    HW123918   3.667   3.351   5.474 -0.3196  0.5368  1.0503
 4153SOL    HW223919   3.540   3.340   5.535 -0.7301  0.9440 -3.4884
 4154SOL     OW23920   3.399   0.088  12.157  0.1772  0.6538 -0.3762
 4154SOL    HW123921   3.418   4.718  12.169  0.6646  0.8690  0.5725
 4154SOL    HW223922   3.486   0.121  12.183 -0.5561  0.9875  1.6080
 4155SOL     OW23923   4.354   1.354  16.964 -0.4103  0.4527  0.5115
 4155SOL    HW123924   4.326   1.348  16.873 -0.8535  1.1589  0.6019
 4155SOL    HW223925   4.268   1.357  17.007 -1.0669  0.7313 -0.8126
 4156SOL     OW23926   3.744   0.132   3.326  0.1599  0.1449 -0.3906
 4156SOL    HW123927   3.821   0.169   3.283  0.9632 -2.0356 -0.8206
 4156SOL    HW223928   3.672   0.147   3.265 -0.6294 -2.5299 -0.1082
 4157SOL     OW23929   4.088   4.420   8.602  0.3439 -0.0512  0.2109
 4157SOL    HW123930   4.078   4.480   8.676 -1.9047 -1.4472  1.0023
 4157SOL    HW223931   4.132   4.345   8.641  1.1694 -0.0919 -0.7883
 4158SOL     OW23932   3.238   0.939   3.444 -0.0221 -0.1791  0.0950
 4158SOL    HW123933   3.171   0.875   3.420 -0.6967  0.3236  0.6228
 4158SOL    HW223934   3.287   0.886   3.507 -2.6951  1.4569  3.5649
 4159SOL     OW23935   2.300   0.522   0.498  0.0293 -0.2919 -0.0174
 4159SOL    HW123936   2.345   0.572   0.430 -0.0861  2.3185  1.8123
 4159SOL    HW223937   2.217   0.569   0.484 -0.3066 -0.5670  1.0622
 4160SOL     OW23938   0.648   3.779  11.417 -0.8152 -0.5521 -0.1736
 4160SOL    HW123939   0.680   3.719  11.485  1.1539  0.7583  0.0564
 4160SOL    HW223940   0.736   3.783  11.380 -1.2874  1.6771 -1.0546
 4161SOL     OW23941   2.713   2.836   6.166  0.7196 -0.1468  0.3065
 4161SOL    HW123942   2.754   2.902   6.111 -0.9415  1.2174  0.7233
 4161SOL    HW223943   2.668   2.892   6.228 -0.0386 -0.1818 -0.2146
 4162SOL     OW23944   0.373   2.540   8.571 -0.0469 -0.8312 -0.3337
 4162SOL    HW123945   0.314   2.566   8.642  0.5371  0.6650 -0.4121
 4162SOL    HW223946   0.357   2.445   8.569  0.5734 -1.0216  4.3002
 4163SOL     OW23947   3.116   3.566   9.016 -0.2324 -0.1428 -0.2589
 4163SOL    HW123948   3.050   3.541   8.952 -0.4152 -1.2751  0.3579
 4163SOL    HW223949   3.185   3.511   8.980 -1.6762 -0.7523 -2.0669
 4164SOL     OW23950   3.465   1.423   7.442  0.0297 -0.0065 -0.1707
 4164SOL    HW123951   3.508   1.505   7.467  1.6286 -0.7440 -0.4506
 4164SOL    HW223952   3.511   1.384   7.367 -2.6024  0.6182 -2.1162
 4165SOL     OW23953   3.091   0.237  16.910  0.2174 -0.1571 -0.0432
 4165SOL    HW123954   3.101   0.270  16.821 -0.5404  0.0616 -0.0460
 4165SOL    HW223955   3.147   0.159  16.902 -0.1531 -0.5930  1.5130
 4166SOL     OW23956   3.012   2.754   2.481 -0.3773 -0.0039 -0.3040
 4166SOL    HW123957   3.016   2.836   2.530  1.9739  0.8864 -1.9823
 4166SOL    HW223958   3.043   2.695   2.550 -0.0838 -0.9742 -1.2553
 4167SOL     OW23959   4.160   2.448   7.398 -0.4563 -0.2807  0.5872
 4167SOL    HW123960   4.232   2.510   7.386  1.0438 -1.9688  0.7988
 4167SOL    HW223961   4.111   2.464   7.318  2.2679 -0.2392 -1.0623
 4168SOL     OW23962   0.477   0.692   5.621  0.0491  0.7643 -0.2971
 4168SOL    HW123963   0.447   0.688   5.712  1.3229  0.7340  0.1199
 4168SOL    HW223964   0.436   0.613   5.587  0.8151  0.4897 -0.5704
 4169SOL     OW23965   1.581   2.013   4.128  0.5296 -0.0376  0.0255
 4169SOL    HW123966   1.641   1.981   4.061  0.2895 -0.0352 -0.1937
 4169SOL    HW223967   1.626   2.096   4.143 -2.3949  1.2882  1.4260
 4170SOL     OW23968   1.343   4.132   7.989 -0.3599 -0.7367 -0.0289
 4170SOL    HW123969   1.354   4.189   7.913 -3.0297 -1.9065 -1.2723
 4170SOL    HW223970   1.421   4.076   7.979  0.7652  1.1585 -1.7495
 4171SOL     OW23971   4.343   2.328  12.149 -0.3087  0.0368 -0.4673
 4171SOL    HW123972   4.392   2.247  12.135 -0.4366  0.3139 -2.4457
 4171SOL    HW223973   4.403   2.399  12.127 -0.0705  0.5337  1.7819
 4172SOL     OW23974   2.989   3.754   3.908 -0.0224 -0.0287 -0.1146
 4172SOL    HW123975   2.994   3.850   3.909 -3.5653  0.1198  1.5191
 4172SOL    HW223976   3.081   3.729   3.900 -0.1331 -0.0601 -1.2424
 4173SOL     OW23977   0.066   2.543   0.919 -0.0897  0.0185 -0.4539
 4173SOL    HW123978   0.054   2.628   0.875  0.3196  0.2174 -0.1810
 4173SOL    HW223979   0.157   2.543   0.949 -0.5665 -1.0298  0.9756
 4174SOL     OW23980   2.612   2.334   4.951  0.4651 -0.7441 -0.4101
 4174SOL    HW123981   2.581   2.299   5.034 -0.5636 -1.7201 -1.1944
 4174SOL    HW223982   2.611   2.262   4.888 -1.2081 -0.0864 -1.1479
 4175SOL     OW23983   0.968   3.228   9.098 -0.1854 -0.6463 -0.2317
 4175SOL    HW123984   0.976   3.144   9.054  1.6071 -0.8573  0.4992
 4175SOL    HW223985   1.000   3.289   9.032  1.6400 -1.6486 -0.2646
 4176SOL     OW23986   0.985   4.007   5.883  0.1657 -0.9534  0.1652
 4176SOL    HW123987   0.995   3.976   5.793 -0.9527 -1.4227  0.2010
 4176SOL    HW223988   1.063   4.059   5.903  1.9856 -3.5885 -0.1726
 4177SOL     OW23989   2.896   0.618  13.722 -0.1152 -0.6620 -0.1746
 4177SOL    HW123990   2.985   0.646  13.745 -0.1316 -1.5392  0.9466
 4177SOL    HW223991   2.841   0.695  13.721 -0.0961 -0.6260  2.7839
 4178SOL     OW23992   2.450   0.983   4.219  0.6375  0.6606  0.1254
 4178SOL    HW123993   2.437   1.017   4.131  1.6088 -0.9273 -0.6217
 4178SOL    HW223994   2.492   0.903   4.189 -1.3430  0.3155 -1.7042
 4179SOL     OW23995   1.068   3.473   3.892 -0.1123  0.1185 -0.1293
 4179SOL    HW123996   1.006   3.411   3.929 -0.5067  0.3852 -0.3452
 4179SOL    HW223997   1.071   3.531   3.967  1.9864 -1.6250  1.1458
 4180SOL     OW23998   0.684   4.469  10.401 -0.1650 -0.2092 -0.0909
 4180SOL    HW123999   0.598   4.435  10.374 -0.4193  0.0869  0.3404
 4180SOL    HW224000   0.649   4.539  10.456  0.0533  1.8544 -2.5932
 4181SOL     OW24001   1.363   0.573   3.675  0.0845  0.2099  0.1860
 4181SOL    HW124002   1.423   0.508   3.711  0.3450  0.6784  0.5968
 4181SOL    HW224003   1.288   0.516   3.660  0.2682 -0.2938  1.1702
 4182SOL     OW24004   0.209   1.460  16.162 -0.1509 -0.0341  0.5073
 4182SOL    HW124005   0.175   1.391  16.220  2.6708 -0.5771  1.5036
 4182SOL    HW224006   0.229   1.403  16.087  0.2339  0.4000  0.2818
 4183SOL     OW24007   1.337   2.290  15.800 -0.2010  0.2922 -0.2845
 4183SOL    HW124008   1.416   2.343  15.792 -1.1249  1.5051 -1.4278
 4183SOL    HW224009   1.283   2.308  15.723  0.0885 -0.2161 -0.6068
 4184SOL     OW24010   0.941   3.282  10.715  0.8206  0.3577  0.5034
 4184SOL    HW124011   0.850   3.253  10.703  1.1797 -1.6714  2.7562
 4184SOL    HW224012   0.986   3.227  10.650 -0.4460  0.0641 -0.1333
 4185SOL     OW24013   1.081   1.696   4.019  0.3579  0.2952 -0.5699
 4185SOL    HW124014   0.998   1.718   3.976 -0.2049  1.7113  1.2322
 4185SOL    HW224015   1.083   1.757   4.093 -0.2160 -1.3626  0.7838
 4186SOL     OW24016   1.087   3.516   2.247  0.3601 -0.0166  0.2555
 4186SOL    HW124017   1.043   3.451   2.302  0.5361 -0.4517 -0.1191
 4186SOL    HW224018   1.028   3.590   2.258 -2.0439 -2.1040  1.2221
 4187SOL     OW24019   3.188   1.831   7.609 -0.5040 -0.1644  0.1266
 4187SOL    HW124020   3.189   1.881   7.527  0.5412 -1.5889 -0.7132
 4187SOL    HW224021   3.181   1.902   7.673 -0.6324  1.0171 -1.1994
 4188SOL     OW24022   2.339   2.079   7.723 -0.8283 -0.6153 -0.0391
 4188SOL    HW124023   2.361   2.155   7.669 -0.6288 -1.2122 -0.7991
 4188SOL    HW224024   2.415   2.074   7.781 -1.5597  2.1547  1.1396
 4189SOL     OW24025   1.530   2.495   0.762  0.1124 -0.1878  0.4915
 4189SOL    HW124026   1.490   2.528   0.842 -1.4466 -1.4435  0.2112
 4189SOL    HW224027   1.463   2.438   0.725 -0.4657  0.6369  0.2639
 4190SOL     OW24028   0.673   1.514   7.455  0.7868  0.3755  0.0022
 4190SOL    HW124029   0.675   1.599   7.501  1.4196  0.9367 -1.0737
 4190SOL    HW224030   0.746   1.467   7.495  0.2489 -1.2029 -0.9032
 4191SOL     OW24031   4.590   2.094   2.243  0.1407 -0.0622 -0.0913
 4191SOL    HW124032   4.595   2.064   2.153 -0.0621  0.1491 -0.1719
 4191SOL    HW224033   4.672   2.143   2.257 -0.4836  0.7406  0.7887
 4192SOL     OW24034   2.939   3.165   7.101 -0.1629  0.5307  0.4965
 4192SOL    HW124035   2.967   3.191   7.013  1.8954 -0.5182  0.8533
 4192SOL    HW224036   2.843   3.162   7.099 -0.1505  0.0841  0.5167
 4193SOL     OW24037   0.479   4.237   9.323  0.3918 -0.3611 -0.1231
 4193SOL    HW124038   0.393   4.219   9.361  0.5634  0.4039  0.6525
 4193SOL    HW224039   0.500   4.147   9.298  1.3905 -0.0106 -0.5628
 4194SOL     OW24040   3.504   3.494  12.568 -0.6323  0.2288  0.5977
 4194SOL    HW124041   3.429   3.522  12.515  0.0991  0.3333 -0.3715
 4194SOL    HW224042   3.576   3.534  12.520 -0.8755  0.6125  0.5544
 4195SOL     OW24043   4.172   2.909   8.244  0.5519 -0.2534 -0.4208
 4195SOL    HW124044   4.195   2.996   8.277  1.6169 -0.1265 -1.4993
 4195SOL    HW224045   4.118   2.877   8.316  1.4547 -0.0874  0.3409
 4196SOL     OW24046   1.200   4.558  17.349 -0.2849  0.0684 -0.4633
 4196SOL    HW124047   1.214   4.566  17.444 -0.3493  0.2731 -0.4709
 4196SOL    HW224048   1.199   4.464  17.332 -1.8913  0.1167 -0.5908
 4197SOL     OW24049   1.958   1.375  10.095  0.2522  0.1461 -0.3514
 4197SOL    HW124050   1.942   1.422  10.176  2.0790  1.3154 -0.6586
 4197SOL    HW224051   2.054   1.377  10.100  0.3005 -0.2872 -0.9674
 4198SOL     OW24052   2.699   1.997   2.513 -0.5868  0.1985 -0.3544
 4198SOL    HW124053   2.718   1.903   2.506  2.6586  0.9886 -2.2613
 4198SOL    HW224054   2.621   2.003   2.458 -0.6384  1.8385 -0.0982
 4199SOL     OW24055   1.982   2.576   7.884 -0.3666  0.1618  0.0673
 4199SOL    HW124056   2.023   2.544   7.805  0.5786 -0.1897  0.7036
 4199SOL    HW224057   2.060   2.585   7.939  0.4901 -1.8386 -0.8274
 4200SOL     OW24058   2.909   3.040   5.593  0.2451 -0.0119 -0.2853
 4200SOL    HW124059   2.952   3.105   5.649 -2.0457  0.8770  0.4694
 4200SOL    HW224060   2.969   2.966   5.589  0.5668  0.1685  1.0395
 4201SOL     OW24061   1.682   0.266   5.262  0.2953  0.6437 -0.3628
 4201SOL    HW124062   1.617   0.293   5.197  0.2611 -0.3413 -0.7313
 4201SOL    HW224063   1.759   0.304   5.219  0.0998 -0.1122 -1.3889
 4202SOL     OW24064   1.352   0.182   4.963 -0.4332 -0.3651 -0.1939
 4202SOL    HW124065   1.386   0.150   5.047  2.4347  1.4845 -0.6163
 4202SOL    HW224066   1.264   0.214   4.983 -0.7993 -0.4920 -1.5955
 4203SOL     OW24067   4.584   4.357   1.861  0.1371  0.5079 -0.5312
 4203SOL    HW124068   4.587   4.263   1.841  1.1830  0.7356 -1.4568
 4203SOL    HW224069   4.655   4.371   1.923 -0.8651 -1.8708  1.1389
 4204SOL     OW24070   3.091   0.955  11.550  0.7923  0.1804  0.2388
 4204SOL    HW124071   3.001   0.987  11.561  0.5847 -0.5630  0.7021
 4204SOL    HW224072   3.120   1.001  11.470 -0.3991 -1.1718 -0.9681
 4205SOL     OW24073   3.563   3.587   4.906 -0.2036  0.3096  0.9470
 4205SOL    HW124074   3.655   3.579   4.883 -1.3269  0.3935 -3.7376
 4205SOL    HW224075   3.540   3.495   4.917 -1.4681  0.0252 -4.0342
 4206SOL     OW24076   1.153   1.107   7.211 -0.3468  0.3524 -0.7258
 4206SOL    HW124077   1.164   1.197   7.180 -3.6414 -0.3221 -3.8338
 4206SOL    HW224078   1.066   1.104   7.250  0.1272 -0.3873  0.2752
 4207SOL     OW24079   1.605   2.028   6.802  0.2336 -0.3849 -0.1889
 4207SOL    HW124080   1.692   2.005   6.770  1.1414  0.4886  1.6715
 4207SOL    HW224081   1.604   2.124   6.803 -0.3897 -0.3779 -1.0449
 4208SOL     OW24082   3.242   0.937  14.694 -0.0849 -0.4126 -0.0969
 4208SOL    HW124083   3.311   0.996  14.723  1.9843 -3.0131  0.1937
 4208SOL    HW224084   3.164   0.992  14.701 -0.4742 -1.2200  1.7936
 4209SOL     OW24085   0.934   3.252   8.664 -0.3750 -0.0004  0.2213
 4209SOL    HW124086   0.982   3.317   8.714  0.5120 -0.2697 -0.2771
 4209SOL    HW224087   0.918   3.194   8.739  2.0601 -0.7077  0.2019
 4210SOL     OW24088   3.761   2.324   9.130 -0.3303 -0.1918  0.2206
 4210SOL    HW124089   3.720   2.238   9.132  0.3749 -0.4751  4.0362
 4210SOL    HW224090   3.845   2.311   9.086  0.5006  1.9029  1.1884
 4211SOL     OW24091   1.752   0.380   7.352  0.0337 -0.1345  0.0621
 4211SOL    HW124092   1.790   0.447   7.408 -0.8069  0.0781  0.3751
 4211SOL    HW224093   1.759   0.426   7.268  2.0232  1.7716  1.2737
 4212SOL     OW24094   0.044   2.953  14.435  0.3647  0.2895  0.1125
 4212SOL    HW124095   0.091   2.872  14.458 -1.9309 -1.1613 -0.2857
 4212SOL    HW224096   4.721   2.934  14.353 -1.0771 -0.8626  1.1871
 4213SOL     OW24097   0.219   1.198   6.708  0.3489 -0.3624  0.2944
 4213SOL    HW124098   0.170   1.228   6.631  2.2834  1.0753 -0.3834
 4213SOL    HW224099   0.298   1.251   6.704 -0.0617  0.4009  2.3479
 4214SOL     OW24100   0.547   1.599  11.957  0.1593  0.2904  0.6416
 4214SOL    HW124101   0.536   1.648  11.876  1.6490  0.0144  0.2644
 4214SOL    HW224102   0.571   1.511  11.928 -3.3202 -0.6937  0.7816
 4215SOL     OW24103   1.003   3.103   9.506 -0.7844  0.0749  0.1513
 4215SOL    HW124104   1.080   3.067   9.550  0.5062 -0.9555 -3.0309
 4215SOL    HW224105   0.937   3.111   9.576  0.3382  1.2827  1.0639
 4216SOL     OW24106   2.749   2.852  13.240  1.0634  0.6316 -0.3098
 4216SOL    HW124107   2.781   2.886  13.324 -1.0975 -0.6983  1.0541
 4216SOL    HW224108   2.671   2.811  13.277  0.6646  0.6415 -1.1421
 4217SOL     OW24109   2.968   1.407  17.510  0.2351  0.0505  0.4937
 4217SOL    HW124110   2.970   1.329  17.566 -0.5910  1.2316  2.1699
 4217SOL    HW224111   3.059   1.408  17.482  0.1240 -2.8340 -0.0018
 4218SOL     OW24112   1.157   2.938   6.665  0.0077  0.7742  0.1691
 4218SOL    HW124113   1.230   2.922   6.605 -0.4076  1.6929 -0.5844
 4218SOL    HW224114   1.096   2.980   6.604  0.2023 -0.3520 -0.8019
 4219SOL     OW24115   0.349   3.803  16.304 -0.0869 -0.2484 -0.0653
 4219SOL    HW124116   0.355   3.758  16.220 -0.4165 -0.7816  0.1980
 4219SOL    HW224117   0.379   3.891  16.282  0.4597 -0.3789  0.1575
 4220SOL     OW24118   4.693   3.544  10.600  0.3850  0.4333 -0.2900
 4220SOL    HW124119   4.629   3.568  10.667  0.7490  0.8974 -0.1157
 4220SOL    HW224120   4.646   3.570  10.520 -1.8265 -0.7911  0.6045
 4221SOL     OW24121   1.856   2.725   4.214 -0.4232  0.3602 -0.0160
 4221SOL    HW124122   1.893   2.712   4.302 -0.8131  2.0070  0.3821
 4221SOL    HW224123   1.903   2.804   4.186 -0.6037  0.9647  1.4136
 4222SOL     OW24124   0.118   1.861   8.663 -0.1230  0.0719  0.1196
 4222SOL    HW124125   0.177   1.874   8.737  1.9384 -1.2520 -1.2987
 4222SOL    HW224126   0.168   1.838   8.585  3.0447 -0.6664  2.3993
 4223SOL     OW24127   1.681   4.390   4.135 -0.6049 -0.5833 -0.2859
 4223SOL    HW124128   1.645   4.472   4.102  1.4444  0.7530  0.8185
 4223SOL    HW224129   1.776   4.399   4.136 -0.6046 -0.4894 -2.5000
 4224SOL     OW24130   3.349   2.614   3.314 -0.1096  0.7518  0.0251
 4224SOL    HW124131   3.398   2.532   3.311 -0.6769  0.4296 -0.2299
 4224SOL    HW224132   3.292   2.606   3.391 -0.5914 -2.9704 -0.7182
 4225SOL     OW24133   4.395   0.682   3.723  0.8511 -0.6713 -0.0387
 4225SOL    HW124134   4.462   0.659   3.659 -0.9879 -0.7156 -1.9454
 4225SOL    HW224135   4.446   0.740   3.779  1.9382 -0.6725 -1.0336
 4226SOL     OW24136   3.017   1.499  12.722 -0.0410  0.0472 -0.2887
 4226SOL    HW124137   3.069   1.436  12.772 -0.0835 -1.5512 -2.2421
 4226SOL    HW224138   2.926   1.468  12.722  0.9047 -2.7960 -2.5338
 4227SOL     OW24139   2.059   0.323  15.416 -0.0494  0.5804  0.2490
 4227SOL    HW124140   2.127   0.290  15.475  0.6264  0.1467 -0.7686
 4227SOL    HW224141   2.104   0.401  15.382  0.1675  0.0409 -0.7217
 4228SOL     OW24142   2.272   3.122   8.018  0.1358 -0.1140  0.1712
 4228SOL    HW124143   2.314   3.038   7.997 -0.1801  0.2549 -1.9315
 4228SOL    HW224144   2.357   3.166   8.024  0.3326 -0.3687 -0.6468
 4229SOL     OW24145   3.242   1.134   7.015 -0.4429  0.1021  0.0137
 4229SOL    HW124146   3.238   1.200   7.084 -2.9544  0.7607 -0.7488
 4229SOL    HW224147   3.251   1.043   7.043 -0.6518  0.3901  1.0392
 4230SOL     OW24148   2.346   0.648   3.446  0.0066 -0.5405  0.5247
 4230SOL    HW124149   2.256   0.680   3.450 -0.5308 -1.8750 -0.6362
 4230SOL    HW224150   2.366   0.721   3.388 -0.6553  0.7996  1.9918
 4231SOL     OW24151   1.745   4.083   0.996  0.0368 -0.3527  0.3117
 4231SOL    HW124152   1.688   4.107   1.069 -0.2555  2.5888 -0.8546
 4231SOL    HW224153   1.690   4.053   0.923  3.1757 -1.5604 -1.5334
 4232SOL     OW24154   3.963   2.725   5.878 -0.7270 -0.0681  0.2886
 4232SOL    HW124155   3.996   2.677   5.801  0.3919  0.2440  0.5821
 4232SOL    HW224156   4.033   2.720   5.943 -1.7997 -2.1216  1.3060
 4233SOL     OW24157   3.526   0.135   3.519  0.3682  0.2872 -0.2018
 4233SOL    HW124158   3.558   0.141   3.609 -1.2215 -4.0485  0.6652
 4233SOL    HW224159   3.606   0.127   3.468  0.4237 -3.5498  0.5064
 4234SOL     OW24160   2.267   1.113   3.375 -0.1789  0.2507 -0.2739
 4234SOL    HW124161   2.230   1.201   3.370 -1.0199 -0.0803  0.0836
 4234SOL    HW224162   2.352   1.130   3.415 -0.4182 -0.0415  0.3607
 4235SOL     OW24163   1.601   3.783  12.943 -0.0254  0.2333  0.2241
 4235SOL    HW124164   1.660   3.741  13.005 -0.7400 -2.6292 -1.0334
 4235SOL    HW224165   1.552   3.855  12.983  2.1599  1.6047  0.4107
 4236SOL     OW24166   3.688   0.311  11.918 -0.1896 -0.2634  0.2764
 4236SOL    HW124167   3.721   0.401  11.913  0.8818 -0.6632  0.3265
 4236SOL    HW224168   3.625   0.305  11.846  2.0620  0.1665 -1.7302
 4237SOL     OW24169   3.067   1.973   1.629 -0.4983  0.0106  0.3805
 4237SOL    HW124170   2.978   2.007   1.622 -0.7417 -0.9424 -1.2527
 4237SOL    HW224171   3.068   1.893   1.576  0.1634 -0.4223  1.0406
 4238SOL     OW24172   4.302   0.885   0.800  0.1847  0.1908 -0.3340
 4238SOL    HW124173   4.208   0.883   0.784 -0.0509 -1.4131  1.3197
 4238SOL    HW224174   4.306   0.950   0.871 -0.7505 -0.8071  0.6263
 4239SOL     OW24175   0.902   1.066   7.324  0.1690  0.4382  0.4640
 4239SOL    HW124176   0.856   1.149   7.339  1.9397  1.5836 -0.3301
 4239SOL    HW224177   0.866   1.007   7.390 -0.4317 -0.1416 -0.3799
 4240SOL     OW24178   1.077   0.869  14.119  0.2691 -0.1906  0.0453
 4240SOL    HW124179   1.123   0.928  14.177  1.1345 -0.7915 -0.0236
 4240SOL    HW224180   1.137   0.846  14.048  1.8039  2.0138  0.6513
 4241SOL     OW24181   4.062   3.730   7.021  0.0588  0.0211  0.2380
 4241SOL    HW124182   4.149   3.755   6.989 -0.2125  2.3516  1.3052
 4241SOL    HW224183   4.060   3.634   7.012 -1.3873  0.1079 -0.3068
 4242SOL     OW24184   4.292   0.380  14.835 -0.3061  0.7088 -0.1960
 4242SOL    HW124185   4.287   0.461  14.885  0.1544 -1.3622  3.1543
 4242SOL    HW224186   4.259   0.311  14.893  1.1309 -0.0396 -0.2740
 4243SOL     OW24187   2.107   2.324  13.424 -0.1070 -0.2554 -0.3117
 4243SOL    HW124188   2.073   2.254  13.367 -2.8401 -0.4217  1.5356
 4243SOL    HW224189   2.040   2.317  13.492  1.3365 -1.0443  1.0270
 4244SOL     OW24190   0.404   0.990   0.605  0.4360 -0.3595 -0.4455
 4244SOL    HW124191   0.336   0.933   0.570  0.5797 -0.7972  0.0042
 4244SOL    HW224192   0.483   0.937   0.595 -0.2519 -1.5595  0.4758
 4245SOL     OW24193   1.931   0.535  16.927 -0.4839 -0.2643  0.1120
 4245SOL    HW124194   1.939   0.462  16.989 -1.2792 -0.4128  0.0392
 4245SOL    HW224195   1.914   0.496  16.841  2.0904  1.9420 -1.3852
 4246SOL     OW24196   4.331   4.650   7.797 -0.3883 -0.0211 -0.0967
 4246SOL    HW124197   4.349   4.579   7.858 -1.5394 -1.8926 -1.9719
 4246SOL    HW224198   4.402   4.639   7.734 -0.3403 -1.9165  0.3094
 4247SOL     OW24199   4.643   1.036   2.843  0.7406 -0.6486  0.4856
 4247SOL    HW124200   4.599   0.967   2.793  1.3863 -1.8005  1.4814
 4247SOL    HW224201   0.009   1.011   2.818  0.2703 -0.8347 -0.9592
 4248SOL     OW24202   1.305   2.708  17.595  0.3332  0.3370 -0.0223
 4248SOL    HW124203   1.303   2.676  17.505 -1.7121  1.2538 -0.3071
 4248SOL    HW224204   1.228   2.766  17.594  0.8269  0.9957  0.4495
 4249SOL     OW24205   2.963   0.982   1.647 -0.2020 -0.0798 -0.8354
 4249SOL    HW124206   2.973   1.047   1.578 -3.9852 -0.2507 -1.5333
 4249SOL    HW224207   2.893   1.020   1.700 -0.1905 -1.9828  0.5354
 4250SOL     OW24208   2.537   1.057   6.326 -0.0003 -0.1851 -0.1465
 4250SOL    HW124209   2.622   1.075   6.366 -0.7441  0.7915  0.9761
 4250SOL    HW224210   2.531   1.129   6.263 -1.1000  0.6445  0.9268
 4251SOL     OW24211   4.008   0.444  14.021  0.0814  0.1047 -0.2897
 4251SOL    HW124212   3.966   0.477  14.100 -0.6578 -1.7202  0.1012
 4251SOL    HW224213   3.936   0.473  13.965  0.3663  0.3525 -0.5267
 4252SOL     OW24214   0.153   4.070   9.191  0.1234 -0.1705  0.4877
 4252SOL    HW124215   0.163   4.088   9.285  2.8926 -2.7363  0.6887
 4252SOL    HW224216   0.113   3.984   9.200  0.2919 -0.3301 -0.3261
 4253SOL     OW24217   4.354   3.114   8.071 -0.3354  0.2713  0.3436
 4253SOL    HW124218   4.415   3.170   8.121  1.2339  0.3602 -1.6850
 4253SOL    HW224219   4.273   3.165   8.066 -1.2244 -1.2253 -0.2694
 4254SOL     OW24220   1.257   4.196   0.666 -0.5112  0.8373  0.8754
 4254SOL    HW124221   1.333   4.199   0.608 -0.5766  3.6563  0.9492
 4254SOL    HW224222   1.297   4.184   0.752 -0.7957  0.3590  0.9437
 4255SOL     OW24223   4.631   0.353   1.478 -0.7278  0.1912  0.4973
 4255SOL    HW124224   4.662   0.418   1.542 -3.0246 -0.3541  2.1481
 4255SOL    HW224225   4.570   0.409   1.429 -1.6335 -1.3844 -0.1588
 4256SOL     OW24226   4.201   2.089   6.014 -0.1745  0.3022 -0.0490
 4256SOL    HW124227   4.173   2.176   5.984 -3.5703 -0.1422  1.9154
 4256SOL    HW224228   4.295   2.101   6.001  0.0400  0.0588  1.2850
 4257SOL     OW24229   0.762   3.298   2.796  0.4525 -0.5177 -0.2013
 4257SOL    HW124230   0.678   3.339   2.817 -0.2256 -1.5046 -0.9501
 4257SOL    HW224231   0.822   3.370   2.812 -0.1285 -0.0717 -0.0351
 4258SOL     OW24232   3.661   1.150   2.911 -0.0317 -0.6270  0.3804
 4258SOL    HW124233   3.720   1.159   2.986  0.2689 -1.7203  0.2767
 4258SOL    HW224234   3.576   1.131   2.951  0.4086 -1.0976  1.0844
 4259SOL     OW24235   0.155   4.208  14.022 -0.2957 -0.0969  0.3483
 4259SOL    HW124236   0.090   4.275  13.999  1.0604  0.5537 -1.6004
 4259SOL    HW224237   0.191   4.257  14.096 -2.1418 -1.2952  2.0324
 4260SOL     OW24238   4.307   2.536   6.690  0.1173 -0.5115  0.0969
 4260SOL    HW124239   4.219   2.572   6.676  0.6788  1.0591  0.6638
 4260SOL    HW224240   4.330   2.586   6.768  2.0047  0.5629 -1.1494
 4261SOL     OW24241   0.474   3.774   4.943  0.0453  0.4598 -0.4849
 4261SOL    HW124242   0.537   3.702   4.936 -0.6146 -0.0445 -1.3426
 4261SOL    HW224243   0.398   3.730   4.982  0.2988  0.1178 -0.3778
 4262SOL     OW24244   3.301   4.353  12.013 -0.0738  0.0182 -0.2091
 4262SOL    HW124245   3.360   4.427  11.998  2.0118 -1.3557  0.9919
 4262SOL    HW224246   3.219   4.400  12.025 -1.8006 -3.8978  3.4254
 4263SOL     OW24247   0.400   0.464   2.921  0.1199 -0.7662  0.1615
 4263SOL    HW124248   0.374   0.535   2.980 -2.4551 -3.6213  2.4428
 4263SOL    HW224249   0.329   0.434   2.865 -1.0575 -0.8503  1.7091
 4264SOL     OW24250   1.781   0.394   6.299  0.4045  0.3459 -0.0625
 4264SOL    HW124251   1.766   0.362   6.210  0.9092 -0.4320  0.1309
 4264SOL    HW224252   1.869   0.367   6.324  0.0472 -0.6645  0.1249
 4265SOL     OW24253   0.792   4.228   5.203 -0.1096 -0.1968  0.5025
 4265SOL    HW124254   0.858   4.191   5.262 -0.3740 -1.4177  0.0270
 4265SOL    HW224255   0.708   4.207   5.243  0.5376 -1.0332  1.4271
 4266SOL     OW24256   3.952   1.851  12.882  0.3285  0.5484 -0.1201
 4266SOL    HW124257   3.998   1.933  12.864 -0.8884  1.0695 -0.8303
 4266SOL    HW224258   3.999   1.799  12.948 -0.0511 -2.7483 -2.4211
 4267SOL     OW24259   4.621   0.298   1.940  0.2560  0.3638  1.2297
 4267SOL    HW124260   4.669   0.380   1.948  1.1955 -0.0955  0.2798
 4267SOL    HW224261   4.692   0.238   1.962 -0.8041 -0.5019  2.2818
 4268SOL     OW24262   3.773   1.695   8.120 -0.0547  0.3514  0.0985
 4268SOL    HW124263   3.821   1.650   8.050 -0.7246 -1.0675  0.5385
 4268SOL    HW224264   3.796   1.642   8.197  0.2190  0.8613  0.3651
 4269SOL     OW24265   4.453   3.285   4.351  0.0750  0.2320 -0.2336
 4269SOL    HW124266   4.429   3.376   4.338  0.2175  0.1642 -0.9588
 4269SOL    HW224267   4.504   3.276   4.271  1.7634 -1.7013  1.0532
 4270SOL     OW24268   1.401   2.108   9.254  0.4080  0.1829 -0.1938
 4270SOL    HW124269   1.442   2.052   9.320 -0.0298  1.8394  1.4840
 4270SOL    HW224270   1.472   2.164   9.220 -0.2104  0.2110 -1.4565
 4271SOL     OW24271   4.480   0.497  14.087 -0.0440 -0.3298 -0.5735
 4271SOL    HW124272   4.516   0.448  14.161  2.6448  0.0154 -1.6675
 4271SOL    HW224273   4.389   0.469  14.100 -0.3117 -1.1303 -4.1497
 4272SOL     OW24274   0.276   0.751  14.307 -0.0305  0.0333 -0.1589
 4272SOL    HW124275   0.249   0.755  14.399  1.3025  0.9639  0.1899
 4272SOL    HW224276   0.310   0.661  14.300  1.8422  0.8221 -1.4293
 4273SOL     OW24277   1.201   3.030   9.647 -0.3728  0.0188 -0.0534
 4273SOL    HW124278   1.195   2.934   9.641 -2.4623  0.0787  1.2007
 4273SOL    HW224279   1.243   3.034   9.732  0.0948 -0.5159 -0.2620
 4274SOL     OW24280   1.502   1.043   8.190  0.5520  0.5387 -0.5775
 4274SOL    HW124281   1.553   1.070   8.266  2.6895 -2.2119 -1.0464
 4274SOL    HW224282   1.495   1.111   8.123 -0.8094 -0.8022 -1.8068
 4275SOL     OW24283   1.068   4.177   8.905 -0.4423 -0.6468  0.3883
 4275SOL    HW124284   1.044   4.094   8.946 -2.2411 -1.0341 -1.4595
 4275SOL    HW224285   1.161   4.195   8.921 -0.4671 -1.1608  1.0909
 4276SOL     OW24286   4.614   2.806   2.943  0.3114 -0.1598 -0.1481
 4276SOL    HW124287   4.553   2.807   2.869  0.8142  2.0856 -0.5257
 4276SOL    HW224288   4.668   2.732   2.915  1.1973  0.0111  1.1034
 4277SOL     OW24289   4.186   3.810   6.373  0.4867 -0.0583 -0.1028
 4277SOL    HW124290   4.110   3.796   6.430  1.0464  0.1903  0.6936
 4277SOL    HW224291   4.138   3.857   6.305  0.4006  1.9774  1.3757
 4278SOL     OW24292   1.870   3.096  10.628 -0.2770  0.4942  0.0788
 4278SOL    HW124293   1.957   3.063  10.647 -0.1868 -1.1766 -3.2706
 4278SOL    HW224294   1.877   3.191  10.618 -1.1244  0.5484 -0.0212
 4279SOL     OW24295   2.965   2.916   8.613 -0.2917 -0.3800  0.0451
 4279SOL    HW124296   2.961   2.835   8.561 -0.0643  0.5462 -1.4039
 4279SOL    HW224297   3.039   2.901   8.672 -1.4392 -0.8671  1.3710
 4280SOL     OW24298   4.510   1.692   4.860 -0.0734 -0.3493 -0.4895
 4280SOL    HW124299   4.473   1.722   4.778 -0.1112 -0.7670 -0.6234
 4280SOL    HW224300   4.482   1.760   4.922 -1.4005 -1.1565 -0.2208
 4281SOL     OW24301   0.368   3.111   1.258  0.3605 -0.3477  0.0606
 4281SOL    HW124302   0.404   3.052   1.325 -0.6449  1.0667  1.8451
 4281SOL    HW224303   0.295   3.059   1.223 -1.0230  2.4378 -1.1906
 4282SOL     OW24304   3.344   0.933   2.981 -0.3059  0.0862  0.0293
 4282SOL    HW124305   3.275   0.872   3.009  0.0137 -0.2381  0.1196
 4282SOL    HW224306   3.416   0.869   2.976  0.7220  1.3687 -1.8620
 4283SOL     OW24307   2.421   0.824   0.027 -0.6010 -0.1990  0.2272
 4283SOL    HW124308   2.344   0.878   0.009 -1.0029 -1.6955 -2.5508
 4283SOL    HW224309   2.392   0.743  17.679 -1.1388  0.0168  0.1829
 4284SOL     OW24310   1.989   4.548   7.108 -0.0990  0.0061  0.0301
 4284SOL    HW124311   2.045   4.575   7.181 -1.0054  0.2465  0.6371
 4284SOL    HW224312   1.956   4.460   7.127 -2.2096  0.5848 -0.9814
 4285SOL     OW24313   2.472   3.447   3.876 -0.5760  0.5669  0.0976
 4285SOL    HW124314   2.387   3.404   3.873  0.4681 -1.5739  1.3333
 4285SOL    HW224315   2.504   3.416   3.961 -1.1408  3.3083  1.3242
 4286SOL     OW24316   1.602   3.816   8.302 -0.2396 -0.2890 -0.0180
 4286SOL    HW124317   1.625   3.746   8.241 -1.6215  0.2342 -1.1387
 4286SOL    HW224318   1.690   3.854   8.308 -0.3273 -0.0662 -0.1442
 4287SOL     OW24319   3.165   1.273  12.539 -0.3010  0.1331 -0.1831
 4287SOL    HW124320   3.140   1.180  12.535 -1.5301  0.3700  1.5967
 4287SOL    HW224321   3.081   1.318  12.534 -1.0965 -1.1376  1.5547
 4288SOL     OW24322   1.670   2.686   6.998 -0.1243  0.1222  0.6763
 4288SOL    HW124323   1.641   2.676   7.089  0.0135  1.8438  0.9028
 4288SOL    HW224324   1.584   2.694   6.956 -0.4621  0.7763  1.4974
 4289SOL     OW24325   4.041   0.552  14.941 -0.2288 -0.6216 -0.1517
 4289SOL    HW124326   4.126   0.593  14.956 -0.2329 -1.1582  1.3689
 4289SOL    HW224327   4.048   0.500  15.021 -2.4156 -1.7859 -0.7144
 4290SOL     OW24328   4.381   4.285   5.533  0.2614 -0.3227  0.8289
 4290SOL    HW124329   4.434   4.288   5.453 -1.2249 -1.5981 -0.1946
 4290SOL    HW224330   4.448   4.299   5.600 -0.1965  0.1049  1.1918
 4291SOL     OW24331   1.942   2.286   0.418 -0.0507  0.3467  0.3996
 4291SOL    HW124332   1.913   2.256   0.504 -1.7803 -0.6836 -0.5365
 4291SOL    HW224333   2.034   2.307   0.434  0.1772  1.1062 -1.8484
 4292SOL     OW24334   0.680   0.621   8.189 -0.0143  0.2708  0.1884
 4292SOL    HW124335   0.620   0.578   8.251  0.4268 -0.7352 -0.0917
 4292SOL    HW224336   0.655   0.588   8.103  3.2278  0.9170 -1.0157
 4293SOL     OW24337   1.681   1.255   2.089  0.1959  0.0283  0.3150
 4293SOL    HW124338   1.673   1.198   2.013 -1.6650  0.2831  0.3190
 4293SOL    HW224339   1.767   1.231   2.122  0.8160  0.9982 -0.5962
 4294SOL     OW24340   0.062   3.189   8.103  0.6816  0.3738  0.0174
 4294SOL    HW124341   0.093   3.107   8.141 -1.0794  0.7894  2.3697
 4294SOL    HW224342   0.022   3.244   8.170  2.9811 -1.2953  2.7103
 4295SOL     OW24343   0.841   1.260  14.590  0.1450  0.4471 -0.4925
 4295SOL    HW124344   0.797   1.179  14.615  3.5548 -1.0843  0.5688
 4295SOL    HW224345   0.930   1.226  14.593  0.6140  1.5119 -2.9380
 4296SOL     OW24346   1.472   1.185   7.967  0.6181 -0.0350  0.1877
 4296SOL    HW124347   1.398   1.142   7.923  1.0041  0.5498 -1.0304
 4296SOL    HW224348   1.442   1.276   7.977 -1.5846 -0.6774 -0.5219
 4297SOL     OW24349   0.941   0.972   4.921  0.8404 -0.7298 -0.2786
 4297SOL    HW124350   0.864   0.944   4.971 -0.3663  2.0974 -0.5006
 4297SOL    HW224351   0.938   0.909   4.849  0.0426 -1.2594  0.2252
 4298SOL     OW24352   0.370   2.338   3.369  0.6489 -0.1049 -0.5321
 4298SOL    HW124353   0.413   2.423   3.376 -1.3974  0.8918 -0.1773
 4298SOL    HW224354   0.277   2.357   3.381  0.5451 -0.6817 -0.4011
 4299SOL     OW24355   4.422   1.753   7.275 -0.6268  0.4459  0.2850
 4299SOL    HW124356   4.396   1.844   7.288 -1.2815  0.2827  0.1379
 4299SOL    HW224357   4.515   1.769   7.259 -0.8353 -0.0568 -1.4606
 4300SOL     OW24358   0.895   3.891   6.851  0.1361  0.0214 -0.1854
 4300SOL    HW124359   0.843   3.865   6.775  0.0631  3.4715 -1.3078
 4300SOL    HW224360   0.874   3.984   6.852  1.6182  0.3621  0.1909
 4301SOL     OW24361   1.752   3.413   9.271  0.5685 -0.1858 -0.2161
 4301SOL    HW124362   1.711   3.497   9.292  1.1466 -0.3758  1.6428
 4301SOL    HW224363   1.755   3.377   9.359 -1.7782 -1.0827 -0.4914
 4302SOL     OW24364   0.732   3.777   6.165  0.0672 -0.5967 -0.5316
 4302SOL    HW124365   0.708   3.851   6.221 -0.1116 -1.9868  1.1795
 4302SOL    HW224366   0.826   3.780   6.152  0.2953 -0.6123  1.2604
 4303SOL     OW24367   0.344   4.483   5.340  0.2554 -0.1362 -0.6242
 4303SOL    HW124368   0.432   4.446   5.337  0.7854  0.9975  0.8366
 4303SOL    HW224369   0.348   4.530   5.257 -0.3687  0.4326 -0.3316
 4304SOL     OW24370   4.544   1.579   5.322 -0.0206 -0.0029  0.1639
 4304SOL    HW124371   4.582   1.523   5.253  0.1110  3.5117 -2.6333
 4304SOL    HW224372   4.532   1.503   5.379  3.3510 -0.9008 -0.2933
 4305SOL     OW24373   0.346   1.659   3.885 -0.3201 -0.0287 -0.6049
 4305SOL    HW124374   0.331   1.730   3.821  0.6430  1.7256  1.1064
 4305SOL    HW224375   0.386   1.696   3.964 -1.1062 -3.4322  1.3744
 4306SOL     OW24376   0.556   0.325  13.294  0.3732 -0.1223 -0.3336
 4306SOL    HW124377   0.613   0.379  13.349 -1.1556  0.0957  1.0233
 4306SOL    HW224378   0.609   0.250  13.264  1.0862  0.4841 -0.5859
 4307SOL     OW24379   2.307   4.543  13.155  0.2893 -0.0856 -0.7671
 4307SOL    HW124380   2.333   4.481  13.224  0.7493  0.8303 -0.1155
 4307SOL    HW224381   2.387   4.592  13.142  0.7632 -0.9127 -0.9781
 4308SOL     OW24382   2.361   1.491   3.431  0.4435  0.4225 -0.7181
 4308SOL    HW124383   2.403   1.547   3.496 -1.2550  1.6137 -0.6411
 4308SOL    HW224384   2.412   1.485   3.350 -1.0252 -1.2060 -1.5310
 4309SOL     OW24385   3.746   1.792   6.855 -0.0246  1.1041 -0.3558
 4309SOL    HW124386   3.826   1.760   6.898  1.0298  0.0673 -3.0352
 4309SOL    HW224387   3.791   1.870   6.821  1.1588  0.4813 -0.2093
 4310SOL     OW24388   1.150   3.925   3.131  0.6949 -0.5341 -0.0526
 4310SOL    HW124389   1.160   4.013   3.096  0.0378 -0.4430 -0.0227
 4310SOL    HW224390   1.207   3.880   3.069 -0.4122 -1.6722 -0.2530
 4311SOL     OW24391   0.858   1.801  17.539  0.0901 -0.2409 -0.3504
 4311SOL    HW124392   0.852   1.808  17.634  0.1972  0.5759 -0.4018
 4311SOL    HW224393   0.777   1.848  17.520  0.3638  0.4706  0.2524
 4312SOL     OW24394   0.265   4.389   5.597 -0.2489 -0.1157  0.4511
 4312SOL    HW124395   0.299   4.458   5.653 -0.2130  1.0239 -0.9804
 4312SOL    HW224396   0.300   4.409   5.510 -2.0462  0.8115 -0.0480
 4313SOL     OW24397   3.497   3.378  13.736 -0.2648  0.5842 -0.1737
 4313SOL    HW124398   3.566   3.423  13.688  0.3778 -1.2033 -0.9324
 4313SOL    HW224399   3.545   3.299  13.761 -0.5150  0.3598 -0.4010
 4314SOL     OW24400   0.201   2.735   0.124  0.0585 -0.2148  0.1405
 4314SOL    HW124401   0.122   2.783   0.151  0.2171 -0.1139  0.4225
 4314SOL    HW224402   0.194   2.664   0.187 -0.3738 -0.4153 -0.1305
 4315SOL     OW24403   1.892   4.263   6.844 -0.5451 -0.0110  0.7692
 4315SOL    HW124404   1.903   4.288   6.936  0.6193  0.3165  0.5378
 4315SOL    HW224405   1.852   4.177   6.855 -0.7780 -0.1907 -1.4601
 4316SOL     OW24406   4.505   2.695  10.941 -0.0156  0.1978  0.1267
 4316SOL    HW124407   4.451   2.738  11.007 -0.3164 -0.0039  0.0133
 4316SOL    HW224408   4.508   2.607  10.977  0.4908 -0.6513 -1.9561
 4317SOL     OW24409   1.674   2.142   7.830  0.1460  0.0922  0.4839
 4317SOL    HW124410   1.727   2.221   7.841  0.5799 -0.0253 -0.7142
 4317SOL    HW224411   1.586   2.162   7.797 -0.7259  1.5225  3.6618
 4318SOL     OW24412   1.946   1.757   5.123 -0.1719 -0.8992  0.0370
 4318SOL    HW124413   1.952   1.832   5.183 -2.2226 -0.3916 -0.3969
 4318SOL    HW224414   1.851   1.749   5.113 -0.3774 -0.1298  1.3234
 4319SOL     OW24415   3.084   1.237  13.209 -0.4639 -0.1334  0.3781
 4319SOL    HW124416   3.068   1.330  13.226  1.7287  0.6913 -2.1334
 4319SOL    HW224417   3.094   1.231  13.114 -0.5830  0.7623  0.3097
 4320SOL     OW24418   2.608   3.117  13.272  0.1921  0.0091 -0.1018
 4320SOL    HW124419   2.612   3.023  13.288 -1.8612 -0.3955 -2.0615
 4320SOL    HW224420   2.690   3.140  13.316 -1.1287  1.7126  1.5276
 4321SOL     OW24421   2.773   1.375   5.341  0.1574  0.2436  0.4357
 4321SOL    HW124422   2.797   1.413   5.426  2.4673 -0.1832 -0.0409
 4321SOL    HW224423   2.711   1.309   5.372 -0.4802 -0.3346 -2.1052
 4322SOL     OW24424   0.587   3.549   6.204  0.2934 -0.3197 -0.6950
 4322SOL    HW124425   0.631   3.535   6.288  0.5919  1.8252 -0.5095
 4322SOL    HW224426   0.620   3.636   6.184  0.3530 -0.1491  0.1436
 4323SOL     OW24427   1.262   2.941  12.702 -0.1354 -0.8003  0.3650
 4323SOL    HW124428   1.254   2.974  12.613 -1.6524  2.5378  1.7119
 4323SOL    HW224429   1.320   3.013  12.728  1.3293 -1.4819 -1.0607
 4324SOL     OW24430   2.298   3.550  15.792  0.6052 -0.3282  0.5431
 4324SOL    HW124431   2.374   3.550  15.850  1.3508  0.5862 -0.4380
 4324SOL    HW224432   2.239   3.516  15.860  1.8270 -2.8977  0.3218
 4325SOL     OW24433   0.616   1.687   5.644  0.0707 -0.0793  0.2054
 4325SOL    HW124434   0.565   1.622   5.692 -0.8638 -0.3158 -1.1015
 4325SOL    HW224435   0.685   1.627   5.615  0.6666  0.5549  0.3069
 4326SOL     OW24436   1.129   0.742   1.755 -0.8151  0.4592 -0.2001
 4326SOL    HW124437   1.103   0.661   1.799  1.0357  0.8983  1.6525
 4326SOL    HW224438   1.221   0.749   1.781 -0.0701 -0.4053 -2.5943
 4327SOL     OW24439   3.317   1.894   7.365 -0.5067 -0.4204  0.1033
 4327SOL    HW124440   3.275   1.822   7.318 -0.2795  0.1878 -1.0406
 4327SOL    HW224441   3.338   1.945   7.287  2.2725  0.6559  1.5510
 4328SOL     OW24442   4.273   1.885   6.182 -0.5115  0.0252 -0.0829
 4328SOL    HW124443   4.336   1.837   6.130  0.7622  1.8120 -0.1904
 4328SOL    HW224444   4.252   1.945   6.111 -1.3515  0.3168  0.4097
 4329SOL     OW24445   2.458   1.047   8.234  0.5522  0.4042 -0.3828
 4329SOL    HW124446   2.484   1.082   8.319 -3.1723 -0.1827  0.9852
 4329SOL    HW224447   2.425   0.963   8.267 -2.2811  0.4269 -3.1297
 4330SOL     OW24448   1.185   2.972   7.100  0.4789 -0.0699 -0.4210
 4330SOL    HW124449   1.181   3.005   7.190  0.8836 -0.1448 -0.3779
 4330SOL    HW224450   1.272   2.933   7.096  0.5496  0.0174  0.3125
 4331SOL     OW24451   4.031   4.395   3.145  0.5479 -0.3847  0.3093
 4331SOL    HW124452   4.013   4.372   3.054 -1.3121  0.2541  0.5176
 4331SOL    HW224453   3.947   4.390   3.189  0.0758 -3.4976 -0.9980
 4332SOL     OW24454   3.939   3.215   0.930  0.0187 -0.5033 -0.4147
 4332SOL    HW124455   3.869   3.214   0.995  1.0828  1.8251  0.7693
 4332SOL    HW224456   3.986   3.141   0.966 -2.3378 -0.4397  2.7614
 4333SOL     OW24457   3.600   1.433  15.361 -0.1833 -0.0577  0.4932
 4333SOL    HW124458   3.511   1.442  15.328 -0.2431 -2.4499  0.0219
 4333SOL    HW224459   3.588   1.422  15.455  1.7262 -0.7701  0.6479
 4334SOL     OW24460   3.624   3.459   8.032 -0.1736  0.6546 -0.2990
 4334SOL    HW124461   3.642   3.509   7.952  1.1943  1.1710  0.3355
 4334SOL    HW224462   3.534   3.433   8.015  0.3872 -2.2398  1.1608
 4335SOL     OW24463   4.466   3.101  14.995  0.1968  0.1466 -0.4544
 4335SOL    HW124464   4.525   3.136  15.061 -0.7950  0.7228  0.1168
 4335SOL    HW224465   4.405   3.039  15.033  0.8852  0.0520  0.4919
 4336SOL     OW24466   3.697   2.741   4.400  0.7470  0.5866 -0.1716
 4336SOL    HW124467   3.649   2.660   4.420  2.0982 -0.9949 -3.3310
 4336SOL    HW224468   3.771   2.700   4.355  0.2468  0.9259 -1.2935
 4337SOL     OW24469   3.654   0.447  16.390 -0.2855 -0.0880 -0.2951
 4337SOL    HW124470   3.723   0.498  16.347 -0.4916 -0.1897 -0.7472
 4337SOL    HW224471   3.577   0.498  16.363 -1.1045 -0.7960  0.7252
 4338SOL     OW24472   0.586   0.845   2.188  0.6417 -0.8716 -0.1866
 4338SOL    HW124473   0.616   0.758   2.214  2.5735 -0.4202 -0.8941
 4338SOL    HW224474   0.498   0.859   2.222  0.8522  0.5996 -0.2313
 4339SOL     OW24475   1.929   2.017   3.143 -0.2519  0.5319  0.2021
 4339SOL    HW124476   1.926   2.044   3.051  2.0309 -2.6224 -0.8122
 4339SOL    HW224477   1.964   2.096   3.185 -0.3329  0.7061 -0.0582
 4340SOL     OW24478   0.867   0.159   4.809  0.4288 -0.2419 -0.5351
 4340SOL    HW124479   0.906   0.071   4.815  1.4756  0.4000  2.2004
 4340SOL    HW224480   0.909   0.207   4.880  0.4335 -1.7207  0.4729
 4341SOL     OW24481   0.232   1.060  14.396  0.1450 -0.0527  0.0156
 4341SOL    HW124482   0.279   1.000  14.456  1.8520  0.5343 -0.7339
 4341SOL    HW224483   0.297   1.127  14.375 -1.2649  1.0800 -0.6601
 4342SOL     OW24484   4.598   1.794   9.306 -0.1066 -0.1389 -0.0542
 4342SOL    HW124485   4.682   1.755   9.329 -0.3929  0.0721  1.3932
 4342SOL    HW224486   4.555   1.799   9.391  3.0855  0.1866  1.5293
 4343SOL     OW24487   1.712   4.579   8.306 -0.1194 -0.4007  0.6398
 4343SOL    HW124488   1.723   4.629   8.225 -2.7259 -0.7793  0.0508
 4343SOL    HW224489   1.643   4.515   8.284  0.4192 -0.1196 -1.8345
 4344SOL     OW24490   4.409   4.682  11.943  0.1575  0.2899  0.7968
 4344SOL    HW124491   4.411   4.596  11.901 -0.2576 -0.5720  2.5267
 4344SOL    HW224492   4.465   4.657  12.017  1.1233 -0.7309 -0.2791
 4345SOL     OW24493   0.543   0.934   8.481  0.1484 -0.5325 -0.1427
 4345SOL    HW124494   0.476   0.889   8.532  0.5383 -0.9891 -0.0224
 4345SOL    HW224495   0.535   1.026   8.507  1.0289 -0.9285  1.5863
 4346SOL     OW24496   4.705   1.780   7.189 -1.0506 -0.1003  0.5390
 4346SOL    HW124497   0.070   1.800   7.220 -1.2233 -1.2141  1.7709
 4346SOL    HW224498   4.706   1.803   7.096  0.3011 -0.9902  0.3318
 4347SOL     OW24499   3.738   3.851   2.817 -0.1056  0.1868 -0.0618
 4347SOL    HW124500   3.743   3.756   2.818 -0.0758  0.1637 -3.5474
 4347SOL    HW224501   3.832   3.865   2.828 -0.2503  3.0440 -2.2171
 4348SOL     OW24502   2.750   4.479  16.238  0.2668 -0.1897 -0.3912
 4348SOL    HW124503   2.755   4.556  16.295  1.5659  0.8625 -1.9226
 4348SOL    HW224504   2.828   4.495  16.184 -0.7818  1.3428 -1.4497
 4349SOL     OW24505   4.245   1.659   7.801  0.1915 -0.2541  0.5249
 4349SOL    HW124506   4.261   1.627   7.713 -2.2690 -0.9728  0.3193
 4349SOL    HW224507   4.258   1.754   7.802 -1.3650 -0.0167 -2.3638
 4350SOL     OW24508   4.101   0.096   7.474  0.2749 -0.6791  0.3745
 4350SOL    HW124509   4.026   0.156   7.481  2.2173  1.6449  1.1994
 4350SOL    HW224510   4.091   0.052   7.558  1.1157 -2.9428 -0.7124
 4351SOL     OW24511   1.699   2.179  12.762  0.2298  0.5396  0.3610
 4351SOL    HW124512   1.695   2.246  12.830 -0.7656 -0.3366  1.1525
 4351SOL    HW224513   1.789   2.188  12.729  0.5673  0.3379  1.2374
 4352SOL     OW24514   4.031   1.484   6.114  0.2410  0.9307  0.0079
 4352SOL    HW124515   4.093   1.449   6.179 -0.5337 -1.3283 -0.4627
 4352SOL    HW224516   4.016   1.569   6.156  0.5442  2.2138 -2.4693
 4353SOL     OW24517   0.888   1.502   6.422 -0.2236 -0.1878 -0.3737
 4353SOL    HW124518   0.906   1.459   6.505  2.1752  2.2856  0.3690
 4353SOL    HW224519   0.872   1.431   6.359  2.2695 -2.1454  1.2184
 4354SOL     OW24520   0.580   3.443   0.945  0.7244  0.2602 -0.2990
 4354SOL    HW124521   0.533   3.506   0.999  1.4050  1.5150 -1.1560
 4354SOL    HW224522   0.591   3.370   1.006  1.7000  2.4089  2.1225
 4355SOL     OW24523   0.665   1.953  10.347  0.9676  0.2362  0.9998
 4355SOL    HW124524   0.665   2.038  10.302 -1.2838 -0.5275 -0.4242
 4355SOL    HW224525   0.761   1.950  10.348  0.9764  0.3806  0.4905
 4356SOL     OW24526   1.693   0.961   6.431  0.2397  0.2675  0.1506
 4356SOL    HW124527   1.708   1.055   6.442 -0.2395  0.5727 -1.8083
 4356SOL    HW224528   1.598   0.955   6.425  0.1628 -0.2933  1.8585
 4357SOL     OW24529   4.367   1.500   6.159 -0.0009  0.0492 -0.1638
 4357SOL    HW124530   4.426   1.508   6.234 -1.7559 -1.2056  1.3459
 4357SOL    HW224531   4.390   1.411   6.133  0.7752  0.2782 -0.2763
 4358SOL     OW24532   4.051   3.844  15.406 -0.1416 -0.7032  0.3682
 4358SOL    HW124533   4.054   3.937  15.384  1.2436 -1.2307 -1.6567
 4358SOL    HW224534   4.115   3.854  15.477  0.3816 -1.3697 -0.0094
 4359SOL     OW24535   3.459   3.836   8.091  0.0466  0.3693 -0.2203
 4359SOL    HW124536   3.477   3.920   8.049  0.3727 -0.3930 -1.6190
 4359SOL    HW224537   3.539   3.787   8.071 -0.9879 -1.1451 -0.6239
 4360SOL     OW24538   4.482   1.793   2.425  0.1353 -0.2811  0.0801
 4360SOL    HW124539   4.513   1.723   2.368  1.5884  0.9276 -0.6139
 4360SOL    HW224540   4.433   1.845   2.361  0.6988  0.1926  0.0434
 4361SOL     OW24541   0.219   0.381   0.497  0.2793 -0.0938 -0.2838
 4361SOL    HW124542   0.129   0.392   0.466  0.4803  1.3696 -0.3481
 4361SOL    HW224543   0.227   0.433   0.577  0.7759  2.2326 -1.8441
 4362SOL     OW24544   1.062   4.389   1.475  0.1102  0.4583 -0.6121
 4362SOL    HW124545   1.129   4.341   1.524 -1.8578 -0.3485  1.3177
 4362SOL    HW224546   1.036   4.317   1.417  1.2367  0.3338 -0.9737
 4363SOL     OW24547   0.048   0.359   5.853 -0.4170 -0.4679 -0.2920
 4363SOL    HW124548   4.711   0.433   5.845  0.0946 -0.1447 -1.0928
 4363SOL    HW224549   0.096   0.398   5.927 -1.1123  1.4102 -0.8401
 4364SOL     OW24550   2.839   0.582   1.521  0.0145  0.0534  0.2122
 4364SOL    HW124551   2.910   0.543   1.572  0.1295 -1.7280 -1.2964
 4364SOL    HW224552   2.830   0.673   1.551  2.0626  0.8288 -1.5416
 4365SOL     OW24553   2.614   0.700   7.742 -0.1988  0.2639  0.2062
 4365SOL    HW124554   2.602   0.673   7.651 -0.0442 -1.1054  0.5865
 4365SOL    HW224555   2.530   0.699   7.787 -0.0811  0.0464  0.4223
 4366SOL     OW24556   4.548   3.056  15.526  0.5382  0.1409 -0.1463
 4366SOL    HW124557   4.521   3.139  15.488  2.8778  1.8652  1.9098
 4366SOL    HW224558   4.499   2.989  15.478  0.6034  0.5180 -0.7255
 4367SOL     OW24559   0.171   4.079   3.422 -0.3775 -0.5746 -0.3038
 4367SOL    HW124560   0.262   4.111   3.416 -0.8443  1.1220  1.5619
 4367SOL    HW224561   0.204   3.989   3.423  1.2879  0.0342  0.3282
 4368SOL     OW24562   0.165   2.539   5.216  0.5451 -0.0304 -0.2439
 4368SOL    HW124563   0.233   2.520   5.151  1.2846  0.3782  0.4232
 4368SOL    HW224564   0.196   2.620   5.256 -0.4369  1.3142 -2.1939
 4369SOL     OW24565   0.793   3.433  15.023 -0.3530 -0.1366  0.6020
 4369SOL    HW124566   0.720   3.376  15.044 -0.8816  0.3748  0.1433
 4369SOL    HW224567   0.739   3.512  15.023  0.8823  0.7305  2.1165
 4370SOL     OW24568   3.162   3.226   8.242  0.9922 -0.2185 -0.0391
 4370SOL    HW124569   3.221   3.158   8.275  0.0156 -1.1372 -0.1945
 4370SOL    HW224570   3.169   3.290   8.313 -0.3435  0.2362 -0.3198
 4371SOL     OW24571   2.486   0.940   0.286  0.3495  0.5604  0.1535
 4371SOL    HW124572   2.571   0.985   0.284  0.7364 -0.1334  0.6987
 4371SOL    HW224573   2.453   0.929   0.197  2.4736 -0.3330 -0.5298
 4372SOL     OW24574   3.230   4.362   2.498 -0.5184 -0.3305 -0.1667
 4372SOL    HW124575   3.196   4.398   2.580 -1.2390  2.1116 -1.5351
 4372SOL    HW224576   3.278   4.442   2.476 -1.1031 -0.0417 -0.4011
 4373SOL     OW24577   0.110   4.669   7.766 -0.4564  0.0408 -0.0184
 4373SOL    HW124578   0.172   4.620   7.821 -0.0121 -0.8754 -1.3376
 4373SOL    HW224579   0.131   4.627   7.682 -1.4782 -0.2173 -0.1471
 4374SOL     OW24580   0.765   3.958   5.484  0.3639 -0.1997 -0.2020
 4374SOL    HW124581   0.711   4.025   5.525 -0.4904 -1.2606  0.4223
 4374SOL    HW224582   0.735   3.881   5.533  1.2144  0.3899  1.2320
 4375SOL     OW24583   3.990   3.037   7.327 -0.8409  0.3510  0.5394
 4375SOL    HW124584   4.050   3.087   7.383  0.6743 -0.6727 -0.1937
 4375SOL    HW224585   3.949   2.981   7.394  0.0593 -0.6589  0.2358
 4376SOL     OW24586   4.023   2.442   8.000  0.0670  0.3632  0.3542
 4376SOL    HW124587   4.068   2.407   8.077  0.0752  0.0182  0.1904
 4376SOL    HW224588   4.007   2.358   7.957 -3.1909  1.6691 -0.9872
 4377SOL     OW24589   3.313   0.177  10.616  0.1079 -0.2074  0.0827
 4377SOL    HW124590   3.329   0.102  10.673  1.0120 -0.6789 -0.7969
 4377SOL    HW224591   3.398   0.221  10.625 -0.5576  1.0627  0.1650
 4378SOL     OW24592   2.169   1.352   4.662 -0.0755 -0.0026 -0.5231
 4378SOL    HW124593   2.252   1.318   4.630  0.3677 -1.3145  2.0815
 4378SOL    HW224594   2.199   1.378   4.749  0.4446  2.1826 -1.3499
 4379SOL     OW24595   0.946   1.367   6.633 -0.1227 -0.7266 -0.2253
 4379SOL    HW124596   0.995   1.387   6.712 -1.6590 -0.2919  0.6254
 4379SOL    HW224597   0.958   1.273   6.623  0.9900 -0.4631 -1.2465
 4380SOL     OW24598   1.974   1.180   7.246  0.6277  0.1078  0.2003
 4380SOL    HW124599   1.927   1.236   7.308 -0.3383 -1.2494  0.6923
 4380SOL    HW224600   2.006   1.110   7.303  0.2079 -1.1298 -1.0886
 4381SOL     OW24601   2.886   2.226   7.078 -0.2381 -0.1587  1.0548
 4381SOL    HW124602   2.945   2.218   7.152  0.2238  0.5551  0.7655
 4381SOL    HW224603   2.898   2.147   7.025  1.2194  0.1176  0.9689
 4382SOL     OW24604   2.237   3.709   8.781  0.1318  0.2600  0.2471
 4382SOL    HW124605   2.252   3.795   8.819 -2.9913  0.7277  0.4109
 4382SOL    HW224606   2.329   3.691   8.765  0.0478 -0.3854  0.4886
 4383SOL     OW24607   3.806   3.262  10.338  0.3594  0.2028  0.3029
 4383SOL    HW124608   3.762   3.195  10.285  0.7284 -0.0103  0.2675
 4383SOL    HW224609   3.742   3.331  10.322  1.5200  1.3264  0.5298
 4384SOL     OW24610   2.180   2.640   4.135  0.2930  0.2169  0.8348
 4384SOL    HW124611   2.268   2.679   4.139  1.1527 -1.6446  0.0857
 4384SOL    HW224612   2.151   2.651   4.225  0.1403  1.4119  0.6467
 4385SOL     OW24613   0.579   3.417   5.964 -0.1129  0.6345  0.0115
 4385SOL    HW124614   0.586   3.432   6.058 -2.6374 -0.3577  0.3765
 4385SOL    HW224615   0.491   3.379   5.958  0.3912 -0.8575  2.3271
 4386SOL     OW24616   0.009   1.652  14.221 -0.5188  0.0953 -0.3049
 4386SOL    HW124617   0.073   1.614  14.161 -0.2180  0.2534 -0.0805
 4386SOL    HW224618   0.046   1.655  14.309 -2.1617 -0.3897  0.3990
 4387SOL     OW24619   1.466   4.173   2.858  0.5059 -0.1104 -0.2696
 4387SOL    HW124620   1.528   4.184   2.786 -1.1318  1.7549 -1.4105
 4387SOL    HW224621   1.405   4.105   2.827 -1.0405  0.8666  0.6233
 4388SOL     OW24622   0.944   3.277  14.307 -0.1488  0.2498  0.4607
 4388SOL    HW124623   1.036   3.256  14.297 -0.2788 -0.1204  0.0358
 4388SOL    HW224624   0.905   3.197  14.342 -0.7222  0.1048 -0.5097
 4389SOL     OW24625   0.907   0.662   2.218  0.0266 -0.1132  0.1426
 4389SOL    HW124626   0.832   0.622   2.262 -0.1487 -0.5468 -0.5415
 4389SOL    HW224627   0.974   0.593   2.227  1.3580  0.9427 -1.6690
 4390SOL     OW24628   1.314   0.689  15.474 -0.3038 -0.2714 -0.4087
 4390SOL    HW124629   1.230   0.704  15.517 -0.1945  0.1688 -0.3477
 4390SOL    HW224630   1.293   0.601  15.442 -2.0734  0.4167 -1.0964
 4391SOL     OW24631   0.079   0.221   2.919  0.0975 -0.4703  0.1127
 4391SOL    HW124632   0.012   0.156   2.898 -0.5232 -0.2328  1.3841
 4391SOL    HW224633   0.147   0.196   2.856 -0.4694 -0.0189 -0.6766
 4392SOL     OW24634   0.601   0.280  15.169 -0.4336  0.2323 -0.3717
 4392SOL    HW124635   0.598   0.375  15.165  0.0058  0.3083  1.1475
 4392SOL    HW224636   0.507   0.263  15.171 -0.9198  2.8853 -1.7010
 4393SOL     OW24637   1.569   2.796   8.633  1.0547 -0.4356  0.3669
 4393SOL    HW124638   1.545   2.877   8.587  1.7829 -0.7613 -0.5901
 4393SOL    HW224639   1.521   2.815   8.714  0.1793 -2.0151  0.2219
 4394SOL     OW24640   2.731   1.731   3.783 -0.2443 -0.6274 -0.0349
 4394SOL    HW124641   2.789   1.792   3.827 -0.3532  0.8348 -1.8970
 4394SOL    HW224642   2.658   1.792   3.765  0.5285  0.2931 -0.0341
 4395SOL     OW24643   3.220   2.940   2.825  0.0599 -0.3549 -0.0145
 4395SOL    HW124644   3.243   3.003   2.757 -0.6490 -0.7054 -0.5792
 4395SOL    HW224645   3.212   2.865   2.766 -1.2300  1.0031 -1.5658
 4396SOL     OW24646   0.393   1.178  15.506 -0.2101  0.0750 -0.1917
 4396SOL    HW124647   0.350   1.105  15.461  4.3733 -3.4809  1.1921
 4396SOL    HW224648   0.428   1.228  15.433  0.3345 -0.3402 -0.2155
 4397SOL     OW24649   0.287   2.096   6.918 -0.3614 -0.5315 -0.0055
 4397SOL    HW124650   0.312   2.136   7.001 -0.5409  0.0269 -0.2171
 4397SOL    HW224651   0.250   2.016   6.954  2.0075 -0.7471  1.9292
 4398SOL     OW24652   4.576   0.495   5.250  0.6276 -0.2785  0.4413
 4398SOL    HW124653   4.485   0.499   5.277  0.5287 -0.6526  0.1691
 4398SOL    HW224654   4.579   0.399   5.256  0.8307 -0.1907  1.7434
 4399SOL     OW24655   1.986   1.361  13.624  0.1364  0.5275  0.4154
 4399SOL    HW124656   1.900   1.364  13.584  0.6118 -1.3549 -0.7480
 4399SOL    HW224657   1.961   1.335  13.713 -0.7971 -2.4831 -0.7587
 4400SOL     OW24658   2.594   1.332   0.791  0.0181  0.6459 -0.5219
 4400SOL    HW124659   2.658   1.360   0.857 -0.7478  2.4502 -0.5400
 4400SOL    HW224660   2.554   1.270   0.851  0.8302  0.4370 -0.1920
 4401SOL     OW24661   3.140   2.213   3.505  0.5666 -0.3186 -0.0526
 4401SOL    HW124662   3.089   2.225   3.425 -0.4284  1.1913  0.8089
 4401SOL    HW224663   3.094   2.141   3.550 -1.4190  1.0852  0.1708
 4402SOL     OW24664   3.873   0.967   1.740 -0.2145  0.3129  0.1746
 4402SOL    HW124665   3.827   0.978   1.823 -1.0156 -2.9968  0.1481
 4402SOL    HW224666   3.919   0.884   1.752  1.0087  0.9657  0.0497
 4403SOL     OW24667   2.424   0.553   6.247 -0.6122  0.2632 -0.0435
 4403SOL    HW124668   2.488   0.606   6.198  0.0207 -0.4113  0.0500
 4403SOL    HW224669   2.428   0.472   6.196  1.8128  0.1377  0.3252
 4404SOL     OW24670   3.007   2.941   6.487  0.1327  0.1319 -0.0082
 4404SOL    HW124671   2.948   3.015   6.501 -0.0891 -0.2261  0.9368
 4404SOL    HW224672   3.044   2.954   6.400 -0.3675 -2.1787 -0.5807
 4405SOL     OW24673   4.365   3.143   4.591 -0.1679 -0.2150 -0.1313
 4405SOL    HW124674   4.296   3.206   4.613  2.3999  1.9190  1.8702
 4405SOL    HW224675   4.424   3.201   4.542  0.7252 -1.3602 -0.4189
 4406SOL     OW24676   0.058   2.370   1.662 -0.2768  0.0501 -0.0208
 4406SOL    HW124677   0.125   2.438   1.652  0.6747 -1.0533 -1.0942
 4406SOL    HW224678   0.010   2.399   1.740  1.2891  1.2125  0.5207
 4407SOL     OW24679   3.583   3.246   1.443 -0.2905 -0.2930  0.5784
 4407SOL    HW124680   3.668   3.276   1.475 -0.7639  0.5785  1.0076
 4407SOL    HW224681   3.528   3.323   1.454  1.0604  0.7293  0.2439
 4408SOL     OW24682   0.898   0.412  13.590 -0.1074 -0.0517  0.3086
 4408SOL    HW124683   0.897   0.431  13.684 -0.7956 -0.5881  0.4060
 4408SOL    HW224684   0.993   0.405  13.582 -0.2214 -1.6368  0.3350
 4409SOL     OW24685   2.563   4.370  17.499 -0.3946 -0.2070 -0.6494
 4409SOL    HW124686   2.521   4.454  17.484  0.6073  0.1744 -1.2643
 4409SOL    HW224687   2.611   4.361  17.417  0.5969 -1.2089  0.0313
 4410SOL     OW24688   4.365   2.819   4.238 -0.0431  0.0616  0.5466
 4410SOL    HW124689   4.434   2.884   4.223 -1.3062  0.7841 -2.0519
 4410SOL    HW224690   4.297   2.868   4.284 -0.8121 -0.9423  0.4613
 4411SOL     OW24691   4.351   0.310   7.484 -0.6241 -0.0002  0.1777
 4411SOL    HW124692   4.306   0.228   7.463 -0.4003  0.5458 -2.4071
 4411SOL    HW224693   4.329   0.359   7.404 -0.1222 -1.6641 -0.9803
 4412SOL     OW24694   1.998   0.169   2.638  0.0831 -0.1665  0.4841
 4412SOL    HW124695   1.974   0.262   2.637  1.0869  0.1238  2.5127
 4412SOL    HW224696   2.093   0.172   2.652 -0.0769  1.2707  1.2996
 4413SOL     OW24697   1.925   1.218   5.961  0.1858  0.0907 -0.3421
 4413SOL    HW124698   1.977   1.152   6.008 -2.7264 -0.5400  1.9544
 4413SOL    HW224699   1.867   1.240   6.034 -1.1242 -3.4887 -0.2858
 4414SOL     OW24700   4.489   3.326   8.180 -0.4434  0.2312 -0.3577
 4414SOL    HW124701   4.455   3.390   8.243 -1.9314 -3.1084  2.1729
 4414SOL    HW224702   4.563   3.296   8.232 -1.1123 -1.4732 -0.4142
 4415SOL     OW24703   2.816   0.683   3.396  0.4331  0.3956 -0.1403
 4415SOL    HW124704   2.839   0.727   3.478  0.2799 -2.1142  1.2564
 4415SOL    HW224705   2.798   0.760   3.341 -0.8432 -0.1522 -0.4728
 4416SOL     OW24706   1.066   0.952   3.473  0.1465 -0.1826 -0.0162
 4416SOL    HW124707   1.144   0.969   3.420  0.9377 -1.6225  0.7047
 4416SOL    HW224708   0.994   0.936   3.412  1.0993 -0.0512 -1.1678
 4417SOL     OW24709   3.373   1.010   2.142 -0.0195 -0.2946  0.0803
 4417SOL    HW124710   3.401   1.102   2.139  1.8168 -0.7731  2.6324
 4417SOL    HW224711   3.453   0.980   2.185 -0.5751  0.5260  1.7076
 4418SOL     OW24712   3.321   0.919   3.813 -0.1906 -0.5367 -0.2558
 4418SOL    HW124713   3.272   0.844   3.778 -0.6856 -0.3491  0.0405
 4418SOL    HW224714   3.295   0.925   3.905  0.2297  4.0686 -0.4459
 4419SOL     OW24715   2.515   1.480  14.540 -0.8727  0.1473  0.4166
 4419SOL    HW124716   2.605   1.467  14.508 -0.0909  0.9118  2.3042
 4419SOL    HW224717   2.503   1.441  14.626 -0.0335  0.6382  0.7545
 4420SOL     OW24718   0.723   0.675  13.759  0.0935  0.9883  0.0369
 4420SOL    HW124719   0.650   0.694  13.700 -1.8601 -3.8041  0.9005
 4420SOL    HW224720   0.705   0.737  13.830  0.9831  0.2075  0.9417
 4421SOL     OW24721   0.611   3.046   3.124  0.0195  0.4565  0.1118
 4421SOL    HW124722   0.664   3.124   3.141 -0.3950  0.8286 -0.3356
 4421SOL    HW224723   0.654   3.014   3.045 -0.3162 -1.4700  0.6924
 4422SOL     OW24724   1.704   1.552   0.878  0.3988  0.4480  0.3118
 4422SOL    HW124725   1.772   1.501   0.834  1.2263  0.7994  1.1867
 4422SOL    HW224726   1.684   1.632   0.828  0.9815  1.4540  1.6881
 4423SOL     OW24727   0.720   0.557  11.287  0.0365  0.0020  0.2693
 4423SOL    HW124728   0.666   0.483  11.258 -0.6704  0.5155  0.2767
 4423SOL    HW224729   0.775   0.556  11.208 -0.3210 -1.8848  0.0504
 4424SOL     OW24730   1.226   1.446   4.562 -0.3734 -0.5275  0.7353
 4424SOL    HW124731   1.249   1.539   4.565  0.4068 -0.7126  0.5843
 4424SOL    HW224732   1.261   1.417   4.647 -2.0230  2.0850  2.2815
 4425SOL     OW24733   4.239   1.161   0.867 -0.2813 -0.2590 -0.2883
 4425SOL    HW124734   4.217   1.247   0.902  0.6161  0.4889 -1.6061
 4425SOL    HW224735   4.178   1.156   0.794  1.0846 -0.7431 -1.3850
 4426SOL     OW24736   3.223   0.776  16.388 -0.6820  1.0360  0.5904
 4426SOL    HW124737   3.188   0.800  16.474  1.8742 -1.8216  2.4714
 4426SOL    HW224738   3.232   0.861  16.344 -0.2138  0.2627 -0.7929
 4427SOL     OW24739   4.642   3.541   2.099  0.5426 -0.7959  0.4992
 4427SOL    HW124740   4.559   3.541   2.051  2.5603  1.6030 -3.0413
 4427SOL    HW224741   4.707   3.537   2.029  0.1155  1.4291 -0.0247
 4428SOL     OW24742   1.206   0.697  11.279  0.3878  0.0416  0.7359
 4428SOL    HW124743   1.284   0.749  11.263 -0.8988  0.9089 -2.6512
 4428SOL    HW224744   1.133   0.756  11.265 -0.2675 -1.0989 -0.6881
 4429SOL     OW24745   1.431   3.410   2.985 -0.0178  0.0544 -0.3073
 4429SOL    HW124746   1.476   3.485   2.946  1.6840  0.1213  1.7635
 4429SOL    HW224747   1.394   3.359   2.913  0.5417 -1.6818  0.6190
 4430SOL     OW24748   0.259   1.480  11.019  0.3554  0.2232 -0.1277
 4430SOL    HW124749   0.295   1.519  11.098  2.6716 -0.4415 -0.8262
 4430SOL    HW224750   0.303   1.395  11.012 -0.3840 -0.1814  0.1930
 4431SOL     OW24751   2.395   0.555   4.732  0.3896  0.0512 -0.8609
 4431SOL    HW124752   2.414   0.463   4.752 -2.1701 -0.0163  1.3302
 4431SOL    HW224753   2.381   0.557   4.638 -0.1487  0.2072 -0.7781
 4432SOL     OW24754   2.303   0.047   8.231 -0.4600  0.2898 -0.1558
 4432SOL    HW124755   2.369   0.003   8.178 -0.7610  1.4436 -1.5013
 4432SOL    HW224756   2.251   4.695   8.259 -1.0846 -0.3199 -2.9292
 4433SOL     OW24757   3.622   1.243   7.903  0.6424  0.3397  0.3231
 4433SOL    HW124758   3.553   1.183   7.876  1.1899 -1.4311  2.8867
 4433SOL    HW224759   3.563   1.316   7.923 -0.7214 -0.7588  0.3019
 4434SOL     OW24760   1.993   2.974   4.225  0.1716  0.7244  0.2566
 4434SOL    HW124761   1.945   3.035   4.281 -1.7074  0.8004 -1.3891
 4434SOL    HW224762   2.085   2.998   4.230  0.3201  0.5758 -1.7608
 4435SOL     OW24763   4.345   1.431   2.520  0.1363 -0.2038  0.1238
 4435SOL    HW124764   4.437   1.440   2.544 -0.0988  2.4037 -0.0132
 4435SOL    HW224765   4.351   1.458   2.428  1.9693 -0.1042  0.2688
 4436SOL     OW24766   3.264   1.453   6.973 -0.2021  0.4258  0.7565
 4436SOL    HW124767   3.170   1.453   6.952 -0.2980  1.4820  1.1831
 4436SOL    HW224768   3.264   1.421   7.063  0.8006 -1.5384  0.0490
 4437SOL     OW24769   4.000   3.492  12.745  0.0782 -0.2924  0.0142
 4437SOL    HW124770   4.075   3.472  12.690 -0.2505  1.3646 -1.0250
 4437SOL    HW224771   3.998   3.588  12.739  0.0714 -0.3384 -0.6854
 4438SOL     OW24772   2.206   1.724  12.421  0.5094  0.7618 -0.0062
 4438SOL    HW124773   2.185   1.805  12.376  0.2348  1.3167  1.1267
 4438SOL    HW224774   2.138   1.672  12.377  0.9554 -1.0304  1.3910
 4439SOL     OW24775   0.976   4.027   7.206 -0.1639 -0.0887  0.4021
 4439SOL    HW124776   0.882   4.013   7.201 -0.2793  0.4838  1.0808
 4439SOL    HW224777   0.994   3.944   7.251  4.2497 -0.1092 -1.3896
 4440SOL     OW24778   1.983   4.124  10.897  0.1563 -0.3916  0.1374
 4440SOL    HW124779   1.954   4.161  10.980 -0.9115  2.5222 -1.5698
 4440SOL    HW224780   2.044   4.190  10.866 -0.3153 -0.1655 -0.3040
 4441SOL     OW24781   1.118   2.981   2.443  0.3918  0.2044  0.0659
 4441SOL    HW124782   1.038   2.930   2.455  1.0956 -0.7520  0.7556
 4441SOL    HW224783   1.118   3.007   2.351  0.2046 -1.8067 -0.4909
 4442SOL     OW24784   0.273   1.934   6.093 -0.3312  0.3740 -0.8902
 4442SOL    HW124785   0.291   1.847   6.056  0.9330  1.1711 -2.1372
 4442SOL    HW224786   0.341   1.937   6.160  0.1646  0.2829 -1.3843
 4443SOL     OW24787   1.077   1.109   1.406 -0.1536  0.1687  0.2828
 4443SOL    HW124788   1.104   1.072   1.489 -0.1074 -0.8255 -0.1790
 4443SOL    HW224789   1.042   1.035   1.356  2.5849  0.0178 -1.4234
 4444SOL     OW24790   2.980   1.802  13.964 -0.3870  0.4784  1.1643
 4444SOL    HW124791   3.055   1.760  14.006 -0.6198 -0.2758  0.8144
 4444SOL    HW224792   2.907   1.746  13.989  0.0095 -0.0149  1.2097
 4445SOL     OW24793   4.667   4.462  15.606  0.5598  0.0432 -0.7220
 4445SOL    HW124794   0.013   4.497  15.664  0.0935  2.5070 -1.6572
 4445SOL    HW224795   4.585   4.476  15.654  0.7926 -1.2432  0.0780
 4446SOL     OW24796   2.273   0.078   5.560 -0.1580  0.2052 -0.2286
 4446SOL    HW124797   2.192   0.028   5.558  0.1475 -0.3528  1.1390
 4446SOL    HW224798   2.295   0.071   5.653 -2.8240 -0.2209  0.3636
 4447SOL     OW24799   2.227   0.103   7.523 -0.0719  0.1272 -0.5749
 4447SOL    HW124800   2.279   0.089   7.444  1.6321 -1.2417  0.7937
 4447SOL    HW224801   2.172   0.174   7.490  3.0913  2.0509 -1.6976
 4448SOL     OW24802   4.432   4.304   0.651 -0.0107 -0.0575 -0.1299
 4448SOL    HW124803   4.342   4.314   0.682  0.5668 -1.7824  2.0741
 4448SOL    HW224804   4.473   4.305   0.737  2.2629  0.2846 -1.2193
 4449SOL     OW24805   0.469   4.608   0.371 -0.0070 -0.0790  0.1280
 4449SOL    HW124806   0.408   4.647   0.434 -0.2907 -2.4791  1.3587
 4449SOL    HW224807   0.532   4.680   0.368 -1.3371  1.0867  0.0748
 4450SOL     OW24808   0.595   0.274   2.948  0.1259  0.1424 -0.7009
 4450SOL    HW124809   0.531   0.343   2.933 -1.8463 -1.6761 -0.6086
 4450SOL    HW224810   0.549   0.211   3.005 -0.1353  1.2597  0.3223
 4451SOL     OW24811   1.439   0.153  11.962 -0.1190  0.2794  0.0437
 4451SOL    HW124812   1.441   0.241  11.999 -1.7439  0.0445  0.6806
 4451SOL    HW224813   1.368   0.144  11.898  2.3902 -2.4404 -2.3952
 4452SOL     OW24814   3.998   1.317   9.157  0.5261 -0.1404 -0.4310
 4452SOL    HW124815   3.991   1.245   9.094  0.8407  0.1915 -0.8456
 4452SOL    HW224816   4.003   1.255   9.230 -1.9615 -0.4815 -0.5652
 4453SOL     OW24817   1.374   2.500   8.875  0.2097 -0.4903  0.3387
 4453SOL    HW124818   1.387   2.428   8.937  0.3499 -1.3753 -0.7231
 4453SOL    HW224819   1.448   2.551   8.908 -0.6469  1.7138 -1.2084
 4454SOL     OW24820   1.982   2.477   2.416 -0.0945  0.1297 -0.5697
 4454SOL    HW124821   2.020   2.467   2.329 -0.9391 -0.5250 -0.8751
 4454SOL    HW224822   1.987   2.571   2.428  1.1493 -0.3317  2.6176
 4455SOL     OW24823   0.912   1.741   3.433  0.2148 -0.7302  0.2251
 4455SOL    HW124824   0.892   1.819   3.486  0.1169  0.3544 -1.4026
 4455SOL    HW224825   0.883   1.671   3.491  0.5075  0.5667  1.9586
 4456SOL     OW24826   0.448   4.028  14.964  0.4043 -0.1427 -0.0864
 4456SOL    HW124827   0.521   4.089  14.971 -1.5909  2.0818  1.5342
 4456SOL    HW224828   0.491   3.978  14.895 -0.6376  1.1756 -1.6607
 4457SOL     OW24829   2.591   3.204   2.152  0.4881  0.1053  0.3959
 4457SOL    HW124830   2.642   3.183   2.229  1.6391 -0.6473 -0.5710
 4457SOL    HW224831   2.588   3.122   2.103 -0.6512  0.9359 -0.9272
 4458SOL     OW24832   2.260   2.342   7.382  0.2575  0.7405  0.0335
 4458SOL    HW124833   2.236   2.323   7.292  1.3286  3.9256 -0.9446
 4458SOL    HW224834   2.256   2.438   7.388  1.8662  0.7781  0.5606
 4459SOL     OW24835   4.120   3.321   4.521 -0.0281 -0.7014 -0.0619
 4459SOL    HW124836   4.106   3.393   4.459 -1.8497 -0.1681  0.9790
 4459SOL    HW224837   4.136   3.372   4.600 -0.2418 -0.3921 -0.2193
 4460SOL     OW24838   0.252   0.947   5.324 -0.3783 -0.0751  0.4495
 4460SOL    HW124839   0.168   0.963   5.367  0.8659  0.8601  2.5431
 4460SOL    HW224840   0.308   0.941   5.401 -1.1994 -0.4727  1.0193
 4461SOL     OW24841   3.398   3.644   0.637  0.1889  0.5349 -0.6164
 4461SOL    HW124842   3.427   3.687   0.717 -1.0892 -1.7349  1.0882
 4461SOL    HW224843   3.484   3.649   0.596  0.4889  0.8703  0.0599
 4462SOL     OW24844   4.361   0.942  10.133 -0.0650  0.0330 -0.5106
 4462SOL    HW124845   4.441   0.941  10.081  0.4939 -0.0966  0.3628
 4462SOL    HW224846   4.299   0.919  10.064  0.5294 -0.0242 -1.0207
 4463SOL     OW24847   3.682   1.975   7.789 -0.0043  0.3234  0.2439
 4463SOL    HW124848   3.682   1.883   7.816  0.4333 -0.0972 -1.1702
 4463SOL    HW224849   3.637   1.956   7.707 -0.7373 -0.9759  0.9278
 4464SOL     OW24850   0.618   3.203   1.937 -0.4623 -0.4876  0.1512
 4464SOL    HW124851   0.650   3.139   1.874 -2.9048 -1.1540 -0.3911
 4464SOL    HW224852   0.699   3.251   1.953  1.2035 -3.7967  1.7078
 4465SOL     OW24853   2.044   0.572   5.636 -0.2313 -0.8406  0.2869
 4465SOL    HW124854   2.139   0.581   5.644 -0.3832 -0.0713  1.2308
 4465SOL    HW224855   2.022   0.641   5.573  1.2442 -0.2253  0.4577
 4466SOL     OW24856   0.659   1.802   3.533  0.7609 -0.2442  0.0295
 4466SOL    HW124857   0.619   1.822   3.448  0.0689 -0.5648  0.2779
 4466SOL    HW224858   0.598   1.749   3.585 -2.1059  1.7870 -1.3149
 4467SOL     OW24859   3.460   0.004  15.150 -0.0448 -0.1756  0.2675
 4467SOL    HW124860   3.460   0.034  15.241  1.9525  0.5210  0.0414
 4467SOL    HW224861   3.540   4.675  15.158  1.1983  1.3059 -2.4630
 4468SOL     OW24862   1.516   1.761   8.344 -0.3136  0.0299 -0.6264
 4468SOL    HW124863   1.563   1.844   8.355 -1.5141  0.7397 -0.7378
 4468SOL    HW224864   1.501   1.772   8.250  0.8972  2.0769 -0.5820
 4469SOL     OW24865   2.755   1.449   5.090 -0.0144 -0.0201 -0.3500
 4469SOL    HW124866   2.725   1.365   5.054  1.3322 -1.3186  1.5619
 4469SOL    HW224867   2.761   1.427   5.183  0.5758  0.0955 -0.3604
 4470SOL     OW24868   3.799   0.595   0.812 -0.4387 -0.2425 -0.9355
 4470SOL    HW124869   3.767   0.538   0.741  0.6201 -1.2062 -0.6408
 4470SOL    HW224870   3.776   0.550   0.893 -1.0270 -0.0984 -1.0231
 4471SOL     OW24871   1.621   3.288   6.331  0.4075 -0.2076  0.6817
 4471SOL    HW124872   1.551   3.234   6.367  2.7611 -2.4747  1.8358
 4471SOL    HW224873   1.576   3.315   6.251 -2.4563 -3.1580  1.3127
 4472SOL     OW24874   4.162   1.220   2.511 -0.2020 -0.3095  0.6747
 4472SOL    HW124875   4.094   1.258   2.456  0.1284 -1.6949 -0.7012
 4472SOL    HW224876   4.212   1.298   2.534  0.8814 -0.4403 -1.1721
 4473SOL     OW24877   3.369   2.190   3.884 -0.3731  0.3156  0.6262
 4473SOL    HW124878   3.341   2.114   3.834  0.3240  0.6127 -0.2175
 4473SOL    HW224879   3.390   2.250   3.812  2.1015 -1.8543 -0.4560
 4474SOL     OW24880   1.822   3.864   9.752 -0.1318  0.2768  0.0274
 4474SOL    HW124881   1.747   3.805   9.756 -0.2766  0.5556  1.6872
 4474SOL    HW224882   1.838   3.883   9.660 -2.6563  0.7843 -0.3053
 4475SOL     OW24883   2.992   3.275   2.473 -0.1876  0.1820  0.4350
 4475SOL    HW124884   3.039   3.335   2.415 -1.2031 -0.5289 -1.1059
 4475SOL    HW224885   3.010   3.318   2.557  1.7152  2.3996 -1.1213
 4476SOL     OW24886   3.260   1.803   3.954 -0.0732 -0.0995 -0.4000
 4476SOL    HW124887   3.284   1.854   4.031  2.1815 -0.1429 -1.0589
 4476SOL    HW224888   3.241   1.714   3.984 -1.0263  0.1987 -0.1169
 4477SOL     OW24889   1.684   0.069   1.904 -0.3643  0.1443 -0.1953
 4477SOL    HW124890   1.642   0.065   1.990 -1.5752 -0.2421 -0.8111
 4477SOL    HW224891   1.710   4.701   1.885  0.3188  0.3676 -0.3362
 4478SOL     OW24892   1.326   0.037   6.294 -0.0188 -0.1791 -0.3170
 4478SOL    HW124893   1.402   0.026   6.237  1.3888 -1.1570  1.7273
 4478SOL    HW224894   1.360   0.115   6.339  3.3751 -1.4855 -0.5985
 4479SOL     OW24895   0.357   3.695   7.968 -0.1962  0.1512 -0.0080
 4479SOL    HW124896   0.392   3.608   7.986 -2.2362 -0.6011  0.2210
 4479SOL    HW224897   0.419   3.755   8.010 -0.7523 -1.2624  2.8399
 4480SOL     OW24898   2.822   0.294   8.996  0.5895  0.1118 -0.4425
 4480SOL    HW124899   2.750   0.232   9.006  0.8922 -0.2226 -0.3520
 4480SOL    HW224900   2.772   0.375   8.982 -0.7294 -0.5504  0.4971
 4481SOL     OW24901   0.155   3.639   4.722 -0.0879 -0.4678  0.6069
 4481SOL    HW124902   0.220   3.613   4.657  0.1115  1.4103  0.0582
 4481SOL    HW224903   0.090   3.570   4.715  2.0511 -2.3626 -0.5991
 4482SOL     OW24904   3.790   2.658   0.354  0.5230  0.8193 -0.0879
 4482SOL    HW124905   3.784   2.753   0.347 -0.3916  0.8825  1.5550
 4482SOL    HW224906   3.695   2.647   0.352  0.6619 -0.3045 -0.4886
 4483SOL     OW24907   3.376   3.766   4.961 -0.2602  0.0965  0.1492
 4483SOL    HW124908   3.386   3.832   4.893  1.0523 -1.5869 -1.2761
 4483SOL    HW224909   3.436   3.692   4.950  1.0358  1.1109  0.3119
 4484SOL     OW24910   4.269   2.783   4.613  0.8094  0.2967  0.1683
 4484SOL    HW124911   4.262   2.707   4.554 -0.1385 -1.6713  2.8269
 4484SOL    HW224912   4.189   2.830   4.590  0.6349  0.5399  1.3021
 4485SOL     OW24913   2.941   2.394  16.417 -0.2697  0.0391 -0.5256
 4485SOL    HW124914   2.855   2.435  16.412  0.0047  0.8791  1.5738
 4485SOL    HW224915   2.926   2.309  16.460 -2.6365  0.5850 -0.3023
 4486SOL     OW24916   1.546   3.036   3.259 -0.0107 -0.3739  0.1238
 4486SOL    HW124917   1.476   2.993   3.309  1.1572 -1.7179  0.6148
 4486SOL    HW224918   1.502   3.110   3.219 -0.4793 -0.3975  0.5925
 4487SOL     OW24919   4.651   0.584  15.384 -0.1963 -0.2360  0.5632
 4487SOL    HW124920   4.680   0.667  15.422 -1.7832  0.1446  0.9596
 4487SOL    HW224921   4.718   0.575  15.316 -1.6178  1.4894 -1.0796
 4488SOL     OW24922   1.815   2.679   3.124  0.0604 -0.4057  0.3077
 4488SOL    HW124923   1.752   2.750   3.112  0.1970 -0.0236  1.8219
 4488SOL    HW224924   1.799   2.611   3.059  0.8804  1.4954 -1.8662
 4489SOL     OW24925   2.947   2.780  10.529 -0.1165  0.2280 -0.7495
 4489SOL    HW124926   2.883   2.745  10.467  0.1893 -2.2091  0.3250
 4489SOL    HW224927   2.903   2.862  10.552 -0.6252 -0.3155  0.2203
 4490SOL     OW24928   3.450   0.040  14.790  0.0710  0.7209  0.0666
 4490SOL    HW124929   3.403   0.070  14.868 -1.3355  1.7068 -1.1637
 4490SOL    HW224930   3.374   0.016  14.737 -0.6553 -2.4490  2.5730
 4491SOL     OW24931   0.501   1.698   2.398  0.2053 -0.1594  0.3019
 4491SOL    HW124932   0.549   1.771   2.357 -0.9999  0.5706  0.1970
 4491SOL    HW224933   0.547   1.620   2.367  0.4096 -0.1806  0.6529
 4492SOL     OW24934   3.118   0.294   7.592  0.2391 -0.1008  0.1059
 4492SOL    HW124935   3.138   0.232   7.522  1.1779 -0.9186  1.1048
 4492SOL    HW224936   3.113   0.374   7.538  2.2286  0.0801  0.2081
 4493SOL     OW24937   0.262   3.842   7.740 -0.1717  0.4687 -0.4493
 4493SOL    HW124938   0.250   3.913   7.803  1.1464 -0.1243  0.4665
 4493SOL    HW224939   0.293   3.769   7.794  1.0539  2.6705  1.8384
 4494SOL     OW24940   4.223   1.312   9.576 -0.4576 -0.3761  0.7687
 4494SOL    HW124941   4.156   1.246   9.556 -1.2783  0.9314 -0.8545
 4494SOL    HW224942   4.215   1.319   9.671  1.6648  0.0381  0.9138
 4495SOL     OW24943   4.541   2.974   8.432  0.3548  0.3207 -0.2274
 4495SOL    HW124944   4.589   2.956   8.351  1.0134 -1.4772  0.5645
 4495SOL    HW224945   4.482   2.899   8.439  2.3652 -1.2563 -0.3184
 4496SOL     OW24946   1.216   1.304  16.961  0.1927 -0.1879 -0.3275
 4496SOL    HW124947   1.215   1.234  17.026 -2.2551 -1.1783 -1.4139
 4496SOL    HW224948   1.153   1.367  16.997  0.8195  0.8123 -0.9739
 4497SOL     OW24949   4.710   3.533  10.984 -0.2124  0.2458  0.0530
 4497SOL    HW124950   4.703   3.628  10.971 -0.9627  0.3564  1.3173
 4497SOL    HW224951   0.082   3.522  10.973 -0.9195 -3.7646 -2.1737
 4498SOL     OW24952   0.172   3.760  10.614  0.1437  0.0069  0.3553
 4498SOL    HW124953   0.227   3.775  10.691 -0.4477 -0.2293  0.8272
 4498SOL    HW224954   0.118   3.685  10.635  1.6058 -1.0085  0.4765
 4499SOL     OW24955   1.305   0.498   3.023 -0.6976 -0.6671  0.2126
 4499SOL    HW124956   1.209   0.506   3.025 -0.6906 -0.9837  1.4226
 4499SOL    HW224957   1.307   0.403   3.034 -0.5056 -0.8413 -1.3356
 4500SOL     OW24958   3.384   0.109   5.688 -0.1854 -0.0048 -0.2846
 4500SOL    HW124959   3.396   0.204   5.684 -3.7148  0.5201  1.0851
 4500SOL    HW224960   3.440   0.077   5.759  1.9241 -0.9894 -2.4047
 4501SOL     OW24961   3.445   2.891  16.445 -0.4162  0.3120  0.1236
 4501SOL    HW124962   3.407   2.970  16.483  1.8646  1.3666  0.1995
 4501SOL    HW224963   3.402   2.885  16.360  1.4004  0.6474 -0.8233
 4502SOL     OW24964   2.526   1.935   5.136  0.1128  0.7649 -0.1311
 4502SOL    HW124965   2.479   1.884   5.203  1.6269 -1.6100 -0.8886
 4502SOL    HW224966   2.542   1.864   5.073  3.4942 -0.1541  1.7805
 4503SOL     OW24967   0.409   2.174  12.464  0.2497  0.4488 -0.2026
 4503SOL    HW124968   0.410   2.108  12.394 -0.7127  1.1289 -0.8607
 4503SOL    HW224969   0.468   2.132  12.527 -1.7733  0.4613  1.6992
 4504SOL     OW24970   4.209   1.562   5.752 -0.0904 -0.4045  0.5419
 4504SOL    HW124971   4.165   1.483   5.721  0.7193 -1.2402  1.5832
 4504SOL    HW224972   4.142   1.629   5.767  0.6003  0.5460 -0.6199
 4505SOL     OW24973   0.303   3.235   7.626 -0.2245 -0.4197 -0.5174
 4505SOL    HW124974   0.331   3.295   7.557 -0.5534  0.7859  0.3986
 4505SOL    HW224975   0.336   3.157   7.581 -0.3082  0.2298 -1.6978
 4506SOL     OW24976   0.461   0.476   8.343  0.4162 -0.5805  0.5518
 4506SOL    HW124977   0.388   0.444   8.397 -0.4898 -0.3218 -0.5100
 4506SOL    HW224978   0.409   0.504   8.268 -0.6684 -2.1638  0.7172
 4507SOL     OW24979   0.049   2.195  15.113  0.2056  0.4401  0.4732
 4507SOL    HW124980   0.109   2.259  15.151 -0.2950  0.0259  1.9460
 4507SOL    HW224981   0.055   2.123  15.175  2.9164 -0.4830 -0.8391
 4508SOL     OW24982   3.880   1.682   2.357  0.0060  0.6263 -0.4936
 4508SOL    HW124983   3.902   1.755   2.414 -0.8240 -0.4916  1.2556
 4508SOL    HW224984   3.958   1.639   2.319 -1.3260 -0.9228 -1.5057
 4509SOL     OW24985   1.443   0.809   8.080 -0.4638 -0.0207 -0.3829
 4509SOL    HW124986   1.463   0.895   8.117  0.3969 -0.0277 -0.8344
 4509SOL    HW224987   1.442   0.830   7.987 -1.1977 -0.3076 -0.4421
 4510SOL     OW24988   3.063   3.185   9.123 -0.1734 -0.1586  0.1641
 4510SOL    HW124989   2.969   3.167   9.130 -0.5599  2.0705  0.4191
 4510SOL    HW224990   3.096   3.109   9.075  0.9932 -0.5942  1.6607
 4511SOL     OW24991   1.610   2.402   5.548 -0.0790 -0.0286 -0.7017
 4511SOL    HW124992   1.624   2.328   5.489  0.3757  0.9675 -1.8410
 4511SOL    HW224993   1.635   2.483   5.503 -0.8464 -0.6633 -2.2699
 4512SOL     OW24994   1.057   3.956   2.681  0.4381  0.4771 -0.1232
 4512SOL    HW124995   0.963   3.965   2.663  1.0171  0.9851 -2.8987
 4512SOL    HW224996   1.086   3.917   2.598 -1.3426  0.2581 -0.6522
 4513SOL     OW24997   3.356   1.256   4.769  0.1828 -0.5282  0.0433
 4513SOL    HW124998   3.431   1.206   4.736  0.3279 -1.9022  2.4504
 4513SOL    HW224999   3.364   1.349   4.749  0.7166 -0.6930 -0.5265
 4514SOL     OW25000   0.601   4.520  13.241  0.1381  0.2696  0.5337
 4514SOL    HW125001   0.585   4.430  13.269  0.4462  0.3383  0.9377
 4514SOL    HW225002   0.579   4.516  13.149  0.5199  0.2952  0.4403
 4515SOL     OW25003   1.185   0.819   5.460 -0.0014 -0.2495 -0.4021
 4515SOL    HW125004   1.156   0.899   5.416  0.3240  0.0905 -0.0035
 4515SOL    HW225005   1.143   0.815   5.546 -1.8027  1.0900 -1.2052
 4516SOL     OW25006   1.442   1.243   2.585 -0.3486 -0.1280  0.4716
 4516SOL    HW125007   1.441   1.218   2.493  0.3188  2.5585 -0.2705
 4516SOL    HW225008   1.521   1.296   2.593 -0.9792  0.4416  2.8733
 4517SOL     OW25009   1.483   0.167   3.353 -0.0031 -0.0722 -0.1520
 4517SOL    HW125010   1.577   0.175   3.336 -0.0137 -0.5151 -0.4000
 4517SOL    HW225011   1.447   0.182   3.265  1.2639 -0.9156 -0.8018
 4518SOL     OW25012   4.068   3.436   8.211  0.0414 -0.4927  0.4811
 4518SOL    HW125013   4.020   3.420   8.292  0.6935 -0.2659  0.9074
 4518SOL    HW225014   4.155   3.461   8.243  0.9033 -1.1280 -1.3638
 4519SOL     OW25015   0.566   0.589  16.980 -0.2942 -0.5863 -0.1823
 4519SOL    HW125016   0.605   0.641  17.050  1.3784 -2.2625  0.1379
 4519SOL    HW225017   0.477   0.572  17.010  0.2804 -1.6848  0.8852
 4520SOL     OW25018   2.496   1.038  15.042  0.5232 -0.3417 -0.1232
 4520SOL    HW125019   2.401   1.050  15.038  0.3864 -1.9074 -1.3720
 4520SOL    HW225020   2.500   1.007  15.132  0.2758 -2.4613 -0.8291
 4521SOL     OW25021   3.668   0.983  10.361  0.1409  0.6717  0.0030
 4521SOL    HW125022   3.626   0.918  10.305  0.7938 -0.9139  1.3322
 4521SOL    HW225023   3.595   1.044  10.366  2.0697  3.0127 -0.0891
 4522SOL     OW25024   4.264   0.355   5.626 -0.3403  0.2288 -0.4275
 4522SOL    HW125025   4.310   0.397   5.553  0.4060  0.6742  0.2929
 4522SOL    HW225026   4.249   0.427   5.688  0.2864 -0.6141  0.7134
 4523SOL     OW25027   0.445   2.212   1.924  0.0773 -0.3387  0.1213
 4523SOL    HW125028   0.362   2.258   1.940 -1.9303 -3.2013 -2.1490
 4523SOL    HW225029   0.408   2.144   1.868 -1.7119  2.6318 -2.3519
 4524SOL     OW25030   1.753   0.141   0.711  0.2923  0.2506  0.3459
 4524SOL    HW125031   1.803   0.175   0.785 -1.5633  2.1976  0.7081
 4524SOL    HW225032   1.663   0.148   0.744 -0.2137  0.2119 -1.0225
 4525SOL     OW25033   0.764   3.405   7.123  0.2482  0.4821  0.3609
 4525SOL    HW125034   0.841   3.422   7.069  0.6668 -0.2552  0.7264
 4525SOL    HW225035   0.695   3.452   7.076  1.0658  3.0819  1.7318
 4526SOL     OW25036   1.176   1.888   9.974  0.0243 -0.3951  0.3510
 4526SOL    HW125037   1.147   1.829  10.044 -1.2881 -0.1808 -0.0165
 4526SOL    HW225038   1.220   1.956  10.025  0.1156 -2.7723  3.4802
 4527SOL     OW25039   3.286   0.483   3.179 -0.6562  0.0805 -0.1858
 4527SOL    HW125040   3.210   0.526   3.220 -0.3239 -1.3921  1.9618
 4527SOL    HW225041   3.300   0.403   3.229  0.0466 -1.3256 -2.6265
 4528SOL     OW25042   0.036   0.508   2.685 -0.2446 -0.2443 -0.9035
 4528SOL    HW125043   4.702   0.446   2.732  0.0041  0.6045  0.5435
 4528SOL    HW225044   0.028   0.577   2.752  0.3162 -1.1805  0.1327
 4529SOL     OW25045   0.785   4.483   7.109 -0.3897 -0.0406  0.1093
 4529SOL    HW125046   0.689   4.488   7.107 -0.2564  1.3248 -3.7521
 4529SOL    HW225047   0.799   4.409   7.050  1.4101 -0.5258  1.1874
 4530SOL     OW25048   0.473   4.278   6.374  0.1152  0.0245 -0.2312
 4530SOL    HW125049   0.471   4.190   6.338 -1.8805  0.0784 -0.2735
 4530SOL    HW225050   0.524   4.266   6.454 -0.0005 -0.3025 -0.2091
 4531SOL     OW25051   4.362   3.714  17.622 -0.5964  0.7486  0.0544
 4531SOL    HW125052   4.450   3.710  17.658  0.2953  1.2805 -2.0520
 4531SOL    HW225053   4.378   3.769  17.545 -0.1695 -1.2758 -1.3262
 4532SOL     OW25054   0.378   3.361   1.334 -0.2377  0.8350  0.0062
 4532SOL    HW125055   0.340   3.273   1.328  0.5655  0.4932 -0.0989
 4532SOL    HW225056   0.471   3.340   1.342 -0.2627  1.0188  0.7868
 4533SOL     OW25057   0.921   2.858   7.327  0.2096  0.1256  0.1489
 4533SOL    HW125058   0.957   2.945   7.347  0.5408 -0.0560  0.3387
 4533SOL    HW225059   0.909   2.831   7.418 -1.0280  1.7944  0.4861
 4534SOL     OW25060   3.054   2.810   5.570 -0.3083 -0.8435  0.4257
 4534SOL    HW125061   3.020   2.741   5.514  0.5864 -1.7472  0.9922
 4534SOL    HW225062   3.140   2.776   5.595 -0.2711  0.4776  2.1732
 4535SOL     OW25063   1.214   0.873   2.176 -0.4255 -0.0589  0.7333
 4535SOL    HW125064   1.234   0.906   2.264  0.7126  0.0922  0.4285
 4535SOL    HW225065   1.120   0.884   2.171  0.0094  3.1260 -0.4296
 4536SOL     OW25066   2.612   1.049  14.019 -0.2975 -0.3835  0.0498
 4536SOL    HW125067   2.686   1.041  13.959  0.2698  1.6770  0.4680
 4536SOL    HW225068   2.587   0.957  14.020 -0.8531 -0.2079  1.8737
 4537SOL     OW25069   4.580   2.822   3.222 -0.3952 -0.3890 -0.1831
 4537SOL    HW125070   4.590   2.848   3.130 -1.8694  0.4238 -0.1265
 4537SOL    HW225071   4.486   2.838   3.218 -0.0607  1.9796  1.2296
 4538SOL     OW25072   4.569   1.186   6.861  0.0252  0.8657  0.6617
 4538SOL    HW125073   4.619   1.105   6.866 -0.4395  0.4418 -1.7138
 4538SOL    HW225074   4.534   1.183   6.772 -0.2754  0.9451  0.7779
 4539SOL     OW25075   1.278   1.414   4.862  0.1041  0.1660  0.5066
 4539SOL    HW125076   1.373   1.413   4.875  0.0865  0.3997  0.6403
 4539SOL    HW225077   1.247   1.330   4.895  0.1984 -0.0172  0.1338
 4540SOL     OW25078   3.359   3.337   2.261 -0.4968  0.0739 -0.1667
 4540SOL    HW125079   3.368   3.283   2.183  3.0294  0.2423  0.1074
 4540SOL    HW225080   3.442   3.332   2.308 -1.1120  0.1339  0.9367
 4541SOL     OW25081   4.680   4.186   4.960  0.3636  0.2611  0.3892
 4541SOL    HW125082   4.707   4.094   4.959  1.7341  0.6620  3.5148
 4541SOL    HW225083   4.585   4.185   4.948  0.8623  0.3814 -3.5876
 4542SOL     OW25084   1.270   1.596   9.166  0.3625 -0.2141 -0.9668
 4542SOL    HW125085   1.276   1.691   9.165 -0.2118 -0.1666  0.6972
 4542SOL    HW225086   1.353   1.576   9.122 -0.2360 -1.4695 -1.5125
 4543SOL     OW25087   4.159   4.351   6.857  0.8969  0.2750 -0.6735
 4543SOL    HW125088   4.081   4.297   6.844  1.5593 -0.5440 -1.2826
 4543SOL    HW225089   4.119   4.417   6.914 -0.4464 -0.7872 -0.3927
 4544SOL     OW25090   3.760   2.315   5.232 -0.3544 -0.3559 -0.1421
 4544SOL    HW125091   3.831   2.345   5.175 -2.2020  0.4283 -2.0702
 4544SOL    HW225092   3.728   2.401   5.261 -0.4488 -0.2057 -0.6876
 4545SOL     OW25093   3.907   4.407   4.609 -0.1089 -0.3431 -0.1169
 4545SOL    HW125094   3.814   4.420   4.591  0.0609  1.0456  0.0683
 4545SOL    HW225095   3.943   4.445   4.529 -1.4931 -0.4632 -0.8025
 4546SOL     OW25096   0.766   3.500   0.331  0.2601  0.4404 -0.2970
 4546SOL    HW125097   0.801   3.460   0.252 -0.5626  1.9397 -1.3997
 4546SOL    HW225098   0.710   3.428   0.360 -0.4162  0.5052 -1.4825
 4547SOL     OW25099   3.814   0.525   6.884 -0.0536 -0.2558 -0.1088
 4547SOL    HW125100   3.884   0.590   6.885 -1.7945  1.6370 -1.2181
 4547SOL    HW225101   3.864   0.443   6.892 -0.4048 -0.4904 -0.3452
 4548SOL     OW25102   2.696   4.186   6.751 -0.1405  0.4663  0.5197
 4548SOL    HW125103   2.697   4.196   6.846  3.3165 -0.4950  0.5948
 4548SOL    HW225104   2.701   4.091   6.745 -1.2691  0.3855  0.9206
 4549SOL     OW25105   1.834   2.492   3.549 -0.0560  0.4416 -0.1890
 4549SOL    HW125106   1.765   2.492   3.483 -2.6906 -1.7237  2.5672
 4549SOL    HW225107   1.796   2.552   3.613  1.9017  1.4514  0.0168
 4550SOL     OW25108   4.574   3.885   3.263  0.2032  0.2970  0.2135
 4550SOL    HW125109   4.602   3.861   3.352  0.9348 -2.0319 -0.6448
 4550SOL    HW225110   4.497   3.936   3.287 -0.7946 -1.1639  0.1099
 4551SOL     OW25111   2.878   4.318   2.436  0.2953  0.1860 -0.6320
 4551SOL    HW125112   2.784   4.323   2.416  0.1288  0.5958  0.2666
 4551SOL    HW225113   2.877   4.317   2.532  0.4180 -1.5815 -0.6505
 4552SOL     OW25114   4.500   2.000   6.824  0.0493 -0.2073 -1.0352
 4552SOL    HW125115   4.433   2.015   6.891  0.4633 -0.3456 -0.5896
 4552SOL    HW225116   4.467   2.066   6.763 -2.0980  0.1645  0.5042
 4553SOL     OW25117   0.266   3.341  17.412 -0.0052  0.1416 -0.3373
 4553SOL    HW125118   0.246   3.253  17.444 -1.6906  0.6290 -0.0671
 4553SOL    HW225119   0.210   3.346  17.334 -0.1767  1.6475 -0.1202
 4554SOL     OW25120   1.384   0.206   7.799  0.2519  0.7766  0.5278
 4554SOL    HW125121   1.294   0.183   7.825 -0.1593  1.2024 -0.5183
 4554SOL    HW225122   1.430   0.184   7.879 -1.1114  0.7803  1.3158
 4555SOL     OW25123   3.306   2.638   8.365 -0.0551 -0.2979  0.2361
 4555SOL    HW125124   3.323   2.618   8.457  1.7848 -0.0237 -0.0617
 4555SOL    HW225125   3.365   2.712   8.353 -0.9650  0.4597  0.4574
 4556SOL     OW25126   1.010   4.567   5.604 -0.9760 -0.3156 -0.4951
 4556SOL    HW125127   1.017   4.495   5.542 -0.0413 -1.9684  1.5315
 4556SOL    HW225128   1.022   4.516   5.684 -0.2882  2.5802  1.2196
 4557SOL     OW25129   1.931   3.091  16.009 -0.5564 -0.9163  0.3694
 4557SOL    HW125130   1.871   3.161  15.983  0.6647 -0.2847 -0.7502
 4557SOL    HW225131   1.970   3.123  16.090 -0.9303  0.1621  0.1306
 4558SOL     OW25132   2.061   4.112   3.573  0.0879 -0.0531 -0.5832
 4558SOL    HW125133   1.982   4.060   3.567 -0.3647  0.5013  0.5310
 4558SOL    HW225134   2.051   4.182   3.508 -1.1242 -1.6798 -2.1187
 4559SOL     OW25135   0.658   2.521  13.668 -0.2339  0.9023  0.3623
 4559SOL    HW125136   0.564   2.537  13.679 -0.7053  0.0492 -2.4640
 4559SOL    HW225137   0.660   2.434  13.708 -1.4373 -0.4019 -2.4206
 4560SOL     OW25138   2.527   4.101   2.424 -0.1329  0.0016  0.3026
 4560SOL    HW125139   2.615   4.079   2.393  0.9018  2.5579  1.4569
 4560SOL    HW225140   2.498   4.173   2.367  0.5236  0.3516  0.4070
 4561SOL     OW25141   3.195   3.153   4.015  0.0912 -0.1083  0.6927
 4561SOL    HW125142   3.241   3.127   3.936 -0.9679  0.5017 -0.1279
 4561SOL    HW225143   3.122   3.201   3.975  1.6576 -0.8307 -3.0436
 4562SOL     OW25144   4.496   4.357   6.733 -0.7084 -0.5090 -0.3587
 4562SOL    HW125145   4.551   4.413   6.789 -1.9232  0.9305 -0.6115
 4562SOL    HW225146   4.464   4.298   6.800  0.4827  0.0833  0.7404
 4563SOL     OW25147   1.769   1.926   0.039 -0.1306  0.7641  0.3707
 4563SOL    HW125148   1.786   2.004   0.093 -1.1170  0.5161  1.0549
 4563SOL    HW225149   1.772   1.859   0.107 -1.7592  0.3891  0.0921
 4564SOL     OW25150   4.217   4.135   4.889  0.0182  0.3886 -0.6278
 4564SOL    HW125151   4.148   4.175   4.835 -0.1158 -0.2444 -0.9230
 4564SOL    HW225152   4.186   4.145   4.979  0.7914  5.5218 -0.9380
 4565SOL     OW25153   1.302   1.429  14.151 -0.1505 -0.0527  0.1140
 4565SOL    HW125154   1.368   1.409  14.084  0.0752 -0.5554  0.4851
 4565SOL    HW225155   1.360   1.427  14.227  0.4773  0.5885 -0.3434
 4566SOL     OW25156   0.698   3.382   2.178 -0.3100  0.2700 -1.1769
 4566SOL    HW125157   0.779   3.360   2.225 -0.4006 -1.5786 -1.8961
 4566SOL    HW225158   0.639   3.311   2.202  1.0879 -0.5705 -0.2104
 4567SOL     OW25159   3.336   2.281  12.960  0.8618  0.2128  0.7519
 4567SOL    HW125160   3.419   2.236  12.941 -0.1436 -1.9557  1.4621
 4567SOL    HW225161   3.283   2.207  12.929  1.9107 -0.5904  0.8333
 4568SOL     OW25162   3.676   3.137  13.130 -0.1879  0.6884  0.6072
 4568SOL    HW125163   3.605   3.201  13.122 -0.3559  0.2485 -1.4412
 4568SOL    HW225164   3.704   3.121  13.040  0.4787 -1.6096  1.2113
 4569SOL     OW25165   3.031   3.893   8.649  0.0331  0.6389 -0.2320
 4569SOL    HW125166   2.993   3.947   8.580 -1.7570  1.4819  1.4185
 4569SOL    HW225167   3.122   3.924   8.649 -0.3319  1.7254  1.5764
 4570SOL     OW25168   2.249   3.556   9.320  0.1868 -0.3913  0.3470
 4570SOL    HW125169   2.170   3.602   9.347  0.3169 -0.6700  1.1857
 4570SOL    HW225170   2.223   3.465   9.335 -0.3643 -0.2529  0.2300
 4571SOL     OW25171   0.378   4.228   7.400 -0.0120  0.1571  0.7083
 4571SOL    HW125172   0.385   4.319   7.373 -0.6209 -0.1510 -0.4888
 4571SOL    HW225173   0.320   4.183   7.338  1.7898 -0.0296 -0.8233
 4572SOL     OW25174   0.126   1.054   0.188  0.3790 -0.1600 -0.5514
 4572SOL    HW125175   0.123   1.073   0.094  1.1937 -2.4607 -1.0353
 4572SOL    HW225176   0.071   1.122   0.227 -0.8524 -1.8060  0.5657
 4573SOL     OW25177   1.852   1.915   6.786  0.1912  0.4029  0.0661
 4573SOL    HW125178   1.813   1.876   6.707 -0.1610  0.7352  0.0787
 4573SOL    HW225179   1.929   1.858   6.787 -0.9756 -1.1644  2.0395
 4574SOL     OW25180   0.800   1.171   5.180  0.6917  0.5989  0.7539
 4574SOL    HW125181   0.802   1.084   5.139 -0.3203  1.3370 -0.8905
 4574SOL    HW225182   0.734   1.210   5.123  0.0120 -1.2174  0.2989
 4575SOL     OW25183   2.588   2.598  12.329  0.1395  0.6528 -0.3389
 4575SOL    HW125184   2.633   2.541  12.266 -3.0320 -2.5121  0.2532
 4575SOL    HW225185   2.562   2.543  12.402  1.6429 -1.3383 -1.3209
 4576SOL     OW25186   3.753   3.851   4.811  0.0405  0.4100  0.0142
 4576SOL    HW125187   3.718   3.858   4.722 -1.9199  1.4731  0.8674
 4576SOL    HW225188   3.672   3.855   4.862 -0.7836  0.1121 -1.2855
 4577SOL     OW25189   3.440   1.642   1.499 -0.3086 -0.6615  0.1148
 4577SOL    HW125190   3.433   1.681   1.411 -1.8959 -0.5452  0.2868
 4577SOL    HW225191   3.504   1.573   1.482  1.2692  0.8735 -0.0967
 4578SOL     OW25192   3.834   1.085   3.838  0.2974 -0.2602  0.0736
 4578SOL    HW125193   3.747   1.119   3.856 -0.2014 -0.6846 -1.5275
 4578SOL    HW225194   3.892   1.140   3.891 -1.1082 -0.2484  1.5784
 4579SOL     OW25195   0.155   2.341   4.224 -0.3136 -0.2803 -0.3397
 4579SOL    HW125196   0.069   2.319   4.259 -0.5392  1.1616  0.0015
 4579SOL    HW225197   0.124   2.331   4.134 -0.7843  0.4096 -0.2589
 4580SOL     OW25198   3.850   0.176   8.157  0.2993 -0.1181 -0.4713
 4580SOL    HW125199   3.933   0.221   8.172 -0.1547  1.5978 -3.2211
 4580SOL    HW225200   3.819   0.248   8.102 -1.3635  0.1515  0.8137
 4581SOL     OW25201   2.375   3.359   8.496 -0.4112  0.7029  0.5906
 4581SOL    HW125202   2.319   3.431   8.470  0.6995  0.6913 -1.8493
 4581SOL    HW225203   2.406   3.327   8.411  0.4993  1.8234  0.5077
 4582SOL     OW25204   3.524   4.366   0.098  0.7334 -1.0092  0.1864
 4582SOL    HW125205   3.612   4.389   0.127 -0.3136  3.6658 -0.3912
 4582SOL    HW225206   3.475   4.398   0.173  1.1242  2.9014 -1.2430
 4583SOL     OW25207   3.341   1.324   3.415 -0.2808 -0.1856 -0.1341
 4583SOL    HW125208   3.292   1.307   3.495  0.5534 -1.6061  0.0820
 4583SOL    HW225209   3.269   1.302   3.355  0.0754 -1.2392 -0.1664
 4584SOL     OW25210   0.736   0.962   9.234 -0.7483  0.3655 -0.5205
 4584SOL    HW125211   0.820   1.008   9.242  0.0280 -0.7561 -2.2366
 4584SOL    HW225212   0.699   0.965   9.323 -0.7272  1.0075 -0.5301
 4585SOL     OW25213   4.187   4.673  12.690 -0.0565 -0.3482 -0.4942
 4585SOL    HW125214   4.186   4.594  12.744 -1.1709  0.0914  0.1337
 4585SOL    HW225215   4.112   4.654  12.633  0.6707 -1.5084 -1.0530
 4586SOL     OW25216   2.797   1.639  13.323 -0.3160  0.5455  0.5051
 4586SOL    HW125217   2.712   1.660  13.362  0.2342 -1.0792  2.6161
 4586SOL    HW225218   2.851   1.639  13.402 -2.0618 -0.1654  1.6999
 4587SOL     OW25219   0.710   3.935   5.076  0.0479  0.0042  0.1227
 4587SOL    HW125220   0.790   3.941   5.023 -0.7249  1.8671 -0.8227
 4587SOL    HW225221   0.639   3.930   5.012 -0.8419 -3.1551  1.3661
 4588SOL     OW25222   2.841   2.790   5.266 -0.3235 -0.3019 -0.0301
 4588SOL    HW125223   2.882   2.876   5.257 -1.9646  0.3548 -1.3270
 4588SOL    HW225224   2.910   2.736   5.226 -0.8201 -1.0010  0.0547
 4589SOL     OW25225   1.934   0.011   3.933 -0.4267  0.1989  0.0752
 4589SOL    HW125226   1.990   0.003   4.010 -2.0464  0.7203  1.3018
 4589SOL    HW225227   1.937   0.104   3.913 -2.5174 -0.1743 -1.8979
 4590SOL     OW25228   2.601   2.601  10.691 -0.0703  0.1376  0.0861
 4590SOL    HW125229   2.542   2.592  10.766  0.0098 -1.3228 -0.0192
 4590SOL    HW225230   2.670   2.546  10.729 -0.9420 -1.8444 -1.2130
 4591SOL     OW25231   1.631   1.831   6.264  0.9668  0.0879 -0.1560
 4591SOL    HW125232   1.569   1.881   6.317 -0.3876 -1.8035  0.0791
 4591SOL    HW225233   1.590   1.843   6.178 -1.4531  1.2435  1.1739
 4592SOL     OW25234   0.387   2.388   0.421 -0.1145  0.0426  0.0911
 4592SOL    HW125235   0.472   2.432   0.420 -1.2307  2.1944  0.3281
 4592SOL    HW225236   0.398   2.373   0.327  4.0968  1.0175  0.4167
 4593SOL     OW25237   3.007   4.577  14.908 -0.5604  0.0331 -0.3454
 4593SOL    HW125238   2.935   4.590  14.970 -0.8817  1.3694 -1.0006
 4593SOL    HW225239   3.084   4.591  14.962 -0.1316 -1.6712 -0.5186
 4594SOL     OW25240   2.164   1.268   2.504  0.2928  0.0306  0.3080
 4594SOL    HW125241   2.098   1.334   2.481 -0.5247  0.0300  2.6940
 4594SOL    HW225242   2.237   1.325   2.526 -1.1088  1.5766  0.9981
 4595SOL     OW25243   0.349   0.815   8.631 -0.2461 -0.1116  0.7447
 4595SOL    HW125244   0.273   0.759   8.616 -1.3097  1.9413 -1.3976
 4595SOL    HW225245   0.326   0.849   8.718 -2.0522  0.9984 -0.1625
 4596SOL     OW25246   1.546   2.557   8.520  0.0384  0.6982 -0.1928
 4596SOL    HW125247   1.601   2.517   8.588  0.8943 -0.2940 -1.4732
 4596SOL    HW225248   1.554   2.650   8.540 -3.9052  1.1748 -0.8901
 4597SOL     OW25249   4.400   0.002   2.149  0.2203  0.0241 -0.4662
 4597SOL    HW125250   4.464   0.065   2.182 -0.0242 -1.4223  2.7245
 4597SOL    HW225251   4.427   4.645   2.194 -0.1699  0.1062 -0.0929
 4598SOL     OW25252   1.500   2.504  15.752 -0.7999  0.0115  0.2684
 4598SOL    HW125253   1.579   2.557  15.750  0.8792 -2.5015  0.1472
 4598SOL    HW225254   1.448   2.553  15.688  1.3662 -0.6312 -1.9714
 4599SOL     OW25255   3.491   4.136   8.066  0.6349  0.4877  0.0464
 4599SOL    HW125256   3.408   4.166   8.103  0.6629  0.8627 -0.1875
 4599SOL    HW225257   3.547   4.212   8.087 -1.0512  1.9851 -0.8646
 4600SOL     OW25258   2.981   1.177   7.244  0.2786  0.1798  0.8742
 4600SOL    HW125259   2.915   1.222   7.298  1.7940  1.5098  1.6032
 4600SOL    HW225260   3.059   1.232   7.249  0.3933  0.1874 -0.8809
 4601SOL     OW25261   0.918   1.551  11.198  0.1089  0.0051  0.3307
 4601SOL    HW125262   0.880   1.465  11.181 -0.7135  0.4643 -0.1409
 4601SOL    HW225263   1.010   1.526  11.211  0.6541  0.0267 -3.2861
 4602SOL     OW25264   2.526   0.768   1.215 -0.1687  0.0851  0.1241
 4602SOL    HW125265   2.544   0.677   1.239 -1.1118  0.0500  0.6727
 4602SOL    HW225266   2.579   0.779   1.136  0.1231  0.6704  0.3993
 4603SOL     OW25267   0.384   1.087   1.664 -0.3347  0.1587 -0.2651
 4603SOL    HW125268   0.298   1.049   1.681 -0.3214  0.4202  0.3757
 4603SOL    HW225269   0.438   1.026   1.713  0.2016  1.3929  0.6936
 4604SOL     OW25270   0.579   3.918  14.744  0.3269 -0.1098  0.0244
 4604SOL    HW125271   0.553   3.935  14.654  2.3490 -1.1932 -0.7571
 4604SOL    HW225272   0.547   3.829  14.735 -0.8221 -0.1977  4.8698
 4605SOL     OW25273   4.408   1.847   3.454  0.1443  0.1955 -0.3027
 4605SOL    HW125274   4.386   1.817   3.543  3.6523 -2.1470 -0.2388
 4605SOL    HW225275   4.415   1.764   3.406 -1.1393 -0.1896  0.1574
 4606SOL     OW25276   0.273   1.428   3.982 -0.1201 -0.7653  0.2327
 4606SOL    HW125277   0.289   1.506   3.929  1.7519 -2.4545 -1.6879
 4606SOL    HW225278   0.365   1.426   4.008  0.6117 -2.0066 -2.4780
 4607SOL     OW25279   1.187   1.720   6.403 -0.0991  0.6549  0.0837
 4607SOL    HW125280   1.187   1.626   6.384 -1.7429  1.0385 -1.6851
 4607SOL    HW225281   1.247   1.748   6.334 -0.6553 -0.8189 -0.9816
 4608SOL     OW25282   2.997   0.126   4.112  0.6390  0.4677  0.6818
 4608SOL    HW125283   3.044   0.050   4.077 -0.6559  0.8684 -1.9133
 4608SOL    HW225284   2.918   0.119   4.058  2.1450 -0.6767 -1.3820
 4609SOL     OW25285   3.447   3.290   2.732  0.4480  0.3362  0.0753
 4609SOL    HW125286   3.533   3.324   2.707  0.7128 -0.6233 -0.3312
 4609SOL    HW225287   3.411   3.363   2.783  1.2611  0.5630  0.3247
 4610SOL     OW25288   4.145   2.438   8.798 -0.8514  0.1581  0.0428
 4610SOL    HW125289   4.172   2.527   8.778  0.8152 -0.4052 -0.2130
 4610SOL    HW225290   4.231   2.407   8.826 -2.3281 -2.3807  1.8958
 4611SOL     OW25291   1.184   4.113  17.452  0.0640  0.1388  0.4131
 4611SOL    HW125292   1.255   4.052  17.433  1.4173  2.2020 -1.2173
 4611SOL    HW225293   1.114   4.051  17.470 -1.4626  1.3250 -1.4430
 4612SOL     OW25294   3.992   1.376   1.143  0.5955  0.1977  0.3076
 4612SOL    HW125295   3.945   1.375   1.060 -0.0733  1.7629  0.6550
 4612SOL    HW225296   4.078   1.383   1.104 -0.5400 -1.8448 -2.5272
 4613SOL     OW25297   3.520   0.076   7.677 -0.4660 -0.5784 -0.5759
 4613SOL    HW125298   3.508   0.127   7.757  0.6841 -0.1400 -0.6907
 4613SOL    HW225299   3.599   0.030   7.706  0.0560  0.1365 -0.8696
 4614SOL     OW25300   2.780   3.569   9.248 -0.2619  0.1765 -0.1661
 4614SOL    HW125301   2.867   3.530   9.258 -1.0697 -1.7012 -0.4000
 4614SOL    HW225302   2.771   3.560   9.153 -2.3002 -3.7691  0.4141
 4615SOL     OW25303   4.057   1.532   3.935 -0.0488 -0.8216 -0.3994
 4615SOL    HW125304   4.003   1.560   3.861  1.1473  1.3539 -0.4244
 4615SOL    HW225305   4.025   1.606   3.987 -0.3303  0.3603 -2.2413
 4616SOL     OW25306   1.393   1.118   6.415  0.0158  0.6292 -0.1114
 4616SOL    HW125307   1.326   1.107   6.347 -1.1562 -0.6343  1.2472
 4616SOL    HW225308   1.437   1.202   6.400  2.0443 -0.5329 -0.6399
 4617SOL     OW25309   2.607   0.507   5.591  1.2677 -0.0424 -0.1422
 4617SOL    HW125310   2.698   0.509   5.621  1.4890 -0.6398 -0.7861
 4617SOL    HW225311   2.588   0.596   5.559 -1.6272 -0.9598 -0.9818
 4618SOL     OW25312   2.821   1.889   1.534 -0.1255 -0.1364 -0.3517
 4618SOL    HW125313   2.751   1.848   1.483 -0.0262 -1.2839  0.4422
 4618SOL    HW225314   2.891   1.834   1.501 -0.8096 -0.4834 -1.2384
 4619SOL     OW25315   0.185   0.801  11.866 -0.6485 -0.3622  0.3260
 4619SOL    HW125316   0.129   0.800  11.789 -0.5679  0.4992  0.2541
 4619SOL    HW225317   0.145   0.877  11.910  1.7992  1.4256 -0.5524
 4620SOL     OW25318   3.394   0.747   9.050 -0.1164  0.0445 -0.1374
 4620SOL    HW125319   3.410   0.774   9.141 -1.6100 -1.2553  0.4964
 4620SOL    HW225320   3.456   0.674   9.048  0.9883  0.9645  0.3659
 4621SOL     OW25321   3.098   3.966   8.166 -0.6314  0.6953 -0.0322
 4621SOL    HW125322   3.165   3.904   8.194 -0.6738  1.7684  2.4670
 4621SOL    HW225323   3.160   4.039   8.180 -0.8552  0.6741  1.1294
 4622SOL     OW25324   1.794   0.033   8.880 -0.3339 -0.0618  0.0068
 4622SOL    HW125325   1.704   0.040   8.850  0.1199  0.6342 -1.2249
 4622SOL    HW225326   1.797   4.661   8.892  3.2939  0.1871  1.0801
 4623SOL     OW25327   3.678   3.813   9.328 -0.7144 -0.3097  0.1109
 4623SOL    HW125328   3.684   3.844   9.418  0.3343 -2.4182  0.7745
 4623SOL    HW225329   3.601   3.860   9.297 -0.6298 -0.6762 -0.6571
 4624SOL     OW25330   2.717   0.172  10.298 -0.0614  0.5627  0.3265
 4624SOL    HW125331   2.744   0.194  10.209 -0.6293 -2.4917 -0.6094
 4624SOL    HW225332   2.622   0.160  10.295 -0.3912  2.9194  1.6846
 4625SOL     OW25333   3.852   3.605   4.891  0.3120 -0.5802 -0.5856
 4625SOL    HW125334   3.836   3.695   4.863 -1.2085 -0.4687  0.6415
 4625SOL    HW225335   3.846   3.560   4.807 -1.2331 -1.1466 -0.1551
 4626SOL     OW25336   0.735   0.180   0.649  0.4643  0.1789 -0.9113
 4626SOL    HW125337   0.787   0.101   0.662 -3.1277 -2.0943 -0.2965
 4626SOL    HW225338   0.801   0.219   0.591  0.9730  1.6271  0.6339
 4627SOL     OW25339   0.504   0.928  17.485  0.1312 -0.3646 -0.1969
 4627SOL    HW125340   0.542   0.953  17.401 -2.3098 -1.5518 -1.6215
 4627SOL    HW225341   0.593   0.933  17.522  0.0234 -1.8029  0.2536
 4628SOL     OW25342   1.990   2.535  16.529  0.0814  0.1765 -0.0256
 4628SOL    HW125343   1.925   2.481  16.485 -0.8201  0.0471  1.4353
 4628SOL    HW225344   2.010   2.472  16.598 -0.8244  1.5954  1.5454
 4629SOL     OW25345   3.455   0.447  14.047  0.6662  0.7675 -0.0465
 4629SOL    HW125346   3.401   0.438  14.126 -0.1634 -0.1116 -0.7100
 4629SOL    HW225347   3.404   0.503  13.989  0.6458  2.5865  1.7514
 4630SOL     OW25348   0.347   0.153  13.686 -0.3510 -0.1205 -0.3505
 4630SOL    HW125349   0.435   0.130  13.717  0.1080  2.6275  0.3735
 4630SOL    HW225350   0.322   0.219  13.751  0.2007 -1.6041  1.3683
 4631SOL     OW25351   0.663   2.399   2.307  0.1915 -0.3501 -0.2603
 4631SOL    HW125352   0.585   2.344   2.294  0.7894 -1.3991  0.5588
 4631SOL    HW225353   0.726   2.327   2.310  1.8377  1.1959  1.6177
 4632SOL     OW25354   0.377   0.481   4.578 -0.2981 -0.0115 -0.5264
 4632SOL    HW125355   0.467   0.451   4.563 -0.0026  0.1467  0.9328
 4632SOL    HW225356   0.334   0.411   4.626  0.4828 -0.7779 -0.9379
 4633SOL     OW25357   0.853   0.994   3.305  0.5450 -0.0270  0.0521
 4633SOL    HW125358   0.902   0.971   3.226  1.0329 -0.9001  0.6114
 4633SOL    HW225359   0.857   1.089   3.291 -0.9257  0.1256  0.7449
 4634SOL     OW25360   0.877   1.605   4.284 -0.9761 -0.6706 -0.2536
 4634SOL    HW125361   0.844   1.575   4.369  0.8592 -3.6600 -0.6016
 4634SOL    HW225362   0.908   1.523   4.247 -0.0777 -0.0295 -0.9191
 4635SOL     OW25363   0.091   3.536   5.581  0.5796 -0.1309 -0.2545
 4635SOL    HW125364   4.719   3.551   5.584  0.6116 -0.0233  0.2680
 4635SOL    HW225365   0.117   3.594   5.652 -0.2376 -0.5890  0.4291
 4636SOL     OW25366   0.881   2.102  10.736 -0.0102 -0.4003  0.2906
 4636SOL    HW125367   0.823   2.029  10.755 -1.8007  1.5076  2.1446
 4636SOL    HW225368   0.929   2.056  10.667 -0.3926  0.4694 -0.5698
 4637SOL     OW25369   1.639   3.695  10.898  0.1609 -0.0929 -0.5409
 4637SOL    HW125370   1.591   3.754  10.841 -2.0443  0.3786  1.8096
 4637SOL    HW225371   1.616   3.608  10.865  2.9923 -1.1682  0.3146
 4638SOL     OW25372   4.591   0.050  10.846 -0.7933  0.4686  0.4101
 4638SOL    HW125373   4.535   0.103  10.903 -1.7567 -0.1099 -0.0021
 4638SOL    HW225374   4.526   4.709  10.816 -1.6528  1.5687 -0.0943
 4639SOL     OW25375   3.295   4.517   9.531 -0.3573  0.0317  0.1839
 4639SOL    HW125376   3.341   4.524   9.447  1.3081 -1.0791  1.0015
 4639SOL    HW225377   3.222   4.572   9.504 -1.0512 -1.7551 -1.6098
 4640SOL     OW25378   0.809   0.184   5.853 -0.1958  0.7512  0.1369
 4640SOL    HW125379   0.805   0.277   5.828 -0.6954  0.7397  0.1748
 4640SOL    HW225380   0.830   0.148   5.767  0.0495  2.4988 -0.5438
 4641SOL     OW25381   1.268   2.019  15.085 -0.2355 -0.4656 -0.1121
 4641SOL    HW125382   1.343   2.000  15.141 -0.2662 -0.0636  0.0668
 4641SOL    HW225383   1.233   2.088  15.142  2.1103 -1.7005  2.8197
 4642SOL     OW25384   2.356   0.114   1.203  0.1097  0.4694  0.2465
 4642SOL    HW125385   2.293   0.082   1.268  0.5390  1.3830  1.1139
 4642SOL    HW225386   2.434   0.105   1.258  0.3339 -1.2233 -0.3607
 4643SOL     OW25387   3.196   0.544  11.975 -0.2506  0.1090 -0.2090
 4643SOL    HW125388   3.114   0.498  11.990 -1.1489  1.4737 -0.9472
 4643SOL    HW225389   3.250   0.469  11.949  0.4301  1.4493 -2.6451
 4644SOL     OW25390   3.264   4.176   3.422  0.1099 -0.4424 -0.2369
 4644SOL    HW125391   3.204   4.192   3.496  0.2706 -1.7142  0.1644
 4644SOL    HW225392   3.342   4.215   3.461  1.2828 -2.3396 -0.7411
 4645SOL     OW25393   1.300   4.383   0.253  0.1750 -0.0292 -0.3167
 4645SOL    HW125394   1.368   4.339   0.304  0.2326 -0.9720 -1.2166
 4645SOL    HW225395   1.240   4.309   0.250  0.9062 -0.5527 -1.9225
 4646SOL     OW25396   1.571   1.085   4.929  0.2210  0.3675 -0.1789
 4646SOL    HW125397   1.577   1.139   4.850 -1.6342  0.4677 -0.2676
 4646SOL    HW225398   1.486   1.117   4.960 -0.9204 -2.8274  0.0044
 4647SOL     OW25399   2.295   3.595   7.603 -0.0523  0.1660  0.0669
 4647SOL    HW125400   2.360   3.525   7.592  1.9407  2.1901 -1.0529
 4647SOL    HW225401   2.268   3.569   7.691 -0.0946 -0.9023 -0.2593
 4648SOL     OW25402   0.940   3.599   6.309  0.1900 -0.7150  0.0629
 4648SOL    HW125403   0.943   3.511   6.271 -1.6449  0.0102 -1.7598
 4648SOL    HW225404   0.985   3.653   6.245 -0.4550  0.8365  0.9250
 4649SOL     OW25405   1.238   3.226   8.248 -0.0755 -0.1544  0.0123
 4649SOL    HW125406   1.248   3.308   8.199 -0.4305  1.2879  2.3894
 4649SOL    HW225407   1.273   3.167   8.181 -1.2305  1.5523 -2.1047
 4650SOL     OW25408   3.255   0.716   5.073 -0.1203  0.0912 -0.0727
 4650SOL    HW125409   3.167   0.682   5.058 -1.1582  2.0888  1.4947
 4650SOL    HW225410   3.309   0.648   5.033 -0.9670 -0.0323 -1.0055
 4651SOL     OW25411   4.357   4.645   2.516 -0.7973  0.1300  0.2329
 4651SOL    HW125412   4.335   4.557   2.548 -0.5212 -1.0369 -2.7556
 4651SOL    HW225413   4.441   4.629   2.474 -1.3522 -0.9355 -0.4890
 4652SOL     OW25414   3.096   2.848   2.214 -0.0970 -0.1392  0.0002
 4652SOL    HW125415   3.037   2.856   2.139 -2.1918 -2.7353  1.3576
 4652SOL    HW225416   3.038   2.826   2.288  0.7362  0.3767  0.8115
 4653SOL     OW25417   1.506   3.686   3.748  0.0546  0.3067 -0.7298
 4653SOL    HW125418   1.582   3.636   3.778 -0.9870 -0.6219  0.3354
 4653SOL    HW225419   1.433   3.627   3.767  1.4253 -0.7757  1.1894
 4654SOL     OW25420   0.394   3.300   6.989  0.0094 -0.0318  0.1081
 4654SOL    HW125421   0.447   3.234   6.944 -0.5951 -0.9826  0.7925
 4654SOL    HW225422   0.387   3.267   7.079  0.2255  2.8453  1.1876
 4655SOL     OW25423   4.249   0.418   3.739 -0.0305  0.0401  0.0728
 4655SOL    HW125424   4.286   0.502   3.711  0.6064 -0.6065 -1.0670
 4655SOL    HW225425   4.307   0.357   3.693  1.3806  0.2021  1.6424
 4656SOL     OW25426   1.217   4.509  10.191  0.1951  0.3796  0.8180
 4656SOL    HW125427   1.182   4.421  10.172 -1.0338  1.1762 -0.5656
 4656SOL    HW225428   1.308   4.490  10.214 -0.0170 -1.5163  0.0821
 4657SOL     OW25429   3.436   1.246   6.218 -0.2740  0.2694  0.8834
 4657SOL    HW125430   3.462   1.158   6.189 -0.5927  0.1701  0.8960
 4657SOL    HW225431   3.507   1.264   6.279  0.2791  0.5665  0.1545
 4658SOL     OW25432   0.344   4.684  16.904  0.3842 -0.0401 -0.2652
 4658SOL    HW125433   0.391   4.692  16.987  0.5172  1.7825 -0.5177
 4658SOL    HW225434   0.366   4.592  16.894  1.5740 -0.2483  4.4940
 4659SOL     OW25435   1.215   1.322   7.090  0.1349  0.5142 -0.3300
 4659SOL    HW125436   1.279   1.359   7.030  1.1423  2.9163  2.1949
 4659SOL    HW225437   1.252   1.365   7.167  0.9562  1.1011 -1.0569
 4660SOL     OW25438   3.512   1.884   9.204 -0.2646  0.7023  0.4772
 4660SOL    HW125439   3.511   1.814   9.270 -0.1795 -1.4019 -1.7409
 4660SOL    HW225440   3.420   1.888   9.181  0.1208 -0.6742 -1.3589
 4661SOL     OW25441   4.413   3.834  15.617 -0.2456 -0.7344 -0.1010
 4661SOL    HW125442   4.439   3.742  15.624 -0.9796 -0.7681  2.1551
 4661SOL    HW225443   4.432   3.855  15.526 -1.1665 -1.6503 -0.4978
 4662SOL     OW25444   2.252   0.815   2.422  0.1579  0.2233 -0.1155
 4662SOL    HW125445   2.215   0.894   2.383  0.4622 -0.9190 -2.7505
 4662SOL    HW225446   2.319   0.801   2.354  0.4837  0.3011  0.1885
 4663SOL     OW25447   4.572   1.831   8.642 -0.4699 -0.3019  0.0149
 4663SOL    HW125448   4.584   1.820   8.547  0.3896  0.7673  0.0044
 4663SOL    HW225449   4.654   1.877   8.656 -1.4064  1.6007 -0.7099
 4664SOL     OW25450   2.710   3.045   2.628 -0.3003  0.0077 -0.5293
 4664SOL    HW125451   2.693   3.014   2.716 -0.8535  0.0381 -0.6244
 4664SOL    HW225452   2.781   2.985   2.607  0.9803  2.2986 -2.8349
 4665SOL     OW25453   3.901   1.710   7.616 -0.4672  0.0250 -0.0775
 4665SOL    HW125454   3.941   1.642   7.563 -0.5911 -0.2086  0.1273
 4665SOL    HW225455   3.885   1.771   7.544 -1.1212  1.7675  1.5413
 4666SOL     OW25456   3.154   2.040   7.794  0.4453  0.2110  0.1129
 4666SOL    HW125457   3.130   2.123   7.836 -3.3315 -1.2335  0.7454
 4666SOL    HW225458   3.124   1.974   7.856 -1.3187 -2.1039 -3.1928
 4667SOL     OW25459   3.401   1.312   3.996 -0.2223  0.0234  0.0396
 4667SOL    HW125460   3.399   1.396   4.042  0.6816 -0.7471  1.4844
 4667SOL    HW225461   3.310   1.284   4.005  0.2473 -1.0850  1.3138
 4668SOL     OW25462   1.009   2.651   8.117 -0.1103  0.7098 -0.0994
 4668SOL    HW125463   0.931   2.651   8.173 -1.0088 -1.9402 -1.3563
 4668SOL    HW225464   1.036   2.560   8.118 -0.9309  0.4520 -1.4422
 4669SOL     OW25465   3.655   3.471  14.429  0.1859 -0.1010 -0.4534
 4669SOL    HW125466   3.566   3.493  14.402  0.3741  0.1460 -0.8793
 4669SOL    HW225467   3.680   3.556  14.466 -2.2007  1.2039 -1.8227
 4670SOL     OW25468   2.093   4.539   0.229  0.0049  0.2650  0.9290
 4670SOL    HW125469   2.035   4.607   0.262  0.8153  0.9096  1.0136
 4670SOL    HW225470   2.041   4.459   0.226  1.2090 -0.4703 -0.8542
 4671SOL     OW25471   3.355   0.400   7.029 -0.0284  0.6724 -0.1251
 4671SOL    HW125472   3.419   0.329   7.024  1.2256  1.9165 -1.6146
 4671SOL    HW225473   3.340   0.398   7.123  1.2044  0.3991  0.0640
 4672SOL     OW25474   0.653   3.089   8.096 -0.1785  0.0566  0.5547
 4672SOL    HW125475   0.585   3.107   8.162  0.6478 -1.1240  1.7121
 4672SOL    HW225476   0.709   3.166   8.106 -1.4629  1.1498 -0.6186
 4673SOL     OW25477   3.364   0.303   6.459  0.1038 -0.1829 -0.6454
 4673SOL    HW125478   3.332   0.229   6.407  0.7139  0.8253 -2.4735
 4673SOL    HW225479   3.349   0.272   6.548  0.0229 -3.7592 -1.9203
 4674SOL     OW25480   4.642   4.093   1.836 -0.1866 -0.6670 -0.0426
 4674SOL    HW125481   4.634   4.014   1.783  1.0646 -1.2094  0.5928
 4674SOL    HW225482   4.696   4.064   1.909 -1.4354  0.7721  1.4707
 4675SOL     OW25483   0.074   3.134   2.520 -0.1556  0.5730 -0.9334
 4675SOL    HW125484   0.167   3.113   2.514 -0.0520  0.6260  0.3686
 4675SOL    HW225485   0.027   3.051   2.532  2.5318 -0.6681  1.1073
 4676SOL     OW25486   0.031   0.863  11.080  0.2312  0.0065 -0.1927
 4676SOL    HW125487   4.717   0.796  11.137  0.2019  1.2838  1.2922
 4676SOL    HW225488   4.672   0.899  11.044 -0.3654  0.3378  1.5160
 4677SOL     OW25489   2.516   3.430   3.441 -0.4447 -0.1495  0.3941
 4677SOL    HW125490   2.526   3.492   3.513 -1.8978  0.5006  0.0247
 4677SOL    HW225491   2.427   3.446   3.411  0.2121  2.4813 -0.1309
 4678SOL     OW25492   4.411   1.823   4.111  0.3488 -0.0368 -0.2348
 4678SOL    HW125493   4.481   1.889   4.103 -0.0323  0.3657 -0.2615
 4678SOL    HW225494   4.334   1.866   4.074 -0.2063 -0.2893  0.6215
 4679SOL     OW25495   3.237   1.602   3.442 -0.2901 -0.0106  0.2565
 4679SOL    HW125496   3.300   1.625   3.510 -1.8414  0.2807  1.5928
 4679SOL    HW225497   3.253   1.508   3.448 -1.1628 -0.0911  1.4637
 4680SOL     OW25498   3.679   4.657  14.470 -0.1899  0.3978 -0.2348
 4680SOL    HW125499   3.618   4.617  14.407 -0.1748 -0.3497  0.2241
 4680SOL    HW225500   3.763   4.617  14.448  0.2488  0.5469  1.2188
 4681SOL     OW25501   0.741   0.342   4.300  0.3562  0.3012 -0.1303
 4681SOL    HW125502   0.798   0.412   4.331  2.5768 -0.9853 -1.3524
 4681SOL    HW225503   0.677   0.394   4.250 -0.8448 -1.7787 -0.7266
 4682SOL     OW25504   2.420   2.440   5.176  0.5367 -0.1953 -0.3870
 4682SOL    HW125505   2.483   2.501   5.215 -1.6210  1.5025  0.4353
 4682SOL    HW225506   2.473   2.360   5.181 -0.0303 -0.5559 -0.1693
 4683SOL     OW25507   1.052   3.927   6.373 -0.2529  0.3557 -0.1136
 4683SOL    HW125508   1.148   3.931   6.378 -0.2131 -1.5064  0.5541
 4683SOL    HW225509   1.043   3.966   6.461 -1.2252  1.0746 -0.5307
 4684SOL     OW25510   3.118   1.722   8.945  0.0079 -0.0135  0.0142
 4684SOL    HW125511   3.030   1.732   8.980  0.2897  0.9120  0.4573
 4684SOL    HW225512   3.166   1.758   9.020  0.1673  1.2187 -0.6841
 4685SOL     OW25513   0.605   0.539  17.330 -0.2767 -0.0226 -0.6028
 4685SOL    HW125514   0.672   0.607  17.317 -0.2421  0.7446  3.5302
 4685SOL    HW225515   0.604   0.523  17.424 -0.3155  1.5064 -0.3394
 4686SOL     OW25516   0.188   1.950   2.956 -0.1319  0.4230  0.0705
 4686SOL    HW125517   0.177   1.966   2.863  1.8218  1.4678  0.0203
 4686SOL    HW225518   0.237   1.868   2.952  0.3033  0.6206  1.4329
 4687SOL     OW25519   4.625   1.545  10.670  0.6297 -0.1463 -0.5553
 4687SOL    HW125520   4.612   1.452  10.649  0.2896 -0.4466  1.0097
 4687SOL    HW225521   4.650   1.534  10.762  0.3756 -1.6149 -0.6621
 4688SOL     OW25522   3.710   3.215  15.122  0.1160 -0.4264  0.4024
 4688SOL    HW125523   3.804   3.226  15.108 -0.7082  2.5474 -2.6538
 4688SOL    HW225524   3.674   3.254  15.043 -0.9446  1.4926  1.8128
 4689SOL     OW25525   1.389   1.496   3.721 -0.3072  0.1248 -0.7337
 4689SOL    HW125526   1.298   1.505   3.747 -0.5407 -1.4194 -1.0466
 4689SOL    HW225527   1.395   1.403   3.698 -1.4662 -0.4111  1.1366
 4690SOL     OW25528   2.684   0.758   4.379  0.3906 -0.0416 -0.0083
 4690SOL    HW125529   2.653   0.713   4.457  0.9725 -2.1332 -0.9790
 4690SOL    HW225530   2.610   0.757   4.319  0.2464  0.0081  0.1701
 4691SOL     OW25531   3.139   4.052   4.913  0.1095 -0.6851  0.3092
 4691SOL    HW125532   3.217   4.083   4.960  1.5126 -1.7829 -1.3090
 4691SOL    HW225533   3.086   4.016   4.984  0.1876  0.1696  0.8049
 4692SOL     OW25534   1.758   0.576   4.343 -0.5652 -0.1853  0.2323
 4692SOL    HW125535   1.837   0.560   4.395  0.1284 -0.4911 -0.8993
 4692SOL    HW225536   1.688   0.548   4.401 -0.6255  3.6861  2.0688
 4693SOL     OW25537   2.019   0.648   2.604 -1.0362  0.6864  0.0950
 4693SOL    HW125538   2.100   0.628   2.558 -1.6870  0.8829 -1.1665
 4693SOL    HW225539   2.016   0.743   2.600 -0.3362  0.7284  0.6781
 4694SOL     OW25540   3.058   3.634   3.256 -0.0963 -0.6376 -0.2654
 4694SOL    HW125541   3.040   3.550   3.298  2.2251 -1.1718 -0.3301
 4694SOL    HW225542   3.069   3.608   3.164 -0.8034  1.8320 -1.0612
 4695SOL     OW25543   3.870   3.007  12.511  0.8867  0.5660 -0.4164
 4695SOL    HW125544   3.933   2.966  12.452  1.5150  2.5764 -1.1584
 4695SOL    HW225545   3.930   3.073  12.547  0.7302 -0.4234  1.6473
 4696SOL     OW25546   4.126   2.798  14.258  0.0953 -0.3662 -0.2683
 4696SOL    HW125547   4.164   2.882  14.284  2.6473 -1.3713 -0.6912
 4696SOL    HW225548   4.198   2.735  14.265  1.2254  0.8959 -0.4429
 4697SOL     OW25549   1.686   0.859   1.718  0.7036 -0.1893 -0.3169
 4697SOL    HW125550   1.754   0.794   1.707  0.3334 -0.5718 -0.3415
 4697SOL    HW225551   1.654   0.860   1.627  2.4699  0.3779 -0.9219
 4698SOL     OW25552   4.598   0.740   1.346  0.3743  0.0767 -0.3361
 4698SOL    HW125553   4.602   0.720   1.253  1.4559  1.6574 -0.6385
 4698SOL    HW225554   4.677   0.794   1.350  0.6855 -0.3747 -0.4763
 4699SOL     OW25555   0.660   1.946   2.616 -0.0607 -0.5968  0.4207
 4699SOL    HW125556   0.705   1.959   2.532  1.0024 -1.2513  0.8932
 4699SOL    HW225557   0.654   2.040   2.633  0.7053 -0.6660  1.0432
 4700SOL     OW25558   3.522   4.211  17.567 -0.4012  0.8882 -0.0062
 4700SOL    HW125559   3.508   4.275  17.637 -0.2775  0.4811  0.3894
 4700SOL    HW225560   3.489   4.265  17.496  2.0640  0.7394 -1.2790
 4701SOL     OW25561   0.644   2.514   6.199 -0.7187  0.0444 -0.4343
 4701SOL    HW125562   0.656   2.593   6.252 -2.7956 -0.1676  0.3648
 4701SOL    HW225563   0.596   2.561   6.131 -2.2053 -0.4110  0.2892
 4702SOL     OW25564   0.433   4.357  14.437 -0.1903  0.1784  0.5902
 4702SOL    HW125565   0.516   4.320  14.469 -0.9595 -1.5126  0.6191
 4702SOL    HW225566   0.445   4.451  14.451  0.4843  0.3233 -0.9856
 4703SOL     OW25567   2.646   3.527   5.009 -0.6907 -0.3936 -0.0945
 4703SOL    HW125568   2.573   3.468   4.988 -0.0998 -0.5671 -1.6555
 4703SOL    HW225569   2.676   3.510   5.098 -1.5252 -0.6740  0.1335
 4704SOL     OW25570   2.189   4.091  12.048 -0.9607  0.3749  0.5812
 4704SOL    HW125571   2.146   4.153  11.990  0.8644  0.7950 -0.3167
 4704SOL    HW225572   2.154   4.117  12.133  0.9590 -0.4225  1.6212
 4705SOL     OW25573   4.195   2.085   1.318 -0.2242 -0.1872 -0.4437
 4705SOL    HW125574   4.165   2.026   1.387 -0.9985  0.8961  0.1592
 4705SOL    HW225575   4.289   2.095   1.335 -0.4444  1.3307 -0.0985
 4706SOL     OW25576   1.092   0.549   4.017 -0.0698  0.6436  0.2452
 4706SOL    HW125577   1.116   0.465   3.978 -0.0166  0.3186  0.9968
 4706SOL    HW225578   1.038   0.596   3.953 -1.4147 -2.2525 -0.7529
 4707SOL     OW25579   1.317   2.318   5.994 -0.1113 -0.0978  0.5835
 4707SOL    HW125580   1.317   2.236   6.043 -1.1304 -0.3247  0.1950
 4707SOL    HW225581   1.323   2.290   5.903 -2.9823  1.8906 -0.2106
 4708SOL     OW25582   1.817   0.150   7.407 -0.8164 -0.1521  0.1755
 4708SOL    HW125583   1.773   0.225   7.368 -0.5900 -0.3781 -0.5174
 4708SOL    HW225584   1.865   0.114   7.333 -0.7907 -0.3316  0.2787
 4709SOL     OW25585   1.590   1.394   9.563 -0.5256  0.0723 -0.1358
 4709SOL    HW125586   1.521   1.441   9.610  0.4915 -0.5896  1.9971
 4709SOL    HW225587   1.621   1.462   9.504 -1.6902  1.0673  0.4036
 4710SOL     OW25588   3.548   2.771   1.803 -0.5919 -0.0015  0.0312
 4710SOL    HW125589   3.457   2.774   1.832 -0.3041 -0.5338  1.0089
 4710SOL    HW225590   3.527   2.760   1.711 -1.9245  0.9493  0.2252
 4711SOL     OW25591   0.898   4.064   1.900  1.1827 -0.3861 -0.3509
 4711SOL    HW125592   0.904   4.131   1.831  0.3181  2.0385  1.9227
 4711SOL    HW225593   0.813   4.020   1.888  0.8203  0.1849  0.1234
 4712SOL     OW25594   1.996   2.258   2.963  0.6931  0.1111  0.3990
 4712SOL    HW125595   1.988   2.351   2.985 -2.4438 -0.4489  1.6443
 4712SOL    HW225596   1.957   2.255   2.875  1.3766 -0.6935  0.1250
 4713SOL     OW25597   3.137   4.503   3.706  0.0225  0.3893  0.3201
 4713SOL    HW125598   3.207   4.556   3.668  0.3175  2.0749  3.2306
 4713SOL    HW225599   3.065   4.520   3.645  1.7767 -1.8625 -2.3807
 4714SOL     OW25600   3.820   4.647   9.230 -0.2642  0.2918 -0.4803
 4714SOL    HW125601   3.727   4.646   9.251 -0.5211  0.3465 -1.6075
 4714SOL    HW225602   3.826   4.562   9.186  0.9752 -0.9965  2.1518
 4715SOL     OW25603   4.456   0.177   5.622 -0.0791  0.4437  0.2017
 4715SOL    HW125604   4.377   0.231   5.616 -1.2349 -0.9796  2.5685
 4715SOL    HW225605   4.411   0.105   5.665  1.3862 -1.4484 -1.4405
 4716SOL     OW25606   1.846   2.205   3.887 -0.4069  0.3037 -0.0968
 4716SOL    HW125607   1.776   2.266   3.862 -0.6036 -0.7392 -2.0864
 4716SOL    HW225608   1.930   2.245   3.862  0.3648 -1.3346 -0.1228
 4717SOL     OW25609   0.114   4.627  11.708 -0.5793  0.0788  0.2626
 4717SOL    HW125610   0.164   4.550  11.682 -1.5052 -0.1465 -0.8582
 4717SOL    HW225611   0.056   4.642  11.633  1.4636 -1.0169 -1.5299
 4718SOL     OW25612   0.249   3.405   6.617  0.2758 -0.4206 -0.4352
 4718SOL    HW125613   0.155   3.398   6.605  0.6707  0.0119 -3.9259
 4718SOL    HW225614   0.270   3.476   6.556  1.1772 -0.2842  0.0301
 4719SOL     OW25615   4.246   4.282   3.974 -0.1828  0.4380 -0.0237
 4719SOL    HW125616   4.300   4.345   4.022  0.0038 -1.2230  1.9369
 4719SOL    HW225617   4.161   4.307   4.011  0.0443 -2.0724  2.1631
 4720SOL     OW25618   4.396   1.088   2.341 -0.2304 -0.1756 -0.1570
 4720SOL    HW125619   4.311   1.081   2.383  0.8624 -1.0805  1.9304
 4720SOL    HW225620   4.388   1.014   2.281 -0.6013 -1.8112  1.8717
 4721SOL     OW25621   4.696   3.690  17.277 -0.3061  0.0064  0.6022
 4721SOL    HW125622   4.646   3.755  17.228 -0.3493 -1.2262 -0.9918
 4721SOL    HW225623   0.017   3.754  17.334 -0.6517 -0.0981  0.9787
 4722SOL     OW25624   2.730   0.328   4.069  0.1814 -0.6967  0.2755
 4722SOL    HW125625   2.690   0.396   4.015  0.9991  0.8199  1.5678
 4722SOL    HW225626   2.743   0.257   4.007  0.4747  0.5414 -1.0742
 4723SOL     OW25627   0.038   1.709   8.247  0.5460 -0.4127  0.1277
 4723SOL    HW125628   0.030   1.620   8.213 -2.6583 -0.1746  0.1918
 4723SOL    HW225629   0.100   1.704   8.319 -1.3035 -0.2602  1.7153
 4724SOL     OW25630   3.101   3.323   8.498  0.2237  0.5498  0.0874
 4724SOL    HW125631   3.019   3.276   8.512  0.4311  0.7879  2.0600
 4724SOL    HW225632   3.072   3.406   8.537 -0.5738  0.1915  0.2630
 4725SOL     OW25633   4.268   1.220   0.577 -0.8488 -0.8765  0.2498
 4725SOL    HW125634   4.323   1.157   0.531  0.0753 -1.9815  2.8680
 4725SOL    HW225635   4.279   1.299   0.525 -3.2569 -0.8362 -0.2001
 4726SOL     OW25636   1.216   3.592   2.737 -0.7414  0.1211 -0.0569
 4726SOL    HW125637   1.290   3.627   2.787 -0.0851  0.0661 -0.9985
 4726SOL    HW225638   1.258   3.555   2.659  0.8650  2.2553 -0.2044
 4727SOL     OW25639   0.498   3.347  15.075 -0.1140 -0.9740 -0.3186
 4727SOL    HW125640   0.421   3.385  15.117  0.4061  0.3824 -0.5890
 4727SOL    HW225641   0.476   3.368  14.985 -1.3323 -1.6130 -0.1688
 4728SOL     OW25642   3.384   0.069   9.322 -0.2761  0.2052 -0.3403
 4728SOL    HW125643   3.329   0.095   9.395 -0.7993 -0.3099 -0.5566
 4728SOL    HW225644   3.442   0.000   9.354 -0.9612 -0.5346 -0.6964
 4729SOL     OW25645   2.099   0.189   8.910 -0.1692 -0.1690 -0.4291
 4729SOL    HW125646   2.052   0.240   8.844 -1.8227 -0.1022  0.8202
 4729SOL    HW225647   2.184   0.228   8.889  0.5160 -2.0701 -1.2641
 4730SOL     OW25648   4.467   3.365  16.158 -0.3852 -0.3347 -0.5017
 4730SOL    HW125649   4.426   3.356  16.072  2.3137 -1.5560 -1.6668
 4730SOL    HW225650   4.539   3.422  16.129  0.0413  0.8400  2.8703
 4731SOL     OW25651   1.056   3.489   4.766  0.5499 -0.0538  0.3987
 4731SOL    HW125652   1.144   3.492   4.730 -0.6035  0.1918 -2.3841
 4731SOL    HW225653   1.054   3.559   4.831  0.8393 -0.6915  1.0951
 4732SOL     OW25654   3.416   0.140  14.289  0.0237  0.0900 -0.1461
 4732SOL    HW125655   3.448   0.207  14.349 -1.5928 -0.3467  1.2034
 4732SOL    HW225656   3.324   0.163  14.299  0.1222  0.4485 -0.0584
 4733SOL     OW25657   1.453   0.131  11.171  0.2231  0.2666  0.7544
 4733SOL    HW125658   1.385   0.132  11.104 -0.3850  1.6943  1.3900
 4733SOL    HW225659   1.407   0.075  11.233  0.3974  0.4537  1.0502
 4734SOL     OW25660   3.645   3.159   0.691 -0.0994 -0.0943  0.5054
 4734SOL    HW125661   3.641   3.213   0.770 -2.2410  0.3990  0.0695
 4734SOL    HW225662   3.677   3.076   0.726 -1.2049  0.0772  1.9268
 4735SOL     OW25663   2.711   4.501   8.057  0.2694  0.7304  0.2394
 4735SOL    HW125664   2.674   4.465   8.137  0.8060  2.6941  1.3534
 4735SOL    HW225665   2.782   4.438   8.043  1.0515  1.5490  0.5199
 4736SOL     OW25666   3.832   4.043   1.801 -0.1783 -0.4573 -0.1685
 4736SOL    HW125667   3.877   4.009   1.878  2.7174 -0.3602 -1.8194
 4736SOL    HW225668   3.787   4.119   1.839 -0.0154 -1.3345  1.7403
 4737SOL     OW25669   3.467   0.338  14.478 -0.0009 -0.0241 -0.0817
 4737SOL    HW125670   3.511   0.267  14.524  0.8824  0.4891 -0.1401
 4737SOL    HW225671   3.396   0.354  14.541 -0.0880 -1.6893  0.2232
 4738SOL     OW25672   1.146   4.295   6.453 -0.4943 -0.2303  0.5004
 4738SOL    HW125673   1.092   4.305   6.531  0.0071  0.6888  0.7242
 4738SOL    HW225674   1.115   4.358   6.389  2.0259  0.1331 -0.3762
 4739SOL     OW25675   1.681   0.476  15.216 -0.1828 -0.1207  0.0731
 4739SOL    HW125676   1.610   0.413  15.223 -1.7588  1.3887 -2.4348
 4739SOL    HW225677   1.643   0.551  15.262  1.1302  0.8431 -0.3971
 4740SOL     OW25678   0.371   0.470  12.233 -0.4247  0.1782  0.1862
 4740SOL    HW125679   0.374   0.565  12.248 -1.3564  0.2733 -0.1981
 4740SOL    HW225680   0.382   0.466  12.138  1.8671 -1.9950  0.5621
 4741SOL     OW25681   2.301   1.031   6.466 -0.3014  0.4396  0.3209
 4741SOL    HW125682   2.386   1.022   6.422 -0.1097  0.1184  0.7561
 4741SOL    HW225683   2.241   1.009   6.396 -0.8947  0.2908  0.8777
 4742SOL     OW25684   3.814   2.487   9.343 -0.5377  0.0622 -0.0698
 4742SOL    HW125685   3.784   2.429   9.272  0.3585  1.6495 -1.7435
 4742SOL    HW225686   3.757   2.453   9.412 -0.7144  2.2875  0.8731
 4743SOL     OW25687   0.095   3.667  15.700 -0.3602  0.4721  0.1957
 4743SOL    HW125688   0.022   3.642  15.644 -0.2314 -1.2288  0.7969
 4743SOL    HW225689   0.134   3.740  15.652 -0.6025  2.1372  2.5223
 4744SOL     OW25690   3.150   0.051   2.660  0.3040  0.0081 -0.3373
 4744SOL    HW125691   3.105   4.694   2.633  1.4158  0.1435 -2.5689
 4744SOL    HW225692   3.121   0.061   2.751  1.0035  0.7386 -0.1903
 4745SOL     OW25693   3.425   2.879   4.545  0.1803  0.2381  0.1855
 4745SOL    HW125694   3.445   2.837   4.628  0.4138 -0.8399 -0.4266
 4745SOL    HW225695   3.474   2.962   4.546 -0.4218  0.6047 -1.1224
 4746SOL     OW25696   2.634   2.489  16.785 -0.0553  0.2783  0.0982
 4746SOL    HW125697   2.544   2.506  16.758 -0.0074 -1.4574 -1.2074
 4746SOL    HW225698   2.656   2.420  16.722  0.6936  1.7736 -1.2831
 4747SOL     OW25699   0.476   1.039   8.986 -0.1798  0.1936 -0.3150
 4747SOL    HW125700   0.401   1.007   8.936 -0.8429  0.0747  0.7486
 4747SOL    HW225701   0.486   1.129   8.955 -1.8043  1.4232  2.7414
 4748SOL     OW25702   3.642   1.329   8.216 -0.6776  0.1395 -0.2080
 4748SOL    HW125703   3.692   1.248   8.225 -0.0531  0.5617  0.1140
 4748SOL    HW225704   3.570   1.299   8.161  1.6244  1.0548 -3.7542
 4749SOL     OW25705   0.757   3.795   8.984  0.1671 -0.4139  0.1016
 4749SOL    HW125706   0.807   3.732   8.932 -0.1463 -1.5044  1.1366
 4749SOL    HW225707   0.682   3.800   8.925 -0.1074 -0.9557  0.4006
 4750SOL     OW25708   3.159   3.582   4.837  0.2652 -0.1477  0.3518
 4750SOL    HW125709   3.111   3.504   4.811  0.9994  0.3823 -2.5216
 4750SOL    HW225710   3.098   3.615   4.904 -1.3060 -0.6185 -0.8448
 4751SOL     OW25711   1.801   0.253  16.265  0.0101  0.1664 -0.8148
 4751SOL    HW125712   1.814   0.267  16.358 -1.8116  0.5940 -0.6115
 4751SOL    HW225713   1.718   0.301  16.258  0.1289  0.7025  1.6047
 4752SOL     OW25714   3.761   2.447   2.316  0.1331  0.1625  0.1349
 4752SOL    HW125715   3.789   2.357   2.332  0.3545 -0.2895 -2.8142
 4752SOL    HW225716   3.704   2.424   2.243 -0.5310 -0.9519  1.0133
 4753SOL     OW25717   2.454   2.880   5.648  0.3162 -0.1590 -0.6416
 4753SOL    HW125718   2.469   2.973   5.664  0.6182  0.0609 -2.1997
 4753SOL    HW225719   2.505   2.854   5.571  1.8396 -1.4286  0.7904
 4754SOL     OW25720   3.895   0.125   1.400  0.2593  0.2497  0.4383
 4754SOL    HW125721   3.907   0.063   1.472 -2.0789  0.7733  1.2907
 4754SOL    HW225722   3.967   0.185   1.419  1.8269 -1.0557 -1.3679
 4755SOL     OW25723   0.006   4.099   2.761 -0.0775  0.6753 -0.1906
 4755SOL    HW125724   0.035   4.074   2.849  1.1433  0.7911 -0.5729
 4755SOL    HW225725   4.649   4.146   2.785 -0.6498 -0.0666 -0.6317
 4756SOL     OW25726   3.613   0.322   7.294  0.9945  0.0667 -0.6117
 4756SOL    HW125727   3.678   0.391   7.304  0.4895  0.5863 -0.9221
 4756SOL    HW225728   3.552   0.352   7.361  2.2935 -1.0231  1.0606
 4757SOL     OW25729   0.816   1.526  17.563 -0.6905 -0.2558  0.5389
 4757SOL    HW125730   0.743   1.533  17.502  0.0089 -1.0429 -0.3908
 4757SOL    HW225731   0.858   1.612  17.559 -0.3914 -0.4035  0.4528
 4758SOL     OW25732   3.195   2.448   4.038 -0.1333  0.0488  0.0970
 4758SOL    HW125733   3.276   2.485   4.003 -0.5147  2.0159  1.2902
 4758SOL    HW225734   3.201   2.442   4.133  0.6004  0.7954  0.0936
 4759SOL     OW25735   4.223   3.601   2.770 -0.6278  0.1646  0.0347
 4759SOL    HW125736   4.204   3.508   2.782 -1.3440  0.1991 -0.8825
 4759SOL    HW225737   4.253   3.604   2.679 -0.8854  0.8836 -0.0258
 4760SOL     OW25738   1.376   0.700  13.439 -0.5027 -0.2449  0.0920
 4760SOL    HW125739   1.391   0.763  13.368 -0.0902  0.9493  1.2479
 4760SOL    HW225740   1.287   0.732  13.456 -0.1678 -0.4740  2.1783
 4761SOL     OW25741   0.846   1.132   1.849  0.1722 -0.0601  0.1832
 4761SOL    HW125742   0.916   1.103   1.908 -0.6847 -1.7941  0.3500
 4761SOL    HW225743   0.884   1.209   1.807  1.0437  0.0369  1.1376
 4762SOL     OW25744   1.552   2.088   8.963  0.1997 -0.4496 -0.6792
 4762SOL    HW125745   1.560   1.994   8.978 -1.0641 -0.4543 -0.0621
 4762SOL    HW225746   1.645   2.112   8.955  0.1413  0.0944  0.3644
 4763SOL     OW25747   2.026   2.966  14.056  0.7938 -0.2280  0.0675
 4763SOL    HW125748   2.080   2.888  14.068 -1.0214 -1.5498 -0.3388
 4763SOL    HW225749   1.950   2.925  14.015  2.0238 -1.0210 -1.3858
 4764SOL     OW25750   1.874   2.139  12.144 -0.0619  0.4395 -0.8134
 4764SOL    HW125751   1.861   2.209  12.080  2.0041  1.2665 -0.3034
 4764SOL    HW225752   1.846   2.061  12.095 -0.1784  0.1362 -0.2686
 4765SOL     OW25753   2.349   4.068   9.293  0.0513  0.2232 -0.2261
 4765SOL    HW125754   2.439   4.070   9.325 -0.5687  2.5180  1.3895
 4765SOL    HW225755   2.308   4.104   9.372 -1.8421 -1.9354 -0.2186
 4766SOL     OW25756   0.685   1.303   4.300  0.8489 -0.8011  0.3640
 4766SOL    HW125757   0.674   1.335   4.390 -0.1647  1.0187 -0.4048
 4766SOL    HW225758   0.774   1.332   4.281  1.0497 -1.2645  0.5948
 4767SOL     OW25759   4.700   1.445  12.492 -0.0561  0.3785  0.2648
 4767SOL    HW125760   0.025   1.462  12.573 -1.9048  0.7969  1.2808
 4767SOL    HW225761   4.691   1.351  12.503  1.8552  0.2749  0.8372
 4768SOL     OW25762   0.122   0.543   5.135  0.2610  0.1158 -0.3107
 4768SOL    HW125763   0.153   0.633   5.128 -2.4910  1.1757  1.1134
 4768SOL    HW225764   0.036   0.554   5.175  1.2494 -0.0069  1.8019
 4769SOL     OW25765   0.873   4.453   1.205  0.4058 -0.6357 -0.2046
 4769SOL    HW125766   0.893   4.408   1.123  0.7208  1.4651 -1.2701
 4769SOL    HW225767   0.952   4.504   1.220  1.4527 -1.2364 -3.6275
 4770SOL     OW25768   3.354   2.421   1.611 -0.8324 -0.1253 -0.1979
 4770SOL    HW125769   3.442   2.387   1.592 -0.3717  0.1491  1.4808
 4770SOL    HW225770   3.292   2.359   1.571  0.7254 -3.4152  2.4493
 4771SOL     OW25771   2.956   4.205  13.259 -0.3897 -0.1341  0.1654
 4771SOL    HW125772   3.034   4.256  13.237 -0.1452 -0.5650  0.0293
 4771SOL    HW225773   2.970   4.175  13.348 -0.0323 -1.3458 -0.3073
 4772SOL     OW25774   2.507   3.780   2.127  0.6127 -0.5027 -0.5321
 4772SOL    HW125775   2.419   3.760   2.096 -0.8012 -0.4914  3.4548
 4772SOL    HW225776   2.510   3.719   2.200 -2.0201  0.2782  0.2153
 4773SOL     OW25777   0.386   3.600   5.541  0.1764  0.5699 -0.3919
 4773SOL    HW125778   0.367   3.690   5.515  1.4183  0.5791 -1.2715
 4773SOL    HW225779   0.298   3.574   5.567  0.9961 -2.5116 -0.6522
 4774SOL     OW25780   1.671   3.868   2.805  0.2797 -0.5145  0.0016
 4774SOL    HW125781   1.716   3.820   2.735  1.0300  0.1235  0.0432
 4774SOL    HW225782   1.641   3.946   2.758 -0.9902 -1.7209 -1.1988
 4775SOL     OW25783   1.475   1.185   4.057  0.1916  0.2674 -0.2831
 4775SOL    HW125784   1.544   1.128   4.023 -1.3969 -0.4594 -2.3010
 4775SOL    HW225785   1.392   1.144   4.031  0.6999 -0.8179 -0.2007
 4776SOL     OW25786   2.033   0.602   4.093  0.2787  0.5060  0.2068
 4776SOL    HW125787   2.043   0.672   4.158 -0.4781 -0.1082  0.9799
 4776SOL    HW225788   2.104   0.540   4.111 -0.6944  0.2110  3.0101
 4777SOL     OW25789   2.210   4.192   5.366  0.1602  0.4789  0.2217
 4777SOL    HW125790   2.178   4.137   5.294  1.5402  0.0463 -0.0689
 4777SOL    HW225791   2.222   4.281   5.333 -0.2870 -0.3600 -2.2141
 4778SOL     OW25792   0.245   0.774   3.617  0.6569 -0.7281  0.0168
 4778SOL    HW125793   0.307   0.845   3.601 -0.0118 -0.4324 -1.3379
 4778SOL    HW225794   0.223   0.737   3.531  1.1413  2.3618 -1.4587
 4779SOL     OW25795   2.485   1.806   6.334  0.0276  0.6184 -0.4749
 4779SOL    HW125796   2.494   1.711   6.338 -1.6041  0.4831 -0.2158
 4779SOL    HW225797   2.476   1.823   6.428 -1.9223 -0.3730 -0.4902
 4780SOL     OW25798   3.584   0.977   4.413 -0.2004 -0.4019  0.4891
 4780SOL    HW125799   3.568   1.030   4.335 -0.3883 -1.2428 -0.0430
 4780SOL    HW225800   3.545   0.893   4.391 -0.5844  0.0198 -0.4142
 4781SOL     OW25801   3.212   0.618   5.909  0.2053  0.1928  0.0516
 4781SOL    HW125802   3.224   0.705   5.872 -0.2123  1.0260  1.8763
 4781SOL    HW225803   3.118   0.603   5.899 -0.3663  2.7853  1.6250
 4782SOL     OW25804   4.631   1.415   2.438  0.1195 -0.4277  0.6164
 4782SOL    HW125805   4.675   1.339   2.474  0.7170 -1.0988 -1.5123
 4782SOL    HW225806   4.688   1.428   2.362 -0.4507  1.9116  0.5831
 4783SOL     OW25807   0.272   1.645   4.337  0.3091  0.8876  0.2315
 4783SOL    HW125808   0.191   1.637   4.387 -1.4224  1.0337 -2.5781
 4783SOL    HW225809   0.239   1.696   4.263  2.1181  2.7267  0.6832
 4784SOL     OW25810   3.345   2.078   7.160  0.1867 -0.3552  0.2741
 4784SOL    HW125811   3.438   2.084   7.180 -0.0807  0.7389  1.2249
 4784SOL    HW225812   3.331   2.123   7.076 -1.2229  2.2302  1.8875
 4785SOL     OW25813   3.357   1.464   3.036  0.6216 -0.1068  0.6635
 4785SOL    HW125814   3.374   1.370   3.038  1.3443  0.0280  0.7997
 4785SOL    HW225815   3.293   1.464   2.965  0.8882  1.6669  0.4158
 4786SOL     OW25816   0.593   2.958   6.408 -0.8015 -0.1315  0.4526
 4786SOL    HW125817   0.686   2.948   6.426 -0.2364 -0.8285 -2.8143
 4786SOL    HW225818   0.593   3.041   6.359 -3.0104  1.4258  3.0980
 4787SOL     OW25819   2.669   1.009   7.684 -0.2698  0.0320 -0.0557
 4787SOL    HW125820   2.578   0.991   7.661 -0.5568 -0.2023  1.2891
 4787SOL    HW225821   2.711   0.941   7.632  1.6340  0.3573  1.0439
 4788SOL     OW25822   4.171   3.745   4.603  0.2322  0.6427  0.5753
 4788SOL    HW125823   4.197   3.798   4.528  1.3733 -0.3130  0.2993
 4788SOL    HW225824   4.113   3.810   4.642 -0.6822  0.3417 -0.2803
 4789SOL     OW25825   3.190   1.234  14.590 -0.4519 -0.1414 -0.0497
 4789SOL    HW125826   3.095   1.223  14.582 -0.3664 -0.4649 -0.5987
 4789SOL    HW225827   3.208   1.266  14.679  0.6275  0.4281 -0.4795
 4790SOL     OW25828   1.958   2.432   5.830  0.7523  0.0439  0.0333
 4790SOL    HW125829   1.970   2.439   5.924  0.3164  0.4059  0.0574
 4790SOL    HW225830   1.947   2.525   5.809 -0.1717 -0.3513 -1.2909
 4791SOL     OW25831   3.811   0.056   7.667  0.3949 -0.4252  0.0075
 4791SOL    HW125832   3.902   0.040   7.692  0.0841 -0.2325  1.2419
 4791SOL    HW225833   3.805   0.141   7.623  0.4595  0.8602  2.5059
 4792SOL     OW25834   4.481   2.220   3.594  0.1420  0.4085  0.1871
 4792SOL    HW125835   4.573   2.205   3.577  0.4900  0.8722  1.6497
 4792SOL    HW225836   4.476   2.315   3.585 -0.5732  0.3969  0.4540
 4793SOL     OW25837   4.585   3.850  13.108 -0.4766  0.6978 -0.1784
 4793SOL    HW125838   4.670   3.893  13.103 -0.7009  1.4161  2.4955
 4793SOL    HW225839   4.540   3.864  13.025  2.0590  0.5800 -1.5984
 4794SOL     OW25840   3.643   3.978   4.117  0.2512 -0.0596  0.1677
 4794SOL    HW125841   3.569   3.985   4.176 -0.8050  0.3023 -1.1987
 4794SOL    HW225842   3.707   3.934   4.173  0.9271  0.8233  0.1010
 4795SOL     OW25843   2.279   1.548   6.817  0.1069  0.1981 -0.0383
 4795SOL    HW125844   2.196   1.519   6.779  0.1667  2.7809 -2.1032
 4795SOL    HW225845   2.347   1.514   6.759  1.6755  1.3343  1.1340
 4796SOL     OW25846   1.330   0.624   9.762  0.1014  0.0274  0.3911
 4796SOL    HW125847   1.290   0.690   9.705  1.8023 -0.6751 -1.6014
 4796SOL    HW225848   1.258   0.618   9.825  0.1806 -0.7807  0.4070
 4797SOL     OW25849   0.430   0.123   6.026  0.2912  0.0631 -0.3668
 4797SOL    HW125850   0.524   0.127   6.045  0.6117  1.1275 -2.0858
 4797SOL    HW225851   0.418   0.113   5.931  0.4887  2.6483 -0.6841
 4798SOL     OW25852   3.315   3.876   8.309 -0.3695 -0.8372 -0.2156
 4798SOL    HW125853   3.387   3.908   8.362 -0.5212  0.1393 -0.6032
 4798SOL    HW225854   3.372   3.858   8.235  1.0568 -0.7854  0.8719
 4799SOL     OW25855   0.014   4.434   3.898 -0.2916 -0.1726 -0.2041
 4799SOL    HW125856   0.099   4.478   3.902 -0.5691  0.4410 -0.8312
 4799SOL    HW225857   0.035   4.362   3.838  2.9582  1.9966 -1.6696
 4800SOL     OW25858   4.253   4.447   5.800 -0.5530 -0.6808 -0.5604
 4800SOL    HW125859   4.262   4.371   5.743 -0.1585 -0.9620 -0.1232
 4800SOL    HW225860   4.160   4.468   5.786 -0.7837 -1.2128  0.1812
 4801SOL     OW25861   2.109   2.075   6.906  0.2108  0.1712 -0.1301
 4801SOL    HW125862   2.169   2.143   6.876  0.2494  0.0290 -0.3709
 4801SOL    HW225863   2.045   2.093   6.837  0.4552  1.5746  0.0004
 4802SOL     OW25864   2.890   4.254  11.346 -0.3543  0.0871 -0.0348
 4802SOL    HW125865   2.943   4.221  11.273  0.0601 -1.0469  0.7733
 4802SOL    HW225866   2.944   4.331  11.365 -3.1808  1.5075  2.0064
 4803SOL     OW25867   4.621   2.237   7.850  0.2474 -0.2586  0.4012
 4803SOL    HW125868   4.577   2.221   7.934  1.7915  2.5608  1.7620
 4803SOL    HW225869   4.677   2.310   7.878 -0.0068  0.5839 -1.2875
 4804SOL     OW25870   0.076   0.666   6.041  0.2264 -0.3764  0.6236
 4804SOL    HW125871   0.024   0.600   6.087 -0.3383 -0.3030  0.0918
 4804SOL    HW225872   0.104   0.726   6.110 -0.5154  1.6203 -0.8355
 4805SOL     OW25873   1.696   4.050   5.777  0.0746 -0.5748  0.4362
 4805SOL    HW125874   1.700   4.097   5.860 -1.2834  1.4132 -0.6245
 4805SOL    HW225875   1.653   4.117   5.724  0.4981  0.3288  1.2454
 4806SOL     OW25876   2.013   3.834   0.393 -0.9135  0.5991 -0.4022
 4806SOL    HW125877   2.088   3.893   0.403  2.1307 -3.6339  1.6116
 4806SOL    HW225878   2.021   3.787   0.476  3.5070  1.5638 -0.2889
 4807SOL     OW25879   4.163   2.123   8.808  0.5291  0.0844 -0.2507
 4807SOL    HW125880   4.237   2.131   8.748 -0.6211 -0.3740 -1.7364
 4807SOL    HW225881   4.172   2.031   8.834  0.1802  0.7261  2.1402
 4808SOL     OW25882   3.459   4.542   3.616  0.0331 -0.2180  0.1118
 4808SOL    HW125883   3.420   4.541   3.528 -2.3652  0.3245  1.1798
 4808SOL    HW225884   3.539   4.495   3.590  0.2493  0.2809 -0.1165
 4809SOL     OW25885   2.965   1.547   3.345  0.1680 -0.3578  0.2697
 4809SOL    HW125886   2.897   1.597   3.391  1.0073 -1.0138  2.2350
 4809SOL    HW225887   3.045   1.585   3.383 -0.8141  3.0198 -1.0516
 4810SOL     OW25888   0.131   2.015  14.667  0.2412 -0.3650 -0.2077
 4810SOL    HW125889   0.208   2.046  14.619 -0.4881 -1.4077 -2.0409
 4810SOL    HW225890   0.153   2.059  14.750 -1.5411 -0.6589  0.4235
 4811SOL     OW25891   3.026   2.051   2.935  0.2813 -0.5294 -0.5760
 4811SOL    HW125892   3.000   2.139   2.963 -1.3916 -0.9334 -0.8600
 4811SOL    HW225893   3.071   2.013   3.011  0.8726  0.8856 -0.2171
 4812SOL     OW25894   3.206   3.776   3.589 -0.7246 -0.0226  0.0891
 4812SOL    HW125895   3.205   3.744   3.499 -1.8390  2.5416 -0.7961
 4812SOL    HW225896   3.143   3.721   3.636 -0.5896  0.8556  1.2996
 4813SOL     OW25897   2.210   4.501   9.339  0.0960  0.0133 -0.5723
 4813SOL    HW125898   2.211   4.589   9.377  0.2551 -0.6114  0.8466
 4813SOL    HW225899   2.119   4.472   9.352 -0.1551  1.3615  0.7025
 4814SOL     OW25900   3.920   2.785   7.775  0.3341  0.5326 -0.4362
 4814SOL    HW125901   3.845   2.742   7.815  1.9349  0.8081  2.8351
 4814SOL    HW225902   3.987   2.761   7.839 -1.7556 -0.4612  1.3797
 4815SOL     OW25903   1.234   3.550   4.316 -0.3749 -0.3181  0.8893
 4815SOL    HW125904   1.197   3.639   4.319 -2.1053 -1.0526  1.3714
 4815SOL    HW225905   1.306   3.566   4.377 -1.0748 -1.5060  2.0099
 4816SOL     OW25906   2.085   2.766  17.107 -0.2887 -0.2185  0.0292
 4816SOL    HW125907   2.145   2.840  17.113 -0.3446 -0.0233 -1.7735
 4816SOL    HW225908   2.079   2.752  17.012 -0.0722  0.6273 -0.1118
 4817SOL     OW25909   2.735   3.545  14.414  0.6755 -0.2932  0.3680
 4817SOL    HW125910   2.731   3.610  14.343 -1.0105  0.6850  1.3559
 4817SOL    HW225911   2.686   3.587  14.485 -0.0910  0.3003 -0.5076
 4818SOL     OW25912   4.128   0.234   2.387  0.0991  0.0653  0.3644
 4818SOL    HW125913   4.087   0.318   2.368 -1.7746 -0.5698  1.5911
 4818SOL    HW225914   4.185   0.258   2.461 -1.9572 -0.6595  2.1851
 4819SOL     OW25915   3.965   2.298   4.195  0.1334 -0.2088  0.2091
 4819SOL    HW125916   3.981   2.208   4.225 -0.8160  0.7013  3.5068
 4819SOL    HW225917   3.931   2.338   4.275  1.1765  1.6133 -0.2689
 4820SOL     OW25918   3.407   4.038   1.528  0.4257 -0.0515 -0.6503
 4820SOL    HW125919   3.453   4.055   1.610  1.1846  0.7581 -1.2487
 4820SOL    HW225920   3.478   4.024   1.466  0.9077  0.4103 -0.2116
 4821SOL     OW25921   4.058   4.024   6.850  0.3997 -0.0279  0.1030
 4821SOL    HW125922   3.982   3.991   6.899  1.2383 -0.0807  1.3682
 4821SOL    HW225923   4.053   4.120   6.854  3.5309  0.1886 -1.3616
 4822SOL     OW25924   3.707   2.507   8.946  0.0909 -1.0704  0.1707
 4822SOL    HW125925   3.740   2.435   8.999  0.6425  0.5755  2.0973
 4822SOL    HW225926   3.650   2.555   9.007 -0.0078  0.2851 -0.9815
 4823SOL     OW25927   0.415   3.023  17.129  0.2799 -0.0574 -0.7309
 4823SOL    HW125928   0.427   3.118  17.137  1.7347 -0.3709  0.9480
 4823SOL    HW225929   0.504   2.994  17.109 -0.1884 -0.4680 -2.1300
 4824SOL     OW25930   4.315   2.874   3.197  0.3747  0.1507  0.0995
 4824SOL    HW125931   4.259   2.947   3.173  0.4400  0.3395  0.5234
 4824SOL    HW225932   4.267   2.800   3.161  1.6761 -0.3516 -0.6191
 4825SOL     OW25933   2.441   3.672  10.172  0.2789 -0.4225  0.2293
 4825SOL    HW125934   2.491   3.621  10.236 -0.9827 -2.9324 -0.7816
 4825SOL    HW225935   2.362   3.668  10.225 -0.0491  0.8292 -0.1714
 4826SOL     OW25936   0.099   3.682  16.345 -0.3389 -0.0774 -0.3101
 4826SOL    HW125937   0.146   3.648  16.422 -2.8318 -0.0573  1.2065
 4826SOL    HW225938   0.172   3.726  16.301  1.3850 -0.8966  1.6939
 4827SOL     OW25939   2.988   0.995   4.526  0.0266  0.1974 -0.1801
 4827SOL    HW125940   2.996   0.943   4.606 -0.7008 -0.8851 -0.8101
 4827SOL    HW225941   3.077   1.030   4.520 -0.4232  1.1372 -1.3763
 4828SOL     OW25942   0.791   2.016   2.390 -0.0496 -0.1436  0.0724
 4828SOL    HW125943   0.799   2.098   2.342 -2.2429 -0.4116 -0.7609
 4828SOL    HW225944   0.882   1.990   2.376  0.6879  1.4021  1.9323
 4829SOL     OW25945   2.285   1.730   4.326 -0.1064 -0.1806  0.1113
 4829SOL    HW125946   2.206   1.729   4.272  0.6215  2.0557 -1.0014
 4829SOL    HW225947   2.259   1.646   4.364 -2.5215 -0.6378 -2.5747
 4830SOL     OW25948   2.124   0.953   6.237 -0.1686  0.0307  0.5890
 4830SOL    HW125949   2.078   1.037   6.233 -0.3572 -0.1127 -0.2322
 4830SOL    HW225950   2.063   0.911   6.297 -2.8621  1.6063 -1.0509
 4831SOL     OW25951   4.038   1.730   4.143  0.0681  0.2400 -0.3724
 4831SOL    HW125952   4.095   1.794   4.100  1.5548 -0.1886  0.9541
 4831SOL    HW225953   4.071   1.736   4.233  0.9659 -1.8444 -0.5513
 4832SOL     OW25954   1.436   3.798  14.910 -0.4638  0.1425  0.8532
 4832SOL    HW125955   1.527   3.772  14.900 -0.8531 -0.4614 -1.2597
 4832SOL    HW225956   1.431   3.850  14.830  0.1403  1.4787  1.7026
 4833SOL     OW25957   3.165   3.612   6.579 -0.9529  0.2186  0.6752
 4833SOL    HW125958   3.135   3.588   6.667  1.0204  2.5479  1.9976
 4833SOL    HW225959   3.192   3.703   6.591  1.2503 -0.1508 -1.5560
 4834SOL     OW25960   3.868   1.201   2.287 -0.0606  0.2793 -0.0806
 4834SOL    HW125961   3.874   1.209   2.382 -0.4634  0.6220 -0.0812
 4834SOL    HW225962   3.786   1.155   2.271  0.3689 -0.0029 -1.4214
 4835SOL     OW25963   1.829   0.608   7.518 -0.1686  0.2157  0.4285
 4835SOL    HW125964   1.757   0.643   7.465  1.2941  1.4622 -0.7307
 4835SOL    HW225965   1.794   0.569   7.598 -0.0736  0.3553  0.5393
 4836SOL     OW25966   1.722   4.652   8.042 -0.4530 -0.0911  0.0916
 4836SOL    HW125967   1.788   4.630   7.976  1.1134 -1.7229  2.1567
 4836SOL    HW225968   1.639   4.642   7.996 -0.1663  0.9973 -0.6595
 4837SOL     OW25969   2.472   3.313   2.863 -0.2361 -0.1977  0.5023
 4837SOL    HW125970   2.506   3.224   2.870 -0.2002 -0.0854  1.6979
 4837SOL    HW225971   2.552   3.358   2.834 -0.4843 -0.4786 -0.6282
 4838SOL     OW25972   4.243   0.593   4.548 -0.6664  0.0986 -0.6581
 4838SOL    HW125973   4.165   0.630   4.509 -1.7140 -0.4572  0.9052
 4838SOL    HW225974   4.304   0.666   4.537 -0.5090 -0.1966 -1.7505
 4839SOL     OW25975   0.862   2.369  17.168 -0.1009  0.7499 -0.0126
 4839SOL    HW125976   0.899   2.281  17.157  0.2835  1.0633 -1.1825
 4839SOL    HW225977   0.770   2.342  17.168 -0.5166  2.1658  1.5810
 4840SOL     OW25978   1.434   2.503   3.189 -0.1743  0.7071  0.7498
 4840SOL    HW125979   1.375   2.440   3.231 -2.5583  0.7846 -2.5505
 4840SOL    HW225980   1.383   2.532   3.114  0.3739  2.5517  1.0808
 4841SOL     OW25981   1.641   3.701   6.265 -0.3205 -0.6758  0.0775
 4841SOL    HW125982   1.604   3.737   6.346  0.9978 -0.4633  0.5766
 4841SOL    HW225983   1.648   3.611   6.295  2.1293  0.1416  1.8713
 4842SOL     OW25984   0.125   2.145  11.716 -0.1857 -0.1618  0.3217
 4842SOL    HW125985   0.159   2.056  11.713  0.0039 -0.0540 -0.9856
 4842SOL    HW225986   0.180   2.193  11.778  0.4089 -2.1439  1.3355
 4843SOL     OW25987   2.867   2.193   8.389  0.1199  0.6152  0.3725
 4843SOL    HW125988   2.896   2.274   8.431 -0.6940  1.2411 -0.2655
 4843SOL    HW225989   2.911   2.132   8.448  0.3112  1.8462  1.5021
 4844SOL     OW25990   1.257   4.232   1.564 -0.2162  0.3598  0.1301
 4844SOL    HW125991   1.214   4.150   1.539  1.9353 -0.9297  0.6241
 4844SOL    HW225992   1.343   4.206   1.598 -0.1531 -0.1511 -0.4077
 4845SOL     OW25993   2.366   0.076  15.611  0.1724  0.0294 -0.0290
 4845SOL    HW125994   2.275   0.063  15.583  0.1901 -1.1475  0.4632
 4845SOL    HW225995   2.382   0.168  15.590 -0.5135  0.0050 -0.6779
 4846SOL     OW25996   2.366   1.041   2.868  0.5274 -0.1948  0.0024
 4846SOL    HW125997   2.437   0.985   2.899 -1.2470 -0.9046  2.7460
 4846SOL    HW225998   2.411   1.126   2.872  0.8435 -0.4314  1.4738
 4847SOL     OW25999   2.235   0.879   6.765 -0.1569 -0.2277 -0.4026
 4847SOL    HW126000   2.261   0.876   6.673  0.5255 -0.2046 -0.2104
 4847SOL    HW226001   2.141   0.864   6.760 -0.5752  1.4125  2.6399
 4848SOL     OW26002   1.000   4.590   4.516 -0.7460 -0.3227 -0.1458
 4848SOL    HW126003   0.921   4.575   4.463 -0.3101  1.8160 -1.3969
 4848SOL    HW226004   0.964   4.607   4.603 -0.7739 -0.1483 -0.1922
 4849SOL     OW26005   3.396   3.367   4.408 -0.0373  0.6834 -0.6547
 4849SOL    HW126006   3.407   3.335   4.318  0.5645 -1.0659  0.0404
 4849SOL    HW226007   3.345   3.446   4.390 -0.4115  0.8163  1.0350
 4850SOL     OW26008   0.336   0.630  15.331 -0.1698  0.2799 -0.6874
 4850SOL    HW126009   0.315   0.585  15.413 -0.5837  0.6404 -0.5906
 4850SOL    HW226010   0.425   0.600  15.317  0.0323  0.4201  0.2662
 4851SOL     OW26011   0.629   3.268  16.911 -0.4116 -0.0732  0.1952
 4851SOL    HW126012   0.581   3.247  16.832  0.0892 -0.6230  0.0336
 4851SOL    HW226013   0.640   3.361  16.894 -2.8409 -0.0172 -1.0527
 4852SOL     OW26014   0.261   4.597   1.074  0.1042  0.5450  0.1696
 4852SOL    HW126015   0.343   4.592   1.025 -0.9378  1.2634 -1.6162
 4852SOL    HW226016   0.225   4.681   1.046  0.1665  0.1559 -1.0574
 4853SOL     OW26017   4.310   3.896   3.758  0.2604  0.1497 -0.2195
 4853SOL    HW126018   4.277   3.808   3.740  0.1635 -0.0600  1.0169
 4853SOL    HW226019   4.382   3.870   3.815  1.7593 -0.0371 -2.1801
 4854SOL     OW26020   0.435   1.896   1.218  0.4519  0.4320  0.1338
 4854SOL    HW126021   0.367   1.961   1.198  0.5456  1.0829  1.9544
 4854SOL    HW226022   0.508   1.959   1.223 -0.8134  1.7573  2.1360
 4855SOL     OW26023   2.311   3.446   5.413  0.6618  0.4399 -0.0882
 4855SOL    HW126024   2.337   3.514   5.475 -0.9907 -0.6745  1.8295
 4855SOL    HW226025   2.220   3.472   5.402  0.6754  0.5198 -0.0185
 4856SOL     OW26026   2.561   0.731   6.086 -0.3242  0.1926 -0.0920
 4856SOL    HW126027   2.638   0.779   6.053  1.0832 -1.7858  0.3416
 4856SOL    HW226028   2.504   0.808   6.095  0.9510  0.9661  1.5669
 4857SOL     OW26029   0.510   0.045   6.545  0.2010  0.1487 -0.8498
 4857SOL    HW126030   0.554   0.055   6.461 -0.3316  1.8128 -0.9182
 4857SOL    HW226031   0.418   0.071   6.544  0.4346  0.9202 -1.9241
 4858SOL     OW26032   2.436   4.031   6.504 -0.1943 -0.2385 -0.2925
 4858SOL    HW126033   2.513   4.078   6.474 -1.0022  0.8053 -0.6945
 4858SOL    HW226034   2.415   4.095   6.571 -2.5031 -1.1170 -0.1861
 4859SOL     OW26035   1.527   4.170   1.635  0.0620  0.0025 -0.1124
 4859SOL    HW126036   1.585   4.094   1.627  0.2081 -0.2428  3.0893
 4859SOL    HW226037   1.580   4.219   1.698 -0.5500 -0.5102  0.8031
 4860SOL     OW26038   4.267   2.753   2.466  0.5507 -0.0301  0.1862
 4860SOL    HW126039   4.177   2.722   2.453  1.6629 -2.2204 -2.3046
 4860SOL    HW226040   4.273   2.818   2.396 -0.1618  0.5201  0.6324
 4861SOL     OW26041   1.621   0.832   4.262  0.1468 -0.3954  0.1312
 4861SOL    HW126042   1.619   0.746   4.303 -2.9600 -0.3624  0.0363
 4861SOL    HW226043   1.585   0.810   4.176  0.9751  2.3752 -0.9170
 4862SOL     OW26044   4.411   1.924   5.819 -0.1100  0.2884 -0.4099
 4862SOL    HW126045   4.431   1.986   5.890 -1.9724 -1.9319  2.0608
 4862SOL    HW226046   4.359   1.858   5.865 -0.5180  1.6650  1.1156
 4863SOL     OW26047   4.340   1.475   5.049 -0.1484 -0.2327  0.2888
 4863SOL    HW126048   4.355   1.536   5.121  1.9462  0.7606 -0.9807
 4863SOL    HW226049   4.416   1.416   5.052 -1.4375 -1.8671  0.5312
 4864SOL     OW26050   4.335   0.116   5.323  0.0059  0.2928  0.0148
 4864SOL    HW126051   4.268   0.115   5.391 -0.3596  0.7563 -0.3416
 4864SOL    HW226052   4.306   0.051   5.259  0.4686 -0.1564  0.2553
 4865SOL     OW26053   4.521   1.316   8.320 -0.3293 -0.8202 -0.2142
 4865SOL    HW126054   4.465   1.351   8.389 -1.2762 -0.1231 -1.3163
 4865SOL    HW226055   4.603   1.356   8.348 -0.1299 -1.1731 -0.2960
 4866SOL     OW26056   4.575   2.776   7.726  0.2051 -0.7886  0.6649
 4866SOL    HW126057   4.574   2.839   7.799 -1.3599  0.5362 -0.5029
 4866SOL    HW226058   4.546   2.836   7.657  1.1220  0.4997  1.3946
 4867SOL     OW26059   2.252   3.038  15.748  0.0091  0.4592  0.5897
 4867SOL    HW126060   2.291   2.998  15.670  2.2114  3.0510  0.3726
 4867SOL    HW226061   2.275   3.127  15.722  3.3108 -0.2853  1.0512
 4868SOL     OW26062   3.668   2.149   6.967 -0.4715 -0.2046 -0.0026
 4868SOL    HW126063   3.682   2.242   6.948  0.9651 -0.5186 -0.4849
 4868SOL    HW226064   3.653   2.152   7.062  0.1660 -0.1966  0.0973
 4869SOL     OW26065   1.851   1.952   4.688 -0.3800  0.4098  0.4696
 4869SOL    HW126066   1.882   2.023   4.746  1.1750 -1.3102  1.7345
 4869SOL    HW226067   1.865   1.989   4.601  1.5606  1.3776  1.1970
 4870SOL     OW26068   0.736   0.158   3.646  0.1161 -0.0850 -0.0427
 4870SOL    HW126069   0.797   0.085   3.633 -0.6354 -1.0059  1.7236
 4870SOL    HW226070   0.782   0.216   3.707 -0.1441 -1.1813  1.1742
 4871SOL     OW26071   3.040   3.150   9.653  0.5478  0.2874 -0.3663
 4871SOL    HW126072   3.124   3.121   9.618  0.5884 -1.4865  1.1951
 4871SOL    HW226073   2.993   3.112   9.579 -0.3618  2.4110 -0.8501
 4872SOL     OW26074   3.095   3.768   7.416 -0.4257  0.2529 -0.5875
 4872SOL    HW126075   3.045   3.701   7.463 -1.9097  1.8634  0.1383
 4872SOL    HW226076   3.025   3.824   7.384 -1.4999  0.9820  2.9928
 4873SOL     OW26077   3.088   0.030   5.156  0.1606  0.4927  0.3092
 4873SOL    HW126078   3.184   0.026   5.160  0.1736  0.3472 -0.1384
 4873SOL    HW226079   3.070   4.661   5.177 -0.4938  0.9571  1.7355
 4874SOL     OW26080   1.842   2.832   1.653 -0.2277 -0.1929  0.0384
 4874SOL    HW126081   1.887   2.843   1.569  0.1134 -2.1462 -0.0401
 4874SOL    HW226082   1.780   2.760   1.641  0.6230 -0.4978 -2.4893
 4875SOL     OW26083   2.408   4.277   4.054  0.2966 -0.7428 -0.8382
 4875SOL    HW126084   2.410   4.288   4.149 -0.7655  0.7831 -0.9900
 4875SOL    HW226085   2.338   4.336   4.025  1.3444  0.3855 -1.0878
 4876SOL     OW26086   2.364   1.156   4.608  0.0376  0.0540  0.1870
 4876SOL    HW126087   2.322   1.128   4.527 -1.7653 -4.3746  2.6779
 4876SOL    HW226088   2.349   1.077   4.661  3.2550 -0.6316  0.0875
 4877SOL     OW26089   3.070   2.888   3.469  0.0868 -0.4783 -0.1361
 4877SOL    HW126090   3.143   2.857   3.522 -0.1020 -0.4348  0.1453
 4877SOL    HW226091   2.997   2.865   3.525  1.0464  1.7569  1.9853
 4878SOL     OW26092   1.131   2.093   7.650  0.4968  0.1817 -0.1325
 4878SOL    HW126093   1.171   2.178   7.669  1.2544 -0.2391  0.1436
 4878SOL    HW226094   1.048   2.123   7.612 -0.8177 -1.8210  1.1431
 4879SOL     OW26095   2.373   2.378   3.822  0.1397 -0.0858  0.1966
 4879SOL    HW126096   2.423   2.350   3.746  0.1673 -0.7102  0.4530
 4879SOL    HW226097   2.352   2.289   3.850  2.3782 -0.0804  1.8377
 4880SOL     OW26098   3.446   2.999   3.014 -1.0664 -0.0001 -0.1471
 4880SOL    HW126099   3.405   3.066   2.959 -0.6662 -1.0158 -1.7014
 4880SOL    HW226100   3.372   2.943   3.037  2.0540 -3.2280  1.9745
 4881SOL     OW26101   4.256   2.555   2.117  0.2108 -0.4538 -0.0660
 4881SOL    HW126102   4.281   2.631   2.064  1.9317 -0.7294  0.3502
 4881SOL    HW226103   4.169   2.553   2.076  1.3485  2.1617 -2.5960
 4882SOL     OW26104   0.104   0.673   8.922  0.0554 -0.4422 -0.7184
 4882SOL    HW126105   0.013   0.682   8.894  0.1642  1.7819 -0.3946
 4882SOL    HW226106   0.129   0.583   8.902 -2.6335 -1.4579  0.5221
 4883SOL     OW26107   1.270   3.715  12.590  0.7521  0.3391 -0.0694
 4883SOL    HW126108   1.321   3.794  12.570  0.0514  0.6522 -0.5825
 4883SOL    HW226109   1.336   3.678  12.650  0.8611  1.2945  0.4059
 4884SOL     OW26110   1.116   0.532   3.381 -0.4168  0.1315  0.5101
 4884SOL    HW126111   1.142   0.616   3.419 -0.8255  0.5778 -0.1994
 4884SOL    HW226112   1.185   0.477   3.419 -0.4221 -0.3803 -0.2271
 4885SOL     OW26113   0.607   1.263   3.390 -0.1690 -0.5977  0.2257
 4885SOL    HW126114   0.619   1.279   3.484 -0.1770 -0.4616  0.2024
 4885SOL    HW226115   0.630   1.347   3.351  1.5976 -1.0363  0.3520
 4886SOL     OW26116   0.271   1.646   0.109 -0.3677  0.3107 -0.0594
 4886SOL    HW126117   0.270   1.551   0.116 -1.6571  0.3676  0.6273
 4886SOL    HW226118   0.361   1.670   0.132 -0.6291  1.6367 -0.3715
 4887SOL     OW26119   0.743   2.343   8.733  0.3433 -0.3346 -0.0238
 4887SOL    HW126120   0.807   2.413   8.723  1.5926 -1.6108 -1.1115
 4887SOL    HW226121   0.674   2.372   8.793 -0.0479 -0.0758 -0.5950
 4888SOL     OW26122   3.093   3.641   7.114  0.6715 -0.0855  0.1412
 4888SOL    HW126123   3.108   3.665   7.023 -0.1975 -0.2188 -0.0393
 4888SOL    HW226124   3.159   3.686   7.167  0.5608 -0.3132  0.4727
 4889SOL     OW26125   3.759   2.583  12.475  0.2156 -0.3133 -0.3667
 4889SOL    HW126126   3.691   2.635  12.432  2.5120  2.3903 -0.7712
 4889SOL    HW226127   3.841   2.622  12.446  0.1283  0.4349  0.3791
 4890SOL     OW26128   2.176   3.905   8.520 -0.3603  0.0259  0.1056
 4890SOL    HW126129   2.270   3.919   8.532 -0.4003  1.2764 -1.0015
 4890SOL    HW226130   2.165   3.811   8.510  1.2236 -0.2086  0.5503
 4891SOL     OW26131   2.255   4.402   2.808  0.3163 -0.1945 -0.1231
 4891SOL    HW126132   2.295   4.347   2.741  0.9771  0.2035 -0.0508
 4891SOL    HW226133   2.171   4.435   2.775  1.3594  1.3590 -1.1969
 4892SOL     OW26134   2.276   4.671  11.619  0.7220  1.0359  0.5266
 4892SOL    HW126135   2.306   0.014  11.557 -1.1843 -0.9545 -2.5223
 4892SOL    HW226136   2.330   4.596  11.591  0.9198  1.6483 -0.7387
 4893SOL     OW26137   2.987   1.453   6.961 -0.5023 -0.0429  0.5109
 4893SOL    HW126138   2.976   1.534   6.912 -0.3880 -0.1671  0.2821
 4893SOL    HW226139   2.952   1.476   7.047 -0.8854  1.2911 -0.0069
 4894SOL     OW26140   0.107   0.130   1.983  0.9061 -0.6587  0.1950
 4894SOL    HW126141   0.139   0.207   2.031  1.3042 -1.3629  1.0504
 4894SOL    HW226142   0.177   0.122   1.919 -1.7719  0.1230 -2.8511
 4895SOL     OW26143   4.563   0.158   4.647  0.0217  0.4725  0.5067
 4895SOL    HW126144   4.553   0.176   4.741 -0.0827 -1.8162  0.9394
 4895SOL    HW226145   4.499   0.220   4.614 -0.3494 -0.7505 -1.0380
 4896SOL     OW26146   0.574   3.488   2.502  0.7891  0.1797 -0.0918
 4896SOL    HW126147   0.510   3.416   2.503 -1.3811  2.0852 -1.4995
 4896SOL    HW226148   0.612   3.486   2.414 -0.8037 -3.5222 -0.6962
 4897SOL     OW26149   3.152   0.981  12.517 -1.0731 -0.0220  0.1515
 4897SOL    HW126150   3.096   0.978  12.439 -0.6357  1.0992 -0.2099
 4897SOL    HW226151   3.156   0.890  12.544  0.4832 -0.3959 -1.3355
 4898SOL     OW26152   1.519   4.194  17.291  0.2295  0.1417  0.2300
 4898SOL    HW126153   1.582   4.176  17.221  0.8495  0.1097  0.7996
 4898SOL    HW226154   1.500   4.111  17.335  3.6675 -0.7249  0.0855
 4899SOL     OW26155   4.367   3.351  14.527 -0.3606  0.5796  0.2283
 4899SOL    HW126156   4.376   3.290  14.454  0.8595 -0.0742  0.9276
 4899SOL    HW226157   4.324   3.426  14.485  0.7012  1.5066  0.8093
 4900SOL     OW26158   3.674   1.547   6.025  0.6949  0.4613 -0.5562
 4900SOL    HW126159   3.694   1.486   5.955  0.9035  0.4148 -0.4572
 4900SOL    HW226160   3.704   1.489   6.094  0.2181 -0.6872 -1.3178
 4901SOL     OW26161   0.142   3.671   5.817 -0.0370 -0.0682  0.3124
 4901SOL    HW126162   0.223   3.648   5.864 -0.7961  0.9511  2.1281
 4901SOL    HW226163   0.157   3.765   5.808 -2.7813  0.3262  0.1071
 4902SOL     OW26164   0.035   0.967  17.376 -0.3425 -0.6227 -0.0827
 4902SOL    HW126165   0.077   0.988  17.292 -2.4088  1.3876 -0.6136
 4902SOL    HW226166   0.100   0.905  17.409 -0.2826 -0.8045 -0.5526
 4903SOL     OW26167   0.249   1.055   6.143  0.9588  0.2530  0.2660
 4903SOL    HW126168   0.293   0.975   6.173 -0.9828 -0.9531 -0.0494
 4903SOL    HW226169   0.253   1.034   6.050 -1.2450  2.5949 -0.3516
 4904SOL     OW26170   2.491   1.289   2.877 -0.3069  0.1319 -0.1365
 4904SOL    HW126171   2.555   1.316   2.810 -3.1275 -0.0476 -2.9182
 4904SOL    HW226172   2.552   1.298   2.950 -0.8565  3.2016 -0.0428
 4905SOL     OW26173   3.136   3.230   6.347 -0.6544  0.2512  0.4400
 4905SOL    HW126174   3.187   3.178   6.287  1.6380 -0.3180  2.8774
 4905SOL    HW226175   3.197   3.284   6.397 -0.3310 -3.1362  3.7244
 4906SOL     OW26176   0.914   0.112   3.921 -0.0372  0.0179 -0.3236
 4906SOL    HW126177   0.880   0.193   3.883 -0.6083 -0.6721 -1.3104
 4906SOL    HW226178   0.924   0.136   4.013 -2.3348 -0.9099  0.1685
 4907SOL     OW26179   3.617   3.874   5.594  0.6681  0.1587 -0.2654
 4907SOL    HW126180   3.543   3.911   5.546  1.9285  1.2935 -1.2957
 4907SOL    HW226181   3.575   3.876   5.681  1.4560 -0.9104  0.1390
 4908SOL     OW26182   0.666   1.740   7.180  0.0855 -0.2976 -0.2390
 4908SOL    HW126183   0.617   1.658   7.184 -0.8106  0.3552  2.3032
 4908SOL    HW226184   0.599   1.808   7.196  1.1539  0.8406 -0.5813
 4909SOL     OW26185   2.157   3.308   9.347 -0.2950 -0.0648 -0.2198
 4909SOL    HW126186   2.099   3.285   9.420 -1.6453  0.8672 -0.9963
 4909SOL    HW226187   2.124   3.247   9.280 -0.5724 -0.0993 -0.0529
 4910SOL     OW26188   4.076   0.960   7.111 -0.2020  0.0681 -0.8939
 4910SOL    HW126189   4.019   1.016   7.164 -0.7492  1.2184 -2.7023
 4910SOL    HW226190   4.162   0.985   7.146 -0.7145  0.0895  0.3222
 4911SOL     OW26191   3.669   2.816   9.001 -0.1419  0.1048  0.6582
 4911SOL    HW126192   3.586   2.780   9.033 -1.2716  2.5348  0.4702
 4911SOL    HW226193   3.730   2.760   9.049  1.5805  0.2401 -1.3347
 4912SOL     OW26194   2.948   4.350   8.124  0.1059 -0.5515 -0.1513
 4912SOL    HW126195   2.982   4.316   8.207 -2.4374  0.0539  1.1175
 4912SOL    HW226196   3.000   4.430   8.121  0.2998 -0.5892  1.7331
 4913SOL     OW26197   0.684   2.218   7.145 -0.0394  0.0269  0.5361
 4913SOL    HW126198   0.714   2.253   7.229 -0.7500 -0.7205  1.0939
 4913SOL    HW226199   0.589   2.228   7.146 -0.1330 -0.8881  0.4054
 4914SOL     OW26200   0.565   1.273   8.911 -0.2444 -0.1917 -0.2675
 4914SOL    HW126201   0.599   1.361   8.893 -0.5990 -0.2093 -1.0097
 4914SOL    HW226202   0.647   1.238   8.947 -0.5372  1.4539  2.0030
 4915SOL     OW26203   4.020   2.163  15.353  0.2751 -0.1578  0.4966
 4915SOL    HW126204   4.100   2.165  15.405 -0.5784  2.3412  1.7009
 4915SOL    HW226205   3.996   2.071  15.345  1.5834 -0.5376  1.0730
 4916SOL     OW26206   2.155   3.294  12.990 -0.1499 -0.1103  0.0310
 4916SOL    HW126207   2.229   3.233  12.984  0.0021  0.1532 -0.8684
 4916SOL    HW226208   2.161   3.331  12.902 -2.9022 -0.6254 -0.3613
 4917SOL     OW26209   1.369   2.611  15.550 -0.6329  0.1082 -0.1553
 4917SOL    HW126210   1.353   2.545  15.483 -2.8078  1.7115 -1.1980
 4917SOL    HW226211   1.366   2.694  15.502  1.0234  0.2152 -0.0870
 4918SOL     OW26212   2.422   0.979   7.591  0.3383  0.2335  0.3111
 4918SOL    HW126213   2.381   0.980   7.505  0.5834  2.6975  0.2060
 4918SOL    HW226214   2.414   0.886   7.611 -0.9025 -0.1898 -2.2555
 4919SOL     OW26215   4.637   4.210   0.491 -0.0438  0.2046 -0.7190
 4919SOL    HW126216   4.574   4.208   0.562  2.0818 -0.2693  1.1353
 4919SOL    HW226217   4.583   4.183   0.416 -0.3971 -0.6043 -0.1648
 4920SOL     OW26218   3.839   2.983   1.667  0.3153 -0.0419  0.2053
 4920SOL    HW126219   3.856   2.939   1.583  0.7154 -1.2907  0.9360
 4920SOL    HW226220   3.753   2.954   1.696  0.8446 -0.3443  1.4971
 4921SOL     OW26221   0.027   4.575   1.409  0.3916  0.3539  0.1894
 4921SOL    HW126222   0.047   4.667   1.428 -0.0574  1.0666 -2.7817
 4921SOL    HW226223   0.043   4.581   1.315  0.4771  2.5482  0.3319
 4922SOL     OW26224   1.434   4.500   4.443 -0.0393  0.0220  0.0539
 4922SOL    HW126225   1.484   4.439   4.497  1.1697  1.7764  0.9127
 4922SOL    HW226226   1.408   4.437   4.376  2.5152  0.2277 -1.1210
 4923SOL     OW26227   0.120   2.588  13.737 -0.1160  0.2636  0.4461
 4923SOL    HW126228   0.064   2.531  13.788 -0.6704 -0.2113 -0.6930
 4923SOL    HW226229   0.077   2.560  13.656  0.7133 -0.7932  0.3724
 4924SOL     OW26230   2.850   1.471   6.360  0.4961  0.6065  0.1606
 4924SOL    HW126231   2.935   1.509   6.335  1.1771 -0.7678  0.3900
 4924SOL    HW226232   2.839   1.399   6.299 -1.3995  0.9507  0.1236
 4925SOL     OW26233   3.767   2.027   4.469  0.1283  0.4314 -0.3417
 4925SOL    HW126234   3.861   2.027   4.488  0.1935 -1.5226 -0.6761
 4925SOL    HW226235   3.729   2.085   4.535  1.3341  0.0344  0.7072
 4926SOL     OW26236   0.825   3.263   9.749 -0.1867 -0.2486  0.0814
 4926SOL    HW126237   0.733   3.257   9.774 -0.3845  1.6675 -0.1538
 4926SOL    HW226238   0.841   3.169   9.747  3.2652  0.3511  0.4400
 4927SOL     OW26239   1.726   0.057   7.669 -0.0320  0.3493  0.4619
 4927SOL    HW126240   1.818   0.057   7.696  0.0332  0.9964  0.2480
 4927SOL    HW226241   1.748   0.084   7.580  2.2359 -1.0692  0.6013
 4928SOL     OW26242   1.085   4.165  11.253  0.1401 -0.1834  0.7030
 4928SOL    HW126243   1.091   4.097  11.320  1.0056 -1.6452 -0.8720
 4928SOL    HW226244   1.067   4.243  11.306  0.6310  0.0388  0.5370
 4929SOL     OW26245   1.865   1.223   0.251  0.5829  0.1389  0.5069
 4929SOL    HW126246   1.907   1.147   0.211  1.8288  2.1782 -2.0786
 4929SOL    HW226247   1.800   1.251   0.187  0.6037  1.6385  1.1251
 4930SOL     OW26248   2.808   3.194  17.571  0.5441  0.0174  0.7708
 4930SOL    HW126249   2.752   3.238  17.635 -0.2304 -0.3372  0.3321
 4930SOL    HW226250   2.848   3.272  17.532  2.3119 -2.4248 -2.2555
 4931SOL     OW26251   2.391   2.797   2.766 -0.2689  0.0300 -0.1681
 4931SOL    HW126252   2.436   2.816   2.848  0.9981  1.1406 -1.1344
 4931SOL    HW226253   2.446   2.729   2.729  0.9760  1.3741 -0.7773
 4932SOL     OW26254   0.834   3.404   1.921 -0.1621 -0.6444  0.3502
 4932SOL    HW126255   0.809   3.405   2.014  0.2781  0.2671  0.4545
 4932SOL    HW226256   0.804   3.492   1.897 -1.7182 -0.8893  1.3800
 4933SOL     OW26257   0.706   4.408   0.944  0.1664  0.1316  0.4648
 4933SOL    HW126258   0.668   4.320   0.949 -0.1143  0.2857  1.0685
 4933SOL    HW226259   0.762   4.399   0.867  1.4268 -0.0494  1.4131
 4934SOL     OW26260   1.579   3.523   8.978 -0.5219  0.2210 -0.1238
 4934SOL    HW126261   1.664   3.512   8.935 -0.6400  0.8458 -0.5281
 4934SOL    HW226262   1.578   3.459   9.048  1.7884 -0.4232 -0.6796
 4935SOL     OW26263   2.308   3.439  14.044 -0.4309 -0.5361  0.4297
 4935SOL    HW126264   2.373   3.489  14.094 -0.8195  0.8905 -0.4870
 4935SOL    HW226265   2.298   3.503  13.973  0.5078 -1.4377 -0.5209
 4936SOL     OW26266   1.204   2.300   0.284  0.3768 -0.3604  0.7376
 4936SOL    HW126267   1.290   2.262   0.272  0.0670 -0.6006 -0.7024
 4936SOL    HW226268   1.165   2.245   0.352  1.3944 -0.5304  1.1686
 4937SOL     OW26269   2.907   0.725   4.955  0.2885  0.4669 -0.2930
 4937SOL    HW126270   2.825   0.676   4.948 -0.8039  2.3111 -0.2748
 4937SOL    HW226271   2.929   0.685   5.040 -0.9673 -0.6245 -0.4833
 4938SOL     OW26272   3.784   1.575   5.361 -0.1147 -0.5471 -0.4257
 4938SOL    HW126273   3.750   1.494   5.399 -1.2283  1.2392  2.3405
 4938SOL    HW226274   3.704   1.627   5.358 -0.7561 -1.4992  0.0090
 4939SOL     OW26275   2.953   4.040   5.510 -0.3833 -0.1370 -0.3034
 4939SOL    HW126276   2.950   4.128   5.549  0.1223 -0.5842  0.7317
 4939SOL    HW226277   2.862   4.025   5.485 -0.3468 -0.1918 -0.4050
 4940SOL     OW26278   2.180   3.696   6.274 -0.3351  0.1715  0.0254
 4940SOL    HW126279   2.174   3.731   6.363  2.6259  0.1137  0.2431
 4940SOL    HW226280   2.091   3.666   6.256 -0.3617  0.3248 -0.0979
 4941SOL     OW26281   1.862   3.756   0.696 -0.7295  0.2177  0.1588
 4941SOL    HW126282   1.815   3.694   0.752  2.2221  0.4613  2.9033
 4941SOL    HW226283   1.804   3.831   0.685 -2.5881 -1.4232 -1.3225
 4942SOL     OW26284   0.018   1.519   3.743  0.4575 -0.3495 -0.1354
 4942SOL    HW126285   4.690   1.503   3.822 -1.8232 -1.0882 -1.7707
 4942SOL    HW226286   0.029   1.427   3.719  0.1259  0.0679 -1.8739
 4943SOL     OW26287   0.471   3.228   2.478  0.0782 -0.3573 -0.1577
 4943SOL    HW126288   0.463   3.140   2.441 -1.6577 -1.4088  2.7675
 4943SOL    HW226289   0.427   3.206   2.560  0.4349 -1.8230 -0.3431
 4944SOL     OW26290   0.941   4.674   5.930 -0.2410  0.7700  0.3311
 4944SOL    HW126291   0.855   4.712   5.948 -0.7287 -0.2462  0.1509
 4944SOL    HW226292   1.006   0.001   5.980  1.6262 -1.9562  0.6507
 4945SOL     OW26293   2.683   3.968   2.022  0.5534 -0.1165 -0.7485
 4945SOL    HW126294   2.625   3.902   2.059  0.3330  0.7102  0.3752
 4945SOL    HW226295   2.673   4.054   2.064 -2.1514 -0.6931 -0.2346
 4946SOL     OW26296   2.230   4.536   7.850 -0.0249 -0.0226 -0.2143
 4946SOL    HW126297   2.139   4.509   7.855 -0.3893  1.3814  0.7077
 4946SOL    HW226298   2.269   4.497   7.928 -0.6626 -0.4089 -0.0905
 4947SOL     OW26299   1.613   2.738  10.237  0.2645  0.5397  0.5604
 4947SOL    HW126300   1.669   2.693  10.174 -1.3494  0.5585 -0.8949
 4947SOL    HW226301   1.671   2.754  10.311  1.8580  0.6861 -0.7210
 4948SOL     OW26302   3.490   4.625   6.259  0.1640 -0.2815  0.3092
 4948SOL    HW126303   3.527   4.557   6.203  0.3132 -1.8319  2.3047
 4948SOL    HW226304   3.474   4.693   6.193  2.1890  0.4003  0.5298
 4949SOL     OW26305   1.156   1.349  14.714  0.1263  0.0162 -0.1835
 4949SOL    HW126306   1.233   1.389  14.756  0.6897 -1.7397  0.4331
 4949SOL    HW226307   1.099   1.373  14.788  1.3201  1.1128  0.3847
 4950SOL     OW26308   4.493   4.491   3.780 -0.0962  0.0771  0.2165
 4950SOL    HW126309   4.496   4.576   3.736 -0.5419  0.5792  1.1669
 4950SOL    HW226310   4.585   4.483   3.805 -0.3572  0.6714  1.3366
 4951SOL     OW26311   2.246   3.647   5.125 -0.4493  0.3589 -0.1678
 4951SOL    HW126312   2.261   3.728   5.173 -0.2580  0.8626 -1.0723
 4951SOL    HW226313   2.164   3.609   5.157  1.1094 -1.2734  1.9076
 4952SOL     OW26314   4.097   3.558   6.116 -0.2880  0.3712  0.1287
 4952SOL    HW126315   4.065   3.649   6.114  0.4176  0.5860 -1.2345
 4952SOL    HW226316   4.022   3.513   6.154 -0.0314  0.2465  0.4829
 4953SOL     OW26317   2.129   0.558   3.002 -0.1650  0.4718  0.3051
 4953SOL    HW126318   2.107   0.633   2.947  0.9289 -1.6098 -3.0003
 4953SOL    HW226319   2.080   0.564   3.084  1.5791  0.5683  1.3269
 4954SOL     OW26320   1.099   1.890   5.603  0.7413 -0.1263 -0.5241
 4954SOL    HW126321   1.033   1.875   5.536  0.3184  0.0527 -0.1475
 4954SOL    HW226322   1.063   1.829   5.667  2.1398  0.2926  0.6537
 4955SOL     OW26323   3.636   2.320   7.465 -0.0111 -0.4165  0.1231
 4955SOL    HW126324   3.620   2.251   7.530 -2.8835 -1.4230 -1.6263
 4955SOL    HW226325   3.648   2.402   7.512 -1.1889  0.1883 -0.6369
 4956SOL     OW26326   3.328   4.237   7.167  0.1711  0.3044 -0.1141
 4956SOL    HW126327   3.273   4.302   7.122  1.7655  2.0957  0.5357
 4956SOL    HW226328   3.393   4.282   7.221 -1.8103 -0.5831  3.0237
 4957SOL     OW26329   1.153   0.560   5.313  0.1500  0.2996  0.0654
 4957SOL    HW126330   1.067   0.518   5.314 -0.5936  1.8223 -0.7382
 4957SOL    HW226331   1.157   0.606   5.397 -0.3613  2.3588 -1.0538
 4958SOL     OW26332   0.240   3.601  12.970  0.1149 -0.3504  0.5480
 4958SOL    HW126333   0.217   3.519  12.926  1.4237 -0.0140 -0.7372
 4958SOL    HW226334   0.332   3.606  12.944  0.0771  0.4826  0.5684
 4959SOL     OW26335   2.911   0.923   2.182  0.5397 -0.7789  0.0328
 4959SOL    HW126336   2.841   0.860   2.166 -0.5026  0.9390 -2.1508
 4959SOL    HW226337   2.868   1.004   2.155  2.9339  1.0916  1.8946
 4960SOL     OW26338   2.876   1.401   5.592 -0.4616 -0.3194 -0.1755
 4960SOL    HW126339   2.807   1.346   5.629  1.5564 -1.0535  2.5647
 4960SOL    HW226340   2.880   1.469   5.660 -1.3674  0.9139 -1.3707
 4961SOL     OW26341   1.261   4.639   8.680  0.2884 -0.1429 -0.7246
 4961SOL    HW126342   1.270   0.011   8.669 -0.9155  0.2177  1.2944
 4961SOL    HW226343   1.304   4.619   8.763 -1.2251 -0.1239  0.0600
 4962SOL     OW26344   3.633   0.777  10.593  0.1127  0.0660  0.1980
 4962SOL    HW126345   3.652   0.870  10.606  0.3600 -0.2177  1.7952
 4962SOL    HW226346   3.554   0.776  10.538 -0.3438  0.2442  0.8562
 4963SOL     OW26347   0.151   2.433  15.827  0.1187 -0.3548 -0.2477
 4963SOL    HW126348   0.062   2.452  15.857  0.4630  0.0031  0.5449
 4963SOL    HW226349   0.161   2.354  15.882  0.8286  0.5323  0.8996
 4964SOL     OW26350   1.198   3.564   5.081 -0.2503 -0.0120  0.1957
 4964SOL    HW126351   1.227   3.563   5.172 -1.7861  0.1267  0.6977
 4964SOL    HW226352   1.110   3.602   5.085 -0.0407  0.4127  0.6951
 4965SOL     OW26353   2.295   4.389   3.412 -0.6213  0.0977  0.1176
 4965SOL    HW126354   2.338   4.307   3.437  1.9669  1.1857 -0.8145
 4965SOL    HW226355   2.363   4.448   3.380 -1.8185  0.2823 -2.0358
 4966SOL     OW26356   0.108   2.959   7.771 -0.4978 -0.1604  0.1201
 4966SOL    HW126357   0.056   2.954   7.851  1.5466  0.9837  1.5049
 4966SOL    HW226358   0.179   2.901   7.800  0.4053 -1.3046 -4.3403
 4967SOL     OW26359   3.593   2.737  12.307  0.3469  0.0046 -0.0131
 4967SOL    HW126360   3.641   2.694  12.236 -0.0593 -0.8359  0.2223
 4967SOL    HW226361   3.522   2.781  12.261  1.5918  2.9458  0.8824
 4968SOL     OW26362   4.339   0.258   1.593  0.2100  0.1147 -0.0993
 4968SOL    HW126363   4.366   0.350   1.588  3.5414 -0.7303  2.2446
 4968SOL    HW226364   4.397   0.217   1.657 -1.4035 -0.1911  1.1598
 4969SOL     OW26365   2.292   2.719   5.049  0.0919 -0.4607  1.1062
 4969SOL    HW126366   2.304   2.739   5.142 -1.4005  2.7118  0.6393
 4969SOL    HW226367   2.231   2.646   5.060 -0.7352 -0.2791 -2.5408
 4970SOL     OW26368   0.623   0.578   2.264  0.5827  0.1502 -0.1919
 4970SOL    HW126369   0.528   0.579   2.248  0.2003 -0.3005  2.0490
 4970SOL    HW226370   0.616   0.500   2.319  0.4315 -0.2381 -0.7552
 4971SOL     OW26371   4.361   1.218  15.408  0.1575 -0.1137 -0.5633
 4971SOL    HW126372   4.272   1.216  15.443  1.8360  0.4569  3.6337
 4971SOL    HW226373   4.389   1.128  15.426  0.0337  0.2102  1.1739
 4972SOL     OW26374   1.641   0.626   6.338 -0.2883 -0.4280 -0.3040
 4972SOL    HW126375   1.625   0.633   6.432 -0.8962 -0.4519 -0.4080
 4972SOL    HW226376   1.709   0.560   6.332 -0.2959 -0.3470 -1.3138
 4973SOL     OW26377   3.607   4.320   8.520  0.3407  0.1798 -0.0079
 4973SOL    HW126378   3.542   4.378   8.482 -0.7894 -0.6663  0.6327
 4973SOL    HW226379   3.662   4.390   8.557  1.1207 -0.6458  0.4097
 4974SOL     OW26380   0.021   3.707   4.937 -0.1577 -0.1451  0.1109
 4974SOL    HW126381   0.081   3.703   4.862  0.7417  1.3773  0.7226
 4974SOL    HW226382   0.056   3.633   4.986  0.3297 -0.0568 -0.0945
 4975SOL     OW26383   2.048   1.682   6.319 -0.2482  0.3041  0.0656
 4975SOL    HW126384   1.953   1.675   6.304  0.4386 -0.3767 -3.9143
 4975SOL    HW226385   2.073   1.599   6.360 -0.5296  0.7260  1.0937
 4976SOL     OW26386   1.009   1.774   8.653 -0.1683 -0.2684  0.1556
 4976SOL    HW126387   0.922   1.755   8.618  0.1697 -2.2575  0.3926
 4976SOL    HW226388   0.988   1.841   8.719  0.0184  0.9622 -1.0403
 4977SOL     OW26389   1.653   4.082   6.825  0.0880  0.0756 -0.2516
 4977SOL    HW126390   1.609   4.167   6.825  1.6849  0.9073 -1.4822
 4977SOL    HW226391   1.586   4.027   6.864  0.1531 -0.6173 -1.1192
 4978SOL     OW26392   3.579   4.064   3.677  0.3552 -0.2945  0.3673
 4978SOL    HW126393   3.590   4.141   3.732 -0.6623 -0.7200  1.1652
 4978SOL    HW226394   3.484   4.055   3.677  0.2704  0.5885  1.6309
 4979SOL     OW26395   1.253   0.815  13.905  0.3768 -0.2268 -0.3698
 4979SOL    HW126396   1.246   0.897  13.857 -2.6796 -1.0750 -1.4095
 4979SOL    HW226397   1.336   0.787  13.866 -0.3446 -0.8445 -1.4739
 4980SOL     OW26398   1.506   0.815   3.000 -0.7984 -0.0699 -0.0762
 4980SOL    HW126399   1.470   0.890   2.952  0.6274 -0.5701 -1.9033
 4980SOL    HW226400   1.601   0.817   2.984 -0.7800 -1.9320 -0.2210
 4981SOL     OW26401   1.875   0.123   9.102  0.2470 -0.6155 -0.4115
 4981SOL    HW126402   1.847   0.101   9.013  1.2916 -0.9960 -0.6487
 4981SOL    HW226403   1.959   0.157   9.072 -0.8357  1.6399 -0.8827
 4982SOL     OW26404   2.046   1.370   5.315 -0.2031 -0.2092  0.5985
 4982SOL    HW126405   2.058   1.432   5.387  0.3481  0.1764  0.1758
 4982SOL    HW226406   2.125   1.320   5.298  0.4610  0.4437  1.7834
 4983SOL     OW26407   3.289   4.177  11.065  0.1398 -0.3370  0.4242
 4983SOL    HW126408   3.370   4.190  11.016 -0.0269  0.2468  0.3017
 4983SOL    HW226409   3.313   4.209  11.152 -2.8086  2.3321  0.2685
 4984SOL     OW26410   2.813   0.969   1.344 -0.2113  0.3084 -0.1755
 4984SOL    HW126411   2.873   1.043   1.332 -0.0581  0.1027 -0.6811
 4984SOL    HW226412   2.735   0.996   1.295  0.4540  0.9600 -0.8822
 4985SOL     OW26413   3.907   1.088   6.678 -0.0812  0.8133  0.2683
 4985SOL    HW126414   3.906   1.160   6.741 -0.5953  0.6986  0.3843
 4985SOL    HW226415   3.815   1.077   6.654  0.2802  0.8672 -1.1867
 4986SOL     OW26416   0.870   2.038   9.623 -1.0715  0.0365 -0.3111
 4986SOL    HW126417   0.889   2.059   9.532 -1.2584 -0.6932 -0.5197
 4986SOL    HW226418   0.777   2.015   9.626 -0.6474 -1.7362 -0.8161
 4987SOL     OW26419   0.363   2.404   6.596  0.2821  0.3018 -0.0228
 4987SOL    HW126420   0.294   2.346   6.564  0.3058  1.5015 -2.2418
 4987SOL    HW226421   0.414   2.346   6.652 -1.6842 -1.4230 -0.0432
 4988SOL     OW26422   4.676   3.408  17.265  0.0570 -0.3068  0.3720
 4988SOL    HW126423   4.676   3.504  17.267 -0.4605 -0.2941 -0.1902
 4988SOL    HW226424   4.694   3.403  17.171 -0.0006  1.0471  0.2936
 4989SOL     OW26425   2.486   2.697  17.112 -0.8657 -0.6221  0.0470
 4989SOL    HW126426   2.425   2.711  17.040 -1.9363  0.0019  1.0644
 4989SOL    HW226427   2.521   2.609  17.099  1.1022  0.0604  0.6493
 4990SOL     OW26428   0.593   4.410   8.218  0.4546  0.2343  0.5847
 4990SOL    HW126429   0.540   4.402   8.139  3.0706  1.9152 -1.3427
 4990SOL    HW226430   0.523   4.441   8.275 -1.9525 -2.6256 -0.8720
 4991SOL     OW26431   3.760   0.422   8.038 -0.0888 -0.0871 -0.2291
 4991SOL    HW126432   3.691   0.435   7.973  0.8322 -1.7208 -1.5164
 4991SOL    HW226433   3.834   0.462   7.994 -0.0865  2.5072  2.0987
 4992SOL     OW26434   4.137   3.887  16.518  0.2951 -0.4913 -0.2741
 4992SOL    HW126435   4.132   3.903  16.424  0.8999  1.9375  0.1017
 4992SOL    HW226436   4.202   3.818  16.504  0.3580 -0.5295  0.2149
 4993SOL     OW26437   1.229   1.699   8.056 -0.1700  0.7479  0.5241
 4993SOL    HW126438   1.162   1.635   8.079 -0.1297 -0.2610 -2.1636
 4993SOL    HW226439   1.217   1.761   8.127  1.8812  2.6482 -0.7757
 4994SOL     OW26440   0.315   1.424   2.328  0.4703  1.0085 -0.2094
 4994SOL    HW126441   0.314   1.413   2.423 -1.3701  0.6110 -0.2608
 4994SOL    HW226442   0.407   1.447   2.315  0.8569  0.1060  0.9217
 4995SOL     OW26443   4.408   0.439  15.289 -0.0479 -0.3365 -0.5888
 4995SOL    HW126444   4.487   0.455  15.341 -1.8181  1.1077  1.6732
 4995SOL    HW226445   4.425   0.352  15.253  0.8838 -0.2907 -0.2517
 4996SOL     OW26446   1.540   2.380   2.085 -0.1803 -0.0205 -0.2352
 4996SOL    HW126447   1.629   2.345   2.082 -0.5021 -0.7454 -1.4212
 4996SOL    HW226448   1.487   2.305   2.112  1.1353 -1.5311 -1.9563
 4997SOL     OW26449   0.299   0.969  15.098 -0.5192  0.0805  0.3767
 4997SOL    HW126450   0.283   1.039  15.035 -1.8329 -1.6061 -1.1451
 4997SOL    HW226451   0.390   0.966  15.069 -1.1143 -0.0044 -1.4794
 4998SOL     OW26452   2.622   1.724   0.737 -0.7616 -0.0586 -0.2834
 4998SOL    HW126453   2.561   1.651   0.733  0.6425 -1.3307  1.8750
 4998SOL    HW226454   2.592   1.776   0.663 -3.5272 -1.7835 -0.3506
 4999SOL     OW26455   1.507   0.129   4.026  0.5776  0.5125  0.0818
 4999SOL    HW126456   1.532   0.067   3.958 -0.7284  0.2256 -0.1301
 4999SOL    HW226457   1.574   0.099   4.088 -0.3535  2.9007  2.2455
 5000SOL     OW26458   1.153   0.398  11.327 -0.3695 -0.2544 -0.0615
 5000SOL    HW126459   1.164   0.455  11.250 -0.9617  1.9130  1.4482
 5000SOL    HW226460   1.233   0.431  11.369 -1.0641  1.4240 -0.0678
 5001SOL     OW26461   1.204   4.602   7.896 -0.1563  0.2019  0.6632
 5001SOL    HW126462   1.211   4.686   7.850  1.6900 -1.1296 -1.4183
 5001SOL    HW226463   1.183   4.636   7.983 -0.4167 -2.9671  1.8324
 5002SOL     OW26464   2.688   1.345   7.872  0.3330  0.2118  0.4067
 5002SOL    HW126465   2.637   1.280   7.920 -1.9428  0.3938 -1.7808
 5002SOL    HW226466   2.736   1.386   7.945  1.8524  2.3447 -1.7902
 5003SOL     OW26467   0.965   1.951   8.281  0.5844 -0.5329 -0.8703
 5003SOL    HW126468   0.925   1.869   8.308 -0.0692  0.1601  0.2815
 5003SOL    HW226469   1.057   1.931   8.297  0.2294 -1.5053  0.0025
 5004SOL     OW26470   0.810   4.628  12.576  0.6702 -0.3350 -0.5134
 5004SOL    HW126471   0.844   4.540  12.587  2.8214  0.4107 -1.2310
 5004SOL    HW226472   0.728   4.614  12.529  1.3671  1.7161 -2.3108
 5005SOL     OW26473   4.066   0.665  10.131 -0.3423  0.4511  0.3676
 5005SOL    HW126474   4.000   0.599  10.109 -0.9446  0.7941  1.1247
 5005SOL    HW226475   4.016   0.744  10.111  0.5113  1.2029  1.1682
 5006SOL     OW26476   1.903   3.797  11.312 -0.3631 -0.3383  0.2553
 5006SOL    HW126477   1.840   3.726  11.329 -1.1344  0.1930 -0.3791
 5006SOL    HW226478   1.910   3.795  11.216 -1.8514 -0.7384  0.1593
 5007SOL     OW26479   3.405   4.425   4.642  0.4253  0.2866 -0.1265
 5007SOL    HW126480   3.340   4.408   4.710  1.8539  2.5442  1.8201
 5007SOL    HW226481   3.351   4.468   4.576  1.8249  0.9519 -0.8519
 5008SOL     OW26482   1.546   3.404   9.794  0.1676 -0.0185 -0.5669
 5008SOL    HW126483   1.642   3.404   9.788  0.2935 -0.9588  1.3881
 5008SOL    HW226484   1.510   3.324   9.831  0.2682  0.6376  0.9629
 5009SOL     OW26485   1.393   3.700   7.946  0.2685  0.2364 -0.0279
 5009SOL    HW126486   1.383   3.767   8.013  1.6749 -0.3965  0.8269
 5009SOL    HW226487   1.375   3.747   7.865  0.3841 -0.2982 -0.3646
 5010SOL     OW26488   3.302   0.687  14.656 -0.8768 -0.3959  0.2069
 5010SOL    HW126489   3.356   0.699  14.578 -3.0590  2.0936 -0.9167
 5010SOL    HW226490   3.275   0.776  14.679 -0.5247 -0.3997  0.6121
 5011SOL     OW26491   1.907   0.357   6.624  0.5469  0.5364  0.6999
 5011SOL    HW126492   1.959   0.316   6.555 -2.7833 -1.3137 -0.6856
 5011SOL    HW226493   1.854   0.282   6.650  0.5861  0.6101  0.9938
 5012SOL     OW26494   2.812   0.260   8.058 -0.0400  0.1220 -0.5133
 5012SOL    HW126495   2.877   0.253   8.128 -0.5116 -0.0120 -0.0891
 5012SOL    HW226496   2.740   0.232   8.114  0.2098 -1.3806 -0.9589
 5013SOL     OW26497   0.624   2.722   8.419  0.0332  0.3101 -0.0783
 5013SOL    HW126498   0.572   2.643   8.431  0.4827 -0.0748 -0.6917
 5013SOL    HW226499   0.648   2.751   8.507  2.7805  1.3811 -1.1435
 5014SOL     OW26500   3.507   1.835   8.046  0.0526 -0.2558  0.4642
 5014SOL    HW126501   3.471   1.792   7.968  0.2673  1.5208 -0.6267
 5014SOL    HW226502   3.587   1.787   8.068 -0.2104 -0.8692  0.1007
 5015SOL     OW26503   0.064   4.004   3.084 -0.3467  0.1326 -0.3142
 5015SOL    HW126504   0.013   3.984   3.162  1.2621 -3.7668 -0.2575
 5015SOL    HW226505   0.086   3.915   3.057  1.4491  0.8126 -1.1230
 5016SOL     OW26506   2.359   2.354   4.140  0.0503 -0.0179  0.4502
 5016SOL    HW126507   2.390   2.443   4.122 -0.0471  0.2821  1.7389
 5016SOL    HW226508   2.335   2.363   4.232 -1.5330 -0.9505  0.1063
 5017SOL     OW26509   3.193   3.802   1.389  0.5352  0.2883  0.0107
 5017SOL    HW126510   3.240   3.839   1.314  2.1343  1.6496  1.6843
 5017SOL    HW226511   3.128   3.871   1.399 -1.0020 -1.4510  1.8797
 5018SOL     OW26512   2.143   1.303  15.119 -0.3808  0.3197  0.0502
 5018SOL    HW126513   2.050   1.292  15.136  0.6795 -3.1474  3.7954
 5018SOL    HW226514   2.182   1.230  15.168 -2.0401 -2.1584 -2.3762
 5019SOL     OW26515   1.537   2.160   2.260  0.2542  0.6627 -0.3974
 5019SOL    HW126516   1.616   2.214   2.265  0.0162  0.7578  2.4160
 5019SOL    HW226517   1.554   2.083   2.314 -3.3839 -0.7981 -1.3662
 5020SOL     OW26518   0.123   0.326  13.693  0.0758  0.1425  0.1815
 5020SOL    HW126519   0.152   0.237  13.676  0.6603  0.5266 -0.8236
 5020SOL    HW226520   0.077   0.317  13.777 -0.9669  0.4507 -0.3492
 5021SOL     OW26521   3.446   2.002   1.570 -0.7225 -0.3884 -0.1083
 5021SOL    HW126522   3.412   1.951   1.497 -3.1551  0.7324  0.2278
 5021SOL    HW226523   3.523   2.044   1.530  0.0354 -2.6501 -0.9886
 5022SOL     OW26524   2.120   0.559  14.663  0.2318 -0.2994  0.2802
 5022SOL    HW126525   2.079   0.488  14.614 -0.2448  0.2616 -0.1299
 5022SOL    HW226526   2.188   0.509  14.708  0.5971 -0.0036  0.0656
 5023SOL     OW26527   1.032   3.896  10.794 -0.1759  0.6477  0.4231
 5023SOL    HW126528   1.102   3.936  10.846  0.4847 -1.3540  1.0777
 5023SOL    HW226529   0.958   3.950  10.820 -0.1178 -0.8790  3.7270
 5024SOL     OW26530   1.605   0.757   5.104 -0.1969  0.4618 -0.8623
 5024SOL    HW126531   1.664   0.772   5.031 -0.0251 -1.4349 -1.1238
 5024SOL    HW226532   1.588   0.665   5.085 -0.5962  0.3479  0.0650
 5025SOL     OW26533   0.458   0.647   8.982  0.6827  0.0227  0.5844
 5025SOL    HW126534   0.437   0.685   9.067  1.9847  0.5271  0.6733
 5025SOL    HW226535   0.528   0.706   8.954  0.3996  0.9488  1.8364
 5026SOL     OW26536   0.158   0.690  17.031  0.0405  0.0476  0.9401
 5026SOL    HW126537   0.068   0.703  17.060 -0.7676  3.6962 -3.2801
 5026SOL    HW226538   0.181   0.613  17.084 -0.2566  0.1362  1.1973
 5027SOL     OW26539   4.650   1.302   0.575 -0.7050  0.0784  0.0807
 5027SOL    HW126540   4.627   1.260   0.658 -0.7009  2.4142  1.2716
 5027SOL    HW226541   4.580   1.364   0.552 -0.7295  0.4000  1.0106
 5028SOL     OW26542   2.887   3.973   6.484 -0.2869 -0.5104 -0.5030
 5028SOL    HW126543   2.854   4.063   6.484 -0.2773 -0.5113 -1.9057
 5028SOL    HW226544   2.812   3.941   6.534  0.6285 -1.2487  0.3917
 5029SOL     OW26545   0.065   4.258   3.689  0.2776  0.0453 -0.7598
 5029SOL    HW126546   0.068   4.303   3.604  0.5341  0.1672 -0.6839
 5029SOL    HW226547   0.154   4.225   3.695  0.0275 -0.2180  1.5351
 5030SOL     OW26548   0.007   0.323   6.666 -0.6886 -0.0718  0.3199
 5030SOL    HW126549   0.065   0.398   6.675 -2.0091  0.6720  2.7333
 5030SOL    HW226550   0.071   0.253   6.678 -1.2073 -0.1800  2.5104
 5031SOL     OW26551   0.609   1.712   2.969 -0.7290  0.4654  0.0051
 5031SOL    HW126552   0.643   1.712   3.058 -1.8347  1.0378  0.4278
 5031SOL    HW226553   0.684   1.754   2.928 -0.0269 -0.2260  0.5760
 5032SOL     OW26554   1.699   2.890   2.447 -0.2056  0.3043  0.2488
 5032SOL    HW126555   1.780   2.919   2.405  0.5560  1.0545  2.2456
 5032SOL    HW226556   1.650   2.966   2.416 -0.3279  0.2765  0.3740
 5033SOL     OW26557   3.586   0.337  17.321 -0.1676  0.5637 -0.3493
 5033SOL    HW126558   3.539   0.318  17.240  0.2928  2.6374 -1.0962
 5033SOL    HW226559   3.674   0.327  17.283 -1.2303 -0.6172 -2.4587
 5034SOL     OW26560   4.221   1.605  10.883  0.1922  0.2690  0.1530
 5034SOL    HW126561   4.250   1.646  10.802  0.3987  0.9106  0.5528
 5034SOL    HW226562   4.148   1.550  10.852  0.9894  0.7092 -2.4691
 5035SOL     OW26563   1.457   4.221   0.443 -0.4287  0.1240  0.0348
 5035SOL    HW126564   1.521   4.286   0.474  1.4046 -0.6592 -2.1184
 5035SOL    HW226565   1.520   4.150   0.432 -0.8555 -0.3622  0.6821
 5036SOL     OW26566   1.768   0.213   1.334  0.4156 -0.2635  0.2166
 5036SOL    HW126567   1.784   0.143   1.397 -0.3635 -1.0370 -0.4529
 5036SOL    HW226568   1.856   0.228   1.298  0.4740  0.4847  0.6648
 5037SOL     OW26569   3.431   2.194   1.199 -0.1251 -0.0910 -0.0566
 5037SOL    HW126570   3.450   2.284   1.174  0.2211  0.1445  1.0240
 5037SOL    HW226571   3.340   2.200   1.229  0.8452 -3.5913  3.6116
 5038SOL     OW26572   1.054   4.564   7.326  0.1015 -0.8577 -0.0165
 5038SOL    HW126573   1.009   4.480   7.320  0.5022 -0.9998 -1.0963
 5038SOL    HW226574   0.974   4.615   7.312  0.8512  0.5983  0.9435
 5039SOL     OW26575   2.133   2.920   5.306  0.0383  0.3834 -0.1567
 5039SOL    HW126576   2.222   2.895   5.282  0.2433 -0.0385  1.0310
 5039SOL    HW226577   2.147   3.002   5.354 -2.0927 -0.0271  1.1351
 5040SOL     OW26578   2.185   3.193   4.187 -0.2072  0.0926 -0.1300
 5040SOL    HW126579   2.264   3.213   4.238 -0.7367 -2.2196  1.5960
 5040SOL    HW226580   2.214   3.149   4.107 -2.2787  1.3953 -1.5982
 5041SOL     OW26581   3.075   1.370  11.301  0.6914 -0.1271 -0.2948
 5041SOL    HW126582   3.070   1.465  11.291  0.2747 -0.1108  0.0760
 5041SOL    HW226583   3.113   1.356  11.215 -0.3816 -0.3144 -0.7339
 5042SOL     OW26584   3.013   0.998  12.288 -0.5322  0.1315 -0.1655
 5042SOL    HW126585   2.986   0.907  12.293 -0.4471  0.1630  0.9073
 5042SOL    HW226586   2.962   1.021  12.211  0.3206 -0.3640 -0.8807
 5043SOL     OW26587   2.448   0.374   8.671 -0.8667  1.0308 -0.0276
 5043SOL    HW126588   2.404   0.344   8.751 -0.2958  1.5236  0.4623
 5043SOL    HW226589   2.430   0.298   8.615 -0.9543  1.2361 -0.2764
 5044SOL     OW26590   2.834   2.456   1.211  0.2113 -0.1855  0.0247
 5044SOL    HW126591   2.812   2.550   1.210  1.5823  0.1253  0.2575
 5044SOL    HW226592   2.830   2.428   1.119 -0.7128 -0.6589  0.2034
 5045SOL     OW26593   0.069   0.270  11.048  0.0809 -1.0445 -0.2641
 5045SOL    HW126594   4.714   0.282  10.993 -0.5928  1.7782  1.3022
 5045SOL    HW226595   0.132   0.332  11.012  0.7546 -0.0046  2.7284
 5046SOL     OW26596   3.827   3.889   0.074  0.2729 -0.0927 -0.8116
 5046SOL    HW126597   3.802   3.856  17.681  0.5769  0.0477 -0.9549
 5046SOL    HW226598   3.744   3.928   0.101  0.6254 -0.3123  0.6192
 5047SOL     OW26599   3.967   2.090   7.562  0.0645  0.1995  0.0291
 5047SOL    HW126600   3.888   2.105   7.613 -0.0245  2.7919 -0.8751
 5047SOL    HW226601   3.951   2.015   7.504  0.6822 -2.3913  3.2314
 5048SOL     OW26602   4.552   1.615   7.982  0.5560  0.7737  0.2020
 5048SOL    HW126603   4.465   1.574   7.978  0.9257  0.0767 -0.6527
 5048SOL    HW226604   4.543   1.682   8.050  1.1494 -0.0210  1.0712
 5049SOL     OW26605   1.646   2.690   1.887 -0.2760  0.4520 -0.1449
 5049SOL    HW126606   1.709   2.627   1.851  2.0665  1.8188  1.5841
 5049SOL    HW226607   1.607   2.727   1.808  1.5314  0.4405 -1.0287
 5050SOL     OW26608   0.174   4.641  17.253  0.3652  0.5455 -0.1737
 5050SOL    HW126609   0.175   4.556  17.298 -3.1795  0.1797 -0.8400
 5050SOL    HW226610   0.248   4.676  17.303  0.7398 -0.1942 -0.2092
 5051SOL     OW26611   3.523   3.431   0.011 -0.2415  0.4081 -0.0101
 5051SOL    HW126612   3.462   3.394  17.640 -0.1620  0.5135 -0.1488
 5051SOL    HW226613   3.488   3.520   0.022  0.2597  0.8490 -1.8473
 5052SOL     OW26614   3.685   0.719   9.165 -0.2758  0.2759  0.1076
 5052SOL    HW126615   3.677   0.674   9.081 -0.0116  0.9086 -0.2546
 5052SOL    HW226616   3.773   0.750   9.145 -0.9989  1.9995 -0.3814
 5053SOL     OW26617   3.087   0.965  12.818 -0.1417  0.0382 -0.6991
 5053SOL    HW126618   3.044   1.000  12.740 -0.0442 -1.4616 -1.4244
 5053SOL    HW226619   3.012   0.914  12.848  1.8193 -1.9131  0.8367
 5054SOL     OW26620   1.806   0.583   8.809 -0.2092  0.4088 -0.1054
 5054SOL    HW126621   1.753   0.647   8.763 -0.4734  1.7391  2.0669
 5054SOL    HW226622   1.764   0.506   8.771 -0.8435  0.5576  0.3007
 5055SOL     OW26623   2.120   4.135   3.852  0.1411  0.6863  0.1165
 5055SOL    HW126624   2.091   4.128   3.762 -0.4695  1.4518  0.2508
 5055SOL    HW226625   2.143   4.045   3.873 -0.4990  0.7297  1.0023
 5056SOL     OW26626   2.434   2.729   4.146 -0.4448 -0.6098 -0.0171
 5056SOL    HW126627   2.457   2.806   4.197  0.1835 -1.5919  1.1972
 5056SOL    HW226628   2.472   2.751   4.061 -2.3123  0.4761 -0.5614
 5057SOL     OW26629   4.366   0.232   0.607  0.7462  0.7873  0.3145
 5057SOL    HW126630   4.415   0.293   0.662  2.5431  1.2252 -1.8123
 5057SOL    HW226631   4.318   0.194   0.682  2.5015  0.6904  1.3803
 5058SOL     OW26632   0.241   2.921   1.499 -0.6812 -0.1001 -0.1881
 5058SOL    HW126633   0.265   3.006   1.538 -0.0471  0.5840 -2.0656
 5058SOL    HW226634   0.325   2.894   1.461 -0.3325 -2.5866  2.3258
 5059SOL     OW26635   1.143   0.188   6.965 -0.8871 -0.3019  0.0703
 5059SOL    HW126636   1.127   0.157   6.875  0.3351  0.4082 -0.3807
 5059SOL    HW226637   1.208   0.122   6.988 -0.4817  0.2416  0.4496
 5060SOL     OW26638   4.188   3.618   0.315  0.1187 -0.5028  0.5104
 5060SOL    HW126639   4.204   3.541   0.368 -1.7678 -1.5439 -0.4154
 5060SOL    HW226640   4.193   3.586   0.224  0.3073 -3.8577  1.7113
 5061SOL     OW26641   2.886   0.371   2.991 -0.4322  0.4833 -0.1817
 5061SOL    HW126642   2.887   0.403   2.901  0.1475  1.1339  0.0573
 5061SOL    HW226643   2.903   0.277   2.983  2.2452  0.8877  0.6906
 5062SOL     OW26644   0.022   0.953   5.457 -0.4106  0.1859  0.1602
 5062SOL    HW126645   4.649   0.955   5.458 -0.3309  2.1001  2.3718
 5062SOL    HW226646   0.037   0.998   5.540  0.6716  0.5005 -0.2049
 5063SOL     OW26647   1.661   2.124   8.123  0.1200  0.0621 -0.3532
 5063SOL    HW126648   1.675   2.218   8.112 -1.6775  0.1928 -1.5932
 5063SOL    HW226649   1.677   2.083   8.039  1.8151  1.6593 -0.8035
 5064SOL     OW26650   0.777   4.252   6.447  0.2473  0.0853 -0.7560
 5064SOL    HW126651   0.768   4.344   6.470 -0.7888 -0.2950  0.3375
 5064SOL    HW226652   0.846   4.225   6.509  0.8259  0.7465 -1.1080
 5065SOL     OW26653   2.386   3.115   8.984  0.0843 -0.1262 -0.4212
 5065SOL    HW126654   2.303   3.101   8.939 -0.4429  1.5877  0.0275
 5065SOL    HW226655   2.352   3.158   9.063 -0.6645 -1.0357 -0.2588
 5066SOL     OW26656   0.172   3.205   4.226  0.1832  0.1414  0.5641
 5066SOL    HW126657   0.188   3.147   4.300 -1.2767  0.8023  1.4066
 5066SOL    HW226658   0.249   3.262   4.233 -0.3476  0.7532  1.3909
 5067SOL     OW26659   2.333   4.524   7.117  0.5592 -0.7631 -0.0381
 5067SOL    HW126660   2.381   4.606   7.113 -0.3937 -0.2214 -0.3049
 5067SOL    HW226661   2.350   4.512   7.210  0.0852 -2.1811 -0.1316
 5068SOL     OW26662   3.996   1.104   8.986  0.4197  0.7431  0.0298
 5068SOL    HW126663   3.917   1.133   8.941 -1.3823 -4.7462 -0.2577
 5068SOL    HW226664   4.029   1.046   8.918  0.7309 -1.8199  2.3761
 5069SOL     OW26665   1.484   1.024  15.847 -0.6344 -0.0649  0.2708
 5069SOL    HW126666   1.408   0.968  15.831  1.0824 -2.4253  0.3206
 5069SOL    HW226667   1.450   1.109  15.873  1.2211  0.3065  1.5333
 5070SOL     OW26668   4.439   0.731   4.325 -0.5556 -0.0793  0.4458
 5070SOL    HW126669   4.524   0.745   4.282 -0.4676  0.3610  0.7546
 5070SOL    HW226670   4.388   0.702   4.250  1.4872  0.1510 -1.0378
 5071SOL     OW26671   0.455   4.532   0.877 -0.0980 -0.7817 -0.8649
 5071SOL    HW126672   0.539   4.491   0.898  0.3791 -1.1724 -3.5442
 5071SOL    HW226673   0.485   4.575   0.797 -0.7829 -0.9946 -1.2304
 5072SOL     OW26674   4.581   0.214  10.149 -0.1480  0.2264  0.4535
 5072SOL    HW126675   4.529   0.295  10.153 -0.3545  0.0098  1.9640
 5072SOL    HW226676   4.660   0.240  10.196 -0.1930 -1.3665  1.3853
 5073SOL     OW26677   1.435   0.542   8.751 -0.2397  0.1139  0.0967
 5073SOL    HW126678   1.433   0.581   8.838  1.7012  0.1144  0.1381
 5073SOL    HW226679   1.477   0.608   8.696 -0.4780  0.0725 -0.1351
 5074SOL     OW26680   4.321   3.067   1.798  0.0864 -0.2210  0.3838
 5074SOL    HW126681   4.258   3.100   1.733  0.0506 -0.3467  0.3551
 5074SOL    HW226682   4.393   3.129   1.785 -0.8615  1.2859  2.2618
 5075SOL     OW26683   3.248   0.024   9.079  0.0466  0.1940 -0.4308
 5075SOL    HW126684   3.303   0.040   9.155  1.6897 -0.4572 -1.4818
 5075SOL    HW226685   3.184   0.095   9.079  1.1527  1.1991 -3.3408
 5076SOL     OW26686   0.487   2.201   2.293 -0.8039 -0.4644  0.0234
 5076SOL    HW126687   0.409   2.221   2.344 -0.9661  1.7300 -1.0877
 5076SOL    HW226688   0.472   2.107   2.283  2.0752 -0.8254 -0.7800
 5077SOL     OW26689   4.539   1.020   7.406 -0.0338 -0.4673 -0.0847
 5077SOL    HW126690   4.591   0.940   7.408  0.1163 -0.3257  1.5069
 5077SOL    HW226691   4.610   1.083   7.395 -1.3353  0.6523 -2.2229
 5078SOL     OW26692   1.163   3.345   6.731 -0.1905  0.4101 -0.1051
 5078SOL    HW126693   1.126   3.277   6.787 -0.9493 -0.2178 -1.3606
 5078SOL    HW226694   1.103   3.418   6.751  1.3067  1.2089  1.3848
 5079SOL     OW26695   0.750   0.280   8.984  0.8160 -0.3316  0.6639
 5079SOL    HW126696   0.708   0.206   8.940  0.4638 -0.1469  0.6841
 5079SOL    HW226697   0.693   0.300   9.058 -2.7094  0.2220 -2.1751
 5080SOL     OW26698   0.164   2.763   8.659 -0.0662  0.1071 -0.1407
 5080SOL    HW126699   0.171   2.708   8.737  1.4692  0.7725  0.1946
 5080SOL    HW226700   0.245   2.744   8.612 -0.1163  0.5866 -0.4253
 5081SOL     OW26701   0.423   2.217  15.332 -0.2836 -0.0520  0.0610
 5081SOL    HW126702   0.512   2.182  15.342 -2.0462 -3.8602  2.3811
 5081SOL    HW226703   0.392   2.176  15.412 -4.4627  1.7967 -0.6130
 5082SOL     OW26704   0.650   0.986   3.894  0.3961 -0.6652  0.1727
 5082SOL    HW126705   0.659   0.898   3.856 -0.1898  0.1629 -1.8706
 5082SOL    HW226706   0.738   1.008   3.925 -0.4766  0.4749  1.7816
 5083SOL     OW26707   3.005   2.863   3.779  0.3234 -0.1962 -0.4483
 5083SOL    HW126708   3.004   2.768   3.766 -0.3919 -0.1422 -0.8096
 5083SOL    HW226709   3.100   2.871   3.786  0.1906 -1.0279  2.4548
 5084SOL     OW26710   1.748   3.516   2.840 -0.4069  0.3115 -0.9814
 5084SOL    HW126711   1.834   3.532   2.801 -0.0594  0.2875 -0.2315
 5084SOL    HW226712   1.749   3.562   2.924 -1.0509 -0.2084 -0.6873
 5085SOL     OW26713   4.283   0.393   5.307 -0.0119 -0.1757 -0.6324
 5085SOL    HW126714   4.194   0.382   5.341  0.4703 -2.6087 -0.1979
 5085SOL    HW226715   4.296   0.300   5.287 -0.7870 -0.6085  0.8946
 5086SOL     OW26716   1.809   3.024   9.643 -0.4398  0.7525  0.1230
 5086SOL    HW126717   1.814   2.929   9.631  1.8592  0.7373  1.2067
 5086SOL    HW226718   1.728   3.031   9.694  0.4995  1.1517  1.5441
 5087SOL     OW26719   1.809   1.442  14.132  0.3893 -0.3217 -0.3866
 5087SOL    HW126720   1.860   1.521  14.151  0.0580 -0.5702  1.5289
 5087SOL    HW226721   1.841   1.377  14.195  1.8777  0.1300 -0.6704
 5088SOL     OW26722   1.467   4.625  14.257 -0.1662  0.6476  0.5300
 5088SOL    HW126723   1.451   4.718  14.266 -1.0163  0.7471 -2.0445
 5088SOL    HW226724   1.454   4.594  14.347  0.7892  1.2290  0.8703
 5089SOL     OW26725   1.079   4.522   5.226  0.3768  0.2469  0.6618
 5089SOL    HW126726   1.164   4.538   5.185  1.0775 -2.2584  1.1309
 5089SOL    HW226727   1.037   4.603   5.196 -1.5603  0.1342  3.0607
 5090SOL     OW26728   4.265   0.202   4.389  0.4590  0.2273  0.3734
 5090SOL    HW126729   4.212   0.153   4.452  1.6570 -3.3383 -1.3545
 5090SOL    HW226730   4.221   0.172   4.310  1.8283  0.9685 -0.6664
 5091SOL     OW26731   0.616   2.499   5.640 -0.3000  0.4705 -0.5121
 5091SOL    HW126732   0.574   2.421   5.678  1.6666  0.6134  1.9754
 5091SOL    HW226733   0.617   2.556   5.717 -1.0457  0.3911 -0.4362
 5092SOL     OW26734   1.850   3.791   3.413 -0.0344  0.1986  0.0997
 5092SOL    HW126735   1.946   3.797   3.415 -0.0345  0.2956 -0.2326
 5092SOL    HW226736   1.833   3.878   3.449  0.4438  0.6645 -0.7860
 5093SOL     OW26737   2.104   0.804  12.415  0.3398 -0.5122 -0.1053
 5093SOL    HW126738   2.090   0.834  12.504  1.9733 -0.8095  0.2461
 5093SOL    HW226739   2.190   0.763  12.427 -1.0843 -2.7903  2.2518
 5094SOL     OW26740   0.444   4.692   2.599  0.4111  0.2051 -0.7126
 5094SOL    HW126741   0.483   4.607   2.578  0.3943  0.0806 -0.2416
 5094SOL    HW226742   0.511   0.028   2.565 -1.3996  2.5876 -0.1941
 5095SOL     OW26743   4.599   0.233   5.288 -0.4072 -0.2631  0.6715
 5095SOL    HW126744   4.532   0.190   5.341 -0.0499 -0.1361  1.2266
 5095SOL    HW226745   4.643   0.163   5.241 -0.1812  0.7544 -0.6395
 5096SOL     OW26746   3.921   2.321   1.489  0.4942 -0.0283  0.0377
 5096SOL    HW126747   3.934   2.231   1.520  2.9353  0.5142  0.5782
 5096SOL    HW226748   4.002   2.356   1.525 -0.4914  1.6495  0.6371
 5097SOL     OW26749   4.215   1.226  15.765 -0.3403 -0.9508 -0.2917
 5097SOL    HW126750   4.166   1.230  15.683 -0.9774  2.1693  0.2214
 5097SOL    HW226751   4.217   1.322  15.766  0.0094 -0.9660  0.1754
 5098SOL     OW26752   3.264   1.211   5.351 -0.4187 -0.5093  0.5246
 5098SOL    HW126753   3.204   1.141   5.378 -0.8559 -0.9220 -1.4569
 5098SOL    HW226754   3.343   1.162   5.327 -0.9343 -1.7195  1.2779
 5099SOL     OW26755   2.783   4.561   3.882  0.3431  0.5359 -0.2490
 5099SOL    HW126756   2.821   4.485   3.926 -1.9545  1.3995  3.2538
 5099SOL    HW226757   2.693   4.528   3.880 -0.4938  2.7813 -0.1574
 5100SOL     OW26758   2.166   4.075   0.745  0.2308  0.3442 -0.3658
 5100SOL    HW126759   2.158   4.169   0.726  0.9441  0.5940  0.5779
 5100SOL    HW226760   2.168   4.044   0.654 -0.6368 -1.7720  0.3394
 5101SOL     OW26761   4.648   1.469   6.309 -0.6454  0.1481  0.1009
 5101SOL    HW126762   4.669   1.478   6.216 -0.1667 -0.1391  0.1844
 5101SOL    HW226763   4.659   1.558   6.342 -2.3998  1.1439 -2.0152
 5102SOL     OW26764   0.633   2.925  10.565 -0.1495  0.6024 -0.1139
 5102SOL    HW126765   0.555   2.949  10.515 -0.0413 -2.6465 -1.8623
 5102SOL    HW226766   0.611   2.834  10.581  0.5471  0.2522 -1.1424
 5103SOL     OW26767   3.575   3.988  17.388 -0.7713  0.1752  0.0218
 5103SOL    HW126768   3.480   3.990  17.376 -0.7030 -0.0657 -0.5063
 5103SOL    HW226769   3.581   4.072  17.435  0.3839 -1.4088  2.6698
 5104SOL     OW26770   2.826   1.908   5.130  0.3251  0.2699  0.2458
 5104SOL    HW126771   2.730   1.903   5.126  0.1648  3.1946  0.6978
 5104SOL    HW226772   2.831   1.846   5.203  1.8994  0.4168  0.2513
 5105SOL     OW26773   0.454   4.342   0.334 -0.3075 -0.9242  0.0715
 5105SOL    HW126774   0.456   4.437   0.341 -2.2366 -0.8517 -0.2276
 5105SOL    HW226775   0.524   4.306   0.389  0.5390  2.4419  1.1589
 5106SOL     OW26776   4.650   3.272   4.136  0.2380 -0.5867 -0.1765
 5106SOL    HW126777   0.017   3.246   4.157  0.1063 -2.2823 -1.6697
 5106SOL    HW226778   4.671   3.309   4.050 -1.2047 -2.9662 -1.5580
 5107SOL     OW26779   1.617   0.086   3.655 -0.2186  0.3555  0.6871
 5107SOL    HW126780   1.540   0.129   3.618 -0.5489 -1.4280 -0.6686
 5107SOL    HW226781   1.576   0.015   3.705  0.1896 -0.7743 -0.5885
 5108SOL     OW26782   3.604   4.528  10.918 -0.1519  0.0014 -0.4131
 5108SOL    HW126783   3.633   4.445  10.956  0.3599 -0.1965 -1.2354
 5108SOL    HW226784   3.684   4.552  10.871  0.9951  0.7790  1.9208
 5109SOL     OW26785   1.087   3.043  13.955  0.6537 -0.5895  0.1043
 5109SOL    HW126786   1.005   3.073  13.994 -0.6370 -0.2567 -2.8650
 5109SOL    HW226787   1.054   3.001  13.875 -1.2048 -3.3477  2.3112
 5110SOL     OW26788   1.624   1.335  14.791 -0.5331 -0.2780 -0.0071
 5110SOL    HW126789   1.552   1.308  14.849  0.0664 -0.4319  0.6647
 5110SOL    HW226790   1.697   1.292  14.835 -1.4487 -1.2183  0.5974
 5111SOL     OW26791   2.060   2.626   0.906  0.8016  0.2129  0.0419
 5111SOL    HW126792   2.022   2.713   0.899 -2.1539 -1.2387 -1.9371
 5111SOL    HW226793   2.041   2.584   0.822 -0.4347  0.2626  0.2935
 5112SOL     OW26794   3.282   4.461   7.927 -0.5326  0.4951  0.4901
 5112SOL    HW126795   3.369   4.450   7.889 -0.3563  2.2228  0.3863
 5112SOL    HW226796   3.292   4.553   7.952  1.0460  0.1271  1.2413
 5113SOL     OW26797   3.510   2.090   1.867 -0.0205  0.1111  0.1205
 5113SOL    HW126798   3.551   2.007   1.841  3.6331  2.2165 -0.6645
 5113SOL    HW226799   3.422   2.085   1.829 -0.7081 -1.3112  1.8755
 5114SOL     OW26800   2.127   0.054   4.721  0.3290  0.3989 -0.7693
 5114SOL    HW126801   2.164   0.036   4.808 -1.3146 -2.4582 -0.6646
 5114SOL    HW226802   2.096   0.140   4.749 -0.9725 -0.0378 -0.8980
 5115SOL     OW26803   2.674   2.116   7.300  0.9383  0.3459 -0.4071
 5115SOL    HW126804   2.616   2.133   7.226 -0.1236 -1.4571  0.0239
 5115SOL    HW226805   2.737   2.060   7.254  0.3984 -0.6135  0.0330
 5116SOL     OW26806   0.623   0.109   0.405  0.5561 -0.4265 -0.6604
 5116SOL    HW126807   0.673   0.157   0.471  1.1495  1.1742 -2.3019
 5116SOL    HW226808   0.679   0.097   0.329 -0.4641 -2.0286 -1.1651
 5117SOL     OW26809   4.529   1.289  10.878 -0.3194  0.4153 -0.0623
 5117SOL    HW126810   4.564   1.202  10.897 -0.8672  0.5226  1.4781
 5117SOL    HW226811   4.553   1.282  10.786 -1.0623  2.9641 -0.4565
 5118SOL     OW26812   2.706   0.084   6.937  0.1808 -0.2466 -0.6700
 5118SOL    HW126813   2.798   0.084   6.910  0.2889 -1.0154 -0.2982
 5118SOL    HW226814   2.690   0.178   6.937  2.9527  0.2153 -0.4273
 5119SOL     OW26815   4.667   4.651   8.013 -0.7741  0.1506 -0.0059
 5119SOL    HW126816   4.709   4.593   8.076  1.4181 -0.5666 -2.1134
 5119SOL    HW226817   4.682   4.617   7.925  0.1806  0.4980  0.0169
 5120SOL     OW26818   4.193   3.510   0.053 -0.3801  0.0719  0.5652
 5120SOL    HW126819   4.216   3.429   0.007 -2.3212  0.3837 -0.9214
 5120SOL    HW226820   4.239   3.571  17.688 -1.2174 -0.1225 -0.2975
 5121SOL     OW26821   4.014   2.401  11.433 -0.1679  0.1066  0.5377
 5121SOL    HW126822   3.989   2.371  11.520 -0.9645 -3.0624 -0.8099
 5121SOL    HW226823   3.975   2.489  11.438 -1.8119 -0.5355 -1.0029
 5122SOL     OW26824   1.956   1.743   7.422 -0.7212  0.3221  0.0531
 5122SOL    HW126825   1.961   1.802   7.498 -1.0976  0.8302 -0.3170
 5122SOL    HW226826   1.862   1.733   7.431 -0.5115 -0.8375  0.9441
 5123SOL     OW26827   1.114   0.226   1.215  0.3157  0.6263  0.4153
 5123SOL    HW126828   1.124   0.239   1.310  0.3872 -2.1081  0.7798
 5123SOL    HW226829   1.161   0.144   1.202  0.6857  0.8128  0.5784
 5124SOL     OW26830   0.012   3.326  11.166 -0.0966 -0.1459 -0.0866
 5124SOL    HW126831   0.031   3.393  11.233  1.1204 -1.3274  0.7474
 5124SOL    HW226832   4.706   3.382  11.093  3.0523 -0.1221 -1.2828
 5125SOL     OW26833   0.001   1.882   8.031 -0.2711 -0.0356  0.2885
 5125SOL    HW126834   0.088   1.896   7.993 -0.0281  0.3363  0.9825
 5125SOL    HW226835   0.011   1.813   8.097  2.3224  0.0954  0.0484
 5126SOL     OW26836   0.746   4.533   0.506  0.2275  0.2015  0.0949
 5126SOL    HW126837   0.832   4.575   0.498 -0.4204  1.2323 -1.3694
 5126SOL    HW226838   0.737   4.489   0.421  0.0748  0.4819 -0.0309
 5127SOL     OW26839   1.386   1.448   7.971  0.1687 -0.5081  0.0265
 5127SOL    HW126840   1.311   1.504   7.951  1.3407  0.9646 -0.2340
 5127SOL    HW226841   1.434   1.487   8.044  0.1156 -0.9903  0.3215
 5128SOL     OW26842   2.531   4.475   8.257 -0.0981 -0.3597  0.1921
 5128SOL    HW126843   2.498   4.522   8.334 -2.1599  0.2536 -1.0852
 5128SOL    HW226844   2.512   4.382   8.271 -2.8147 -0.1032 -1.9035
 5129SOL     OW26845   3.796   3.700   4.049  0.4016 -0.0590 -0.1366
 5129SOL    HW126846   3.760   3.649   4.122 -0.6749  1.9685  0.7635
 5129SOL    HW226847   3.889   3.687   4.070  0.0256 -0.0409  1.5201
 5130SOL     OW26848   4.230   0.447   1.886  0.7439 -0.3102  0.1638
 5130SOL    HW126849   4.190   0.363   1.863 -0.8984  0.5965 -0.3236
 5130SOL    HW226850   4.300   0.422   1.946  1.3998 -0.6571 -0.7458
 5131SOL     OW26851   1.557   2.426   8.211 -0.1993  0.1483  0.6439
 5131SOL    HW126852   1.590   2.426   8.301  1.9968  0.7644 -0.1570
 5131SOL    HW226853   1.493   2.355   8.221  0.5389 -0.4683  1.0040
 5132SOL     OW26854   1.767   1.903  12.035 -0.0875 -0.0434  0.3586
 5132SOL    HW126855   1.791   1.832  12.095 -0.1419  0.2898  0.7727
 5132SOL    HW226856   1.673   1.900  12.049 -0.1978 -1.9443 -0.7591
 5133SOL     OW26857   2.960   1.771   2.068 -0.9488  0.1368 -0.4494
 5133SOL    HW126858   2.932   1.829   2.139 -2.2403 -0.6818 -0.2780
 5133SOL    HW226859   2.879   1.758   2.018 -0.6751 -1.2833 -0.5193
 5134SOL     OW26860   2.514   0.802   6.414  0.0084  1.0122  0.0325
 5134SOL    HW126861   2.513   0.878   6.356 -0.7180  1.1472  0.2203
 5134SOL    HW226862   2.608   0.786   6.410  0.1833  2.3049 -1.0978
 5135SOL     OW26863   1.707   4.458  12.147  0.6819  0.4473 -0.0862
 5135SOL    HW126864   1.625   4.470  12.099 -0.6373 -3.6016  1.2188
 5135SOL    HW226865   1.678   4.476  12.236 -0.1251  1.7181 -0.5975
 5136SOL     OW26866   3.690   0.131  12.154  0.8121  0.8972 -0.5936
 5136SOL    HW126867   3.783   0.116  12.169  0.8235  1.4599 -0.0900
 5136SOL    HW226868   3.686   0.194  12.082  1.0025  0.0970 -1.2966
 5137SOL     OW26869   4.185   1.429  11.282  0.2463 -0.0485  0.1730
 5137SOL    HW126870   4.213   1.519  11.268 -1.8819  0.5297 -0.3755
 5137SOL    HW226871   4.194   1.422  11.377 -1.6635  0.3318  0.3829
 5138SOL     OW26872   2.341   1.769   3.888  0.0370  0.5220 -0.6470
 5138SOL    HW126873   2.416   1.783   3.946 -0.6050  1.5024 -0.0372
 5138SOL    HW226874   2.279   1.839   3.909 -1.1383 -0.1209 -2.0245
 5139SOL     OW26875   0.545   1.424   1.829 -0.0719  0.0939 -0.5098
 5139SOL    HW126876   0.534   1.449   1.737  1.6174  0.6778 -0.5542
 5139SOL    HW226877   0.517   1.497   1.884 -1.6832  0.0209 -1.2283
 5140SOL     OW26878   1.652   0.589  17.239 -0.2921 -0.4557  0.6486
 5140SOL    HW126879   1.741   0.554  17.241  0.5108  1.6074  1.2505
 5140SOL    HW226880   1.610   0.526  17.181 -1.2882  1.1080 -0.3067
 5141SOL     OW26881   4.079   1.221  11.121  0.3595 -0.6394  0.2782
 5141SOL    HW126882   4.142   1.269  11.068 -0.7691  0.4260 -0.0913
 5141SOL    HW226883   4.111   1.263  11.201  0.1269 -0.1615  0.1166
 5142SOL     OW26884   0.896   4.321   7.397 -0.3803 -0.2489 -0.3573
 5142SOL    HW126885   0.810   4.278   7.391  0.1317 -1.3970  0.4118
 5142SOL    HW226886   0.930   4.265   7.467  0.5480  0.6893 -0.0671
 5143SOL     OW26887   2.073   1.755   3.396  0.4359 -0.3256 -0.2148
 5143SOL    HW126888   2.083   1.665   3.427  0.0334 -0.2652  0.1054
 5143SOL    HW226889   2.127   1.744   3.318  0.4593 -3.0552  0.1981
 5144SOL     OW26890   2.864   2.460   4.933 -0.2010  0.1140 -0.6808
 5144SOL    HW126891   2.912   2.390   4.888 -2.0866 -0.0010 -2.5267
 5144SOL    HW226892   2.778   2.418   4.941 -0.7567  1.4352  0.2625
 5145SOL     OW26893   1.842   2.902  12.569 -0.1995  0.2129  0.2182
 5145SOL    HW126894   1.926   2.867  12.599 -0.0033 -0.1111 -0.6950
 5145SOL    HW226895   1.788   2.827  12.595 -1.3298  0.6314 -0.9203
 5146SOL     OW26896   2.427   4.591   3.210  0.1525 -0.5114  0.7747
 5146SOL    HW126897   2.404   4.640   3.131  0.0340 -1.6486  0.0925
 5146SOL    HW226898   2.481   4.517   3.182  0.4423  0.5316 -1.4474
 5147SOL     OW26899   2.885   0.610   8.223  0.0810 -0.1259 -0.1983
 5147SOL    HW126900   2.901   0.559   8.144 -0.9075  0.6746 -0.9178
 5147SOL    HW226901   2.807   0.661   8.202  1.6705  2.3037 -0.1798
 5148SOL     OW26902   2.823   0.948  13.883 -0.8073 -0.1857 -0.2766
 5148SOL    HW126903   2.763   0.886  13.841 -3.6853  3.0285 -0.8183
 5148SOL    HW226904   2.895   0.897  13.921 -0.7206 -1.3921 -2.0589
 5149SOL     OW26905   0.976   4.145   9.164 -0.2640  0.1243 -0.4255
 5149SOL    HW126906   1.037   4.217   9.147  4.7668 -3.7097  1.4321
 5149SOL    HW226907   0.987   4.108   9.251 -0.8568  0.8921 -0.0209
 5150SOL     OW26908   3.629   0.775   6.296 -0.4075 -0.1599 -0.5608
 5150SOL    HW126909   3.721   0.784   6.274 -0.5627 -0.9126 -1.5362
 5150SOL    HW226910   3.624   0.694   6.347 -0.0016  0.0355 -0.2170
 5151SOL     OW26911   3.462   1.652   3.615  0.1823  0.2904  0.0943
 5151SOL    HW126912   3.482   1.559   3.616 -3.4099 -0.4721  0.1295
 5151SOL    HW226913   3.550   1.691   3.612  1.4691 -2.5169  1.0507
 5152SOL     OW26914   1.694   1.785   9.233 -0.4454  0.2114  0.1297
 5152SOL    HW126915   1.655   1.798   9.146  0.3745 -0.8369 -0.3989
 5152SOL    HW226916   1.785   1.803   9.209 -0.6978  0.5868 -0.5313
 5153SOL     OW26917   3.584   2.245   7.207  0.4360 -0.0903  0.3296
 5153SOL    HW126918   3.576   2.338   7.186 -0.7503 -0.3283 -0.2943
 5153SOL    HW226919   3.597   2.263   7.300 -0.3185  1.7704  0.0892
 5154SOL     OW26920   0.930   0.329   0.505 -0.1397 -0.8048  0.1404
 5154SOL    HW126921   0.906   0.398   0.443  2.9047 -2.6037 -3.0936
 5154SOL    HW226922   1.020   0.301   0.486  0.5150  0.8430  0.8339
 5155SOL     OW26923   0.132   3.542   1.426  0.1425  0.4527  0.1928
 5155SOL    HW126924   0.045   3.582   1.432 -1.2519 -2.6813  0.9649
 5155SOL    HW226925   0.171   3.570   1.509 -0.0974  0.9747  0.1276
 5156SOL     OW26926   4.330   2.344   6.447  0.4539  0.4256  0.0112
 5156SOL    HW126927   4.316   2.426   6.495  2.3701  1.1317 -0.6124
 5156SOL    HW226928   4.249   2.332   6.398 -0.2175 -1.7442  1.6709
 5157SOL     OW26929   4.579   1.842   8.373  0.3718 -0.0869  0.2232
 5157SOL    HW126930   4.648   1.804   8.319  0.1320 -0.6846  0.3422
 5157SOL    HW226931   4.500   1.846   8.319 -1.3139  0.4044  2.7110
 5158SOL     OW26932   1.056   4.047   0.549 -0.7911 -0.4996 -0.0633
 5158SOL    HW126933   1.112   3.970   0.541 -1.2700 -0.9649  1.0903
 5158SOL    HW226934   1.123   4.101   0.590 -2.5126  0.4243  1.5383
 5159SOL     OW26935   1.420   3.182   9.904 -0.1677  1.0419 -0.1441
 5159SOL    HW126936   1.452   3.093   9.914  1.4267  1.6160 -0.2282
 5159SOL    HW226937   1.324   3.176   9.903 -0.1705  1.0235  0.3723
 5160SOL     OW26938   4.040   2.814   5.504 -0.6608 -0.4153 -0.0792
 5160SOL    HW126939   4.054   2.908   5.519  2.4570 -1.1863  1.8582
 5160SOL    HW226940   3.959   2.789   5.549  0.1976  0.5468  2.0026
 5161SOL     OW26941   4.629   4.578   2.425 -0.5564  0.5563 -0.0440
 5161SOL    HW126942   4.665   4.575   2.337  0.1305 -3.2664  0.3602
 5161SOL    HW226943   4.659   4.499   2.470 -0.6515 -0.7880 -2.3897
 5162SOL     OW26944   3.973   1.500   8.199  0.4854 -0.0330  0.2624
 5162SOL    HW126945   3.953   1.454   8.118  0.9269 -0.2466  0.2738
 5162SOL    HW226946   3.966   1.428   8.262  1.0724 -0.6590 -0.3848
 5163SOL     OW26947   0.474   0.648  11.403  0.0913  0.0979  0.3285
 5163SOL    HW126948   0.442   0.591  11.474 -1.6700  1.5251  0.6793
 5163SOL    HW226949   0.561   0.609  11.399  0.0983  0.5607 -3.7180
 5164SOL     OW26950   2.002   0.771   2.860  0.1565  0.2478 -0.0250
 5164SOL    HW126951   1.908   0.769   2.876  0.1403 -0.1773 -0.1811
 5164SOL    HW226952   2.011   0.737   2.771 -2.3894  0.5740 -0.3847
 5165SOL     OW26953   0.585   1.920   2.258 -0.5577  0.2724 -0.5371
 5165SOL    HW126954   0.662   1.938   2.312 -0.5000 -0.6006 -0.3170
 5165SOL    HW226955   0.613   1.978   2.187  0.9019  0.3958  0.1329
 5166SOL     OW26956   0.943   0.135  12.664 -0.5407  0.3044 -0.1141
 5166SOL    HW126957   0.893   0.059  12.636 -1.5080  0.4682  1.1187
 5166SOL    HW226958   0.931   0.176  12.578  1.1404 -1.1263 -1.0118
 5167SOL     OW26959   0.619   3.457   4.570  0.1750  0.4258  0.3978
 5167SOL    HW126960   0.621   3.372   4.526  1.6887  1.2267 -1.0783
 5167SOL    HW226961   0.711   3.463   4.596  0.5724  0.9589 -1.0720
 5168SOL     OW26962   0.449   0.817  11.892  0.0981 -0.2124 -0.3061
 5168SOL    HW126963   0.353   0.818  11.891  0.1289  1.6993 -1.6680
 5168SOL    HW226964   0.468   0.859  11.808 -0.1384  0.5772  0.0355
 5169SOL     OW26965   3.099   3.341   7.991 -0.7585 -0.3142  0.0254
 5169SOL    HW126966   3.189   3.316   7.972  0.5141  1.8113  3.3533
 5169SOL    HW226967   3.088   3.289   8.071 -3.1396  0.6186  0.3162
 5170SOL     OW26968   1.701   2.260   9.520  0.3129 -0.2254 -0.4376
 5170SOL    HW126969   1.703   2.268   9.425  2.0506  1.1884 -0.2829
 5170SOL    HW226970   1.611   2.232   9.540  0.5077 -0.7843 -0.3492
 5171SOL     OW26971   4.387   2.612   7.321 -0.5020  0.0502 -0.1124
 5171SOL    HW126972   4.406   2.677   7.389  1.7156 -1.7606  1.0206
 5171SOL    HW226973   4.395   2.655   7.236 -0.7839 -1.5510 -0.9619
 5172SOL     OW26974   2.831   4.402   4.734 -0.4178  0.0557  0.1480
 5172SOL    HW126975   2.905   4.371   4.682 -1.1482  2.9442 -2.6445
 5172SOL    HW226976   2.826   4.495   4.714  0.4970  0.0855  0.0764
 5173SOL     OW26977   0.717   2.347   6.426 -0.3600 -0.4054 -0.3935
 5173SOL    HW126978   0.687   2.381   6.341 -2.2861  0.5683  0.6735
 5173SOL    HW226979   0.811   2.342   6.411 -0.3068  1.5572 -0.6911
 5174SOL     OW26980   0.078   3.950  14.155 -0.0549 -0.2132 -0.4249
 5174SOL    HW126981   0.100   3.945  14.248 -1.6408 -1.1333 -0.1091
 5174SOL    HW226982   0.113   4.038  14.143  0.4266 -0.1349  1.5395
 5175SOL     OW26983   2.643   4.474   8.867 -0.3222 -0.4139  0.2790
 5175SOL    HW126984   2.710   4.408   8.884  0.0557  0.6262  2.9821
 5175SOL    HW226985   2.667   4.518   8.786 -1.1908 -1.7839 -0.7042
 5176SOL     OW26986   2.771   2.971   6.745 -0.9898 -0.1083  0.0524
 5176SOL    HW126987   2.714   2.972   6.669  2.1983 -1.6236 -2.3492
 5176SOL    HW226988   2.766   2.882   6.781  0.8922 -0.9726 -1.8446
 5177SOL     OW26989   3.321   2.317   2.705  0.3569 -0.5104 -0.0966
 5177SOL    HW126990   3.363   2.397   2.737  1.0970 -0.3930 -1.3756
 5177SOL    HW226991   3.396   2.280   2.659 -0.8294 -1.3378 -1.3760
 5178SOL     OW26992   4.289   1.944  16.026 -0.6846  0.4985 -0.3660
 5178SOL    HW126993   4.206   1.992  16.020 -1.0584 -0.1946 -0.6965
 5178SOL    HW226994   4.345   2.005  15.979  0.7418 -0.8812 -0.4733
 5179SOL     OW26995   4.692   3.983   8.241 -0.0123  0.0776  0.4932
 5179SOL    HW126996   4.599   4.000   8.254  0.3438  2.3464 -0.0556
 5179SOL    HW226997   0.004   3.948   8.323  0.4189 -0.7868 -0.0512
 5180SOL     OW26998   0.783   2.274  11.216 -0.0002 -0.4516  0.7118
 5180SOL    HW126999   0.784   2.205  11.282  0.7662 -0.9819  0.1496
 5180SOL    HW227000   0.821   2.231  11.139  0.9786 -0.0136  0.9521
 5181SOL     OW27001   0.797   3.925   2.946  0.8484  0.6646 -0.4081
 5181SOL    HW127002   0.859   3.886   3.008  1.5882  1.3591 -0.7060
 5181SOL    HW227003   0.804   4.020   2.955  0.6709  0.7215 -0.8692
 5182SOL     OW27004   2.515   4.239   7.970 -0.3082 -0.9164 -0.6211
 5182SOL    HW127005   2.518   4.270   7.879  1.3914  1.3777  0.2127
 5182SOL    HW227006   2.442   4.296   7.993  1.6026  1.3560 -0.1747
 5183SOL     OW27007   3.197   3.892   2.543 -0.2430 -0.5917  0.0371
 5183SOL    HW127008   3.153   3.966   2.503 -1.0014 -1.5856 -0.9771
 5183SOL    HW227009   3.194   3.826   2.473 -0.2803  1.1204 -1.5857
 5184SOL     OW27010   2.468   4.694  17.470  0.4240  0.0757  0.4278
 5184SOL    HW127011   2.409   0.014  17.408 -1.0374  0.1001  1.8251
 5184SOL    HW227012   2.544   4.713  17.416 -0.7091 -0.6005 -1.4332
 5185SOL     OW27013   4.096   3.207  10.233  0.1763 -0.7076 -0.7355
 5185SOL    HW127014   4.023   3.242  10.284  3.0629  1.3861  1.9593
 5185SOL    HW227015   4.097   3.257  10.151  1.6013 -0.2698 -0.4392
 5186SOL     OW27016   3.537   3.022   6.861 -0.8185 -0.1695  0.3299
 5186SOL    HW127017   3.577   3.028   6.947  0.5539 -0.6605 -0.2777
 5186SOL    HW227018   3.460   2.967   6.878 -0.9070 -0.2862 -0.4389
 5187SOL     OW27019   1.728   2.523   6.177  0.1100  0.1528 -0.0030
 5187SOL    HW127020   1.747   2.576   6.099  1.3630 -2.0072 -1.1510
 5187SOL    HW227021   1.673   2.452   6.145 -0.8061 -0.0194  1.8951
 5188SOL     OW27022   3.318   0.953  17.298 -0.6498 -0.0501 -0.3943
 5188SOL    HW127023   3.284   1.035  17.334 -2.1673 -1.9002  2.3440
 5188SOL    HW227024   3.396   0.941  17.351 -0.7218 -0.0597 -0.2922
 5189SOL     OW27025   3.832   0.097   5.834  0.0844  0.0287 -0.0656
 5189SOL    HW127026   3.924   0.111   5.815 -0.3797  2.1677 -0.7587
 5189SOL    HW227027   3.824   0.002   5.834  1.8817 -0.1180  2.5084
 5190SOL     OW27028   2.796   4.480   1.613  0.1852  0.0162 -0.1767
 5190SOL    HW127029   2.793   4.509   1.704  0.0549  2.3968 -0.9570
 5190SOL    HW227030   2.830   4.558   1.569  1.7656 -0.2796  0.5063
 5191SOL     OW27031   4.453   1.121   3.535  0.3770 -0.1236 -0.2120
 5191SOL    HW127032   4.383   1.058   3.520 -0.4249  0.6672  0.2745
 5191SOL    HW227033   4.520   1.052   3.524 -0.9690 -1.1207 -2.3022
 5192SOL     OW27034   0.819   0.712   5.495 -0.2900 -0.0817  0.0388
 5192SOL    HW127035   0.826   0.618   5.514 -1.1822 -0.5104 -1.7370
 5192SOL    HW227036   0.724   0.718   5.491 -0.3685 -0.7937  0.6769
 5193SOL     OW27037   3.538   0.504   7.849  0.1526  0.3889 -0.2430
 5193SOL    HW127038   3.523   0.544   7.935 -0.6009  0.3892 -0.3825
 5193SOL    HW227039   3.466   0.552   7.810 -0.9426 -0.0200  1.2425
 5194SOL     OW27040   2.656   0.255   5.548  0.0283 -0.0340 -0.2567
 5194SOL    HW127041   2.736   0.280   5.594 -0.6590  0.2213  0.7824
 5194SOL    HW227042   2.615   0.342   5.549  2.2339  0.9968  0.3718
 5195SOL     OW27043   3.918   3.199   3.696  0.0829 -0.0519  0.0400
 5195SOL    HW127044   3.902   3.294   3.696  0.4487  0.0124  1.4163
 5195SOL    HW227045   3.956   3.187   3.609 -0.0475  0.2397 -0.0590
 5196SOL     OW27046   0.204   4.174  15.178  0.2052  0.2356 -0.3391
 5196SOL    HW127047   0.193   4.081  15.162 -0.0067  0.0374  0.9621
 5196SOL    HW227048   0.228   4.191  15.269 -0.0051 -1.8737  0.0942
 5197SOL     OW27049   4.111   2.980   6.712 -0.2796 -0.4101 -0.0379
 5197SOL    HW127050   4.165   2.981   6.791  2.3966  0.6361 -1.9045
 5197SOL    HW227051   4.186   2.978   6.652 -2.7330  1.2464 -3.1564
 5198SOL     OW27052   3.621   1.799   5.725 -1.0390 -0.0593 -0.0496
 5198SOL    HW127053   3.675   1.847   5.662 -1.2598  2.2943  1.5627
 5198SOL    HW227054   3.659   1.822   5.809 -1.0367  1.4014 -0.4571
 5199SOL     OW27055   0.265   0.202  17.079 -0.1456 -0.1594  0.7475
 5199SOL    HW127056   0.314   0.277  17.110 -2.1367  1.3582  0.2304
 5199SOL    HW227057   0.288   0.131  17.138 -1.2648  0.0870  1.4777
 5200SOL     OW27058   0.162   3.103   3.836 -0.5644  0.2740 -0.3109
 5200SOL    HW127059   0.232   3.055   3.879 -0.4124  2.0357  1.4105
 5200SOL    HW227060   0.113   3.033   3.794  2.0039 -1.2066 -0.8625
 5201SOL     OW27061   1.581   4.512   9.104 -1.0863  0.1378 -0.2663
 5201SOL    HW127062   1.649   4.562   9.150  1.1229 -0.4373 -2.9234
 5201SOL    HW227063   1.503   4.549   9.146  0.0014  3.1572 -0.9756
 5202SOL     OW27064   1.309   1.902  12.000 -0.1903  0.7109 -0.0966
 5202SOL    HW127065   1.259   1.956  12.060 -0.4108  0.0525  0.3023
 5202SOL    HW227066   1.388   1.886  12.051  0.5197  0.6134 -1.2187
 5203SOL     OW27067   1.853   0.668   1.693  0.1650  0.4518  0.2131
 5203SOL    HW127068   1.872   0.608   1.765  1.0987 -2.1615 -2.2226
 5203SOL    HW227069   1.875   0.598   1.632 -1.5996  0.1499 -0.0568
 5204SOL     OW27070   2.885   0.393   6.209  0.1057  0.0279 -0.7619
 5204SOL    HW127071   2.873   0.482   6.176  0.4112  0.4709  0.3288
 5204SOL    HW227072   2.965   0.404   6.260 -0.2235 -0.2972 -0.1712
 5205SOL     OW27073   2.444   3.201   6.933  0.2169 -0.0034 -0.1616
 5205SOL    HW127074   2.501   3.255   6.988  2.0463 -0.7347 -1.3502
 5205SOL    HW227075   2.387   3.268   6.896  1.6164  0.5257 -1.3601
 5206SOL     OW27076   1.955   3.562   5.874 -0.4625 -0.0230 -0.0216
 5206SOL    HW127077   1.894   3.537   5.944 -1.6030 -1.0632 -1.3955
 5206SOL    HW227078   1.900   3.620   5.821 -0.2279 -0.0851 -0.3330
 5207SOL     OW27079   1.501   0.255  15.231 -0.0135  0.4236  0.2466
 5207SOL    HW127080   1.416   0.238  15.273 -0.6233 -0.9663 -1.5186
 5207SOL    HW227081   1.557   0.198  15.282  0.2849 -0.2715 -0.8436
 5208SOL     OW27082   0.056   1.335   3.398 -0.0197 -0.9565  0.1108
 5208SOL    HW127083   4.717   1.338   3.325  0.3173  1.2529 -0.0609
 5208SOL    HW227084   0.062   1.239   3.406  2.7635 -0.5469  3.1068
 5209SOL     OW27085   3.955   4.654  12.847 -0.0850 -0.0349 -0.1407
 5209SOL    HW127086   3.900   4.661  12.926  0.2312  1.6024 -0.0657
 5209SOL    HW227087   3.965   0.025  12.834  1.1781  0.0106  1.1681
 5210SOL     OW27088   4.211   0.253   5.963 -0.1680 -0.7832 -0.4251
 5210SOL    HW127089   4.307   0.258   5.971 -0.1931 -3.1936  1.2604
 5210SOL    HW227090   4.179   0.335   6.000 -0.5859 -0.8276 -0.6849
 5211SOL     OW27091   3.485   2.835  12.535  0.5991 -0.0311 -0.2759
 5211SOL    HW127092   3.425   2.760  12.529  1.3264 -0.6166 -0.1679
 5211SOL    HW227093   3.517   2.826  12.445  1.3309 -0.4868  0.0319
 5212SOL     OW27094   3.304   2.978   5.209  0.2253  0.3579  0.2895
 5212SOL    HW127095   3.255   2.895   5.205 -1.8573  1.6930 -1.7835
 5212SOL    HW227096   3.388   2.964   5.167 -0.5299 -1.7419 -0.5660
 5213SOL     OW27097   1.247   0.534  14.659 -0.2647  0.0683  0.5507
 5213SOL    HW127098   1.340   0.552  14.673  0.0619 -0.9465 -0.2751
 5213SOL    HW227099   1.250   0.442  14.633  0.9037  0.5233 -0.9148
 5214SOL     OW27100   2.561   0.291  15.470  0.0618 -0.2965  0.3331
 5214SOL    HW127101   2.609   0.347  15.408  1.4813 -0.7241  1.0317
 5214SOL    HW227102   2.472   0.325  15.462 -0.0605 -0.2450  1.8773
 5215SOL     OW27103   2.879   2.000  12.589  0.2163  0.4290  0.5260
 5215SOL    HW127104   2.848   1.917  12.625 -0.7027  0.5546  0.0299
 5215SOL    HW227105   2.954   2.015  12.645 -0.7699 -1.0769  2.2456
 5216SOL     OW27106   4.466   0.456  10.124  0.6446  0.0574 -0.0436
 5216SOL    HW127107   4.536   0.512  10.157  0.0538 -0.2997  1.8582
 5216SOL    HW227108   4.395   0.485  10.182 -0.5560 -0.3060 -1.3305
 5217SOL     OW27109   1.032   3.706   2.547 -0.6015 -0.2002 -0.2648
 5217SOL    HW127110   0.955   3.658   2.576 -1.4055  1.8505  0.9832
 5217SOL    HW227111   1.096   3.691   2.616 -0.7445 -2.8395 -0.7284
 5218SOL     OW27112   0.931   3.802  11.346  0.0672  0.1503 -0.0667
 5218SOL    HW127113   0.939   3.794  11.251 -2.4289 -1.4894 -0.1500
 5218SOL    HW227114   0.991   3.873  11.365 -1.5243  1.6295 -0.5199
 5219SOL     OW27115   2.451   1.407   8.430 -0.1479  0.4144 -1.0286
 5219SOL    HW127116   2.382   1.392   8.366 -0.2500 -1.1876 -0.5355
 5219SOL    HW227117   2.470   1.315   8.448 -3.0369 -0.0891 -0.6031
 5220SOL     OW27118   0.909   3.114  14.881 -0.0715  0.1753  0.8290
 5220SOL    HW127119   0.922   3.120  14.976  1.1021 -1.6535  0.7750
 5220SOL    HW227120   0.960   3.185  14.844  0.2603 -0.3561  0.2727
 5221SOL     OW27121   0.372   1.778   2.131 -0.5313 -0.2830 -0.1828
 5221SOL    HW127122   0.418   1.860   2.151 -1.1802  0.0936 -0.2163
 5221SOL    HW227123   0.362   1.746   2.221 -1.7442 -2.2471 -1.0284
 5222SOL     OW27124   1.878   3.362  10.733 -0.0807 -0.2184 -0.4798
 5222SOL    HW127125   1.795   3.352  10.779 -0.0369 -0.5229 -0.4695
 5222SOL    HW227126   1.893   3.457  10.728  1.0222 -0.3596  0.1117
 5223SOL     OW27127   3.774   2.872  13.164  0.0852 -0.0679  0.5494
 5223SOL    HW127128   3.757   2.838  13.252 -0.5900  0.3829  0.6033
 5223SOL    HW227129   3.718   2.950  13.161 -1.1880 -0.8691  3.4703
 5224SOL     OW27130   4.066   4.269   6.473  0.2991  0.4970  0.0227
 5224SOL    HW127131   3.978   4.307   6.466 -0.6785 -1.6548  0.6407
 5224SOL    HW227132   4.120   4.348   6.481 -0.7272  1.2808 -0.7899
 5225SOL     OW27133   4.668   3.901   3.544  0.3074 -0.3551  0.0405
 5225SOL    HW127134   0.028   3.948   3.552 -0.9246  1.7121  0.5476
 5225SOL    HW227135   4.610   3.951   3.601 -1.9090 -0.8494 -1.7996
 5226SOL     OW27136   0.227   4.559  13.775 -0.0304 -0.4500  0.0659
 5226SOL    HW127137   0.277   4.621  13.827  0.8586 -1.8000  0.8340
 5226SOL    HW227138   0.180   4.517  13.847  0.1219 -1.3430 -0.3524
 5227SOL     OW27139   0.203   1.351   0.545 -0.0295 -0.4337 -0.2059
 5227SOL    HW127140   0.191   1.444   0.565 -1.6915 -0.3334 -1.7357
 5227SOL    HW227141   0.114   1.319   0.563  0.5294 -2.0147 -0.2915
 5228SOL     OW27142   2.763   3.124   4.927  0.3822 -0.5212  0.1159
 5228SOL    HW127143   2.752   3.121   5.022 -1.1484  0.0587 -0.0481
 5228SOL    HW227144   2.858   3.115   4.918  0.8990  3.3432  1.7399
 5229SOL     OW27145   2.692   0.693   7.044  0.4800 -0.5858  0.4158
 5229SOL    HW127146   2.672   0.682   6.951 -1.2849  0.1050  0.7163
 5229SOL    HW227147   2.647   0.774   7.070  0.5892 -0.7482  1.1133
 5230SOL     OW27148   2.004   2.164   8.507  0.2699  0.3714  0.4881
 5230SOL    HW127149   2.056   2.114   8.570  1.7909  0.6171 -0.5950
 5230SOL    HW227150   2.014   2.115   8.425  0.3963  0.7188  0.2977
 5231SOL     OW27151   4.142   4.117   3.750 -0.4521 -0.2832 -0.1132
 5231SOL    HW127152   4.162   4.025   3.762 -1.9378 -0.7682 -1.4953
 5231SOL    HW227153   4.218   4.152   3.797  0.7977 -1.1861 -1.4912
 5232SOL     OW27154   1.893   4.527   6.288  0.0546 -0.1511  0.4656
 5232SOL    HW127155   1.900   4.591   6.218  1.1789 -1.2546 -0.4417
 5232SOL    HW227156   1.985   4.522   6.314 -0.1709  1.1414  1.5093
 5233SOL     OW27157   2.078   3.832  14.067 -0.4250 -0.0956 -0.6640
 5233SOL    HW127158   2.106   3.822  14.159 -0.0410 -0.1928 -0.7893
 5233SOL    HW227159   2.051   3.923  14.058 -0.6945 -0.0591  0.5180
 5234SOL     OW27160   1.571   0.541   3.078  0.4172 -0.6874 -0.5263
 5234SOL    HW127161   1.480   0.522   3.060  0.1717 -0.0612  0.0303
 5234SOL    HW227162   1.574   0.633   3.049  0.4545 -0.5392 -0.0599
 5235SOL     OW27163   1.718   3.588   3.497 -0.0857  0.0496  0.4048
 5235SOL    HW127164   1.771   3.652   3.449  0.4745 -1.9865 -1.6744
 5235SOL    HW227165   1.781   3.544   3.553  0.5854  1.3644  0.6791
 5236SOL     OW27166   1.265   1.106   4.968 -0.2169 -0.2650  0.4614
 5236SOL    HW127167   1.324   1.061   5.028  1.6830  1.3074 -0.2182
 5236SOL    HW227168   1.208   1.146   5.034  2.7814 -0.9121  3.4324
 5237SOL     OW27169   2.282   1.266   9.876 -0.1989  0.1566  0.4130
 5237SOL    HW127170   2.352   1.316   9.834 -1.1683  2.2660  1.3314
 5237SOL    HW227171   2.334   1.206   9.931  1.3144  1.4552  0.4109
 5238SOL     OW27172   0.199   4.142   3.987 -0.3369 -0.0615 -0.3513
 5238SOL    HW127173   0.148   4.218   3.960  0.6245  0.4999 -0.5955
 5238SOL    HW227174   0.279   4.161   3.938  0.4107  0.0171  0.8874
 5239SOL     OW27175   3.719   2.637  17.374 -0.1913  0.3065  0.8064
 5239SOL    HW127176   3.640   2.690  17.382  0.6466  2.2200 -3.5745
 5239SOL    HW227177   3.687   2.554  17.408 -0.9390  0.1227 -0.3288
 5240SOL     OW27178   0.205   2.616   7.995 -0.0330 -0.1837  0.0657
 5240SOL    HW127179   0.232   2.526   7.978  0.8758 -0.1714  1.4237
 5240SOL    HW227180   0.122   2.622   7.947  0.0635  2.4997  0.2269
 5241SOL     OW27181   2.515   4.288  13.775 -0.1437  0.3097 -0.2581
 5241SOL    HW127182   2.422   4.268  13.790  0.5645 -1.1156  2.2159
 5241SOL    HW227183   2.513   4.379  13.804 -0.0356  0.7913 -1.7534
 5242SOL     OW27184   0.740   3.306  12.728 -0.1676 -0.5608 -0.5481
 5242SOL    HW127185   0.759   3.232  12.671  0.6299 -1.6363  1.1061
 5242SOL    HW227186   0.818   3.359  12.712  0.0349 -1.3601 -2.2438
 5243SOL     OW27187   0.358   1.199   0.393  0.3334 -0.7279  0.5773
 5243SOL    HW127188   0.296   1.244   0.450  1.3635 -0.3070  1.3782
 5243SOL    HW227189   0.373   1.124   0.452 -2.6419 -2.3189 -0.6867
 5244SOL     OW27190   3.225   1.417  17.140 -0.0989  0.6606  0.8970
 5244SOL    HW127191   3.255   1.484  17.202 -0.3192  1.6299 -0.0530
 5244SOL    HW227192   3.305   1.418  17.087  0.1268 -2.8369  1.1422
 5245SOL     OW27193   2.745   4.014   6.185  0.4168  0.6530 -0.0405
 5245SOL    HW127194   2.836   3.998   6.210  0.4145 -0.5739 -0.8465
 5245SOL    HW227195   2.712   3.949   6.124  0.9310 -1.1017  1.5601
 5246SOL     OW27196   0.210   1.442   8.641  0.3079  0.5307  0.1528
 5246SOL    HW127197   0.301   1.471   8.633  0.4646  0.0757  0.2846
 5246SOL    HW227198   0.233   1.377   8.708 -0.5372  0.9315  0.8347
 5247SOL     OW27199   0.939   4.269  14.388 -0.2322  0.0384 -0.4354
 5247SOL    HW127200   0.987   4.350  14.372 -1.2054  1.1715  2.2453
 5247SOL    HW227201   1.005   4.204  14.368  1.5526  1.2187  1.5488
 5248SOL     OW27202   1.934   4.507   4.913  0.1682  0.1048  0.3446
 5248SOL    HW127203   1.983   4.539   4.990 -0.1569 -0.2217  0.6853
 5248SOL    HW227204   1.995   4.465   4.852  0.8823  2.0267 -0.2736
 5249SOL     OW27205   1.588   4.517  17.475 -0.8166 -0.2544  0.4813
 5249SOL    HW127206   1.625   4.581  17.536  1.1251 -0.6434 -0.3019
 5249SOL    HW227207   1.528   4.470  17.533 -0.0256 -0.1157  1.4214
 5250SOL     OW27208   1.411   0.698   8.363 -0.2700 -0.4882 -0.7201
 5250SOL    HW127209   1.355   0.714   8.286  0.4433  0.4716 -1.0391
 5250SOL    HW227210   1.348   0.732   8.427  1.1574 -0.4980  0.6828
 5251SOL     OW27211   4.670   1.909   3.402  0.2389 -0.0885 -0.5528
 5251SOL    HW127212   4.575   1.897   3.405  0.2916  0.1240  2.2125
 5251SOL    HW227213   4.695   1.843   3.467  0.7392  1.3943  0.7763
 5252SOL     OW27214   2.661   2.600   4.314  0.3274  0.3900  0.4088
 5252SOL    HW127215   2.714   2.521   4.317 -1.4873 -0.8389 -0.1454
 5252SOL    HW227216   2.638   2.606   4.222  0.4113 -0.7191  0.3193
 5253SOL     OW27217   1.272   0.260   9.190 -0.0228 -0.3168  0.4526
 5253SOL    HW127218   1.247   0.235   9.278  0.7474 -0.5896  0.5941
 5253SOL    HW227219   1.194   0.229   9.143  0.0464  1.4421 -0.8233
 5254SOL     OW27220   0.881   2.364   6.967  0.7041 -0.0734  0.9637
 5254SOL    HW127221   0.888   2.402   7.054 -2.2296  1.1692  0.6637
 5254SOL    HW227222   0.788   2.339   6.964  0.1330  2.1118  0.7918
 5255SOL     OW27223   1.035   1.486  10.427 -0.2749  0.0967  0.2137
 5255SOL    HW127224   1.092   1.466  10.353  0.9130  0.2194  1.0912
 5255SOL    HW227225   1.034   1.395  10.455 -0.1762  0.4276  1.2890
 5256SOL     OW27226   2.991   1.718  12.938  0.0887  0.2423 -0.2077
 5256SOL    HW127227   2.986   1.656  12.865 -0.3228  1.5126 -1.2810
 5256SOL    HW227228   3.038   1.791  12.896 -0.4369  1.1300  0.7335
 5257SOL     OW27229   0.544   3.998  11.249 -0.0045  0.6457  0.2869
 5257SOL    HW127230   0.586   3.933  11.193 -0.2266  2.5841 -2.1294
 5257SOL    HW227231   0.541   3.949  11.331 -0.0565 -1.1393 -0.7847
 5258SOL     OW27232   3.912   4.541   7.470 -0.3114  0.5727  0.5046
 5258SOL    HW127233   3.927   4.448   7.492 -1.8028  0.0112 -0.8621
 5258SOL    HW227234   3.978   4.579   7.528  2.0351  0.4867 -2.1097
 5259SOL     OW27235   2.316   2.353   8.028 -0.2764  0.1155 -0.1361
 5259SOL    HW127236   2.257   2.283   7.998 -0.9192 -0.1898  1.8150
 5259SOL    HW227237   2.263   2.414   8.081  2.1396 -1.3828  3.9603
 5260SOL     OW27238   0.384   1.316   5.604  0.5890 -0.5484 -0.3880
 5260SOL    HW127239   0.379   1.327   5.509  0.2108 -1.4327 -0.4764
 5260SOL    HW227240   0.419   1.400   5.632  0.0096  0.7079 -3.5270
 5261SOL     OW27241   2.235   1.177   5.443  0.2293  0.2902 -0.4331
 5261SOL    HW127242   2.231   1.268   5.472 -1.2364  0.8939 -2.5475
 5261SOL    HW227243   2.157   1.137   5.482  0.6955  0.4039  0.6020
 5262SOL     OW27244   2.352   4.473   2.349 -0.0400  0.5925  0.2714
 5262SOL    HW127245   2.331   4.382   2.331  0.1558  0.7689 -0.8989
 5262SOL    HW227246   2.382   4.472   2.440  1.7840  0.5517 -0.3393
 5263SOL     OW27247   0.263   0.102   2.744  0.0808  0.3921  0.4143
 5263SOL    HW127248   0.209   0.114   2.665 -2.1747 -0.7031  1.8003
 5263SOL    HW227249   0.335   0.050   2.708 -0.7352  0.5012 -1.3618
 5264SOL     OW27250   1.109   3.794   4.890  0.0561  0.0477 -0.0196
 5264SOL    HW127251   1.179   3.856   4.908 -2.1539  2.2344  1.1013
 5264SOL    HW227252   1.040   3.857   4.868 -0.1459 -1.0137 -2.4991
 5265SOL     OW27253   1.902   2.999   6.526  0.3098  0.2925 -0.2829
 5265SOL    HW127254   1.978   2.955   6.565  2.0008  0.9493 -2.8678
 5265SOL    HW227255   1.834   2.942   6.562  1.6833 -0.6986  0.7684
 5266SOL     OW27256   0.456   4.345  10.298 -0.1730 -0.0380 -0.1060
 5266SOL    HW127257   0.411   4.408  10.241 -1.2216 -0.9640 -0.2963
 5266SOL    HW227258   0.372   4.323  10.338  0.3934 -2.7084 -0.4110
 5267SOL     OW27259   2.424   1.642   3.648  0.8918 -0.3548  0.3457
 5267SOL    HW127260   2.446   1.717   3.592 -0.6351  0.4094  0.7679
 5267SOL    HW227261   2.368   1.687   3.711 -1.4683 -0.4163 -1.6608
 5268SOL     OW27262   1.632   3.216   4.142  0.2236  0.3937  0.1645
 5268SOL    HW127263   1.726   3.198   4.138 -0.1512 -1.5706  0.4249
 5268SOL    HW227264   1.626   3.300   4.188  0.8260  0.8115 -0.5239
 5269SOL     OW27265   2.758   1.348  12.714  0.5099  1.2862 -0.2128
 5269SOL    HW127266   2.767   1.255  12.731  3.5070  1.2621 -1.9146
 5269SOL    HW227267   2.769   1.347  12.619  0.3959  1.3542 -0.2270
 5270SOL     OW27268   4.085   0.747   4.280  0.7600 -0.0740  0.1512
 5270SOL    HW127269   4.086   0.673   4.218 -0.5916  0.2251 -0.2198
 5270SOL    HW227270   4.038   0.806   4.221  1.3806  0.4293  0.1573
 5271SOL     OW27271   2.446   2.878   6.573  0.6514 -0.9582 -0.5544
 5271SOL    HW127272   2.490   2.852   6.654  2.9723  0.6545 -1.2676
 5271SOL    HW227273   2.495   2.954   6.540 -0.5633  0.1805  0.2467
 5272SOL     OW27274   2.466   0.930  15.290 -0.0690  0.7329 -0.6602
 5272SOL    HW127275   2.399   0.991  15.322 -1.1098 -0.4448 -0.5982
 5272SOL    HW227276   2.416   0.855  15.259 -1.9637  2.2834 -1.3721
 5273SOL     OW27277   3.770   2.861   5.254 -0.0353 -0.3620  0.3528
 5273SOL    HW127278   3.852   2.896   5.218  0.1137 -1.0155  0.0491
 5273SOL    HW227279   3.753   2.896   5.341  0.1145  2.0551 -0.5941
 5274SOL     OW27280   0.148   1.748   5.711  0.4344 -0.2980  0.0342
 5274SOL    HW127281   0.159   1.838   5.680  0.7711 -0.4411 -0.2490
 5274SOL    HW227282   0.054   1.758   5.728  0.6879  0.5919  0.9907
 5275SOL     OW27283   2.468   1.028   5.498 -0.1102  0.2324 -0.6136
 5275SOL    HW127284   2.405   1.100   5.505  1.4265  1.4352  0.9052
 5275SOL    HW227285   2.481   1.033   5.403  0.5605  0.3534 -0.5184
 5276SOL     OW27286   4.179   3.961  15.603  0.3874  0.1167  0.6375
 5276SOL    HW127287   4.173   4.018  15.679 -1.4156 -1.3554  1.6038
 5276SOL    HW227288   4.268   3.926  15.609 -0.1004 -1.1037  0.8312
 5277SOL     OW27289   3.682   1.014   3.327 -0.2303  0.0429 -0.6473
 5277SOL    HW127290   3.653   1.103   3.307 -0.8745 -0.0179  0.0047
 5277SOL    HW227291   3.654   1.020   3.418  1.0317  0.2462 -0.2782
 5278SOL     OW27292   3.013   1.006   4.957  0.2528  0.0532  0.4653
 5278SOL    HW127293   2.936   0.999   4.901  0.2137 -1.3410  0.6907
 5278SOL    HW227294   3.039   0.915   4.969  2.9476  0.7282 -0.2312
 5279SOL     OW27295   1.466   3.658  12.763 -0.1036  0.4319 -0.0110
 5279SOL    HW127296   1.505   3.707  12.835 -0.8908 -0.4731  1.0319
 5279SOL    HW227297   1.529   3.588  12.749 -0.5336  0.5034 -2.3621
 5280SOL     OW27298   4.156   1.926   4.735  0.2793  0.1229  0.4430
 5280SOL    HW127299   4.135   1.919   4.828 -0.0976 -0.6113  0.3074
 5280SOL    HW227300   4.176   1.836   4.708 -0.4331 -0.0314  0.4346
 5281SOL     OW27301   2.373   2.446   4.388 -0.6042 -0.6053  0.1623
 5281SOL    HW127302   2.397   2.538   4.377  0.1826 -0.6672  1.3270
 5281SOL    HW227303   2.425   2.442   4.468  1.8381  3.6943 -1.1903
 5282SOL     OW27304   1.673   0.854   4.556  0.1761  0.0896 -0.0321
 5282SOL    HW127305   1.590   0.812   4.532  0.1646 -0.3211  0.7246
 5282SOL    HW227306   1.668   0.942   4.520  0.2029  0.4240  0.8076
 5283SOL     OW27307   4.011   3.772   3.356 -0.1427  0.4238  0.1889
 5283SOL    HW127308   4.090   3.803   3.400  1.1972 -1.9041 -0.5558
 5283SOL    HW227309   3.955   3.838   3.396  1.8597  2.4016 -0.2231
 5284SOL     OW27310   1.914   4.461  15.980 -0.2395  0.3521  0.1836
 5284SOL    HW127311   1.927   4.550  15.949  1.0027 -0.5446 -1.8430
 5284SOL    HW227312   2.004   4.445  16.010 -0.2382 -0.3525 -0.1859
 5285SOL     OW27313   4.013   0.064   9.386  0.2365 -0.0476 -0.3198
 5285SOL    HW127314   3.918   0.053   9.393  0.0436  1.0321 -1.3142
 5285SOL    HW227315   4.035   4.703   9.347  0.6919  0.5428 -1.3318
 5286SOL     OW27316   4.640   3.222   3.398  0.0159 -0.2886 -0.0799
 5286SOL    HW127317   4.577   3.287   3.368 -1.0579 -1.3999 -0.2075
 5286SOL    HW227318   4.717   3.240   3.343 -0.8331 -0.7008 -1.4078
 5287SOL     OW27319   0.638   2.623   7.131  0.2401  0.3133 -0.7388
 5287SOL    HW127320   0.571   2.576   7.080  0.2027 -1.3232  0.8281
 5287SOL    HW227321   0.619   2.713   7.104 -0.2183  1.3014  2.9034
 5288SOL     OW27322   1.470   3.305   5.253 -0.4405  0.1770  0.4473
 5288SOL    HW127323   1.413   3.249   5.201  1.9364 -2.5121  0.7448
 5288SOL    HW227324   1.429   3.307   5.340  0.9975 -3.8535  1.2277
 5289SOL     OW27325   0.424   2.155   5.460 -0.2188 -0.1589  0.9202
 5289SOL    HW127326   0.499   2.098   5.479  1.8363  1.7482 -1.4669
 5289SOL    HW227327   0.356   2.088   5.452 -0.4743  0.3779 -1.3395
 5290SOL     OW27328   4.650   0.784   4.494  0.0065  0.2416 -0.1114
 5290SOL    HW127329   4.685   0.711   4.444  1.5531 -0.4764  2.0185
 5290SOL    HW227330   4.574   0.802   4.439 -0.5858  1.1305  0.9890
 5291SOL     OW27331   3.367   3.236  15.786  0.7353  0.1511 -0.1018
 5291SOL    HW127332   3.427   3.305  15.816  2.2947 -1.3052  0.0738
 5291SOL    HW227333   3.373   3.163  15.848  1.2788  0.4724  0.2278
 5292SOL     OW27334   3.534   3.877   1.901  0.6349 -0.4648  0.5033
 5292SOL    HW127335   3.586   3.873   1.981 -1.5813 -1.1136  1.9039
 5292SOL    HW227336   3.533   3.784   1.876 -0.8510 -0.1732 -0.5023
 5293SOL     OW27337   2.281   4.305   0.159 -0.0117 -0.3120 -0.1552
 5293SOL    HW127338   2.283   4.231   0.219 -2.4396 -0.8699 -0.7844
 5293SOL    HW227339   2.267   4.265   0.073  0.4307 -0.3172 -0.2241
 5294SOL     OW27340   3.776   0.143   4.729 -0.2669 -0.1541  0.6113
 5294SOL    HW127341   3.814   0.059   4.758  1.0678  0.3796  0.3829
 5294SOL    HW227342   3.857   0.193   4.721  0.0430 -1.0502 -1.8587
 5295SOL     OW27343   3.890   4.261   6.936  0.1589  0.3748  0.4573
 5295SOL    HW127344   3.814   4.286   6.884  0.5918 -1.8858 -1.2773
 5295SOL    HW227345   3.852   4.206   7.005 -1.2683 -0.1106 -0.7133
 5296SOL     OW27346   0.635   4.228  16.858  0.2192 -0.3794  0.4691
 5296SOL    HW127347   0.683   4.236  16.776 -0.2674  1.3712  0.3582
 5296SOL    HW227348   0.699   4.196  16.922  1.2213 -1.6447 -1.1823
 5297SOL     OW27349   4.262   4.036   8.901 -0.0811 -0.8745 -0.2961
 5297SOL    HW127350   4.242   4.102   8.968  1.8647 -0.1259 -0.4594
 5297SOL    HW227351   4.180   3.989   8.918  0.1932 -1.3458 -0.2970
 5298SOL     OW27352   3.881   0.031   2.287  0.1207  0.4538 -0.8228
 5298SOL    HW127353   3.952   0.080   2.328  0.7229  0.0702 -1.4054
 5298SOL    HW227354   3.879   4.683   2.352 -2.8241 -1.0739 -2.5558
 5299SOL     OW27355   3.566   0.012   4.488 -0.7317 -0.3589  0.3716
 5299SOL    HW127356   3.530   0.100   4.478  0.4232 -0.1047 -1.6256
 5299SOL    HW227357   3.605   0.019   4.575  0.7081  1.8177 -0.4362
 5300SOL     OW27358   0.770   3.530  11.302  0.7561 -0.1700  0.0006
 5300SOL    HW127359   0.781   3.559  11.392  1.2128  2.2278 -0.8214
 5300SOL    HW227360   0.686   3.486  11.312 -0.3970  1.4323 -2.3609
 5301SOL     OW27361   2.999   3.701   4.308  0.5617  0.3895 -0.6986
 5301SOL    HW127362   2.981   3.776   4.253 -1.0583  0.0132 -0.6758
 5301SOL    HW227363   2.978   3.627   4.251 -0.6449  0.0098  0.2535
 5302SOL     OW27364   3.652   0.173   9.032  0.3355 -0.3915  0.0995
 5302SOL    HW127365   3.617   0.094   9.074 -0.0426  0.8892  2.2095
 5302SOL    HW227366   3.640   0.163   8.938 -2.5296 -0.3651  0.4634
 5303SOL     OW27367   0.390   2.818   6.207  0.4613 -0.0113  0.7944
 5303SOL    HW127368   0.428   2.730   6.217  0.4245 -0.2414 -1.1356
 5303SOL    HW227369   0.458   2.858   6.260 -0.2824  1.6423  0.4863
 5304SOL     OW27370   2.969   0.750   8.851 -0.1201 -0.3749 -0.0834
 5304SOL    HW127371   2.966   0.824   8.790 -2.3534  0.5917  1.2098
 5304SOL    HW227372   2.876   0.739   8.871  0.1695 -0.2886  1.3311
 5305SOL     OW27373   1.753   2.491   4.077  0.3624 -0.3392 -0.1934
 5305SOL    HW127374   1.823   2.427   4.086  2.0784  1.4195 -1.2261
 5305SOL    HW227375   1.794   2.564   4.123 -2.0226  0.4171  0.7590
 5306SOL     OW27376   3.642   3.912   4.574  0.1367 -0.5274 -0.1727
 5306SOL    HW127377   3.641   4.002   4.544  0.6039  0.1739  1.8886
 5306SOL    HW227378   3.675   3.867   4.497 -0.8741 -2.5441  0.5618
 5307SOL     OW27379   4.197   3.023   9.903  0.2136 -0.2738  0.3072
 5307SOL    HW127380   4.112   3.061   9.925 -0.5365 -0.9929 -1.3487
 5307SOL    HW227381   4.219   3.085   9.833  1.1231  0.2048  1.0259
 5308SOL     OW27382   2.812   2.697  12.660  0.1571 -0.1478 -0.0897
 5308SOL    HW127383   2.731   2.740  12.686 -0.3663 -0.6039 -0.9892
 5308SOL    HW227384   2.808   2.711  12.565  0.3238  2.8453  0.3517
 5309SOL     OW27385   2.502   0.372  10.710  0.1510 -0.5580 -0.1258
 5309SOL    HW127386   2.412   0.339  10.701 -0.0749  0.0939 -0.2550
 5309SOL    HW227387   2.481   0.448  10.765 -0.9882  0.6871 -2.2885
 5310SOL     OW27388   0.702   3.233   7.540  0.2449 -0.0322  0.1625
 5310SOL    HW127389   0.756   3.271   7.471 -0.2271  1.1317  0.4210
 5310SOL    HW227390   0.639   3.300   7.569  0.0767 -0.0762 -0.1044
 5311SOL     OW27391   4.285   4.428   4.349 -0.7536 -0.1208  0.3997
 5311SOL    HW127392   4.287   4.496   4.282  0.4433 -1.7270 -1.1756
 5311SOL    HW227393   4.350   4.468   4.406 -0.8175  1.2166 -0.4630
 5312SOL     OW27394   0.952   0.689   3.825 -0.3809  0.0614  0.6893
 5312SOL    HW127395   0.969   0.779   3.853  2.0274 -0.5261  1.0458
 5312SOL    HW227396   0.857   0.694   3.811  0.0536  0.9902 -2.0042
 5313SOL     OW27397   3.940   1.521   3.371  0.6927  0.1307 -0.9829
 5313SOL    HW127398   3.925   1.615   3.361 -1.4338 -0.2352 -1.2718
 5313SOL    HW227399   4.010   1.518   3.437 -0.5830  0.1531  0.3768
 5314SOL     OW27400   1.100   2.451   2.555 -0.0971  0.5035  0.0200
 5314SOL    HW127401   1.146   2.456   2.638 -1.7714 -0.3389  0.9936
 5314SOL    HW227402   1.137   2.533   2.521  0.3797  0.6851  0.9742
 5315SOL     OW27403   2.227   1.520  13.446  0.3319 -0.3547  0.0441
 5315SOL    HW127404   2.258   1.590  13.504  1.7114 -0.1430 -0.9462
 5315SOL    HW227405   2.165   1.560  13.384  1.7774 -1.9170 -2.4066
 5316SOL     OW27406   2.859   1.336   5.878 -0.2276 -0.1727 -0.1075
 5316SOL    HW127407   2.774   1.352   5.920 -0.4077  1.1531 -1.0015
 5316SOL    HW227408   2.910   1.402   5.926 -2.1154  1.7488 -0.7782
 5317SOL     OW27409   3.922   3.089   2.579  0.6295 -0.3422 -0.1657
 5317SOL    HW127410   3.871   3.067   2.657  1.1188 -1.6666 -0.2040
 5317SOL    HW227411   3.930   3.000   2.543 -1.3131 -1.0199  1.0988
 5318SOL     OW27412   0.182   0.865   7.910 -0.1688  0.1576  0.3360
 5318SOL    HW127413   0.184   0.854   8.005  0.4387 -0.0564  0.2972
 5318SOL    HW227414   0.096   0.905   7.893  1.2198  3.2691  0.6138
 5319SOL     OW27415   4.228   0.727   5.728  0.6745 -0.0810 -0.2130
 5319SOL    HW127416   4.147   0.718   5.678 -0.9469 -1.0041  2.5569
 5319SOL    HW227417   4.292   0.671   5.684 -1.1833 -0.9166 -1.8421
 5320SOL     OW27418   3.372   3.616   6.925  0.5860 -0.2949 -0.0598
 5320SOL    HW127419   3.357   3.622   7.019  0.2420 -0.0653 -0.1295
 5320SOL    HW227420   3.296   3.564   6.900  1.4766 -1.1427 -1.0036
 5321SOL     OW27421   2.503   2.662   8.209 -0.2506  0.0153  0.8449
 5321SOL    HW127422   2.479   2.570   8.207 -1.0136  0.1812  2.4682
 5321SOL    HW227423   2.547   2.665   8.294 -3.1942  1.8764  2.2996
 5322SOL     OW27424   2.234   1.768   0.744 -0.0655 -0.2027  0.7227
 5322SOL    HW127425   2.256   1.859   0.727 -0.9708 -0.3489 -1.2153
 5322SOL    HW227426   2.318   1.723   0.729  0.1111  0.5577 -0.5560
 5323SOL     OW27427   2.979   3.338   1.534  1.1167 -0.1481 -0.1301
 5323SOL    HW127428   2.961   3.411   1.594 -2.4639 -0.2581 -1.0644
 5323SOL    HW227429   3.063   3.376   1.507  1.9466 -2.3012 -0.5560
 5324SOL     OW27430   2.304   1.848   8.078 -0.1401 -0.2052 -0.4330
 5324SOL    HW127431   2.397   1.836   8.098 -0.4066 -1.4611  0.0814
 5324SOL    HW227432   2.280   1.901   8.154  1.5068  2.0402 -1.4828
 5325SOL     OW27433   0.448   0.065   4.088 -0.0454 -0.0742  0.0031
 5325SOL    HW127434   0.527   0.026   4.051  0.5392 -0.6609  1.8231
 5325SOL    HW227435   0.444   0.137   4.025  2.9414 -0.7229 -0.9146
 5326SOL     OW27436   3.866   1.287   2.544 -0.1922  0.3906  0.0295
 5326SOL    HW127437   3.786   1.266   2.593 -1.4336 -0.8898 -2.5899
 5326SOL    HW227438   3.919   1.315   2.619 -0.3102  1.6199 -0.3587
 5327SOL     OW27439   3.559   2.681   2.196 -0.5882  0.0397  0.2207
 5327SOL    HW127440   3.466   2.675   2.176 -0.6623  2.7447 -0.3037
 5327SOL    HW227441   3.584   2.594   2.165 -0.9870  0.8596 -2.3490
 5328SOL     OW27442   2.214   1.759   6.544 -0.1875 -0.2987 -0.0473
 5328SOL    HW127443   2.153   1.772   6.472  1.3398  0.5734 -1.1776
 5328SOL    HW227444   2.249   1.675   6.514 -3.5425 -1.9043  0.5059
 5329SOL     OW27445   2.099   4.053   8.287  0.0649  0.0543  0.4348
 5329SOL    HW127446   2.108   4.042   8.381  4.3629  0.7117  0.1205
 5329SOL    HW227447   2.114   3.962   8.262  1.7093  0.5181 -0.3027
 5330SOL     OW27448   4.203   1.697   4.385  0.3460  0.0494 -0.7904
 5330SOL    HW127449   4.255   1.698   4.466  1.0000 -2.3869 -1.1774
 5330SOL    HW227450   4.266   1.656   4.326  1.0616 -0.9033  0.6296
 5331SOL     OW27451   0.755   1.013  17.579  0.6060  0.1791  0.1594
 5331SOL    HW127452   0.736   0.991  17.670 -0.7418  0.7424  0.0097
 5331SOL    HW227453   0.814   1.088  17.586 -0.3404  1.0724 -1.6232
 5332SOL     OW27454   4.070   1.826   5.618  0.7084 -0.3673  0.3147
 5332SOL    HW127455   4.036   1.864   5.699  0.3747  1.9998 -0.9237
 5332SOL    HW227456   4.037   1.878   5.544 -0.0690  0.3831  1.1967
 5333SOL     OW27457   4.235   0.554   7.903 -0.2602  0.2949  0.0070
 5333SOL    HW127458   4.238   0.568   7.808 -0.2182  1.9785  0.2413
 5333SOL    HW227459   4.324   0.521   7.917 -0.6319 -0.6243  0.1804
 5334SOL     OW27460   3.490   2.269  15.480 -0.0672 -0.0956  0.7484
 5334SOL    HW127461   3.557   2.306  15.536  1.0508 -0.7340 -0.1576
 5334SOL    HW227462   3.454   2.353  15.451  3.2401 -0.0493 -3.3732
 5335SOL     OW27463   1.196   2.268   9.273 -0.1918 -0.2920 -0.0284
 5335SOL    HW127464   1.152   2.206   9.331  0.1673  1.3089  1.9656
 5335SOL    HW227465   1.277   2.219   9.256 -0.1772  0.3327 -1.7814
 5336SOL     OW27466   2.093   4.309   7.597  0.5812 -0.3695 -0.6403
 5336SOL    HW127467   2.161   4.336   7.659  1.9645 -1.5559 -1.6122
 5336SOL    HW227468   2.055   4.242   7.653  0.6446 -0.4996 -0.7536
 5337SOL     OW27469   0.359   2.499   4.311  0.0401  0.5417 -0.0665
 5337SOL    HW127470   0.278   2.461   4.278 -0.1927  1.5864 -0.7061
 5337SOL    HW227471   0.373   2.460   4.397 -1.5014 -1.0098 -0.5341
 5338SOL     OW27472   1.110   3.846   8.703  0.1949  0.5125 -0.1310
 5338SOL    HW127473   1.183   3.887   8.749  1.3788 -1.5840 -0.1651
 5338SOL    HW227474   1.152   3.778   8.651 -1.8124 -0.4642 -0.4819
 5339SOL     OW27475   4.693   1.548   1.752 -0.5265 -0.3262  0.0750
 5339SOL    HW127476   4.663   1.461   1.777  1.3669 -0.7462  0.9190
 5339SOL    HW227477   4.631   1.567   1.682 -1.2774  1.7710  1.2957
 5340SOL     OW27478   0.332   1.728   5.522 -0.2391 -0.2193 -0.0175
 5340SOL    HW127479   0.268   1.748   5.591 -0.9027  0.0433 -0.7224
 5340SOL    HW227480   0.417   1.727   5.568 -0.8599 -0.3182  1.1426
 5341SOL     OW27481   4.123   1.702   0.510 -0.0230 -0.1643 -0.2987
 5341SOL    HW127482   4.215   1.728   0.513 -0.2148  0.3609  1.4204
 5341SOL    HW227483   4.106   1.685   0.603  1.3819 -1.7421 -0.3344
 5342SOL     OW27484   3.644   1.292  10.643 -0.2228 -0.1873  0.0414
 5342SOL    HW127485   3.556   1.330  10.638 -0.0512  0.1910 -0.1032
 5342SOL    HW227486   3.698   1.370  10.633  0.7044 -0.7888  0.3264
 5343SOL     OW27487   0.900   0.368   3.481 -0.0434 -0.3856 -0.4849
 5343SOL    HW127488   0.833   0.420   3.524 -0.6060 -1.4549 -0.0715
 5343SOL    HW227489   0.958   0.439   3.452 -2.2605  2.0005  0.9324
 5344SOL     OW27490   4.397   4.428   2.197  0.0288 -0.2084  0.0036
 5344SOL    HW127491   4.311   4.430   2.239 -0.0649 -2.3959 -0.0618
 5344SOL    HW227492   4.452   4.373   2.252 -0.0914 -0.1696  0.1631
 5345SOL     OW27493   3.245   3.650   6.072  0.0296 -0.1546 -0.1595
 5345SOL    HW127494   3.188   3.655   6.149 -1.0256 -0.2149 -0.9558
 5345SOL    HW227495   3.259   3.742   6.048 -0.1644  0.0080  0.3334
 5346SOL     OW27496   0.148   3.630   1.994 -0.2492  0.1459  0.2757
 5346SOL    HW127497   0.121   3.720   2.010  0.0166 -0.1389  2.2302
 5346SOL    HW227498   0.241   3.648   1.983 -0.0592 -0.6531  0.5915
 5347SOL     OW27499   0.998   3.704  12.122 -0.7335  0.5133 -0.7779
 5347SOL    HW127500   0.937   3.755  12.175  0.9136  2.1685 -0.4977
 5347SOL    HW227501   1.044   3.650  12.187  1.6479  3.4081 -0.0537
 5348SOL     OW27502   3.724   0.991   0.858  0.6863  0.7539  0.0417
 5348SOL    HW127503   3.657   1.059   0.860  0.4130  0.5279 -1.7021
 5348SOL    HW227504   3.714   0.941   0.777  0.6515  1.8417 -0.6191
 5349SOL     OW27505   0.074   1.798   5.140 -0.5365 -0.2155 -0.0798
 5349SOL    HW127506   0.005   1.806   5.206 -1.4436  2.5281 -1.3299
 5349SOL    HW227507   0.156   1.792   5.189 -0.1246 -0.1309 -0.7575
 5350SOL     OW27508   4.330   2.498   3.063 -0.3146 -0.2786 -0.2077
 5350SOL    HW127509   4.284   2.545   2.993  0.4804  0.8111 -0.0031
 5350SOL    HW227510   4.406   2.471   3.011  0.3462 -0.3889  0.8232
 5351SOL     OW27511   4.326   1.870   2.216 -0.1920  0.0668 -0.0583
 5351SOL    HW127512   4.400   1.851   2.158  0.0801  1.1779 -0.0752
 5351SOL    HW227513   4.256   1.913   2.168 -1.2075 -0.6336  0.7838
 5352SOL     OW27514   1.687   1.725  17.525 -0.2753  0.5657 -0.1695
 5352SOL    HW127515   1.778   1.704  17.504  1.1182  3.4608  3.0038
 5352SOL    HW227516   1.703   1.772  17.607  1.1429  0.1206 -0.1940
 5353SOL     OW27517   1.506   0.600  14.731 -0.4621  0.0950  0.0518
 5353SOL    HW127518   1.535   0.563  14.647  0.5301  3.5520 -1.1060
 5353SOL    HW227519   1.573   0.564  14.789 -0.0950  0.0074 -0.4227
 5354SOL     OW27520   3.141   0.207  17.501  0.1132  0.3667 -0.3514
 5354SOL    HW127521   3.235   0.192  17.509  0.3065  1.2008 -1.0567
 5354SOL    HW227522   3.145   0.290  17.453 -1.9053 -0.1654 -1.4497
 5355SOL     OW27523   4.261   3.905  12.508  0.1081 -0.2246 -0.0865
 5355SOL    HW127524   4.342   3.863  12.479 -0.2421 -1.9451  1.3935
 5355SOL    HW227525   4.297   3.992  12.523 -1.2174  0.0953  1.2712
 5356SOL     OW27526   1.263   3.533  16.463 -0.2311 -0.4630  0.1919
 5356SOL    HW127527   1.170   3.536  16.441  0.1382  0.6952 -1.2577
 5356SOL    HW227528   1.310   3.530  16.379  0.2341 -0.6140  0.4582
 5357SOL     OW27529   3.546   3.114  13.792  0.7022 -0.5563 -0.0446
 5357SOL    HW127530   3.576   3.032  13.831 -1.2927 -0.2247  2.2332
 5357SOL    HW227531   3.482   3.148  13.855  0.6720 -0.5603 -0.0734
 5358SOL     OW27532   0.654   2.126   8.458 -0.1916  0.1124 -0.1551
 5358SOL    HW127533   0.561   2.104   8.456 -0.0347 -0.4970 -0.5516
 5358SOL    HW227534   0.635   2.219   8.443 -0.2894  0.2552  0.8364
 5359SOL     OW27535   4.632   2.383   5.654  0.0519 -0.0007  0.5361
 5359SOL    HW127536   4.670   2.325   5.719 -0.1755 -1.2612 -0.4437
 5359SOL    HW227537   4.562   2.324   5.624 -0.2563  1.6120 -1.8980
 5360SOL     OW27538   1.707   3.469   5.227 -0.0366 -0.0097  0.6401
 5360SOL    HW127539   1.793   3.427   5.231 -0.0167  0.1143  1.5633
 5360SOL    HW227540   1.642   3.400   5.241 -0.5836  0.3906  0.0641
 5361SOL     OW27541   0.325   1.975   5.822  0.2344  0.3521 -0.0838
 5361SOL    HW127542   0.310   2.008   5.911  1.4188  0.5830  0.0374
 5361SOL    HW227543   0.409   1.930   5.834  0.4358  1.3054  2.2647
 5362SOL     OW27544   1.014   1.199   6.945  0.0178  0.1110 -0.1630
 5362SOL    HW127545   1.084   1.243   6.993 -0.7957 -0.3953  1.5237
 5362SOL    HW227546   1.073   1.141   6.897 -1.3334 -2.6160  1.4167
 5363SOL     OW27547   3.371   1.536   2.619 -0.2398 -0.4571 -0.0230
 5363SOL    HW127548   3.455   1.512   2.658 -1.1402 -1.7932  1.0533
 5363SOL    HW227549   3.411   1.575   2.541 -0.3845 -1.5508 -0.6324
 5364SOL     OW27550   3.113   3.539   7.775  0.0095  0.0405 -0.2035
 5364SOL    HW127551   3.109   3.482   7.852 -2.1626  0.8183  0.2469
 5364SOL    HW227552   3.205   3.540   7.749  0.4759  1.0588  1.4516
 5365SOL     OW27553   4.525   4.569   9.030 -0.3463  0.0927 -0.0328
 5365SOL    HW127554   4.516   4.643   8.970 -0.5252  1.3950  1.6282
 5365SOL    HW227555   4.466   4.601   9.098 -0.1198  0.8795 -0.2084
 5366SOL     OW27556   4.238   2.711  13.056 -0.1426 -0.3022  0.0729
 5366SOL    HW127557   4.230   2.633  13.002  2.4403 -1.5081  1.4039
 5366SOL    HW227558   4.148   2.743  13.064 -0.1861 -1.0165  2.6424
 5367SOL     OW27559   3.807   4.561  12.477 -0.0302  0.3700  0.4760
 5367SOL    HW127560   3.818   4.656  12.473 -0.3644  0.3939  0.1502
 5367SOL    HW227561   3.744   4.562  12.549 -1.1700 -2.2842 -0.4673
 5368SOL     OW27562   4.025   2.481   4.003  0.3389 -0.4207 -0.1020
 5368SOL    HW127563   3.937   2.520   4.007  0.3357 -0.4376 -0.0076
 5368SOL    HW227564   4.005   2.397   4.044  1.2749 -0.9730 -0.7709
 5369SOL     OW27565   3.332   0.786   2.275  0.7706 -0.0091 -0.0961
 5369SOL    HW127566   3.319   0.818   2.365  2.6775 -0.8178  0.4696
 5369SOL    HW227567   3.314   0.864   2.223  0.6308 -0.7067 -1.0866
 5370SOL     OW27568   0.886   4.652   2.279 -0.3229 -0.2952  0.2436
 5370SOL    HW127569   0.902   0.001   2.218  0.4325  0.7667  1.7134
 5370SOL    HW227570   0.926   4.585   2.223  1.3473  0.5488  0.4220
 5371SOL     OW27571   3.113   0.340   5.572 -0.4130 -1.0632 -0.4637
 5371SOL    HW127572   3.205   0.349   5.595 -0.2141  0.3854 -1.9208
 5371SOL    HW227573   3.121   0.308   5.482  0.7842  1.2268 -1.1686
 5372SOL     OW27574   3.549   0.706   5.501 -0.1300 -0.3355 -0.0029
 5372SOL    HW127575   3.596   0.745   5.575  1.6196  0.6580 -1.6122
 5372SOL    HW227576   3.569   0.613   5.502  0.2447 -0.2447  1.2831
 5373SOL     OW27577   4.140   4.214  10.002  0.4240 -0.2198 -0.0395
 5373SOL    HW127578   4.150   4.252  10.089  1.1879 -1.0007  0.2078
 5373SOL    HW227579   4.144   4.119  10.009 -0.2435 -0.2324  0.1160
 5374SOL     OW27580   1.290   0.664   0.435  0.0519 -0.0799  0.2311
 5374SOL    HW127581   1.303   0.583   0.385 -0.7535 -0.5364  0.7470
 5374SOL    HW227582   1.273   0.623   0.520 -0.3698  1.1510  0.7414
 5375SOL     OW27583   4.510   2.738   8.678  0.2139  0.2720  0.6161
 5375SOL    HW127584   4.472   2.727   8.765 -3.4071 -1.3313 -1.1814
 5375SOL    HW227585   4.578   2.803   8.699 -1.1685  1.3956  1.6271
 5376SOL     OW27586   0.568   3.905   3.597  0.2677 -0.1229  0.2063
 5376SOL    HW127587   0.486   3.856   3.610 -0.2147  0.8265  0.7905
 5376SOL    HW227588   0.627   3.834   3.621  0.5213  0.1883  0.4978
 5377SOL     OW27589   0.583   0.247   4.504 -0.3389  0.2069 -0.2521
 5377SOL    HW127590   0.601   0.158   4.475 -0.1876  0.0988  0.1757
 5377SOL    HW227591   0.612   0.297   4.427  0.8444 -0.2915 -0.1256
 5378SOL     OW27592   2.603   2.326   9.778 -0.0468 -0.3996  0.2743
 5378SOL    HW127593   2.676   2.346   9.719  0.3702  0.7228  1.1696
 5378SOL    HW227594   2.537   2.379   9.735  1.4124  1.0103 -0.2418
 5379SOL     OW27595   2.275   2.613   6.029  0.0495 -0.5728 -0.4610
 5379SOL    HW127596   2.342   2.644   5.967  0.7407  1.4012  1.2712
 5379SOL    HW227597   2.312   2.526   6.043 -0.5079 -0.3502  2.3210
 5380SOL     OW27598   0.823   2.091  14.374  0.1041  0.5171 -0.3172
 5380SOL    HW127599   0.916   2.072  14.385  0.2347  2.0764  1.3482
 5380SOL    HW227600   0.810   2.085  14.280 -3.1418  1.1508  0.0819
 5381SOL     OW27601   4.202   3.556   3.063  0.0917  0.6512  0.0411
 5381SOL    HW127602   4.194   3.462   3.078 -1.2975  0.5181 -1.4623
 5381SOL    HW227603   4.233   3.563   2.972  0.8798  0.7542  0.3181
 5382SOL     OW27604   3.313   3.378   7.143 -0.0955 -0.3190 -0.3869
 5382SOL    HW127605   3.333   3.321   7.217 -0.4849 -0.6476 -0.5285
 5382SOL    HW227606   3.278   3.459   7.179  0.0781 -0.7648  0.7824
 5383SOL     OW27607   0.928   1.164   2.904 -0.3254  0.9733  0.2488
 5383SOL    HW127608   0.961   1.180   2.815  0.5023 -0.7961  0.2404
 5383SOL    HW227609   0.860   1.229   2.924 -1.8975 -0.6942  0.3776
 5384SOL     OW27610   0.706   2.084   6.921 -0.1374  0.2447 -0.5741
 5384SOL    HW127611   0.704   2.140   6.998 -3.7033 -0.3568 -0.2210
 5384SOL    HW227612   0.798   2.097   6.897 -0.1231 -0.1528 -0.7396
 5385SOL     OW27613   2.328   0.612   5.701  0.6819  0.3679  0.2615
 5385SOL    HW127614   2.343   0.582   5.790 -1.0892 -0.1495  0.3907
 5385SOL    HW227615   2.398   0.675   5.684  0.9045  0.8875  3.0795
 5386SOL     OW27616   2.812   1.835   7.713  0.2627  0.2132 -0.2009
 5386SOL    HW127617   2.866   1.764   7.749 -0.5871  0.3891  1.3925
 5386SOL    HW227618   2.782   1.857   7.801  0.7969  0.4914 -0.0917
 5387SOL     OW27619   0.911   3.951  13.849 -0.1573 -0.1132 -0.3656
 5387SOL    HW127620   0.903   3.916  13.938  1.4646 -0.8172 -0.5178
 5387SOL    HW227621   0.935   4.044  13.851 -1.6990  0.2657  0.9024
 5388SOL     OW27622   4.472   0.007  11.606  0.0318 -0.1419 -0.2870
 5388SOL    HW127623   4.548   4.695  11.558  0.3019 -0.4606  0.3790
 5388SOL    HW227624   4.471   4.667  11.678  0.6519  0.8725  0.5911
 5389SOL     OW27625   4.081   2.895  14.947 -0.1467  0.1836  0.6340
 5389SOL    HW127626   4.017   2.858  14.886  0.1196  0.6896  0.0390
 5389SOL    HW227627   4.080   2.977  14.896 -1.5753 -0.3736 -0.2370
 5390SOL     OW27628   3.071   2.507  13.967  0.4012 -0.6772 -0.4478
 5390SOL    HW127629   3.012   2.580  13.945  1.0008 -0.3070 -0.8379
 5390SOL    HW227630   3.129   2.562  14.020  1.6494  0.8335 -3.3749
 5391SOL     OW27631   1.245   0.175   7.359 -0.5257  0.0557  0.2117
 5391SOL    HW127632   1.324   0.168   7.412  0.1350  1.2929 -0.6186
 5391SOL    HW227633   1.188   0.239   7.401  0.4314  2.8198 -2.6758
 5392SOL     OW27634   0.536   3.277  13.476  0.6221  0.2881  0.3269
 5392SOL    HW127635   0.503   3.198  13.521 -0.5989 -0.0734 -1.2046
 5392SOL    HW227636   0.568   3.228  13.400  0.4484 -3.4074  2.6339
 5393SOL     OW27637   3.301   3.121   9.513 -0.3785 -0.1033 -0.2470
 5393SOL    HW127638   3.340   3.187   9.456  0.6060  0.1276  0.7061
 5393SOL    HW227639   3.291   3.044   9.457  0.6509 -0.0972 -0.4394
 5394SOL     OW27640   2.688   4.143   9.359 -0.0431  0.5853  0.1850
 5394SOL    HW127641   2.717   4.098   9.439 -2.2486  1.0810  1.2891
 5394SOL    HW227642   2.634   4.213   9.397 -0.4128  0.2786  0.2277
 5395SOL     OW27643   1.295   0.021   1.208  0.5035 -0.2790  0.9180
 5395SOL    HW127644   1.339   4.694   1.140 -0.1385 -0.0471  0.3410
 5395SOL    HW227645   1.378   0.054   1.243  0.2923 -0.2311  1.3841
 5396SOL     OW27646   4.522   3.628   3.757 -0.0118  0.1931 -0.0013
 5396SOL    HW127647   4.485   3.607   3.672 -2.0207 -2.0104  1.4132
 5396SOL    HW227648   4.594   3.566   3.757  0.7483  1.0603  0.3367
 5397SOL     OW27649   3.299   1.033   9.147  0.4739 -0.0615  0.0236
 5397SOL    HW127650   3.254   0.956   9.181 -0.4470 -0.0806 -1.2301
 5397SOL    HW227651   3.340   1.071   9.224  1.0743 -0.5602 -0.0505
 5398SOL     OW27652   4.335   3.972   9.662  0.4287 -0.2415 -0.1431
 5398SOL    HW127653   4.265   3.945   9.721 -0.2045  0.1887 -0.6943
 5398SOL    HW227654   4.408   3.929   9.706 -0.1560 -1.0588  0.0273
 5399SOL     OW27655   3.027   1.730   6.893 -0.1705  0.6522  0.1463
 5399SOL    HW127656   3.094   1.795   6.872 -0.7035  0.0770 -3.4215
 5399SOL    HW227657   2.951   1.782   6.920 -0.9820 -0.2620 -0.3901
 5400SOL     OW27658   3.592   0.300  13.893  0.2474 -0.1633  0.0734
 5400SOL    HW127659   3.545   0.347  13.962  1.8742  2.0242 -0.3048
 5400SOL    HW227660   3.575   0.207  13.909  1.6475 -0.2564  0.9295
 5401SOL     OW27661   3.342   1.109   4.299 -0.0214  0.0856  0.7217
 5401SOL    HW127662   3.385   1.193   4.316  1.8022  0.2574 -4.5889
 5401SOL    HW227663   3.320   1.080   4.388 -0.5325  1.2842  0.9840
 5402SOL     OW27664   1.307   2.798  15.764  0.0401 -0.7674 -0.0960
 5402SOL    HW127665   1.300   2.743  15.686  0.4278 -1.0814  0.0951
 5402SOL    HW227666   1.269   2.875  15.721  1.8984  0.1722 -0.0329
 5403SOL     OW27667   2.697   3.854   5.805 -0.2029 -0.4503 -0.3979
 5403SOL    HW127668   2.669   3.817   5.888 -1.1486  3.2892  0.9647
 5403SOL    HW227669   2.772   3.911   5.821 -0.4898 -0.1990  0.0427
 5404SOL     OW27670   3.970   2.960   9.222 -0.5532 -0.0627 -0.5232
 5404SOL    HW127671   3.882   2.994   9.239  0.1872  1.9918 -0.8568
 5404SOL    HW227672   4.014   3.045   9.224 -2.8005  1.1047 -1.0607
 5405SOL     OW27673   0.733   0.063   6.362  0.4870 -0.1508 -0.2241
 5405SOL    HW127674   0.779   4.704   6.344  0.8836 -0.4116  1.9255
 5405SOL    HW227675   0.743   0.106   6.278 -1.5495  2.0937  0.6791
 5406SOL     OW27676   0.740   4.645   8.167 -0.4311  0.5019  0.2365
 5406SOL    HW127677   0.668   4.708   8.164  0.5297  1.6199  0.5982
 5406SOL    HW227678   0.695   4.562   8.183  0.6967 -0.5036 -1.8399
 5407SOL     OW27679   2.748   1.636   4.188  0.0461  0.1523  0.2536
 5407SOL    HW127680   2.719   1.546   4.198  0.1467 -0.1637 -2.2514
 5407SOL    HW227681   2.692   1.681   4.251  0.2890  1.2357 -0.2916
 5408SOL     OW27682   1.395   0.564   1.199  0.4138  0.1982 -0.1748
 5408SOL    HW127683   1.400   0.560   1.294  0.2829  1.4272 -0.1245
 5408SOL    HW227684   1.476   0.516   1.180  0.0127 -0.0763 -1.2152
 5409SOL     OW27685   4.614   0.041   2.844  0.9426 -0.0564  0.2599
 5409SOL    HW127686   4.657   4.679   2.856  0.3727 -0.4924 -0.8440
 5409SOL    HW227687   4.583   0.032   2.754 -0.0778  1.5038  0.4592
 5410SOL     OW27688   2.788   1.164  16.499 -0.4658 -0.2022  0.3877
 5410SOL    HW127689   2.773   1.106  16.424 -0.0552  1.7462 -1.2275
 5410SOL    HW227690   2.750   1.114  16.571  3.0649 -1.9315  1.0334
 5411SOL     OW27691   3.107   1.235  12.887  0.7117 -0.3266  0.5469
 5411SOL    HW127692   3.065   1.154  12.917  0.9721 -0.4692  0.5183
 5411SOL    HW227693   3.198   1.211  12.870  0.9590  1.1906 -0.3228
 5412SOL     OW27694   2.918   1.511   2.559 -0.0486 -0.8734 -0.8395
 5412SOL    HW127695   2.934   1.567   2.635  0.0552 -0.2191 -1.3436
 5412SOL    HW227696   2.984   1.442   2.564  1.5758  0.9059  1.7734
 5413SOL     OW27697   3.402   4.256  16.349  0.2494  0.5018  0.2054
 5413SOL    HW127698   3.481   4.214  16.314 -1.0096  0.6226 -2.7844
 5413SOL    HW227699   3.340   4.197  16.306  2.4055 -1.6526  0.0623
 5414SOL     OW27700   3.336   1.741   2.887 -0.1249 -0.0829 -0.2279
 5414SOL    HW127701   3.344   1.679   2.814 -0.4777 -2.4134  1.7029
 5414SOL    HW227702   3.401   1.705   2.947  1.3527  0.6990 -1.3790
 5415SOL     OW27703   4.094   0.134   5.733 -0.2359 -0.0820  0.0431
 5415SOL    HW127704   4.129   0.070   5.796 -0.2509 -0.6202 -0.4959
 5415SOL    HW227705   4.156   0.207   5.733 -2.1921  1.5718  1.2567
 5416SOL     OW27706   0.155   3.177   4.824 -0.3927 -0.0467 -0.2756
 5416SOL    HW127707   0.249   3.189   4.841 -0.2330 -1.3104 -0.3190
 5416SOL    HW227708   0.162   3.217   4.737  0.0612  0.4903  0.0021
 5417SOL     OW27709   4.611   1.405   5.127  0.2182 -0.1812 -0.0120
 5417SOL    HW127710   4.680   1.447   5.076 -0.5975  0.6723 -0.4262
 5417SOL    HW227711   4.643   1.316   5.133  1.1298 -0.1239 -3.9621
 5418SOL     OW27712   2.458   4.288   8.808 -0.1517  0.1472  0.7101
 5418SOL    HW127713   2.377   4.275   8.857 -0.1384 -1.1361  0.3753
 5418SOL    HW227714   2.513   4.355   8.850  1.8848 -1.0534 -0.0570
 5419SOL     OW27715   0.125   1.841   4.131 -0.1221 -0.2865  0.0856
 5419SOL    HW127716   0.154   1.883   4.050  0.8665  0.0320  0.6095
 5419SOL    HW227717   0.099   1.922   4.176 -0.3337  0.1164 -0.7585
 5420SOL     OW27718   1.919   3.418   8.458  0.6172  1.3251  0.1063
 5420SOL    HW127719   1.942   3.381   8.543  0.5143 -1.1262 -0.9459
 5420SOL    HW227720   1.908   3.341   8.403 -2.0747  2.1234 -0.4939
 5421SOL     OW27721   0.749   0.120   0.164 -0.1377 -0.6006  0.1613
 5421SOL    HW127722   0.706   0.070   0.094  1.5162 -1.5345 -0.1772
 5421SOL    HW227723   0.836   0.082   0.154 -0.0487 -0.8802  2.0889
 5422SOL     OW27724   4.325   4.092  14.814  0.7363 -0.2914 -0.6687
 5422SOL    HW127725   4.253   4.066  14.871  2.7337 -1.4566  1.2952
 5422SOL    HW227726   4.294   4.059  14.730  3.2405 -0.6556 -1.4459
 5423SOL     OW27727   4.328   0.415  14.567 -0.3555  0.5594  0.6641
 5423SOL    HW127728   4.282   0.398  14.649 -0.2428 -0.4326  0.5156
 5423SOL    HW227729   4.271   0.377  14.499 -0.1823 -1.1769  1.4985
 5424SOL     OW27730   4.279   1.122   4.262 -0.2694  0.2719  1.0571
 5424SOL    HW127731   4.267   1.190   4.195  4.2244  0.7955  0.7840
 5424SOL    HW227732   4.218   1.163   4.325 -0.7132  0.2472  0.6441
 5425SOL     OW27733   4.119   1.017   4.052  0.3836 -0.0671 -0.4231
 5425SOL    HW127734   4.046   1.015   4.114  0.6901  0.6104 -0.0454
 5425SOL    HW227735   4.196   1.047   4.099 -1.0509  1.7811  0.7202
 5426SOL     OW27736   3.670   4.325   1.399  0.1902 -0.3954 -0.2656
 5426SOL    HW127737   3.580   4.300   1.380  0.8172 -1.6892 -1.5868
 5426SOL    HW227738   3.668   4.320   1.494  1.4925  1.5771 -0.1205
 5427SOL     OW27739   3.946   0.900  10.485  0.1377 -0.1573 -0.1456
 5427SOL    HW127740   3.977   0.901  10.576 -0.3373  1.1038  0.0068
 5427SOL    HW227741   3.852   0.881  10.494 -0.3451  2.3163 -0.0411
 5428SOL     OW27742   3.777   0.331   8.612 -0.5682  0.9861  0.3295
 5428SOL    HW127743   3.736   0.264   8.556 -1.7099  0.0837  2.2648
 5428SOL    HW227744   3.869   0.312   8.592 -0.9853  2.6425 -3.1310
 5429SOL     OW27745   0.503   1.199   5.864  0.1110  0.1057 -0.4314
 5429SOL    HW127746   0.559   1.252   5.808  4.8925 -3.2114  1.2266
 5429SOL    HW227747   0.449   1.268   5.904 -0.0605 -0.6278  0.6116
 5430SOL     OW27748   3.189   1.262   1.160 -0.3917  0.6925  0.1754
 5430SOL    HW127749   3.244   1.247   1.237  1.2078 -0.7573 -1.2889
 5430SOL    HW227750   3.230   1.344   1.134  1.8147 -0.5247 -0.1112
 5431SOL     OW27751   0.293   1.072   4.806 -0.5723  0.3347  0.2921
 5431SOL    HW127752   0.252   1.013   4.742  0.7032  0.0732 -0.2680
 5431SOL    HW227753   0.214   1.125   4.819 -0.1585  0.6224  1.6922
 5432SOL     OW27754   3.361   0.293   2.487  0.1444 -0.0873  0.3717
 5432SOL    HW127755   3.297   0.269   2.421  0.4543 -1.1712  0.4526
 5432SOL    HW227756   3.426   0.343   2.438  1.6375 -2.4581 -0.0449
 5433SOL     OW27757   0.044   1.568   4.098  0.6192  0.1001 -0.0341
 5433SOL    HW127758   0.116   1.533   4.046  0.5980 -0.5491  0.3620
 5433SOL    HW227759   0.075   1.656   4.117  1.6754 -0.5586  1.2955
 5434SOL     OW27760   0.764   2.011   3.303  0.1299  0.3852 -0.1605
 5434SOL    HW127761   0.674   2.044   3.302 -0.7082 -1.9351 -0.2301
 5434SOL    HW227762   0.814   2.074   3.356  0.3382 -0.1381  0.2678
 5435SOL     OW27763   0.611   4.069   9.067  0.2087  0.3647 -0.5186
 5435SOL    HW127764   0.591   4.007   9.139  2.3470  0.0934 -0.1705
 5435SOL    HW227765   0.703   4.094   9.072 -0.1869  1.4802  1.1383
 5436SOL     OW27766   1.794   2.946   7.189  0.0946  0.1814  0.1691
 5436SOL    HW127767   1.786   3.040   7.175  1.6137  0.4786  1.3576
 5436SOL    HW227768   1.843   2.969   7.268  0.1039 -2.6380  1.0124
 5437SOL     OW27769   2.642   4.373   7.361  0.9227  0.1968 -0.1987
 5437SOL    HW127770   2.692   4.314   7.417  1.6274 -0.4512 -1.5242
 5437SOL    HW227771   2.698   4.377   7.283 -2.2668  0.1610 -2.5004
 5438SOL     OW27772   1.571   4.687   0.002  0.1922  0.4802 -0.6615
 5438SOL    HW127773   1.576   0.052  17.656  0.9622  0.7743  0.0840
 5438SOL    HW227774   1.479   4.661   0.005  0.6045 -0.9336 -0.3242
 5439SOL     OW27775   1.319   0.529   1.460  0.2152  0.2195 -0.1144
 5439SOL    HW127776   1.223   0.537   1.464  0.1752 -0.7128  1.0410
 5439SOL    HW227777   1.348   0.535   1.551 -1.5654  1.2530  0.3896
 5440SOL     OW27778   2.481   1.046  13.676  0.7139 -0.2015  0.4429
 5440SOL    HW127779   2.489   0.987  13.751 -1.0967 -0.0183  0.7646
 5440SOL    HW227780   2.393   1.023  13.648  0.8805 -0.7870  0.4145
 5441SOL     OW27781   1.060   3.895   5.204  0.2622 -0.1905 -0.6758
 5441SOL    HW127782   1.030   3.826   5.145  0.5992 -0.5159 -0.4640
 5441SOL    HW227783   1.141   3.923   5.161 -0.0297  0.0001 -1.1062
 5442SOL     OW27784   1.310   1.112   4.406  0.2699 -0.0467 -0.2329
 5442SOL    HW127785   1.303   1.121   4.501 -2.1485  0.7711 -0.4792
 5442SOL    HW227786   1.324   1.018   4.392 -0.2030 -0.0133 -0.9657
 5443SOL     OW27787   3.561   1.664   8.814 -0.2896  0.2830 -0.1219
 5443SOL    HW127788   3.657   1.660   8.820 -0.5018 -2.1507  1.3962
 5443SOL    HW227789   3.545   1.742   8.868  1.1296  0.8327 -0.4785
 5444SOL     OW27790   1.073   0.803   6.932  0.1639  0.0699 -0.7565
 5444SOL    HW127791   1.106   0.766   7.014 -2.5015 -0.3955  0.0917
 5444SOL    HW227792   1.009   0.868   6.960 -0.9514 -1.1869 -0.4006
 5445SOL     OW27793   1.330   1.812   1.072 -0.1012 -0.4156  0.3375
 5445SOL    HW127794   1.396   1.880   1.085 -1.9075  1.0097  2.1418
 5445SOL    HW227795   1.256   1.866   1.045  2.1151  0.5130 -3.7595
 5446SOL     OW27796   2.970   4.041   0.555 -0.2081  0.3303  0.1966
 5446SOL    HW127797   2.922   3.963   0.581  0.2857 -0.2363 -0.5951
 5446SOL    HW227798   2.983   4.081   0.641  1.4469 -1.9651  1.0127
 5447SOL     OW27799   0.838   4.677  14.894  0.4323 -0.0170  0.3319
 5447SOL    HW127800   0.758   0.007  14.898  0.7095  0.6235 -2.7071
 5447SOL    HW227801   0.800   4.599  14.854  1.1762  0.4294 -1.2300
 5448SOL     OW27802   3.300   3.012   2.358  0.2550 -0.2389 -0.1588
 5448SOL    HW127803   3.232   2.956   2.321 -0.9336  1.8611 -1.1704
 5448SOL    HW227804   3.312   3.072   2.284  0.7282  0.7075  0.6844
 5449SOL     OW27805   4.639   1.880  11.805  0.1093 -0.4208 -0.0351
 5449SOL    HW127806   0.011   1.891  11.811  0.1220 -1.0626  0.9665
 5449SOL    HW227807   4.632   1.793  11.843  1.4351 -1.1539 -1.4856
 5450SOL     OW27808   2.597   3.107   0.738 -0.2225 -0.8311  0.1517
 5450SOL    HW127809   2.684   3.071   0.722  0.3549  0.6566 -0.0994
 5450SOL    HW227810   2.604   3.122   0.832  1.2685  0.7065 -0.2073
 5451SOL     OW27811   0.881   2.511   7.219  0.2991 -0.0476 -0.4871
 5451SOL    HW127812   0.962   2.543   7.180  0.7189 -1.7294 -1.0168
 5451SOL    HW227813   0.819   2.579   7.193  1.2914  1.0438 -0.0033
 5452SOL     OW27814   0.529   1.364   0.035 -0.5215 -0.0869 -0.0954
 5452SOL    HW127815   0.527   1.285   0.089 -1.7734  0.7866  1.1632
 5452SOL    HW227816   0.615   1.401   0.054  0.2109  0.4650 -4.4546
 5453SOL     OW27817   3.078   1.900   8.022 -0.2907  0.0724 -0.5284
 5453SOL    HW127818   3.108   1.928   8.109 -0.3658  0.9817 -0.7973
 5453SOL    HW227819   3.113   1.811   8.014 -0.9152 -0.0931 -1.3951
 5454SOL     OW27820   1.483   3.483   1.095 -0.0636  0.1924 -0.2341
 5454SOL    HW127821   1.468   3.483   1.001 -1.4521  1.6763 -0.0179
 5454SOL    HW227822   1.446   3.564   1.130 -2.8859 -1.7131  1.1816
 5455SOL     OW27823   2.071   1.014   7.445  0.2812  0.1112  0.1720
 5455SOL    HW127824   2.110   0.927   7.440  0.8515  0.3604  0.2285
 5455SOL    HW227825   2.033   1.017   7.533 -0.6187 -2.2082 -0.1341
 5456SOL     OW27826   1.052   0.743   2.813  0.1348  0.1713  0.1921
 5456SOL    HW127827   0.985   0.811   2.806  2.0148  1.9154 -0.5060
 5456SOL    HW227828   1.093   0.759   2.898 -1.9716  0.3181  1.1852
 5457SOL     OW27829   3.309   0.735   0.731 -1.0077 -0.0914  0.2856
 5457SOL    HW127830   3.282   0.650   0.766  3.2960 -3.1554 -3.7296
 5457SOL    HW227831   3.276   0.719   0.642 -2.5748  3.5300  0.1978
 5458SOL     OW27832   0.208   1.896   3.690  0.4230  0.1015 -0.2411
 5458SOL    HW127833   0.253   1.952   3.627 -0.3053  0.4248 -0.4787
 5458SOL    HW227834   0.175   1.824   3.636 -0.1306 -0.8879  1.3963
 5459SOL     OW27835   0.995   3.861  10.457 -0.4950  0.3591  0.6673
 5459SOL    HW127836   0.911   3.887  10.496 -0.6625 -0.0144  0.5666
 5459SOL    HW227837   1.054   3.898  10.522 -1.0969  0.4317  1.1735
 5460SOL     OW27838   4.116   2.255   5.613  0.4643 -0.1091  0.0777
 5460SOL    HW127839   4.075   2.244   5.528 -2.5622  0.8739  1.4153
 5460SOL    HW227840   4.051   2.238   5.681  1.3554 -0.9780  0.7123
 5461SOL     OW27841   2.779   2.247   3.723  0.3284  0.1854 -0.4575
 5461SOL    HW127842   2.753   2.325   3.674 -1.7165  0.4509  1.0532
 5461SOL    HW227843   2.825   2.287   3.797  1.4167 -0.3924 -0.8182
 5462SOL     OW27844   4.432   0.088   6.275 -0.2549  0.6856 -0.2933
 5462SOL    HW127845   4.380   0.168   6.279  1.0497  1.5112  0.3070
 5462SOL    HW227846   4.491   0.089   6.351 -2.3637  1.1501  1.3446
 5463SOL     OW27847   1.484   3.470   7.756  0.4617 -1.2598  0.2519
 5463SOL    HW127848   1.456   3.543   7.812 -0.8369 -0.4380 -1.4971
 5463SOL    HW227849   1.400   3.457   7.711  0.9942 -1.4982 -0.6570
 5464SOL     OW27850   3.766   0.107   1.145 -0.7039 -0.4196 -0.0808
 5464SOL    HW127851   3.801   0.143   1.226  1.7760  1.8905 -2.2141
 5464SOL    HW227852   3.685   0.062   1.170 -1.1720 -0.4601 -1.6622
 5465SOL     OW27853   2.886   2.150   2.050 -0.3453 -0.2634 -0.6857
 5465SOL    HW127854   2.854   2.095   1.979 -1.7084  1.4067 -1.3694
 5465SOL    HW227855   2.909   2.085   2.116 -0.3736  0.9238  0.4933
 5466SOL     OW27856   4.049   3.884   2.263  0.0290 -0.0153 -0.3560
 5466SOL    HW127857   4.101   3.896   2.343 -1.1204 -0.9041  0.5296
 5466SOL    HW227858   3.991   3.960   2.264  0.8178  0.5648  0.9604
 5467SOL     OW27859   3.419   3.482   7.695 -0.1620  0.5242 -0.3548
 5467SOL    HW127860   3.485   3.443   7.637 -2.3761 -1.5461 -1.5199
 5467SOL    HW227861   3.415   3.407   7.754 -0.9953  0.3218 -0.6664
 5468SOL     OW27862   2.493   0.595   8.515  0.1744  0.2156  0.3389
 5468SOL    HW127863   2.466   0.516   8.562 -0.2907 -0.8185 -1.6690
 5468SOL    HW227864   2.501   0.554   8.429  2.2048  0.2138  0.5152
 5469SOL     OW27865   1.921   3.897  10.775  0.1386 -0.5439  0.6547
 5469SOL    HW127866   2.008   3.858  10.769 -0.1771 -0.4093 -5.3387
 5469SOL    HW227867   1.932   3.990  10.791  0.4571 -0.1223 -1.9012
 5470SOL     OW27868   3.046   3.209   4.245 -0.9670 -0.0829  0.0699
 5470SOL    HW127869   3.112   3.180   4.182 -0.2376  1.5764  0.0866
 5470SOL    HW227870   3.006   3.122   4.253  0.1304 -0.4407  1.6452
 5471SOL     OW27871   3.889   3.145   4.926  0.0090  0.3770 -0.3316
 5471SOL    HW127872   3.912   3.074   4.986 -2.8980 -0.4682 -0.1988
 5471SOL    HW227873   3.797   3.161   4.948 -0.8531 -3.1269 -1.4757
 5472SOL     OW27874   0.017   2.101  16.331  0.8095 -0.5060  0.2086
 5472SOL    HW127875   0.033   2.025  16.387  2.8294 -0.4468 -0.2861
 5472SOL    HW227876   0.105   2.140  16.328  0.3427  0.5605  0.3725
 5473SOL     OW27877   1.156   2.394   7.595 -0.2626  0.5374  0.3146
 5473SOL    HW127878   1.227   2.446   7.557 -1.4738  0.4190 -2.0689
 5473SOL    HW227879   1.127   2.462   7.656 -0.0872  1.2429 -0.3923
 5474SOL     OW27880   0.213   4.140  16.456  0.0964  0.4354 -0.1606
 5474SOL    HW127881   0.302   4.109  16.438  0.1678 -0.9897  2.6448
 5474SOL    HW227882   0.178   4.063  16.500 -0.2553  0.9256  0.4251
 5475SOL     OW27883   1.855   3.004   8.523 -0.0450  0.5155 -0.0040
 5475SOL    HW127884   1.882   3.074   8.463 -1.8965  1.9802  0.8791
 5475SOL    HW227885   1.761   3.003   8.507  0.1341  0.4310 -1.0389
 5476SOL     OW27886   2.040   0.335   0.717  0.1918 -0.0960 -0.0769
 5476SOL    HW127887   2.068   0.380   0.797 -0.8377  2.0745 -0.9367
 5476SOL    HW227888   1.985   0.406   0.685 -1.1880 -0.3295  1.7295
 5477SOL     OW27889   4.340   1.821  14.209  0.1921  0.5370  0.2409
 5477SOL    HW127890   4.393   1.882  14.158 -1.8193  1.1580 -1.1073
 5477SOL    HW227891   4.344   1.861  14.295  0.2452  1.1652 -0.0531
 5478SOL     OW27892   4.163   2.721   3.999 -0.3972  0.4502 -0.1697
 5478SOL    HW127893   4.248   2.682   4.015 -0.0008  1.0651 -0.7527
 5478SOL    HW227894   4.107   2.645   4.012 -0.1178 -0.0109 -1.6762
 5479SOL     OW27895   1.691   4.223   8.263 -0.3381 -0.0436  0.2729
 5479SOL    HW127896   1.618   4.227   8.325 -1.2142  1.1133 -0.8348
 5479SOL    HW227897   1.748   4.284   8.310 -0.0704  0.1416 -0.2903
 5480SOL     OW27898   4.704   2.867   6.380  0.7436 -0.4480 -0.5624
 5480SOL    HW127899   4.625   2.911   6.349 -0.3211 -0.7978  1.7098
 5480SOL    HW227900   0.050   2.921   6.340  0.3792  0.2557 -0.2288
 5481SOL     OW27901   3.914   4.498   8.375 -0.1472 -0.5127  0.7381
 5481SOL    HW127902   3.918   4.407   8.346 -2.1368 -0.8458  1.5453
 5481SOL    HW227903   3.943   4.481   8.464  1.3277  1.5965  0.6666
 5482SOL     OW27904   2.498   2.566   9.212 -0.2154 -0.8963  0.1438
 5482SOL    HW127905   2.455   2.631   9.156  1.2871  0.5366  0.6492
 5482SOL    HW227906   2.554   2.521   9.149  0.9114  0.3164  0.2741
 5483SOL     OW27907   4.062   3.221  12.507  0.3758 -0.1461 -0.0696
 5483SOL    HW127908   4.101   3.289  12.562 -0.5942 -2.3080  3.2268
 5483SOL    HW227909   4.115   3.212  12.427  2.3573 -0.0033  1.2351
 5484SOL     OW27910   3.573   4.317   6.927 -0.1715 -1.4361  0.0404
 5484SOL    HW127911   3.587   4.256   6.855  0.1630 -2.1258  0.6845
 5484SOL    HW227912   3.562   4.256   7.000 -2.0537  0.4102  1.3282
 5485SOL     OW27913   3.072   4.704   7.162  0.4653 -0.2040 -0.1795
 5485SOL    HW127914   3.044   4.671   7.247  0.5544 -0.8866 -0.4175
 5485SOL    HW227915   3.114   0.065   7.183 -1.3500  0.5729  0.3292
 5486SOL     OW27916   3.760   2.188   5.930  0.3788 -0.3444 -0.4337
 5486SOL    HW127917   3.672   2.192   5.892  1.0339  2.3822 -1.6906
 5486SOL    HW227918   3.767   2.275   5.970 -0.0482 -1.6045  2.3494
 5487SOL     OW27919   1.748   2.870   6.083 -0.3706 -0.4929  0.2720
 5487SOL    HW127920   1.725   2.870   6.176 -2.3966 -0.2634 -0.2221
 5487SOL    HW227921   1.827   2.925   6.090  0.7800 -2.0366 -0.6472
 5488SOL     OW27922   3.668   1.033  10.697 -0.2914  0.2646  0.4401
 5488SOL    HW127923   3.648   1.126  10.682 -2.5441 -0.3585 -0.2954
 5488SOL    HW227924   3.763   1.041  10.691 -0.4369  0.7587 -1.1475
 5489SOL     OW27925   2.084   3.197  15.501 -0.1638 -0.0296  0.0793
 5489SOL    HW127926   2.057   3.127  15.561 -0.2602 -0.2943 -0.2725
 5489SOL    HW227927   2.027   3.189  15.425  1.5702  1.4826 -1.3851
 5490SOL     OW27928   4.197   3.216   1.580 -0.1887 -0.7199 -0.5944
 5490SOL    HW127929   4.177   3.189   1.490 -3.4436  1.4063 -0.5063
 5490SOL    HW227930   4.264   3.283   1.568 -0.4047 -0.4292 -0.1933
 5491SOL     OW27931   1.466   2.722   5.821  0.1347 -0.3789  0.6653
 5491SOL    HW127932   1.459   2.816   5.835  0.3944 -0.1853 -0.5428
 5491SOL    HW227933   1.557   2.700   5.841  0.7137  1.9006  0.4691
 5492SOL     OW27934   3.337   2.921   7.216 -0.7241 -0.6460 -0.1537
 5492SOL    HW127935   3.387   2.980   7.272  0.4198 -0.6514 -1.1741
 5492SOL    HW227936   3.376   2.835   7.230  0.8854 -0.0086 -0.7577
 5493SOL     OW27937   3.500   0.700  13.881 -0.4759 -0.5044 -0.1394
 5493SOL    HW127938   3.570   0.643  13.913  0.4291  0.2748 -0.7349
 5493SOL    HW227939   3.545   0.781  13.858  0.4946 -1.2054 -0.6708
 5494SOL     OW27940   0.842   1.847  15.280 -0.4473  0.1899 -0.4221
 5494SOL    HW127941   0.814   1.860  15.371 -1.2193 -0.0280 -0.6307
 5494SOL    HW227942   0.923   1.900  15.278 -1.1840  1.3139 -0.5405
 5495SOL     OW27943   1.699   2.325  14.402  0.4175 -0.3904 -0.2291
 5495SOL    HW127944   1.655   2.368  14.329 -1.1995 -1.0435  0.3748
 5495SOL    HW227945   1.769   2.388  14.423 -2.9867  2.3846  2.8347
 5496SOL     OW27946   3.459   1.471   7.940  0.4260  0.4991 -0.4837
 5496SOL    HW127947   3.441   1.523   8.018  1.4971 -2.7393  1.9556
 5496SOL    HW227948   3.420   1.520   7.868  0.7736  0.3731 -0.7597
 5497SOL     OW27949   0.252   0.053   4.568 -0.3439 -0.3711  0.3014
 5497SOL    HW127950   0.273   0.070   4.476 -0.5010 -1.4405  0.0778
 5497SOL    HW227951   0.304   4.696   4.565  2.1374  1.2320  0.1094
 5498SOL     OW27952   0.422   0.519  16.417  0.2999 -0.5824  0.3337
 5498SOL    HW127953   0.386   0.559  16.496  0.7175  0.3911  0.0316
 5498SOL    HW227954   0.356   0.544  16.353  0.8701  1.7263  0.6540
 5499SOL     OW27955   2.149   2.172   1.788 -0.7514 -0.1932  0.2146
 5499SOL    HW127956   2.197   2.128   1.718 -0.8898  2.4392 -1.5308
 5499SOL    HW227957   2.061   2.153   1.755 -1.1758  0.7572  0.7860
 5500SOL     OW27958   0.381   2.074  15.563  0.4084  0.2221 -0.2919
 5500SOL    HW127959   0.340   1.995  15.528 -1.4563  1.6364 -1.3002
 5500SOL    HW227960   0.385   2.048  15.655 -1.5240 -2.1709 -0.8674
 5501SOL     OW27961   0.837   2.093  11.481  0.2201  0.2685  0.2287
 5501SOL    HW127962   0.776   2.040  11.429  1.4786 -3.0970  2.1687
 5501SOL    HW227963   0.871   2.029  11.544  1.8932  2.2151  1.3165
 5502SOL     OW27964   3.701   2.605   2.666 -0.2078 -0.2571 -0.0116
 5502SOL    HW127965   3.700   2.635   2.576  1.0155 -1.1152 -0.3120
 5502SOL    HW227966   3.653   2.523   2.655 -3.1354  1.3544  0.7607
 5503SOL     OW27967   4.534   3.872  17.145  0.2422  0.1684  0.1231
 5503SOL    HW127968   4.462   3.862  17.083 -0.5172 -0.8243  1.1492
 5503SOL    HW227969   4.588   3.942  17.109 -0.9945  1.0791  0.0254
 5504SOL     OW27970   3.946   4.509  14.356  0.0798 -0.1727 -0.2822
 5504SOL    HW127971   3.968   4.469  14.272 -2.3570 -0.7814 -0.6507
 5504SOL    HW227972   3.929   4.428  14.403 -0.4755 -0.5050 -1.0616
 5505SOL     OW27973   4.389   0.896   9.424  0.0080 -0.0094 -0.2625
 5505SOL    HW127974   4.401   0.833   9.495 -0.6441 -0.0377 -0.1799
 5505SOL    HW227975   4.474   0.941   9.425 -0.3781  0.7687 -1.5619
 5506SOL     OW27976   2.837   0.216  11.304  0.4477 -0.4740  0.2675
 5506SOL    HW127977   2.742   0.223  11.294  0.5256 -0.4385 -0.4367
 5506SOL    HW227978   2.865   0.163  11.229  0.9475  2.2422 -1.4724
 5507SOL     OW27979   1.186   3.619  16.980  0.3432 -0.5555  0.3764
 5507SOL    HW127980   1.180   3.712  17.002 -0.2298 -0.8171  1.2984
 5507SOL    HW227981   1.215   3.624  16.889 -0.8249  0.8630  0.0827
 5508SOL     OW27982   4.294   0.726  17.324  0.4496  0.8510  0.4883
 5508SOL    HW127983   4.369   0.771  17.285 -0.5342  0.0749 -2.3440
 5508SOL    HW227984   4.253   0.803  17.364 -0.4517 -0.7190  2.5899
 5509SOL     OW27985   1.150   0.200  14.192 -0.2210 -0.5684 -0.0447
 5509SOL    HW127986   1.243   0.195  14.216 -0.0835 -0.5370 -0.5543
 5509SOL    HW227987   1.134   0.294  14.196  0.7103 -0.2750 -2.9240
 5510SOL     OW27988   3.948   4.641   4.822 -0.2772  0.3231  0.8728
 5510SOL    HW127989   3.967   4.588   4.744 -1.9131 -0.3538  0.9323
 5510SOL    HW227990   4.007   4.600   4.885  1.0463 -0.6741 -1.0092
 5511SOL     OW27991   0.570   3.998  10.752  0.0595 -0.3674 -0.5269
 5511SOL    HW127992   0.489   3.947  10.755 -0.0679 -0.0003  2.7278
 5511SOL    HW227993   0.595   4.008  10.660  1.9768  1.7739  0.2285
 5512SOL     OW27994   3.830   3.239   2.376 -0.7475 -0.4334 -0.4378
 5512SOL    HW127995   3.899   3.306   2.370 -0.1736 -1.0597 -0.8181
 5512SOL    HW227996   3.856   3.193   2.456  0.0612 -0.8638 -0.9498
 5513SOL     OW27997   1.216   1.699   3.509 -0.0176 -0.2779 -0.3636
 5513SOL    HW127998   1.258   1.684   3.425 -0.2443  0.6596 -0.6505
 5513SOL    HW227999   1.290   1.727   3.563  1.2743 -2.5820 -0.9679
 5514SOL     OW28000   3.245   0.417  14.202 -0.2200  0.1622 -0.1364
 5514SOL    HW128001   3.211   0.346  14.256  0.4053 -1.6811 -2.1563
 5514SOL    HW228002   3.226   0.485  14.266  0.8688  2.0409 -1.7890
 5515SOL     OW28003   3.807   3.889   9.099  0.6113  0.6117  0.0492
 5515SOL    HW128004   3.779   3.864   9.187  0.9938 -0.2865 -0.0899
 5515SOL    HW228005   3.724   3.904   9.054  0.7525  1.1169 -0.0409
 5516SOL     OW28006   3.913   3.415  12.985 -0.4707  0.2307 -0.0510
 5516SOL    HW128007   3.836   3.472  12.993 -1.3693 -0.9637 -0.1339
 5516SOL    HW228008   3.941   3.446  12.899  3.9879  0.5178  1.5196
 5517SOL     OW28009   3.925   4.592   7.204 -0.2037 -0.2993 -0.2363
 5517SOL    HW128010   3.910   4.595   7.298  1.9403  1.4859  0.0621
 5517SOL    HW228011   3.956   4.502   7.194 -0.0036 -0.4053  1.3532
 5518SOL     OW28012   4.682   0.271  14.956  0.2642 -0.2312 -0.0059
 5518SOL    HW128013   4.681   0.361  14.924 -0.6573  0.0486  0.8419
 5518SOL    HW228014   4.648   0.281  15.045  1.9822  0.9080  0.5121
 5519SOL     OW28015   4.382   3.304  15.907 -0.4420 -0.0558  0.0117
 5519SOL    HW128016   4.326   3.304  15.830 -1.9581 -0.7261  1.1106
 5519SOL    HW228017   4.464   3.304  15.858 -1.1958 -0.1349 -1.2348
 5520SOL     OW28018   1.015   4.707   0.123 -0.3845 -0.5718  0.6420
 5520SOL    HW128019   1.039   0.027   0.041 -1.3252  1.5716  1.4821
 5520SOL    HW228020   1.002   4.620   0.086 -0.8581 -0.2009 -0.0666
 5521SOL     OW28021   1.593   0.598   6.594  0.3081 -0.5767 -0.0065
 5521SOL    HW128022   1.517   0.632   6.642  1.3673  0.9417  0.5692
 5521SOL    HW228023   1.644   0.557   6.664 -2.4965 -0.4530  2.1485
 5522SOL     OW28024   4.158   3.980  12.998 -0.1633 -0.2574 -0.4103
 5522SOL    HW128025   4.122   3.981  12.909 -0.1394  2.2348 -0.3999
 5522SOL    HW228026   4.226   4.047  12.990 -0.0395 -0.2831  0.4413
 5523SOL     OW28027   3.153   4.658   3.981 -0.1199  0.0143 -0.2120
 5523SOL    HW128028   3.177   4.720   3.912  2.2667  0.7772  1.2847
 5523SOL    HW228029   3.156   4.581   3.924 -1.0454  0.7067 -1.1973
 5524SOL     OW28030   1.172   0.498  14.212 -0.3053  0.1973 -0.1872
 5524SOL    HW128031   1.146   0.590  14.219  0.1564  0.0479  3.5124
 5524SOL    HW228032   1.207   0.505  14.123  3.3251  1.3233  1.3497
 5525SOL     OW28033   0.556   1.626   1.997  0.1753  0.3995  0.0013
 5525SOL    HW128034   0.604   1.702   1.964 -0.0771  0.5133 -0.1022
 5525SOL    HW228035   0.472   1.662   2.026 -0.4308 -1.1153  0.1357
 5526SOL     OW28036   3.270   1.377   1.480 -0.8474 -0.2452  0.0721
 5526SOL    HW128037   3.270   1.439   1.407 -2.5757  0.3527  0.5808
 5526SOL    HW228038   3.268   1.438   1.554  0.8482 -0.6805  0.4633
 5527SOL     OW28039   0.139   2.926   4.109 -0.2622 -0.0452  0.5698
 5527SOL    HW128040   0.165   3.018   4.117  1.6898 -0.3659 -1.8863
 5527SOL    HW228041   0.207   2.890   4.052 -0.3800  1.4744 -0.5376
 5528SOL     OW28042   3.325   1.925   5.554  0.2504 -0.4310 -0.4012
 5528SOL    HW128043   3.344   1.851   5.613  1.7760 -1.0172 -1.6232
 5528SOL    HW228044   3.265   1.888   5.490 -1.2912  1.9488 -0.3266
 5529SOL     OW28045   2.420   3.982   8.586  0.2753  0.2090 -0.0070
 5529SOL    HW128046   2.438   4.060   8.638 -1.2532 -0.0023  0.8265
 5529SOL    HW228047   2.453   3.912   8.643  2.2314  1.5913  0.5356
 5530SOL     OW28048   0.458   2.449   2.578 -0.0680  0.3411 -0.3220
 5530SOL    HW128049   0.471   2.539   2.606  2.5334  0.1652 -0.8878
 5530SOL    HW228050   0.425   2.453   2.488 -0.9389 -2.5039 -0.1441
 5531SOL     OW28051   3.483   1.258   9.004  0.0526  0.5808  0.2264
 5531SOL    HW128052   3.431   1.320   9.055  1.4236  3.1071 -1.4769
 5531SOL    HW228053   3.423   1.184   8.996 -0.9977  1.3223  1.0897
 5532SOL     OW28054   2.947   2.590   9.212  0.0856 -0.0179  0.2477
 5532SOL    HW128055   2.915   2.505   9.184  2.0086 -0.4829 -0.5400
 5532SOL    HW228056   2.905   2.592   9.297  1.4072 -0.2819  0.9116
 5533SOL     OW28057   1.842   1.897  15.200  1.1499  0.1442  0.4947
 5533SOL    HW128058   1.864   1.946  15.121  2.1304 -2.5079 -0.8420
 5533SOL    HW228059   1.882   1.958  15.263  2.0467 -0.6154  0.6482
 5534SOL     OW28060   0.487   1.553   7.233 -0.4870 -0.2519  0.3284
 5534SOL    HW128061   0.536   1.552   7.316  0.2020 -1.1035 -0.0856
 5534SOL    HW228062   0.396   1.544   7.261 -0.9402 -1.8344 -1.6455
 5535SOL     OW28063   3.906   0.450  16.002  0.0117 -0.6288  0.1605
 5535SOL    HW128064   3.928   0.378  15.944 -0.9790 -0.8098  0.0179
 5535SOL    HW228065   3.831   0.411  16.047  0.2231 -2.6065 -1.2141
 5536SOL     OW28066   0.487   2.583   3.389 -0.0397  0.2506 -0.0910
 5536SOL    HW128067   0.550   2.622   3.449  0.2898  0.0946 -0.3353
 5536SOL    HW228068   0.423   2.653   3.403 -1.3286 -1.3870  2.1223
 5537SOL     OW28069   1.013   1.537   1.685 -0.0267 -0.5437  0.5497
 5537SOL    HW128070   1.063   1.585   1.619 -0.3452 -1.7677 -0.5951
 5537SOL    HW228071   0.973   1.477   1.621  0.0259 -0.1476  0.1479
 5538SOL     OW28072   0.090   2.255   6.245  0.0028  0.5715 -0.3815
 5538SOL    HW128073   0.046   2.200   6.310 -0.4848 -1.4410 -2.4267
 5538SOL    HW228074   0.013   2.289   6.200 -1.7387 -0.9201  1.4379
 5539SOL     OW28075   2.533   4.157   0.019  0.6408  0.0877  0.3029
 5539SOL    HW128076   2.562   4.198  17.631  1.7209  1.0342  1.1812
 5539SOL    HW228077   2.596   4.199   0.077  0.1077 -0.1159  1.0256
 5540SOL     OW28078   0.550   3.970   9.311  0.5080  0.7647  0.3124
 5540SOL    HW128079   0.558   3.879   9.283 -1.3906  0.1668  1.7226
 5540SOL    HW228080   0.577   3.962   9.403 -1.0418 -0.2828  0.6766
 5541SOL     OW28081   1.175   0.145   9.444  0.0173  0.0392 -0.1995
 5541SOL    HW128082   1.239   0.073   9.440  0.7437  0.6553  0.4118
 5541SOL    HW228083   1.212   0.196   9.515 -0.4528 -2.2512  1.6945
 5542SOL     OW28084   0.018   2.989   6.891 -0.2320 -0.4277  0.3569
 5542SOL    HW128085   4.716   2.904   6.856 -0.1961  0.2954 -1.4231
 5542SOL    HW228086   0.062   3.030   6.817  0.0139  0.6546  1.0909
 5543SOL     OW28087   0.618   0.295  17.048  0.2910 -0.0406 -0.2630
 5543SOL    HW128088   0.667   0.273  17.128 -1.2816 -2.5626  0.0109
 5543SOL    HW228089   0.553   0.342  17.100  0.0524 -0.3097 -0.3189
 5544SOL     OW28090   1.891   3.919   9.471  0.5664  0.4548 -1.1419
 5544SOL    HW128091   1.963   3.860   9.451 -0.2566 -1.2821  0.9293
 5544SOL    HW228092   1.917   3.996   9.422  0.4441  1.0142 -0.3262
 5545SOL     OW28093   4.061   0.755   8.264 -0.1646 -0.0700  0.3718
 5545SOL    HW128094   4.060   0.673   8.214 -0.4262 -0.6900  1.3869
 5545SOL    HW228095   4.052   0.824   8.198 -0.9325 -0.5533 -0.0313
 5546SOL     OW28096   3.255   0.600   7.764  0.3902 -0.6258 -0.2525
 5546SOL    HW128097   3.293   0.626   7.680 -1.4296  0.1539 -0.8390
 5546SOL    HW228098   3.225   0.686   7.795 -0.7074 -1.2547  0.4305
 5547SOL     OW28099   0.150   1.746   9.640  0.5542  0.1416 -0.0418
 5547SOL    HW128100   0.085   1.816   9.634 -0.9351 -1.1331  1.6369
 5547SOL    HW228101   0.139   1.726   9.547 -0.6926  2.6411 -0.4134
 5548SOL     OW28102   0.245   0.537   2.538  0.9805  0.4601  0.1414
 5548SOL    HW128103   0.162   0.515   2.579  1.0879 -0.6285 -0.2344
 5548SOL    HW228104   0.277   0.609   2.593  1.0963 -0.2395  0.9937
 5549SOL     OW28105   4.452   4.117   4.034 -0.4665 -0.3326 -0.2389
 5549SOL    HW128106   4.391   4.047   4.057 -0.3805  0.5521  2.6126
 5549SOL    HW228107   4.395   4.167   3.976  0.7385  1.0579 -0.2235
 5550SOL     OW28108   2.901   3.471   5.751 -0.0367 -0.1868 -0.1463
 5550SOL    HW128109   2.853   3.532   5.695 -0.5223 -0.4971 -0.0687
 5550SOL    HW228110   2.989   3.508   5.749 -0.6929  1.3661 -0.4190
 5551SOL     OW28111   4.170   4.646   3.164 -0.0675  0.2170 -0.2668
 5551SOL    HW128112   4.108   4.689   3.223  0.4097  0.0323  0.3818
 5551SOL    HW228113   4.128   4.564   3.141  0.3447  0.0430 -0.4017
 5552SOL     OW28114   3.320   4.536   7.329  0.2514  0.1330 -0.4011
 5552SOL    HW128115   3.330   4.501   7.417 -0.1859 -0.6222 -0.6572
 5552SOL    HW228116   3.227   4.519   7.311 -0.2018  1.6440  0.5104
 5553SOL     OW28117   3.644   1.940   1.050 -0.2489 -0.3275  0.9266
 5553SOL    HW128118   3.693   1.858   1.049 -0.0979 -0.2288 -0.0949
 5553SOL    HW228119   3.706   1.996   1.096  0.2260 -0.6442  0.6764
 5554SOL     OW28120   0.178   0.215   6.241 -0.1950 -0.1747 -0.3084
 5554SOL    HW128121   0.127   0.141   6.206  0.2763 -0.2548 -0.8131
 5554SOL    HW228122   0.153   0.284   6.179  0.5544 -2.5142 -3.1968
 5555SOL     OW28123   3.416   2.277  13.249  0.0692  0.6809 -0.6140
 5555SOL    HW128124   3.363   2.331  13.307  0.2268 -0.6701  0.8012
 5555SOL    HW228125   3.389   2.307  13.162 -3.8049 -0.5972  0.1497
 5556SOL     OW28126   1.767   1.605   3.463  0.3899  0.7499 -0.1811
 5556SOL    HW128127   1.745   1.531   3.407  2.0302 -0.8408  1.2436
 5556SOL    HW228128   1.776   1.679   3.404 -0.5399  1.3954  0.5036
 5557SOL     OW28129   1.709   1.470   7.144  0.2017 -0.5227 -0.1543
 5557SOL    HW128130   1.784   1.436   7.094 -1.4166 -1.8525 -1.6854
 5557SOL    HW228131   1.725   1.563   7.158 -2.8377 -0.2205  1.3192
 5558SOL     OW28132   3.195   4.463   2.737  0.2175 -0.2799  0.0321
 5558SOL    HW128133   3.265   4.460   2.802  0.4513  0.2513 -0.1996
 5558SOL    HW228134   3.125   4.506   2.786  0.1430  0.0047 -0.3174
 5559SOL     OW28135   0.971   2.360   9.204 -0.2561  0.0538  0.3199
 5559SOL    HW128136   1.063   2.335   9.204 -0.3184 -0.1764 -0.9755
 5559SOL    HW228137   0.955   2.443   9.249 -0.7781  0.0666  0.1061
 5560SOL     OW28138   2.956   3.465  17.269 -0.4756  0.7944  0.9407
 5560SOL    HW128139   2.995   3.463  17.356  1.2347  0.9180  0.1873
 5560SOL    HW228140   2.872   3.498  17.300  0.0218  0.8283  2.2270
 5561SOL     OW28141   2.391   1.801   5.407  0.9117  0.0693  0.3962
 5561SOL    HW128142   2.361   1.872   5.463  1.3262  0.1983  0.4582
 5561SOL    HW228143   2.480   1.785   5.439  0.9002 -1.1203 -0.1772
 5562SOL     OW28144   4.060   2.682   5.000 -0.0500  0.2541 -0.1324
 5562SOL    HW128145   4.122   2.658   4.932 -0.4997 -0.2289 -0.3760
 5562SOL    HW228146   4.108   2.637   5.069 -1.3518 -0.6144  0.2164
 5563SOL     OW28147   2.101   3.167   9.126  0.1438  0.0713 -0.1139
 5563SOL    HW128148   2.024   3.172   9.069 -0.4964  2.8313  1.0172
 5563SOL    HW228149   2.093   3.080   9.165 -0.6946 -0.4385 -1.4039
 5564SOL     OW28150   4.261   3.020   8.800 -0.7154 -0.3603 -0.0311
 5564SOL    HW128151   4.234   2.950   8.859 -0.5092 -1.0093 -0.7082
 5564SOL    HW228152   4.320   3.069   8.857 -0.2283  1.2532 -1.9163
 5565SOL     OW28153   2.666   4.025  13.245  0.3025  0.3207 -0.0730
 5565SOL    HW128154   2.642   4.046  13.335  0.4502  0.1831 -0.0028
 5565SOL    HW228155   2.592   3.973  13.213 -0.8893  2.4553 -0.8347
 5566SOL     OW28156   0.588   0.563  13.130  0.2997  0.0948  1.0440
 5566SOL    HW128157   0.555   0.513  13.204 -0.5667  0.4824  0.9163
 5566SOL    HW228158   0.682   0.545  13.139  0.6657  1.1493 -0.3995
 5567SOL     OW28159   2.458   1.674   7.285 -0.3559 -0.3626 -0.1893
 5567SOL    HW128160   2.408   1.600   7.250  2.0654 -1.7655 -0.6712
 5567SOL    HW228161   2.482   1.718   7.203  0.5297 -0.9164 -0.2274
 5568SOL     OW28162   3.278   3.317  13.276 -0.0065  0.1009 -0.1528
 5568SOL    HW128163   3.236   3.244  13.321 -0.9336  1.2371  0.8188
 5568SOL    HW228164   3.224   3.335  13.199  1.0211 -0.8411 -1.0800
 5569SOL     OW28165   1.157   1.793  13.162 -0.3242  0.4888  0.1951
 5569SOL    HW128166   1.209   1.717  13.137 -0.7577  0.2473  0.0462
 5569SOL    HW228167   1.130   1.822  13.075 -2.5044 -1.4104  0.2463
 5570SOL     OW28168   1.977   4.640  12.526  0.3519  0.2083  0.7820
 5570SOL    HW128169   1.928   4.642  12.443  1.4828 -0.4494  0.0934
 5570SOL    HW228170   1.905   4.676  12.578  0.6553 -0.7023  1.8216
 5571SOL     OW28171   4.150   3.674   8.454 -0.1649 -0.0641 -0.1928
 5571SOL    HW128172   4.195   3.744   8.501 -1.6847 -0.0215  1.2063
 5571SOL    HW228173   4.139   3.720   8.371  0.2214  0.1678 -0.1109
 5572SOL     OW28174   4.301   0.633  14.943 -0.6142 -0.2640 -0.1499
 5572SOL    HW128175   4.324   0.712  14.894  0.1485 -0.4600 -0.0910
 5572SOL    HW228176   4.386   0.606  14.977 -0.6465 -0.8379 -0.5290
 5573SOL     OW28177   1.482   1.375   7.655 -0.8898  0.0653 -0.0706
 5573SOL    HW128178   1.457   1.373   7.747 -0.7656 -0.7421 -0.0488
 5573SOL    HW228179   1.539   1.452   7.651 -0.3401 -0.2827  0.9535
 5574SOL     OW28180   1.869   2.649   7.233 -0.5703 -0.4215  0.0969
 5574SOL    HW128181   1.914   2.709   7.292  2.0429 -2.7016  0.4453
 5574SOL    HW228182   1.856   2.709   7.160  0.2329  1.7558  1.7415
 5575SOL     OW28183   0.045   2.256   4.718 -0.2262 -0.4226  0.0896
 5575SOL    HW128184   0.041   2.172   4.672  0.0702  0.5030 -1.5911
 5575SOL    HW228185   0.055   2.230   4.810 -1.5856  1.6692  0.8459
 5576SOL     OW28186   1.270   3.891   3.881 -0.0945  0.0376  0.2249
 5576SOL    HW128187   1.296   3.851   3.964 -1.9138 -0.6602  0.4524
 5576SOL    HW228188   1.198   3.839   3.845 -0.6240  0.4114  0.7420
 5577SOL     OW28189   3.934   1.822   2.082  0.1964  0.3940  0.0924
 5577SOL    HW128190   3.962   1.855   2.167  0.1679 -1.3251  0.7861
 5577SOL    HW228191   3.984   1.740   2.085  0.1058  0.3715  0.9151
 5578SOL     OW28192   0.240   4.411   2.440 -0.1480 -0.0453  0.5244
 5578SOL    HW128193   0.330   4.444   2.436 -0.9559  2.4157  2.1220
 5578SOL    HW228194   0.198   4.441   2.359  0.3377  1.4128  0.8177
 5579SOL     OW28195   2.758   3.493   4.453  0.6373  0.9889  0.6348
 5579SOL    HW128196   2.769   3.519   4.362  1.6925 -0.3615  0.3818
 5579SOL    HW228197   2.830   3.431   4.465  0.6302  0.8284 -0.1325
 5580SOL     OW28198   0.830   4.142  17.680  0.3801  0.6416 -0.0635
 5580SOL    HW128199   0.762   4.110  17.620  0.3155 -1.1874  1.0058
 5580SOL    HW228200   0.848   4.230  17.647 -2.1788  0.6365 -1.4853
 5581SOL     OW28201   2.804   2.232   2.315  0.7919  0.9971 -0.0113
 5581SOL    HW128202   2.806   2.319   2.354  2.2362  0.8615  0.2484
 5581SOL    HW228203   2.853   2.237   2.233  2.7667 -2.7191  0.9176
 5582SOL     OW28204   0.538   2.936   3.670  0.2377 -0.3644 -0.0581
 5582SOL    HW128205   0.621   2.963   3.630 -0.2502 -0.6760 -1.2917
 5582SOL    HW228206   0.538   2.844   3.641 -0.7403 -0.8398  1.4569
 5583SOL     OW28207   0.798   2.692   2.015  0.0027  0.2942  0.2626
 5583SOL    HW128208   0.837   2.636   2.081 -1.8182 -0.1648  0.9542
 5583SOL    HW228209   0.826   2.644   1.938 -4.3197 -0.4442 -0.8727
 5584SOL     OW28210   1.288   3.439   8.092 -0.0130 -0.2658  0.0301
 5584SOL    HW128211   1.249   3.461   8.007 -1.1158  2.1374  1.1658
 5584SOL    HW228212   1.374   3.480   8.083  1.0300 -2.2862  0.8785
 5585SOL     OW28213   3.566   3.194  15.458  0.2559  0.4976  0.2677
 5585SOL    HW128214   3.568   3.100  15.444  0.5172  0.6925 -1.0862
 5585SOL    HW228215   3.511   3.194  15.536  2.2100  0.5955  1.6479
 5586SOL     OW28216   3.747   1.671   9.105 -0.4919  0.1177 -0.3282
 5586SOL    HW128217   3.833   1.704   9.133 -0.7969  0.0791  0.6693
 5586SOL    HW228218   3.776   1.627   9.025  3.0373  1.2553  0.3197
 5587SOL     OW28219   4.116   3.455  16.655  0.1577 -0.5835 -0.2051
 5587SOL    HW128220   4.059   3.440  16.580  1.9115 -1.5414 -1.3570
 5587SOL    HW228221   4.094   3.382  16.712 -0.6757  1.4245  2.0154
 5588SOL     OW28222   3.020   3.538  13.625  0.3450 -0.1361  0.3614
 5588SOL    HW128223   3.109   3.527  13.592 -0.1186  0.7333 -1.1903
 5588SOL    HW228224   2.982   3.559  13.540  0.9735  1.2139  0.4125
 5589SOL     OW28225   4.290   0.546   0.251  0.1604 -0.4584 -0.2954
 5589SOL    HW128226   4.356   0.601   0.294  0.3217 -0.1717 -0.9111
 5589SOL    HW228227   4.329   0.460   0.237  1.1015 -0.1116  0.2294
 5590SOL     OW28228   3.933   3.482  15.193  0.3964  0.2091 -0.7465
 5590SOL    HW128229   3.883   3.507  15.115  0.4502 -1.0692 -1.1805
 5590SOL    HW228230   3.997   3.422  15.155 -0.1976 -2.8652  3.1566
 5591SOL     OW28231   2.122   1.605   7.672  0.2415 -0.0989 -0.2748
 5591SOL    HW128232   2.090   1.618   7.583  0.5672  1.4993 -0.1675
 5591SOL    HW228233   2.201   1.659   7.665  0.5529 -0.5688 -0.3633
 5592SOL     OW28234   2.754   3.012  16.125  0.0232 -0.0747 -0.6364
 5592SOL    HW128235   2.772   3.061  16.045  2.1792 -1.3528 -0.9314
 5592SOL    HW228236   2.732   2.923  16.099 -2.9147  0.2479  0.6675
 5593SOL     OW28237   2.163   0.583   5.152  0.1772 -0.0344 -0.3845
 5593SOL    HW128238   2.218   0.602   5.228 -0.0876  0.3280 -0.2845
 5593SOL    HW228239   2.097   0.528   5.194  1.2963 -2.4285 -1.7594
 5594SOL     OW28240   3.683   4.127   1.192 -0.2564 -0.0002 -0.4646
 5594SOL    HW128241   3.714   4.166   1.273 -0.4594 -1.5087  0.3468
 5594SOL    HW228242   3.646   4.201   1.144  1.9093  1.2524 -0.1914
 5595SOL     OW28243   4.422   3.157   5.465 -0.1349  0.3121 -0.8154
 5595SOL    HW128244   4.478   3.151   5.388  1.6829  1.4403  0.4285
 5595SOL    HW228245   4.472   3.095   5.518 -0.5182  0.7456  0.0708
 5596SOL     OW28246   3.174   1.678   5.427  0.3267  0.0805 -0.2904
 5596SOL    HW128247   3.140   1.646   5.511 -1.9657  2.3200 -0.4048
 5596SOL    HW228248   3.173   1.599   5.373  0.6629  1.5973 -2.5228
 5597SOL     OW28249   0.572   2.674  10.249  0.0586 -0.2349 -0.0988
 5597SOL    HW128250   0.592   2.766  10.231  0.3993 -0.4808 -0.9549
 5597SOL    HW228251   0.477   2.675  10.240 -0.0988  1.4978  1.6965
 5598SOL     OW28252   1.728   1.852   7.756  0.1467  0.1415  0.6383
 5598SOL    HW128253   1.690   1.938   7.773  0.1203  0.5346 -1.3831
 5598SOL    HW228254   1.816   1.883   7.734 -0.4736 -0.3387 -2.4952
 5599SOL     OW28255   4.637   4.163  15.766  0.7038  0.2851 -0.6705
 5599SOL    HW128256   4.640   4.231  15.834 -0.9554  1.9246 -2.2519
 5599SOL    HW228257   4.546   4.180  15.740  0.7214 -0.1881 -1.0366
 5600SOL     OW28258   1.241   3.205  14.244 -0.0673 -0.0540  0.1311
 5600SOL    HW128259   1.228   3.270  14.174  0.4012  0.1281  0.2141
 5600SOL    HW228260   1.257   3.258  14.322  0.3197 -1.6140  1.1068
 5601SOL     OW28261   1.096   2.586   7.785  0.1170 -0.0616  0.2944
 5601SOL    HW128262   1.073   2.582   7.877 -1.1376  1.4046  0.0383
 5601SOL    HW228263   1.165   2.653   7.779 -0.7453  0.9573  1.8636
 5602SOL     OW28264   3.381   2.391   6.093 -0.4971  0.2556  0.3145
 5602SOL    HW128265   3.307   2.366   6.038  0.3282 -2.0841  0.2638
 5602SOL    HW228266   3.349   2.374   6.182  0.7871 -1.9605  0.3481
 5603SOL     OW28267   2.703   1.371   2.647  0.7235 -0.3301  0.0967
 5603SOL    HW128268   2.766   1.422   2.597 -0.4067 -1.1092 -2.0996
 5603SOL    HW228269   2.761   1.295   2.656  1.4738  0.4555  1.9261
 5604SOL     OW28270   2.717   1.293   3.379  0.2314 -0.1222  0.1020
 5604SOL    HW128271   2.782   1.244   3.330 -0.6377 -1.1699  0.0084
 5604SOL    HW228272   2.728   1.379   3.338 -1.5800 -0.1055 -0.3845
 5605SOL     OW28273   1.749   0.262   7.876  0.4628 -0.2991  0.0882
 5605SOL    HW128274   1.693   0.243   7.952 -1.4902 -0.4303 -1.4023
 5605SOL    HW228275   1.732   0.195   7.809  2.0171  0.7276 -1.3385
 5606SOL     OW28276   3.199   0.858   9.314 -0.4704 -0.0268 -0.8177
 5606SOL    HW128277   3.111   0.827   9.293 -0.3516 -0.6149 -0.4475
 5606SOL    HW228278   3.242   0.772   9.312  2.4615  1.4260 -0.0364
 5607SOL     OW28279   2.690   0.742   8.858 -0.2964  0.3816  0.0742
 5607SOL    HW128280   2.691   0.776   8.769 -0.2660  0.3105  0.0474
 5607SOL    HW228281   2.612   0.788   8.891 -0.7528  1.0695 -1.9947
 5608SOL     OW28282   4.583   3.990  13.346  0.0944  0.3587 -0.7088
 5608SOL    HW128283   4.672   3.989  13.381 -0.0438  2.7422 -0.2381
 5608SOL    HW228284   4.593   3.932  13.271  0.8501  1.7120 -1.6484
 5609SOL     OW28285   4.346   1.445   1.753 -0.1644 -0.3115 -0.4880
 5609SOL    HW128286   4.287   1.399   1.813  2.8443 -2.9855  0.3959
 5609SOL    HW228287   4.431   1.429   1.795 -1.1509  0.6442  1.8418
 5610SOL     OW28288   2.607   3.818  10.037 -0.0929 -0.2318 -0.0034
 5610SOL    HW128289   2.541   3.763  10.080 -1.0517  1.2499  0.4047
 5610SOL    HW228290   2.655   3.831  10.118  1.1754  2.0902 -1.1445
 5611SOL     OW28291   0.053   1.495   9.194  0.1472 -0.2060 -0.7118
 5611SOL    HW128292   0.074   1.415   9.145  0.0829 -1.1488  0.8156
 5611SOL    HW228293   4.704   1.532   9.143 -0.2166  1.2330  0.8397
 5612SOL     OW28294   3.459   2.730   0.124  0.1922  0.2304 -0.0955
 5612SOL    HW128295   3.472   2.821   0.151  2.4593 -0.1936  0.2330
 5612SOL    HW228296   3.366   2.720   0.141 -0.2086  0.7938 -1.9303
 5613SOL     OW28297   2.210   1.261   6.568  0.1553  0.2008  0.6116
 5613SOL    HW128298   2.273   1.288   6.635  1.5595  1.3341 -1.1363
 5613SOL    HW228299   2.245   1.176   6.541 -3.6411 -1.4089  0.7808
 5614SOL     OW28300   1.601   4.549   7.620  0.2860  0.1443 -0.3817
 5614SOL    HW128301   1.640   4.630   7.654  1.6926 -0.6231 -0.1873
 5614SOL    HW228302   1.609   4.572   7.528  0.1509  1.5412 -0.0459
 5615SOL     OW28303   3.804   1.710  16.360  0.4070  0.5554 -0.4005
 5615SOL    HW128304   3.725   1.704  16.307 -0.3455 -1.6214  1.0112
 5615SOL    HW228305   3.774   1.762  16.434 -3.3626 -0.3464 -1.3353
 5616SOL     OW28306   3.030   2.977   4.675 -0.3441  0.3455  0.6185
 5616SOL    HW128307   3.011   2.952   4.584 -1.6541  1.2226  0.6628
 5616SOL    HW228308   3.030   2.896   4.727 -1.7501 -1.2154 -1.7868
 5617SOL     OW28309   1.489   1.417   6.468 -0.1516 -0.1126  0.3372
 5617SOL    HW128310   1.502   1.494   6.525 -2.8969 -0.7372  1.8223
 5617SOL    HW228311   1.396   1.402   6.486 -0.8299  2.6629 -0.7337
 5618SOL     OW28312   4.095   4.711   4.513 -0.1281 -0.0701 -0.1553
 5618SOL    HW128313   4.165   4.657   4.552  0.5520  1.1717  0.3391
 5618SOL    HW228314   4.050   4.643   4.463 -1.1330 -0.1266  0.8456
 5619SOL     OW28315   1.322   4.034   9.125 -0.5433  0.0416  0.0779
 5619SOL    HW128316   1.286   3.986   9.200  0.2176  0.7539  0.8964
 5619SOL    HW228317   1.409   4.043   9.163 -0.0047 -2.5884 -0.5197
 5620SOL     OW28318   1.481   0.625   5.935  0.4911  0.1854  0.2869
 5620SOL    HW128319   1.516   0.574   5.862 -1.0055 -0.0873 -0.2588
 5620SOL    HW228320   1.460   0.704   5.885 -0.0667  0.3658  0.8091
 5621SOL     OW28321   2.389   4.526  15.592  0.0058  0.5523  0.0147
 5621SOL    HW128322   2.380   4.621  15.592  0.6963  0.6083 -1.7164
 5621SOL    HW228323   2.471   4.529  15.641  0.5183 -0.7336 -0.7958
 5622SOL     OW28324   0.483   1.684   4.559  0.0850 -0.1962 -0.6615
 5622SOL    HW128325   0.447   1.682   4.470 -0.9895  0.2369 -0.2323
 5622SOL    HW228326   0.411   1.661   4.617  0.2602 -0.0796 -0.3969
 5623SOL     OW28327   0.041   4.538  11.971 -0.3746 -0.8089  0.0738
 5623SOL    HW128328   0.087   4.604  12.022 -1.3186  0.5751 -0.8695
 5623SOL    HW228329   0.048   4.594  11.894  3.4745 -2.9123 -1.0878
 5624SOL     OW28330   4.518   1.408   3.531 -0.2456  0.3154  0.2137
 5624SOL    HW128331   4.614   1.401   3.524 -0.2287  1.7388 -1.1560
 5624SOL    HW228332   4.496   1.316   3.546  2.9431 -1.0615 -3.4274
 5625SOL     OW28333   3.942   1.662   8.582 -0.6996 -0.0717 -0.2687
 5625SOL    HW128334   3.892   1.725   8.530 -0.3667  1.6987  1.5484
 5625SOL    HW228335   3.891   1.582   8.571  0.8744 -1.3691  1.9860
 5626SOL     OW28336   3.833   0.394   1.605 -0.0610  0.1793  0.3996
 5626SOL    HW128337   3.925   0.420   1.615 -0.2596  0.4765  1.5055
 5626SOL    HW228338   3.836   0.302   1.632  1.0397 -0.2735 -1.3093
 5627SOL     OW28339   0.020   1.804   3.116  0.1215 -0.7268  0.7221
 5627SOL    HW128340   0.082   1.866   3.079 -0.5634  0.5573  1.6997
 5627SOL    HW228341   0.035   1.834   3.206 -0.5670  2.2482 -0.1571
 5628SOL     OW28342   0.176   4.144   6.391  0.0382 -0.0920 -0.0502
 5628SOL    HW128343   0.112   4.089   6.346  0.7770 -1.8293  0.9953
 5628SOL    HW228344   0.165   4.234   6.360 -0.8505 -0.3624 -0.4982
 5629SOL     OW28345   3.583   3.388   2.986  0.4980  0.1905  0.1685
 5629SOL    HW128346   3.662   3.336   2.974  0.6393  0.4299  0.0740
 5629SOL    HW228347   3.601   3.459   2.925  1.2922 -0.1594  0.0046
 5630SOL     OW28348   1.558   0.036  16.189  1.0012 -0.2412 -0.1112
 5630SOL    HW128349   1.516   4.708  16.120  0.5593 -0.7599  0.5457
 5630SOL    HW228350   1.496   0.108  16.202 -0.5121 -1.5209 -0.3023
 5631SOL     OW28351   0.899   2.903   7.056 -0.5066  0.4427  0.2723
 5631SOL    HW128352   0.877   2.890   7.149  0.2348  0.3470  0.4348
 5631SOL    HW228353   0.988   2.938   7.062 -0.4035 -0.0034  1.4132
 5632SOL     OW28354   1.163   3.084   3.692  0.3264 -0.0138  0.2659
 5632SOL    HW128355   1.167   3.016   3.759 -2.0093 -1.6455 -1.2420
 5632SOL    HW228356   1.238   3.139   3.715  0.3710  0.1788 -0.3392
 5633SOL     OW28357   4.415   2.603   9.999  0.2891 -0.6004  0.6495
 5633SOL    HW128358   4.354   2.598  10.073  0.7153  0.8550  1.1021
 5633SOL    HW228359   4.503   2.602  10.036  0.0458 -2.0927  1.1747
 5634SOL     OW28360   1.211   1.499  16.067  0.1038 -0.2276  0.0369
 5634SOL    HW128361   1.158   1.455  16.000 -0.3012  1.6343 -0.8557
 5634SOL    HW228362   1.216   1.440  16.143  0.1675 -0.0694  0.1554
 5635SOL     OW28363   4.294   3.621   7.259 -0.1806 -0.7829 -0.2211
 5635SOL    HW128364   4.357   3.553   7.238 -0.2255 -1.5721  2.2365
 5635SOL    HW228365   4.214   3.575   7.283 -0.4074 -0.4879 -0.4030
 5636SOL     OW28366   1.917   3.352  15.067  0.1281  0.4267  0.3908
 5636SOL    HW128367   1.979   3.412  15.026 -2.8299  3.5071  0.3892
 5636SOL    HW228368   1.837   3.404  15.060  0.0607  0.1501 -0.8468
 5637SOL     OW28369   1.178   2.175   2.549 -0.2096  0.0909  0.1815
 5637SOL    HW128370   1.154   2.266   2.569  0.8529  1.0587 -2.8464
 5637SOL    HW228371   1.094   2.137   2.573 -1.0282  1.9911  0.3644
 5638SOL     OW28372   4.714   3.824   7.997 -0.1050  0.5681  0.1274
 5638SOL    HW128373   0.035   3.739   8.007 -2.0733 -0.3193  1.1712
 5638SOL    HW228374   4.709   3.853   8.088 -0.7249 -2.1562  0.9428
 5639SOL     OW28375   1.764   3.148  12.675  0.4585  0.1470 -0.1843
 5639SOL    HW128376   1.859   3.145  12.680  0.6404  2.3519 -2.4305
 5639SOL    HW228377   1.753   3.061  12.637  0.7956  0.0730 -0.1107
 5640SOL     OW28378   2.160   3.393  12.713  0.1904 -0.3054  0.1303
 5640SOL    HW128379   2.235   3.424  12.663 -0.5098  0.5953 -0.3498
 5640SOL    HW228380   2.133   3.475  12.754  0.7994  0.2801 -0.6419
 5641SOL     OW28381   1.459   2.003   6.494 -0.6452  0.2139  0.1271
 5641SOL    HW128382   1.439   2.080   6.442 -0.6237  0.7652  0.9281
 5641SOL    HW228383   1.495   2.044   6.573  2.0376  1.1729 -1.5863
 5642SOL     OW28384   4.562   3.041   5.216 -0.4134  0.5139 -0.1017
 5642SOL    HW128385   4.646   3.012   5.252 -1.1103 -1.3493 -0.0017
 5642SOL    HW228386   4.506   2.966   5.234 -0.7779  0.4467 -1.4992
 5643SOL     OW28387   3.669   1.192   8.646 -0.2897 -0.0452 -0.2642
 5643SOL    HW128388   3.687   1.106   8.607  0.4967 -0.4244  0.9495
 5643SOL    HW228389   3.581   1.201   8.611 -0.0964  1.3793 -0.3817
 5644SOL     OW28390   1.179   2.189  17.197  0.5257 -0.1577  0.8803
 5644SOL    HW128391   1.226   2.115  17.234  1.2421 -0.0281  0.2270
 5644SOL    HW228392   1.106   2.141  17.158  1.1036 -0.7731  0.5696
 5645SOL     OW28393   4.607   3.974  12.847  0.3562 -0.4915 -0.4935
 5645SOL    HW128394   4.685   3.923  12.826  1.6169  1.6932 -1.1790
 5645SOL    HW228395   4.634   4.057  12.808  1.0935  0.0472  1.1732
 5646SOL     OW28396   2.268   2.687   5.582 -0.5032 -0.0705  0.1317
 5646SOL    HW128397   2.211   2.655   5.652  0.5206  0.5946  1.2593
 5646SOL    HW228398   2.318   2.755   5.626  0.7350  0.3831 -1.9844
 5647SOL     OW28399   1.656   1.717   5.565 -0.2752  0.5167  0.3138
 5647SOL    HW128400   1.705   1.798   5.582  1.1746  0.2192 -2.3663
 5647SOL    HW228401   1.646   1.714   5.469 -0.0859  0.4616  0.2958
 5648SOL     OW28402   4.528   2.599   8.067 -0.5676 -0.1662  0.0966
 5648SOL    HW128403   4.461   2.668   8.066  0.6033  0.9773 -0.2306
 5648SOL    HW228404   4.591   2.628   8.134 -0.6374 -0.9466  0.4970
 5649SOL     OW28405   2.394   4.377   5.017  0.0703  0.1700  0.2182
 5649SOL    HW128406   2.328   4.308   5.009  0.1022  0.3314 -1.4319
 5649SOL    HW228407   2.374   4.435   4.944 -0.5026  0.6497  0.7518
 5650SOL     OW28408   2.263   3.207   3.317  0.3212 -0.0176 -0.8370
 5650SOL    HW128409   2.290   3.213   3.225 -1.2445  1.1734 -1.2096
 5650SOL    HW228410   2.338   3.169   3.363 -0.0634 -0.2045 -0.3720
 5651SOL     OW28411   1.240   0.139   0.143 -0.6987 -0.3010 -0.0594
 5651SOL    HW128412   1.289   0.074   0.093 -0.5003 -1.4942  1.6843
 5651SOL    HW228413   1.153   0.099   0.141 -1.0875  0.6379 -1.9609
 5652SOL     OW28414   2.831   1.156   2.111 -0.2569 -0.0908  0.0124
 5652SOL    HW128415   2.806   1.227   2.170  0.6253  0.7285 -0.5929
 5652SOL    HW228416   2.924   1.170   2.093  0.0257 -2.7728 -0.5759
 5653SOL     OW28417   0.848   0.358  17.559  0.0704 -0.1027 -0.3234
 5653SOL    HW128418   0.879   0.446  17.537 -2.6676  0.6013 -1.3740
 5653SOL    HW228419   0.759   0.373  17.592  0.5294  0.5789  0.6371
 5654SOL     OW28420   4.383   2.407   4.149 -0.6536 -0.4778  0.7026
 5654SOL    HW128421   4.316   2.419   4.216 -1.2053 -0.5962  0.1615
 5654SOL    HW228422   4.460   2.457   4.179 -0.1494 -0.3516 -0.7850
 5655SOL     OW28423   2.441   4.162   3.474  1.0425  0.0156  0.1592
 5655SOL    HW128424   2.519   4.196   3.518  1.2473 -1.9246  1.2746
 5655SOL    HW228425   2.462   4.069   3.475 -1.6456 -0.5519  2.4461
 5656SOL     OW28426   3.122   3.919  17.548 -1.1319 -0.2252  0.1664
 5656SOL    HW128427   3.072   4.000  17.537 -0.4189  0.2319  0.2301
 5656SOL    HW228428   3.202   3.944  17.500 -0.6634  1.3007  1.7531
 5657SOL     OW28429   3.280   0.989  16.243 -0.0574  1.2196 -0.1375
 5657SOL    HW128430   3.278   1.081  16.215  1.0003  0.5925 -2.2382
 5657SOL    HW228431   3.372   0.965  16.252 -0.4164  0.4359  1.3102
 5658SOL     OW28432   2.341   4.500  17.243  0.4916  0.0128  0.7507
 5658SOL    HW128433   2.322   4.590  17.217 -0.6535 -0.3511  0.2959
 5658SOL    HW228434   2.435   4.514  17.242  0.7486 -1.6876  2.3672
 5659SOL     OW28435   1.252   1.767   6.132  0.4116  0.4699  0.0802
 5659SOL    HW128436   1.287   1.679   6.121  1.5009  0.8673  0.2912
 5659SOL    HW228437   1.169   1.742   6.093 -0.1132 -0.8877  2.0496
 5660SOL     OW28438   0.665   3.529  16.901  0.0521 -0.4931 -0.3282
 5660SOL    HW128439   0.735   3.578  16.857  0.6229 -2.7615 -1.9750
 5660SOL    HW228440   0.642   3.598  16.963 -2.0903 -1.2619 -0.2837
 5661SOL     OW28441   3.035   1.242   3.889 -0.3137  0.3774  0.4251
 5661SOL    HW128442   3.072   1.196   3.964  0.2557  1.6694  0.9304
 5661SOL    HW228443   3.003   1.321   3.933 -0.2128  1.1557 -0.9082
 5662SOL     OW28444   3.004   2.076  14.661  0.3565  0.1034  0.1342
 5662SOL    HW128445   2.985   1.982  14.672 -0.9101  0.2087 -1.1009
 5662SOL    HW228446   2.951   2.116  14.729  1.9074  0.1097  1.3390
 5663SOL     OW28447   2.831   0.420   1.090 -0.3672  0.3278 -0.7613
 5663SOL    HW128448   2.807   0.398   1.000 -1.0006  1.9687 -0.9901
 5663SOL    HW228449   2.923   0.394   1.091 -0.1255  1.2460  1.3835
 5664SOL     OW28450   0.847   0.600   8.566  0.2369  0.1228  0.2226
 5664SOL    HW128451   0.805   0.658   8.630 -2.3552 -3.1664  1.4660
 5664SOL    HW228452   0.799   0.520   8.587  0.1941 -0.2967 -1.4801
 5665SOL     OW28453   0.755   2.890  11.349 -0.2776  0.3485  0.6026
 5665SOL    HW128454   0.758   2.813  11.292  1.8246  1.3666 -0.6785
 5665SOL    HW228455   0.700   2.843  11.412 -0.8834 -0.6224 -0.6264
 5666SOL     OW28456   3.924   1.959  17.476 -0.4031  0.2529  0.2380
 5666SOL    HW128457   3.948   1.991  17.563  0.1944 -0.9791  0.5198
 5666SOL    HW228458   3.828   1.954  17.480 -0.1801 -2.2364  2.2846
 5667SOL     OW28459   2.076   1.494   1.459  0.3380 -0.4769 -0.1057
 5667SOL    HW128460   2.105   1.423   1.402 -1.7904 -0.6806 -0.9297
 5667SOL    HW228461   2.067   1.449   1.543  3.5852 -0.0139  0.5153
 5668SOL     OW28462   1.985   1.654  16.359  0.5685  0.4766  0.1873
 5668SOL    HW128463   2.022   1.684  16.276  0.6734  1.3001  0.5335
 5668SOL    HW228464   1.893   1.681  16.359  0.3898 -0.1271 -0.2033
 5669SOL     OW28465   1.363   2.914   6.314 -0.3512  0.0773  0.1004
 5669SOL    HW128466   1.287   2.881   6.266  1.6063  0.8397 -3.5089
 5669SOL    HW228467   1.338   3.002   6.287  0.2210  0.4251  0.7071
 5670SOL     OW28468   3.425   0.645   8.058 -0.1656  0.3352  0.2735
 5670SOL    HW128469   3.348   0.696   8.081 -0.5453 -0.1759  0.1430
 5670SOL    HW228470   3.451   0.614   8.145 -0.0056  0.7738  0.3814
 5671SOL     OW28471   0.802   4.711   1.386 -0.8093 -0.0988  0.2285
 5671SOL    HW128472   0.892   4.695   1.358 -1.2239 -1.2297 -0.4168
 5671SOL    HW228473   0.772   0.069   1.345 -1.9189  0.4096  2.0291
 5672SOL     OW28474   2.477   3.099  14.484  0.5171  0.4344 -0.0325
 5672SOL    HW128475   2.568   3.083  14.509 -0.5598 -2.5452  1.9453
 5672SOL    HW228476   2.444   3.056  14.563 -1.6365 -0.9063 -1.6820
 5673SOL     OW28477   0.578   4.680   2.256 -0.3156 -0.2501  0.5372
 5673SOL    HW128478   0.577   0.009   2.336 -2.4566  1.6461 -0.7284
 5673SOL    HW228479   0.672   4.665   2.245 -0.3780 -1.4759  1.5998
 5674SOL     OW28480   3.751   2.286   0.516 -0.1192  0.1266 -0.1654
 5674SOL    HW128481   3.806   2.219   0.558 -0.3563  0.5666  0.8483
 5674SOL    HW228482   3.814   2.329   0.458  1.0414 -2.6239 -0.9720
 5675SOL     OW28483   4.699   2.046   6.423  1.3202 -0.0666 -0.2915
 5675SOL    HW128484   4.619   1.994   6.420  0.2392  1.6131 -0.4805
 5675SOL    HW228485   4.710   2.053   6.518 -0.0188 -0.5789 -0.1027
 5676SOL     OW28486   2.140   4.105   8.682 -0.0003 -0.1694  0.0624
 5676SOL    HW128487   2.135   4.037   8.615  0.3285 -0.7471  0.6322
 5676SOL    HW228488   2.208   4.072   8.741 -0.8791  1.3722  1.9310
 5677SOL     OW28489   2.678   4.372   4.312  0.3209  0.3681 -0.1353
 5677SOL    HW128490   2.639   4.433   4.375 -2.4333 -1.2018 -0.2710
 5677SOL    HW228491   2.771   4.380   4.332  0.2015  0.2268  0.4898
 5678SOL     OW28492   3.106   4.590   8.458  0.4387  0.2127 -0.2730
 5678SOL    HW128493   3.067   4.643   8.528  3.3199  2.8734 -0.6843
 5678SOL    HW228494   3.067   4.632   8.381 -0.2970 -0.9193 -0.5061
 5679SOL     OW28495   4.124   1.049   3.754  0.0231  0.1583  0.1248
 5679SOL    HW128496   4.039   1.064   3.713  0.4286  3.2543  0.4427
 5679SOL    HW228497   4.108   1.047   3.848 -0.2034  0.8995  0.1045
 5680SOL     OW28498   3.041   0.459   1.666 -0.2177 -0.2283 -0.5839
 5680SOL    HW128499   3.111   0.524   1.656 -1.7690  1.7874  1.6418
 5680SOL    HW228500   3.007   0.504   1.744 -0.2147 -0.1605 -0.6214
 5681SOL     OW28501   1.215   2.675   2.422  0.0323 -0.1748  0.0489
 5681SOL    HW128502   1.193   2.718   2.505  1.9583 -0.2663  0.6033
 5681SOL    HW228503   1.261   2.741   2.371  0.6226 -0.8143 -0.2437
 5682SOL     OW28504   0.665   4.650   3.993 -0.3858 -0.1336 -0.2788
 5682SOL    HW128505   0.748   4.683   3.960 -1.0928  0.0180 -1.9112
 5682SOL    HW228506   0.641   4.585   3.928 -0.8005 -1.7943  1.5219
 5683SOL     OW28507   3.667   3.578   1.254 -0.1439  0.3259  0.8820
 5683SOL    HW128508   3.653   3.494   1.211  1.4374  0.0826  0.8464
 5683SOL    HW228509   3.602   3.635   1.214  0.7239  0.4975 -0.2793
 5684SOL     OW28510   0.667   3.599   4.307  0.5824 -0.4427  0.3503
 5684SOL    HW128511   0.608   3.577   4.236  0.2116 -0.9924  0.8275
 5684SOL    HW228512   0.618   3.572   4.385  0.9507 -0.9909  0.3945
 5685SOL     OW28513   1.760   2.588   1.620  0.0791 -0.0300 -0.3490
 5685SOL    HW128514   1.855   2.572   1.626 -0.0146 -0.0210  1.1921
 5685SOL    HW228515   1.738   2.516   1.562  1.8942 -0.7481 -0.1677
 5686SOL     OW28516   3.186   2.887   6.279  0.1200  0.7254 -0.0926
 5686SOL    HW128517   3.219   2.798   6.271  1.8843  1.1759  2.2459
 5686SOL    HW228518   3.199   2.913   6.188 -0.3943  1.1589 -0.0466
 5687SOL     OW28519   0.128   0.762   5.722  0.2618 -0.1347  0.3301
 5687SOL    HW128520   0.075   0.841   5.714 -1.0961 -1.1477 -0.7365
 5687SOL    HW228521   0.167   0.751   5.636 -1.9191 -2.0336 -0.4273
 5688SOL     OW28522   3.432   3.437   3.222 -0.2765  0.1911  0.1103
 5688SOL    HW128523   3.376   3.360   3.222  0.3115 -0.2437  0.2471
 5688SOL    HW228524   3.484   3.435   3.142 -0.7057 -0.9582 -0.1227
 5689SOL     OW28525   3.632   0.040   5.363 -0.1767 -0.4377 -0.3166
 5689SOL    HW128526   3.541   0.010   5.356  0.6557 -3.0296  0.1619
 5689SOL    HW228527   3.649   0.043   5.269  1.3466 -0.8281 -0.0422
 5690SOL     OW28528   0.967   2.690  13.061  0.4928 -0.0061 -0.6116
 5690SOL    HW128529   1.024   2.740  13.003  1.7746  1.7552  2.1506
 5690SOL    HW228530   0.885   2.694  13.012 -0.3939 -0.4498  0.8593
 5691SOL     OW28531   1.347   2.330   4.779  0.2563 -0.5766 -0.1355
 5691SOL    HW128532   1.413   2.275   4.736 -0.4066 -0.1502 -1.6767
 5691SOL    HW228533   1.394   2.390   4.837  0.5139 -0.0314 -0.9211
 5692SOL     OW28534   0.599   4.411   3.844 -0.5318 -0.3738 -0.3772
 5692SOL    HW128535   0.614   4.330   3.796 -1.9463 -0.9993  0.2354
 5692SOL    HW228536   0.586   4.467   3.767 -1.2759 -1.3956 -0.9953
 5693SOL     OW28537   2.279   0.113   6.828  0.0315  0.4522  0.2146
 5693SOL    HW128538   2.275   0.191   6.882  0.7027 -0.1569  1.1371
 5693SOL    HW228539   2.309   0.149   6.744  1.3458 -0.7396  0.1783
 5694SOL     OW28540   3.797   3.281  16.500 -0.0724 -0.0863  0.2991
 5694SOL    HW128541   3.850   3.203  16.519  0.4399  0.1047 -0.3379
 5694SOL    HW228542   3.867   3.339  16.471  0.7600 -0.3579  1.7679
 5695SOL     OW28543   2.745   3.638   8.458  0.0001 -0.5001  0.3960
 5695SOL    HW128544   2.734   3.723   8.417  0.6209  0.0117  1.2731
 5695SOL    HW228545   2.687   3.594   8.397 -1.3334 -0.1178  1.4029
 5696SOL     OW28546   2.057   3.631   3.008 -0.2779  0.0646 -0.7078
 5696SOL    HW128547   2.029   3.553   3.056  0.9262 -0.3205 -0.6229
 5696SOL    HW228548   2.058   3.599   2.918 -2.3717  0.4099 -0.8690
 5697SOL     OW28549   4.358   0.600   8.570 -0.4602 -0.8920 -0.0243
 5697SOL    HW128550   4.414   0.652   8.514 -0.1095 -1.0335  0.1961
 5697SOL    HW228551   4.314   0.551   8.500 -0.7538 -0.5979 -0.0446
 5698SOL     OW28552   1.869   3.395   3.611  0.0140 -0.3817  0.3507
 5698SOL    HW128553   1.819   3.313   3.618  0.1952 -0.4547  0.7823
 5698SOL    HW228554   1.956   3.369   3.580  0.1599 -0.0017  0.4480
 5699SOL     OW28555   2.153   3.639   4.621 -0.2302 -0.3987 -0.1124
 5699SOL    HW128556   2.165   3.716   4.566  4.0256 -0.2481  1.0141
 5699SOL    HW228557   2.195   3.673   4.700 -0.8139 -2.2506  1.0182
 5700SOL     OW28558   0.754   4.469   6.759 -0.0692 -0.0187  0.2850
 5700SOL    HW128559   0.710   4.466   6.845  0.8992 -0.8072  0.7533
 5700SOL    HW228560   0.838   4.503   6.788 -0.1251 -0.3321  0.8201
 5701SOL     OW28561   4.224   3.290  17.561 -0.1963 -0.2229  0.6707
 5701SOL    HW128562   4.156   3.352  17.536 -1.2449 -1.6925 -0.0607
 5701SOL    HW228563   4.249   3.269  17.471  0.2720 -2.7925  1.3982
 5702SOL     OW28564   3.002   4.436  15.782  0.3472 -0.2647  0.5183
 5702SOL    HW128565   2.926   4.485  15.750 -1.1605 -1.8436  1.6834
 5702SOL    HW228566   3.066   4.463  15.716  1.6411 -0.4238  1.6984
 5703SOL     OW28567   3.742   0.146  13.569 -0.1240 -0.6722  0.5300
 5703SOL    HW128568   3.752   0.239  13.590 -0.2794 -0.4907 -0.2032
 5703SOL    HW228569   3.815   0.106  13.615 -0.1495 -1.8553 -0.4895
 5704SOL     OW28570   1.155   2.860   7.530 -0.4584  0.4073  0.4182
 5704SOL    HW128571   1.183   2.950   7.519  0.5584  0.0815  0.3550
 5704SOL    HW228572   1.202   2.834   7.609 -1.0681  0.7088  0.8828
 5705SOL     OW28573   1.426   0.195  14.968  0.6942  0.0149 -0.0382
 5705SOL    HW128574   1.354   0.156  15.018 -1.3592 -0.9333 -3.7652
 5705SOL    HW228575   1.456   0.230  15.052  0.1347  1.2468 -0.3483
 5706SOL     OW28576   4.366   1.989  11.817  0.4901 -0.2316  0.2856
 5706SOL    HW128577   4.381   2.083  11.812  0.7593 -0.1552  2.4110
 5706SOL    HW228578   4.456   1.957  11.824 -0.1987 -2.8302 -2.6756
 5707SOL     OW28579   0.175   1.694  17.337 -0.3984 -0.0079 -0.2981
 5707SOL    HW128580   0.105   1.651  17.287 -1.1593  0.4981  0.3223
 5707SOL    HW228581   0.131   1.707  17.421 -1.3448  0.4566 -0.8527
 5708SOL     OW28582   3.660   2.384   8.200 -0.5246  0.3066  0.1691
 5708SOL    HW128583   3.711   2.332   8.137 -1.9169  0.4656 -1.0795
 5708SOL    HW228584   3.717   2.386   8.277 -0.5066  2.1673  0.1170
 5709SOL     OW28585   4.183   2.429  13.896  0.1307  0.1817  0.1762
 5709SOL    HW128586   4.178   2.449  13.990 -0.1771 -1.0904  0.4261
 5709SOL    HW228587   4.168   2.335  13.893 -0.8508  0.3664 -0.8982
 5710SOL     OW28588   0.716   4.141  17.099  0.4976 -0.7287  0.0250
 5710SOL    HW128589   0.809   4.165  17.104  0.2688 -0.0272  0.8898
 5710SOL    HW228590   0.715   4.088  17.179 -0.3068  1.6318  1.5556
 5711SOL     OW28591   1.130   4.372   6.933 -0.0123 -0.3969  0.9135
 5711SOL    HW128592   1.069   4.338   6.998  3.4913 -0.2242  4.2747
 5711SOL    HW228593   1.079   4.450   6.911  0.0007 -0.3317  1.1189
 5712SOL     OW28594   4.450   1.680  13.300  0.3770 -0.4677 -0.5944
 5712SOL    HW128595   4.538   1.649  13.321  0.2405 -0.5707 -0.1761
 5712SOL    HW228596   4.475   1.771  13.282 -0.6472  0.1284  1.0160
 5713SOL     OW28597   4.151   0.272   1.394  0.9261 -0.2183 -0.0704
 5713SOL    HW128598   4.197   0.197   1.355  0.9316 -1.0036  1.4613
 5713SOL    HW228599   4.204   0.284   1.473  1.1729 -1.2781 -0.0758
 5714SOL     OW28600   1.838   1.572   4.052 -0.0777 -0.0542  0.3754
 5714SOL    HW128601   1.805   1.659   4.032 -0.5739 -0.0067  1.4461
 5714SOL    HW228602   1.756   1.522   4.054 -1.5116  2.3750  1.3773
 5715SOL     OW28603   0.884   4.588   2.593 -0.5095  0.4061  0.1448
 5715SOL    HW128604   0.885   4.643   2.515 -1.0075  0.5907  0.2698
 5715SOL    HW228605   0.835   4.512   2.561  1.4655 -1.3562  1.3009
 5716SOL     OW28606   2.679   4.390  11.444  0.5309 -0.4904  0.2618
 5716SOL    HW128607   2.699   4.330  11.372 -1.4736  1.3712 -1.8804
 5716SOL    HW228608   2.732   4.464  11.416  0.1261 -0.4914 -0.5048
 5717SOL     OW28609   1.460   0.370   6.470  0.4777  0.0987 -0.0598
 5717SOL    HW128610   1.508   0.453   6.475  0.1786  0.2868 -0.3066
 5717SOL    HW228611   1.368   0.390   6.486  0.8465  0.8009  1.2337
 5718SOL     OW28612   4.639   2.658   9.116 -0.2586 -0.0095 -0.8854
 5718SOL    HW128613   4.684   2.673   9.199  0.4195  1.2067 -1.4732
 5718SOL    HW228614   4.563   2.605   9.141  1.0450 -1.9784 -1.0834
 5719SOL     OW28615   4.368   2.572   7.754  0.4071 -0.0816  0.1947
 5719SOL    HW128616   4.299   2.623   7.797  0.1535  0.8884 -1.3636
 5719SOL    HW228617   4.434   2.640   7.748 -0.0110  0.2133 -1.0028
 5720SOL     OW28618   3.951   2.890   9.638  0.4524 -0.2604  0.0564
 5720SOL    HW128619   3.968   2.833   9.563 -1.1808  0.8879 -1.1780
 5720SOL    HW228620   4.015   2.961   9.628  1.8044 -1.1965  2.0742
 5721SOL     OW28621   3.273   3.920   5.935  0.0710 -0.0153 -0.6470
 5721SOL    HW128622   3.244   3.935   5.845  0.1240  0.1805 -0.6301
 5721SOL    HW228623   3.223   3.986   5.983 -1.4144 -1.0743 -0.7285
 5722SOL     OW28624   2.456   1.367   7.491 -0.2634  0.3117 -0.5666
 5722SOL    HW128625   2.423   1.323   7.570  2.0548 -1.6818 -0.7214
 5722SOL    HW228626   2.487   1.451   7.524  1.0983 -0.2333 -0.4663
 5723SOL     OW28627   1.266   2.539   8.485 -0.0683 -0.3279  0.0527
 5723SOL    HW128628   1.262   2.606   8.416  0.1783 -1.1778 -0.7809
 5723SOL    HW228629   1.360   2.534   8.498 -0.0989  0.0607  0.4163
 5724SOL     OW28630   3.204   1.382   3.665 -0.5459 -0.4369  0.0891
 5724SOL    HW128631   3.143   1.417   3.731 -1.5448 -0.1541 -0.9827
 5724SOL    HW228632   3.215   1.287   3.673  0.3433 -0.3866 -0.5608
 5725SOL     OW28633   3.150   2.906  11.307  0.6942 -0.4392 -0.0036
 5725SOL    HW128634   3.244   2.893  11.320  0.5732 -1.6012 -0.3264
 5725SOL    HW228635   3.118   2.880  11.393 -2.8025  0.4641 -1.0159
 5726SOL     OW28636   0.290   0.566  11.970 -0.4542 -0.7448 -0.2826
 5726SOL    HW128637   0.267   0.658  11.958  0.9606 -0.1998  1.2578
 5726SOL    HW228638   0.206   0.526  11.993 -0.6901  0.3217  0.6575
 5727SOL     OW28639   3.242   2.241   8.448 -0.7664 -0.0301 -0.2258
 5727SOL    HW128640   3.277   2.166   8.496 -1.0161  0.6334  1.0108
 5727SOL    HW228641   3.270   2.221   8.359  1.0589 -1.7931  0.7644
 5728SOL     OW28642   4.256   4.616   3.894  0.2217 -0.0453  0.1627
 5728SOL    HW128643   4.288   4.620   3.984 -1.3249  3.0400  0.5631
 5728SOL    HW228644   4.324   4.569   3.846 -0.9607 -0.0955 -1.4596
 5729SOL     OW28645   2.540   3.280   8.312 -0.0102  0.2052  0.4554
 5729SOL    HW128646   2.616   3.305   8.261  0.7184 -0.9470  0.9703
 5729SOL    HW228647   2.541   3.184   8.304  1.1419  0.4002 -1.7281
 5730SOL     OW28648   0.201   0.763   6.563  0.1740 -0.3173  0.3559
 5730SOL    HW128649   0.206   0.844   6.614 -1.0621 -0.1666  0.2430
 5730SOL    HW228650   0.250   0.710   6.626  0.8802  2.4330  2.1152
 5731SOL     OW28651   2.155   4.561   8.341 -0.5120 -0.1037  0.4803
 5731SOL    HW128652   2.068   4.586   8.370 -0.9553  2.1054 -2.7333
 5731SOL    HW228653   2.208   4.556   8.420 -0.5770  0.9636  0.5921
 5732SOL     OW28654   4.382   4.680   9.223 -0.0462 -0.0247 -0.2363
 5732SOL    HW128655   4.406   0.012   9.298  0.4533  0.1790 -0.5507
 5732SOL    HW228656   4.294   4.648   9.245 -0.0776 -0.1589 -0.5671
 5733SOL     OW28657   4.266   3.363   2.142 -0.5002  0.3193  0.6513
 5733SOL    HW128658   4.239   3.292   2.084  1.0224 -0.7867  1.2922
 5733SOL    HW228659   4.318   3.418   2.083 -0.8688  0.3280  0.3372
 5734SOL     OW28660   3.412   3.171   4.200 -0.1822  0.2478  0.0240
 5734SOL    HW128661   3.342   3.203   4.144  0.5319 -1.3983 -1.8226
 5734SOL    HW228662   3.356   3.112   4.250  2.9998 -2.0697  0.8979
 5735SOL     OW28663   3.816   0.789   4.553  0.2009  0.2100  0.4204
 5735SOL    HW128664   3.870   0.710   4.557  2.0645  1.4615 -0.0475
 5735SOL    HW228665   3.739   0.775   4.609  2.1446 -2.5844  2.4591
 5736SOL     OW28666   3.893   1.953   8.211  0.2960 -0.3454  0.0082
 5736SOL    HW128667   3.848   1.893   8.152  1.6481 -2.5219  1.1909
 5736SOL    HW228668   3.849   1.933   8.293 -0.8570 -0.7828 -0.7246
 5737SOL     OW28669   4.332   2.753   1.935  0.2591 -0.3790 -0.0620
 5737SOL    HW128670   4.259   2.811   1.916  0.2528 -1.0967 -2.2925
 5737SOL    HW228671   4.339   2.713   1.848  0.5870 -0.6057  0.0697
 5738SOL     OW28672   4.209   1.689  11.184  0.1272  0.4499  0.0626
 5738SOL    HW128673   4.219   1.649  11.097 -3.9749  1.2921 -0.8145
 5738SOL    HW228674   4.250   1.774  11.168  0.7331  0.1221 -0.1302
 5739SOL     OW28675   3.061   3.229   6.019 -0.2076 -0.1396  0.0125
 5739SOL    HW128676   3.049   3.211   5.926 -0.8312  0.2034  0.0309
 5739SOL    HW228677   3.149   3.266   6.016 -0.4952  0.5502  0.1636
 5740SOL     OW28678   1.107   1.287   9.291 -0.3467  0.6580 -0.4364
 5740SOL    HW128679   1.192   1.249   9.313 -0.8984 -0.6938 -0.6672
 5740SOL    HW228680   1.094   1.356   9.356 -1.2283 -1.5922  1.7346
 5741SOL     OW28681   1.377   4.403   1.367 -0.0881  0.6034 -0.2490
 5741SOL    HW128682   1.337   4.337   1.424  1.1486 -0.4075 -0.5251
 5741SOL    HW228683   1.312   4.416   1.299 -1.2747 -2.5943  0.2603
 5742SOL     OW28684   4.605   1.050  10.481 -0.3135 -0.2588 -0.1137
 5742SOL    HW128685   4.572   0.988  10.416  0.1665 -1.9332  1.2554
 5742SOL    HW228686   4.596   1.000  10.562 -1.3700  0.5261  0.2598
 5743SOL     OW28687   2.204   3.658  13.915  0.2536  0.4160 -0.0118
 5743SOL    HW128688   2.167   3.723  13.975  1.8143  0.3216  1.0505
 5743SOL    HW228689   2.187   3.693  13.827  1.1465  2.1126  0.4954
 5744SOL     OW28690   4.694   4.612   6.741  1.0193  0.3894  0.5284
 5744SOL    HW128691   0.042   4.676   6.732  2.1569 -0.9224  0.2360
 5744SOL    HW228692   0.015   4.527   6.744  0.7557  0.3378  3.1917
 5745SOL     OW28693   0.811   2.808  13.379 -0.1413 -0.0889 -0.0329
 5745SOL    HW128694   0.902   2.820  13.352 -0.7431  1.6104 -1.3440
 5745SOL    HW228695   0.763   2.869  13.323 -0.3276  1.1842  1.5236
 5746SOL     OW28696   1.188   0.747   8.202 -0.2177 -0.1502 -0.4148
 5746SOL    HW128697   1.100   0.737   8.237 -0.6048  0.9887 -1.0601
 5746SOL    HW228698   1.206   0.841   8.207  0.9864 -0.3788 -0.4878
 5747SOL     OW28699   4.305   4.264   3.081  0.1579 -0.2142 -0.4741
 5747SOL    HW128700   4.325   4.288   3.171 -0.3715 -0.4456 -0.2981
 5747SOL    HW228701   4.216   4.299   3.075 -0.6058 -2.2650 -1.0404
 5748SOL     OW28702   2.272   2.297   5.357  0.5595  0.6011 -0.3085
 5748SOL    HW128703   2.241   2.383   5.386 -1.7266 -0.0935 -0.6993
 5748SOL    HW228704   2.347   2.331   5.308 -0.8296  1.8805 -1.4975
 5749SOL     OW28705   3.415   3.567  14.334 -0.2051 -0.7043 -0.5379
 5749SOL    HW128706   3.404   3.661  14.319 -1.6737 -0.3998  2.3509
 5749SOL    HW228707   3.406   3.535  14.244 -2.1967 -1.3564 -0.1232
 5750SOL     OW28708   1.836   4.696   0.283  0.7491 -0.2439 -0.1335
 5750SOL    HW128709   1.843   0.044   0.219 -0.1596 -0.9714 -1.0370
 5750SOL    HW228710   1.776   4.636   0.239  1.4594 -2.1067  1.4367
 5751SOL     OW28711   4.467   0.408   4.412 -0.3286  0.6485 -0.2198
 5751SOL    HW128712   4.422   0.325   4.399  2.1341 -0.8408  0.8659
 5751SOL    HW228713   4.409   0.479   4.439 -0.4951 -0.3675  2.0734
 5752SOL     OW28714   1.031   0.401  14.416  0.3424 -0.1345 -0.5684
 5752SOL    HW128715   1.091   0.373  14.485 -2.0551 -0.5887  1.3179
 5752SOL    HW228716   1.091   0.450  14.360  0.7249  0.2348  0.1542
 5753SOL     OW28717   2.716   3.954   7.250 -0.1930 -0.1606 -0.6327
 5753SOL    HW128718   2.634   3.975   7.296 -0.1413 -2.9307  0.7355
 5753SOL    HW228719   2.775   3.987   7.318 -2.4946 -0.0781  1.3294
 5754SOL     OW28720   0.827   0.877   7.514 -0.3134  0.1442  0.0504
 5754SOL    HW128721   0.814   0.818   7.588 -0.0439 -0.5909 -0.4897
 5754SOL    HW228722   0.881   0.817   7.463  1.1911  1.4570  0.0558
 5755SOL     OW28723   0.509   4.379   7.972 -0.1821 -0.1783  0.5295
 5755SOL    HW128724   0.585   4.409   7.923  0.1209 -1.9304 -0.0832
 5755SOL    HW228725   0.486   4.301   7.922 -1.5514  0.5031  0.0957
 5756SOL     OW28726   4.322   2.870  15.071  0.3427 -0.4102 -0.1178
 5756SOL    HW128727   4.238   2.881  15.027  0.2753  0.2081  0.1717
 5756SOL    HW228728   4.319   2.777  15.093  1.1939 -0.3548  0.2388
 5757SOL     OW28729   0.969   4.647   1.707 -0.2538 -0.0044  0.2410
 5757SOL    HW128730   1.042   4.652   1.768 -0.1849  2.3638 -0.0562
 5757SOL    HW228731   1.017   4.597   1.640 -1.0401  0.5605 -0.7535
 5758SOL     OW28732   0.864   2.028   7.257  0.4670  0.0625  0.2346
 5758SOL    HW128733   0.936   2.052   7.199  0.6557 -1.3948 -0.1263
 5758SOL    HW228734   0.794   2.084   7.223  0.6440 -0.6795 -1.3634
 5759SOL     OW28735   0.622   1.894   9.082  0.5838  0.5214 -0.5383
 5759SOL    HW128736   0.670   1.862   9.158  1.1323  5.6211  1.2543
 5759SOL    HW228737   0.617   1.987   9.100 -1.9001  0.9681 -3.5106
 5760SOL     OW28738   3.762   4.313   1.979  0.3807  0.2102 -0.9043
 5760SOL    HW128739   3.694   4.367   1.940 -0.6555  0.8058  1.7501
 5760SOL    HW228740   3.838   4.368   1.959  1.7163 -1.8788 -1.6514
 5761SOL     OW28741   0.045   1.244   5.527  0.1653  0.5152  0.0079
 5761SOL    HW128742   0.054   1.235   5.432  1.6536  0.1692  0.1762
 5761SOL    HW228743   0.095   1.325   5.541  1.0031 -0.2758  1.6062
 5762SOL     OW28744   2.266   1.771   5.184 -0.4547  0.2643  0.7732
 5762SOL    HW128745   2.293   1.805   5.269  2.9781 -2.4194  0.7537
 5762SOL    HW228746   2.170   1.780   5.185 -0.4338  0.3993  1.6297
 5763SOL     OW28747   1.158   0.176  17.027 -0.4049  0.3190 -0.2412
 5763SOL    HW128748   1.119   0.098  17.065  0.1164  0.7212  1.1104
 5763SOL    HW228749   1.085   0.197  16.969 -0.0910 -0.4317 -0.9124
 5764SOL     OW28750   0.480   2.433   4.751  0.0083  0.2888 -0.5075
 5764SOL    HW128751   0.403   2.441   4.695 -0.1335 -0.4635 -0.4249
 5764SOL    HW228752   0.549   2.465   4.693  1.5772  0.4196  1.4468
 5765SOL     OW28753   2.415   0.102  11.455 -0.0055 -0.3006 -0.6556
 5765SOL    HW128754   2.499   0.070  11.422  0.5412  0.2243  0.2314
 5765SOL    HW228755   2.406   0.181  11.403  1.6205 -0.4611 -1.1752
 5766SOL     OW28756   0.636   3.267  14.509 -0.1185 -0.1450  0.6294
 5766SOL    HW128757   0.586   3.222  14.441  2.2083  0.3244 -1.3987
 5766SOL    HW228758   0.709   3.206  14.516  0.4561  0.3489 -0.8636
 5767SOL     OW28759   1.169   0.154   5.229  0.2076 -0.5612 -0.1886
 5767SOL    HW128760   1.095   0.094   5.238 -1.2092  1.4910  1.8291
 5767SOL    HW228761   1.229   0.123   5.297 -0.5452  2.4328  1.8162
 5768SOL     OW28762   4.306   3.292   5.826 -0.0041 -0.2455 -0.5160
 5768SOL    HW128763   4.396   3.260   5.826  0.1151  0.0854  0.1256
 5768SOL    HW228764   4.314   3.359   5.894 -1.7248 -0.1073 -0.4441
 5769SOL     OW28765   0.953   4.319  17.487 -0.1555 -0.1016 -0.3843
 5769SOL    HW128766   1.027   4.260  17.467 -1.2944 -2.2046  1.6585
 5769SOL    HW228767   0.915   4.331  17.400 -3.2975 -0.4148  0.9720
 5770SOL     OW28768   2.524   4.307  16.275  0.3504 -0.5230  0.6001
 5770SOL    HW128769   2.535   4.397  16.244  0.6138 -0.0462  2.0634
 5770SOL    HW228770   2.610   4.295  16.315  1.2608  0.5809 -1.0242
 5771SOL     OW28771   2.751   0.414   5.283  0.2991  0.4766 -0.0053
 5771SOL    HW128772   2.762   0.432   5.376 -0.1523 -0.1845  0.1733
 5771SOL    HW228773   2.786   0.325   5.274 -0.3574  0.3099 -0.9760
 5772SOL     OW28774   0.583   1.149  16.092  0.1630  0.2378 -0.3616
 5772SOL    HW128775   0.641   1.207  16.043  0.5103  0.4626  0.3222
 5772SOL    HW228776   0.590   1.066  16.044 -2.6491  0.7225 -1.6422
 5773SOL     OW28777   3.928   2.656   1.632 -0.5309 -0.3868  0.7503
 5773SOL    HW128778   3.873   2.615   1.699 -0.5023 -0.8197  0.5115
 5773SOL    HW228779   3.996   2.589   1.619  0.4219  0.7191  0.0067
 5774SOL     OW28780   0.021   2.687  11.103 -0.1897 -0.1782  0.1385
 5774SOL    HW128781   0.064   2.616  11.057  0.7410  1.0654 -0.8931
 5774SOL    HW228782   4.679   2.705  11.035  1.1047  0.9457 -0.7873
 5775SOL     OW28783   3.859   3.323   2.861  0.0395  0.3525 -0.3744
 5775SOL    HW128784   3.830   3.239   2.896  1.1446 -0.4819 -1.4677
 5775SOL    HW228785   3.950   3.309   2.887  0.0707 -0.7602 -1.0720
 5776SOL     OW28786   1.991   0.802   5.950 -0.3964  0.1953  0.2319
 5776SOL    HW128787   1.929   0.818   6.021 -0.3973 -0.1825  0.3180
 5776SOL    HW228788   2.064   0.762   5.997  0.9924 -0.3957 -2.4302
 5777SOL     OW28789   1.244   1.929   8.288 -0.4842 -0.0538 -0.0203
 5777SOL    HW128790   1.303   1.919   8.214  1.1366  0.5622  1.1986
 5777SOL    HW228791   1.305   1.909   8.358 -0.4241  1.3440  0.3385
 5778SOL     OW28792   1.143   1.278   6.178  0.3106 -0.3566  0.3300
 5778SOL    HW128793   1.215   1.216   6.169  1.1083  0.8849 -1.6251
 5778SOL    HW228794   1.071   1.218   6.155 -0.8670  0.4098  1.9970
 5779SOL     OW28795   1.937   0.084  14.882  0.6359  0.3386 -0.0587
 5779SOL    HW128796   2.026   0.118  14.890  0.7907 -0.1611  0.3364
 5779SOL    HW228797   1.903   0.067  14.970  0.4726 -1.6156 -0.4959
 5780SOL     OW28798   0.867   2.603   8.840 -0.2218 -0.1965  0.4347
 5780SOL    HW128799   0.936   2.620   8.904  0.5529 -0.2201 -0.3960
 5780SOL    HW228800   0.920   2.587   8.763 -0.8032  3.3338 -0.7218
 5781SOL     OW28801   1.974   3.411   6.256  0.2831  0.1571 -0.2048
 5781SOL    HW128802   2.069   3.413   6.250  0.2175 -2.1566 -1.8439
 5781SOL    HW228803   1.956   3.360   6.334  2.4936 -0.1262  0.1121
 5782SOL     OW28804   0.109   3.504   6.210  0.4149  0.6000 -0.3175
 5782SOL    HW128805   0.021   3.512   6.175  0.4662 -0.5194 -0.6852
 5782SOL    HW228806   0.116   3.597   6.234  1.9689  0.2363  0.6811
 5783SOL     OW28807   3.775   4.157   8.661  0.0249 -0.4931  0.0253
 5783SOL    HW128808   3.810   4.239   8.695 -0.7294 -0.1505 -0.0084
 5783SOL    HW228809   3.717   4.190   8.592  1.7743  0.8773 -0.7630
 5784SOL     OW28810   4.391   1.412  12.179  0.3152  0.7874  0.3791
 5784SOL    HW128811   4.324   1.344  12.176  0.8060  0.2179  1.9239
 5784SOL    HW228812   4.336   1.483  12.146 -1.5568 -1.2317 -0.8275
 5785SOL     OW28813   0.747   1.484   8.588 -0.7196 -0.1819  0.0898
 5785SOL    HW128814   0.803   1.428   8.534  2.3164  0.6052  2.3679
 5785SOL    HW228815   0.784   1.472   8.676 -3.9583 -0.5862  1.3684
 5786SOL     OW28816   0.545   2.720   2.066  0.0218 -0.4273 -0.4630
 5786SOL    HW128817   0.634   2.718   2.029  0.1951 -0.3989 -0.0498
 5786SOL    HW228818   0.482   2.722   1.994 -2.0328 -0.9450  1.3485
 5787SOL     OW28819   3.320   0.439   6.103 -0.7252  0.2783 -0.4236
 5787SOL    HW128820   3.291   0.491   6.028  0.3448 -0.4040 -1.3093
 5787SOL    HW228821   3.319   0.497   6.179  1.3109  2.0492 -1.7459
 5788SOL     OW28822   2.725   3.259  12.260 -0.0631 -0.1312  0.0047
 5788SOL    HW128823   2.759   3.347  12.269  0.2213 -0.2759  0.3281
 5788SOL    HW228824   2.720   3.222  12.348 -2.0786 -1.1517 -0.5342
 5789SOL     OW28825   0.773   3.616   7.346  0.2055  0.3734  0.1588
 5789SOL    HW128826   0.784   3.532   7.391  0.6486  0.5809  0.4405
 5789SOL    HW228827   0.685   3.622   7.308 -0.0906  0.1464  0.8035
 5790SOL     OW28828   1.821   2.594   3.816 -0.1576 -0.0227 -0.0281
 5790SOL    HW128829   1.775   2.535   3.875 -0.3206 -0.9494 -1.0891
 5790SOL    HW228830   1.891   2.636   3.867  0.2154 -0.0093 -0.5510
 5791SOL     OW28831   2.193   1.841   7.052  0.2332  0.9623  0.2348
 5791SOL    HW128832   2.157   1.926   7.026  0.0809  0.0883 -2.3217
 5791SOL    HW228833   2.112   1.799   7.082  1.1000  0.4769  1.8997
 5792SOL     OW28834   1.004   1.008   5.897 -0.8393 -0.3977  0.2817
 5792SOL    HW128835   0.998   0.968   5.811 -3.4553  0.7526 -0.0711
 5792SOL    HW228836   1.099   1.005   5.903 -0.8368 -0.0800  0.4289
 5793SOL     OW28837   0.131   1.784   1.854 -0.3775  0.2964 -0.0357
 5793SOL    HW128838   0.047   1.761   1.815  0.2936 -0.5003 -1.0000
 5793SOL    HW228839   0.188   1.720   1.813 -0.8329  0.2152 -0.5266
 5794SOL     OW28840   2.489   3.566   6.027 -0.2113 -0.2762 -0.0674
 5794SOL    HW128841   2.540   3.505   5.974 -0.1352 -0.3783  0.1210
 5794SOL    HW228842   2.401   3.529   6.021 -0.4936  0.4987 -0.6115
 5795SOL     OW28843   1.221   4.113   0.303 -0.0568  0.5885 -0.4704
 5795SOL    HW128844   1.164   4.085   0.232 -1.0310  3.6595 -0.9077
 5795SOL    HW228845   1.167   4.092   0.380 -2.6245  1.5940 -2.0010
 5796SOL     OW28846   2.428   3.041  15.122 -0.4578 -0.0138  0.3526
 5796SOL    HW128847   2.496   3.100  15.154  0.0197 -1.0639  1.2644
 5796SOL    HW228848   2.355   3.049  15.183  1.0795  1.8282  1.9477
 5797SOL     OW28849   0.326   4.193  13.099  0.3644 -0.4652  0.1899
 5797SOL    HW128850   0.390   4.263  13.085  0.1804 -0.8392 -2.4970
 5797SOL    HW228851   0.264   4.242  13.152 -2.5606 -1.4855 -2.3272
 5798SOL     OW28852   0.881   3.023  12.752 -0.1709 -0.4319  0.3533
 5798SOL    HW128853   0.947   3.091  12.761 -1.1412  0.5990 -0.2799
 5798SOL    HW228854   0.932   2.950  12.787  0.2940 -0.8007 -1.0877
 5799SOL     OW28855   0.545   2.993   8.393  0.2082  0.3743  0.1016
 5799SOL    HW128856   0.593   2.911   8.380  2.0170  1.4754 -0.1816
 5799SOL    HW228857   0.599   3.069   8.372 -0.5865  0.2931 -2.1538
 5800SOL     OW28858   0.745   1.247   6.293  0.5024 -0.4329  0.7742
 5800SOL    HW128859   0.817   1.221   6.236  0.4529 -2.9646  1.8627
 5800SOL    HW228860   0.671   1.228   6.235  1.1582  1.7025 -0.7416
 5801SOL     OW28861   2.270   0.667   6.429  0.3762  0.4092  0.2017
 5801SOL    HW128862   2.337   0.729   6.460  1.6038 -0.4947 -0.6407
 5801SOL    HW228863   2.337   0.622   6.377  1.2027 -0.3979  1.9646
 5802SOL     OW28864   1.544   3.118   8.716  0.1293  0.3587 -0.1509
 5802SOL    HW128865   1.468   3.175   8.708  0.7312  1.3052  0.8919
 5802SOL    HW228866   1.596   3.136   8.638  0.0158 -1.2464 -0.5865
 5803SOL     OW28867   4.236   4.020  10.271  0.0323 -0.1531  0.2266
 5803SOL    HW128868   4.208   3.995  10.183 -1.4862 -0.9994  0.9478
 5803SOL    HW228869   4.227   4.115  10.266  3.4010  0.1647  0.4951
 5804SOL     OW28870   3.439   4.104   6.151 -0.0341 -0.3382  0.0875
 5804SOL    HW128871   3.503   4.097   6.081 -1.3488 -0.2836 -1.1112
 5804SOL    HW228872   3.484   4.065   6.226  2.3635 -0.6878 -1.5240
 5805SOL     OW28873   1.790   2.827   2.157  0.0157  0.2355 -0.0641
 5805SOL    HW128874   1.832   2.782   2.084  1.7657  0.6482  0.6785
 5805SOL    HW228875   1.762   2.743   2.194  0.8530 -0.3410 -0.7410
 5806SOL     OW28876   2.958   1.302   8.332 -0.2451  0.4665  0.2146
 5806SOL    HW128877   2.893   1.249   8.285  1.1143  0.4158 -1.6174
 5806SOL    HW228878   2.952   1.384   8.282  0.7693  0.4003 -0.0085
 5807SOL     OW28879   2.507   4.327   7.010  0.8813  0.4805  0.3144
 5807SOL    HW128880   2.414   4.340   7.029  0.6856  0.6338 -0.7887
 5807SOL    HW228881   2.527   4.405   6.958 -1.8663  0.6257 -0.5139
 5808SOL     OW28882   2.117   4.627  15.751  0.1090  0.0645 -0.6230
 5808SOL    HW128883   2.115   4.682  15.672 -0.3058  1.1428  0.1396
 5808SOL    HW228884   2.186   4.563  15.733  0.3471 -1.2026  4.9993
 5809SOL     OW28885   1.680   1.163   8.380 -0.0287  0.3467  0.1153
 5809SOL    HW128886   1.688   1.255   8.404  0.0067  0.4476 -0.2869
 5809SOL    HW228887   1.762   1.158   8.331  0.6478  0.2641  1.2484
 5810SOL     OW28888   0.421   0.105   5.764 -0.0749  0.9089 -0.6795
 5810SOL    HW128889   0.486   0.081   5.698 -0.2043 -0.7472 -0.2047
 5810SOL    HW228890   0.349   0.115   5.702 -0.6109 -0.8526 -0.3648
 5811SOL     OW28891   3.038   4.359   3.251 -0.5580  0.2770  0.1472
 5811SOL    HW128892   2.990   4.356   3.334  1.5433 -0.8293  1.3196
 5811SOL    HW228893   3.088   4.277   3.254  0.2841  0.8299  1.5059
 5812SOL     OW28894   1.317   2.605   4.044  0.7271 -0.5776  0.1970
 5812SOL    HW128895   1.329   2.695   4.075  2.2388 -0.7763  0.1514
 5812SOL    HW228896   1.342   2.555   4.122  2.2866  0.2201  0.2127
 5813SOL     OW28897   3.195   0.236   0.873 -0.2743 -0.7389  0.4491
 5813SOL    HW128898   3.224   0.325   0.853  0.0266 -0.3958  2.3383
 5813SOL    HW228899   3.268   0.203   0.925 -0.2512 -1.5788 -0.1195
 5814SOL     OW28900   1.720   2.154   0.557 -0.6578 -0.5174 -0.0003
 5814SOL    HW128901   1.727   2.095   0.631  3.8165 -1.1818 -0.9405
 5814SOL    HW228902   1.728   2.243   0.592  2.7586 -0.5530 -0.7019
 5815SOL     OW28903   2.204   2.841   7.199  0.1850  0.1636 -0.8241
 5815SOL    HW128904   2.228   2.898   7.273  0.1701 -1.2904  0.2991
 5815SOL    HW228905   2.295   2.825   7.174  0.8669  1.6195  0.6737
 5816SOL     OW28906   1.394   1.799   7.867 -0.4077 -0.1001 -0.5907
 5816SOL    HW128907   1.474   1.822   7.913 -1.2801 -2.2241  1.9386
 5816SOL    HW228908   1.335   1.758   7.930  0.2306  1.3726  0.9741
 5817SOL     OW28909   4.333   2.484   8.237 -0.2621 -0.6303 -0.6107
 5817SOL    HW128910   4.372   2.541   8.303  1.2716 -1.2181 -0.9996
 5817SOL    HW228911   4.398   2.493   8.167  0.9200 -1.4440  0.3827
 5818SOL     OW28912   4.417   0.492  13.383 -0.1695  0.2209 -0.0062
 5818SOL    HW128913   4.460   0.534  13.308  0.3103 -3.4273 -1.8039
 5818SOL    HW228914   4.472   0.524  13.454  0.7220 -1.2083 -0.0463
 5819SOL     OW28915   3.107   1.205   2.065  0.1210 -0.1315 -0.3365
 5819SOL    HW128916   3.086   1.224   1.974 -1.4612 -3.8104 -0.7272
 5819SOL    HW228917   3.150   1.122   2.049  1.9816  0.1533  3.0334
 5820SOL     OW28918   2.671   1.179   6.695  0.1488 -0.1405  0.7964
 5820SOL    HW128919   2.697   1.113   6.630 -1.0467  0.7491 -0.5793
 5820SOL    HW228920   2.652   1.107   6.756 -0.1181 -2.9417 -2.5567
 5821SOL     OW28921   0.507   2.918   1.750 -0.6915 -0.3370 -0.3534
 5821SOL    HW128922   0.486   2.918   1.657 -0.3997  0.6105 -0.4183
 5821SOL    HW228923   0.596   2.953   1.753 -0.8642  0.1112 -0.4391
 5822SOL     OW28924   0.287   0.124   6.953 -0.0499 -0.0414  0.1939
 5822SOL    HW128925   0.252   0.061   7.016 -0.6283  0.0260 -0.0618
 5822SOL    HW228926   0.280   0.208   6.999  1.5495  0.2671 -0.1139
 5823SOL     OW28927   0.927   0.618  17.534 -0.3185 -0.7830 -0.0842
 5823SOL    HW128928   0.886   0.660  17.610 -2.2845 -1.0289 -1.0102
 5823SOL    HW228929   1.004   0.673  17.522  0.3939 -1.6095  0.7392
 5824SOL     OW28930   1.413   2.718   5.134  0.0443 -0.6130 -0.3113
 5824SOL    HW128931   1.410   2.759   5.048 -0.5956 -1.0320 -0.4866
 5824SOL    HW228932   1.508   2.720   5.142  0.1064  1.5357 -1.7418
 5825SOL     OW28933   3.614   2.768   3.013 -0.3107 -0.0551  0.0942
 5825SOL    HW128934   3.605   2.793   2.921  0.4208 -0.8913 -0.2140
 5825SOL    HW228935   3.548   2.826   3.052  1.1594  0.6372  1.5599
 5826SOL     OW28936   2.066   3.415   7.015 -0.2310 -0.4925  0.3550
 5826SOL    HW128937   2.120   3.388   6.940 -0.0281  0.0194  0.3165
 5826SOL    HW228938   2.088   3.353   7.085  2.6097  0.7351  0.5843
 5827SOL     OW28939   0.012   0.543   4.361 -0.6649 -0.0271 -0.1029
 5827SOL    HW128940   4.656   0.495   4.386 -0.8894 -0.1820 -1.1108
 5827SOL    HW228941   4.720   0.588   4.278 -1.1108 -1.4946 -0.8238
 5828SOL     OW28942   4.577   1.737  11.000  0.1457  0.0624 -0.1731
 5828SOL    HW128943   4.550   1.720  11.090  0.4544  3.0806  0.4825
 5828SOL    HW228944   4.657   1.685  10.998 -0.1431 -0.4297  1.1091
 5829SOL     OW28945   0.713   3.701   6.437  0.1028 -0.2606 -0.6928
 5829SOL    HW128946   0.694   3.794   6.423  1.7023 -0.2860 -2.8765
 5829SOL    HW228947   0.798   3.693   6.394  0.9043  0.3908  0.7561
 5830SOL     OW28948   2.616   4.001   7.676  0.2397 -0.0218  0.6912
 5830SOL    HW128949   2.689   3.940   7.679 -0.5113 -0.9878 -0.9029
 5830SOL    HW228950   2.593   3.999   7.583 -0.2521 -3.0090  0.8979
 5831SOL     OW28951   0.152   0.073   6.682  0.2863  0.3009  0.1662
 5831SOL    HW128952   0.229   0.074   6.738  1.3270 -0.4322 -1.2784
 5831SOL    HW228953   0.185   0.111   6.601 -1.2579 -1.9616 -1.5324
 5832SOL     OW28954   3.389   2.504  12.357  0.2733  0.3704  1.1200
 5832SOL    HW128955   3.362   2.577  12.413  0.2526  0.0656  1.5065
 5832SOL    HW228956   3.417   2.549  12.277  0.6290 -0.2495  0.8992
 5833SOL     OW28957   4.716   1.707   6.080 -0.3996 -0.1871  0.0741
 5833SOL    HW128958   0.029   1.726   6.166  1.2147 -2.2774 -0.1184
 5833SOL    HW228959   4.698   1.799   6.059 -3.2341 -1.0040 -1.0678
 5834SOL     OW28960   1.845   1.787   2.384  0.1775 -0.0036  0.4064
 5834SOL    HW128961   1.859   1.698   2.417  0.9005 -0.3139 -0.7280
 5834SOL    HW228962   1.885   1.780   2.297  0.4159  1.9614  0.3663
 5835SOL     OW28963   2.739   4.084   3.327 -0.5342 -0.0830  0.0974
 5835SOL    HW128964   2.661   4.031   3.313 -0.9062  0.5437 -0.1866
 5835SOL    HW228965   2.807   4.019   3.312  1.1915  1.4945  1.0728
 5836SOL     OW28966   2.873   3.045  13.042 -0.2854  0.1396 -0.2848
 5836SOL    HW128967   2.917   2.979  12.989  1.1865  0.1644  0.9177
 5836SOL    HW228968   2.825   2.987  13.100  1.0623 -1.2295 -0.5375
 5837SOL     OW28969   4.379   4.081  13.533 -0.2609  0.1865 -0.0660
 5837SOL    HW128970   4.445   4.044  13.474  0.4519 -0.0057  0.8524
 5837SOL    HW228971   4.409   4.031  13.609  0.2358  1.0222  0.2888
 5838SOL     OW28972   2.218   3.890   7.225 -0.5503 -0.0166  0.0232
 5838SOL    HW128973   2.177   3.820   7.174  1.0491 -1.0445  0.1487
 5838SOL    HW228974   2.268   3.836   7.286 -0.8678 -0.9848 -0.5809
 5839SOL     OW28975   3.530   1.388   6.589 -0.3719  0.6415  0.4055
 5839SOL    HW128976   3.450   1.412   6.635 -1.4561 -1.1738 -0.5198
 5839SOL    HW228977   3.589   1.460   6.608  1.2426 -0.5378 -0.0962
 5840SOL     OW28978   2.719   4.272  14.050 -0.1164 -0.3726  0.1797
 5840SOL    HW128979   2.677   4.327  13.983 -1.3179 -0.3570  0.9502
 5840SOL    HW228980   2.792   4.322  14.088 -0.6856  0.8725 -0.3410
 5841SOL     OW28981   2.851   3.805   9.355 -0.2680  0.3515  0.5169
 5841SOL    HW128982   2.935   3.819   9.312 -0.3470  4.1501  1.6607
 5841SOL    HW228983   2.839   3.718   9.317  1.5528 -0.5620  1.9903
 5842SOL     OW28984   3.963   3.736  14.340 -0.0607 -0.0272  0.5226
 5842SOL    HW128985   3.997   3.687  14.414  3.7881 -1.2031 -2.0133
 5842SOL    HW228986   3.958   3.663  14.279 -0.4483  1.7796 -1.6269
 5843SOL     OW28987   2.997   4.667   7.982  0.3916  0.2505 -0.1298
 5843SOL    HW128988   2.922   4.626   7.939 -0.3789  0.2027  1.2423
 5843SOL    HW228989   3.073   4.637   7.933  0.5201 -1.7093  1.2739
 5844SOL     OW28990   0.112   0.622   9.209  0.4408 -0.1343 -0.6497
 5844SOL    HW128991   0.123   0.662   9.122 -0.2809 -2.2517 -1.6956
 5844SOL    HW228992   0.201   0.589   9.222 -0.4937 -1.9362  1.1144
 5845SOL     OW28993   1.587   1.092   4.343 -0.2784  0.2057  0.4639
 5845SOL    HW128994   1.577   0.999   4.323 -1.8222  0.4023  0.3481
 5845SOL    HW228995   1.503   1.133   4.327 -0.9410 -0.8584  1.2175
 5846SOL     OW28996   3.951   1.620   5.882 -0.2701 -0.3982 -0.7382
 5846SOL    HW128997   3.992   1.582   5.961 -0.8091 -0.4895 -0.5056
 5846SOL    HW228998   3.915   1.698   5.924 -0.5046 -1.1851  0.5353
 5847SOL     OW28999   0.942   0.487   6.010  0.5856 -0.1709 -0.1117
 5847SOL    HW129000   1.033   0.512   5.990  0.9201  2.1152  4.3213
 5847SOL    HW229001   0.940   0.499   6.105  1.2908  0.0478 -0.1225
 5848SOL     OW29002   2.711   0.332   8.418 -0.1738  0.2928 -0.3488
 5848SOL    HW129003   2.711   0.242   8.387 -1.1695  0.6081 -1.2566
 5848SOL    HW229004   2.619   0.356   8.415 -0.7023 -1.6599  0.1611
 5849SOL     OW29005   1.609   3.477   4.243  0.6862 -0.1762  0.5414
 5849SOL    HW129006   1.663   3.556   4.251 -2.9829  2.2866  1.0259
 5849SOL    HW229007   1.531   3.484   4.187  0.3313 -0.7093  0.9656
 5850SOL     OW29008   1.250   1.843   9.447 -0.2801  0.9370 -0.3885
 5850SOL    HW129009   1.269   1.825   9.355 -0.1113  2.3605 -0.6419
 5850SOL    HW229010   1.335   1.883   9.464 -0.5539  0.7100  1.4660
 5851SOL     OW29011   0.424   0.983   7.745  0.0793 -0.0333 -0.3369
 5851SOL    HW129012   0.424   0.931   7.664  1.8813 -0.7158  0.1018
 5851SOL    HW229013   0.345   0.950   7.789 -0.3810 -0.1065 -1.2096
 5852SOL     OW29014   1.632   2.376   3.847 -0.4502 -0.1329  0.0812
 5852SOL    HW129015   1.598   2.403   3.933  0.6449 -0.4959  0.6232
 5852SOL    HW229016   1.559   2.405   3.792  0.5977  0.4704 -0.9740
 5853SOL     OW29017   4.548   2.236   3.890 -0.6224  0.3188 -0.0797
 5853SOL    HW129018   4.492   2.313   3.877  0.2871  0.9688 -0.0937
 5853SOL    HW229019   4.588   2.233   3.803  3.0610 -0.0762  1.6633
 5854SOL     OW29020   2.793   2.151  14.087 -0.3306 -0.2299 -0.1131
 5854SOL    HW129021   2.719   2.193  14.044 -0.6363 -0.8430 -0.1756
 5854SOL    HW229022   2.866   2.189  14.038  0.4426 -1.7144 -0.1183
 5855SOL     OW29023   1.125   3.478   5.730  0.0880  0.0154 -0.0151
 5855SOL    HW129024   1.131   3.535   5.808  0.8950  1.2788 -0.9902
 5855SOL    HW229025   1.045   3.501   5.683 -1.8991 -3.3068  1.7551
 5856SOL     OW29026   4.310   3.850   4.364  0.4920  0.0453  0.0427
 5856SOL    HW129027   4.380   3.785   4.353 -1.0722 -1.7084  0.3253
 5856SOL    HW229028   4.373   3.922   4.370 -0.2248  0.6297  0.5421
 5857SOL     OW29029   1.137   2.901   2.875  0.1454  0.2430 -0.3379
 5857SOL    HW129030   1.106   2.985   2.907 -1.5276 -1.2377  1.9330
 5857SOL    HW229031   1.101   2.849   2.947 -0.6346  1.0953 -0.1172
 5858SOL     OW29032   2.185   2.201   3.507 -0.5862 -0.5752 -0.5354
 5858SOL    HW129033   2.279   2.219   3.513 -0.4760 -2.0472  2.5137
 5858SOL    HW229034   2.148   2.241   3.586 -0.8654 -2.5179  0.3264
 5859SOL     OW29035   4.139   1.322   7.830 -0.0970  0.2175 -0.1640
 5859SOL    HW129036   4.072   1.348   7.893 -0.8266 -0.4201 -0.6546
 5859SOL    HW229037   4.082   1.282   7.763 -1.1728  0.3223  0.6892
 5860SOL     OW29038   1.045   0.256   1.507  0.9774 -0.0983 -0.1673
 5860SOL    HW129039   0.972   0.211   1.550 -0.4049  0.9729 -1.3844
 5860SOL    HW229040   1.121   0.239   1.563  2.1143  3.1435 -0.7772
 5861SOL     OW29041   2.633   2.084   9.950 -0.0677  0.2631  0.7886
 5861SOL    HW129042   2.712   2.084   9.896 -1.3743 -0.4672 -1.1454
 5861SOL    HW229043   2.591   2.161   9.911 -0.5555 -0.3153  0.1708
 5862SOL     OW29044   1.524   0.052  16.749  0.0138  0.5003  0.6057
 5862SOL    HW129045   1.512   0.121  16.683 -0.5164  0.7411  0.9599
 5862SOL    HW229046   1.599   0.085  16.799  0.4306  1.4933 -0.6393
 5863SOL     OW29047   2.299   0.711   7.082  0.1673  0.4136  0.6662
 5863SOL    HW129048   2.210   0.677   7.088  0.3654 -0.2139  0.0396
 5863SOL    HW229049   2.348   0.661   7.147  0.0078  0.3912  0.7684
 5864SOL     OW29050   0.460   0.747  12.537  0.7443 -0.6213  0.1129
 5864SOL    HW129051   0.472   0.652  12.546 -0.1453 -0.8502 -1.1725
 5864SOL    HW229052   0.408   0.777  12.612 -0.4818 -2.3298 -0.0557
 5865SOL     OW29053   1.680   1.486   4.616 -0.4997 -0.1019 -0.0018
 5865SOL    HW129054   1.613   1.544   4.579 -1.0165 -0.6319  0.1003
 5865SOL    HW229055   1.749   1.488   4.550 -0.6978  1.4541 -0.1724
 5866SOL     OW29056   3.448   3.071   5.985  0.2251  0.1805 -0.5567
 5866SOL    HW129057   3.487   3.159   5.989 -0.8230  0.5041  3.1977
 5866SOL    HW229058   3.465   3.044   5.895  2.3224  1.5857 -0.5836
 5867SOL     OW29059   3.158   1.152   3.268  0.6295  0.1755 -0.4186
 5867SOL    HW129060   3.062   1.144   3.272  0.8666 -1.7579  1.4749
 5867SOL    HW229061   3.192   1.080   3.321 -1.5585 -0.7164 -0.2292
 5868SOL     OW29062   1.360   0.792  12.310  0.2620  0.1233  0.4534
 5868SOL    HW129063   1.360   0.839  12.393  0.3861  0.0729  0.4814
 5868SOL    HW229064   1.284   0.827  12.263  0.2882  0.3309  0.5663
 5869SOL     OW29065   2.034   2.826   3.219  0.0726  0.2160 -0.3483
 5869SOL    HW129066   1.967   2.759   3.212 -1.3979  1.5980  0.4059
 5869SOL    HW229067   2.112   2.777   3.193 -1.7961 -1.1441 -3.3301
 5870SOL     OW29068   3.021   3.715   4.584  0.1154  0.1261  0.6213
 5870SOL    HW129069   3.066   3.635   4.612  1.1934 -0.5656 -2.9750
 5870SOL    HW229070   3.035   3.711   4.489 -0.1829 -1.4099  0.6459
 5871SOL     OW29071   2.382   0.075  17.152  0.4778  0.1478  0.0819
 5871SOL    HW129072   2.367   0.119  17.068 -0.9192  0.0339  0.2846
 5871SOL    HW229073   2.299   0.101  17.190 -0.3038  0.2523 -1.6979
 5872SOL     OW29074   2.185   1.492   9.102  0.5387 -0.0383 -0.1737
 5872SOL    HW129075   2.258   1.552   9.089  1.1301 -0.5607  0.7302
 5872SOL    HW229076   2.185   1.446   9.018  0.5130  0.3632 -0.3910
 5873SOL     OW29077   0.382   1.567  11.248 -0.0997  0.3040 -0.2668
 5873SOL    HW129078   0.400   1.589  11.339 -0.5494  0.9377 -0.3264
 5873SOL    HW229079   0.467   1.532  11.221  0.4235  0.1518  1.6126
 5874SOL     OW29080   2.281   2.063   4.116 -0.3265 -0.5897  0.5101
 5874SOL    HW129081   2.260   2.135   4.175 -0.5472 -1.8441  1.9688
 5874SOL    HW229082   2.194   2.027   4.103  0.1976 -1.4615 -0.5725
 5875SOL     OW29083   1.774   3.946  14.224 -0.0096  0.3695  0.0773
 5875SOL    HW129084   1.706   3.914  14.283  0.2907 -1.1055 -0.3506
 5875SOL    HW229085   1.732   3.956  14.138 -0.8492  1.6424  0.6401
 5876SOL     OW29086   4.311   1.109   8.812 -0.2483 -0.2940  0.0464
 5876SOL    HW129087   4.356   1.026   8.827 -0.7266 -0.8284 -1.4585
 5876SOL    HW229088   4.309   1.146   8.900 -1.0768  1.5191 -0.7352
 5877SOL     OW29089   0.097   0.638  12.824  0.4210  0.5098 -0.2531
 5877SOL    HW129090   0.075   0.545  12.829  0.9090  0.4927  1.9198
 5877SOL    HW229091   0.143   0.644  12.908 -0.5331 -0.6371  0.3456
 5878SOL     OW29092   1.600   0.502   8.291  0.1484  0.4757  0.2964
 5878SOL    HW129093   1.541   0.572   8.317 -1.7691 -0.5902 -1.1540
 5878SOL    HW229094   1.648   0.542   8.219  0.0077 -1.3512 -0.8291
 5879SOL     OW29095   2.506   4.437   2.923 -0.5470  0.3445 -0.0668
 5879SOL    HW129096   2.499   4.388   3.005  2.2248 -0.0244 -0.0648
 5879SOL    HW229097   2.414   4.440   2.895 -1.5548 -1.3329  3.0997
 5880SOL     OW29098   2.468   1.849   4.103  0.3764 -0.2746 -0.0544
 5880SOL    HW129099   2.561   1.870   4.116  0.0558 -0.5013  2.6146
 5880SOL    HW229100   2.420   1.925   4.135 -0.8065 -1.7911  1.7498
 5881SOL     OW29101   1.303   2.796  15.366  0.0330 -0.4932  0.3882
 5881SOL    HW129102   1.324   2.886  15.341  0.6399 -0.3122  1.5209
 5881SOL    HW229103   1.208   2.790  15.367  0.0407 -0.4410  2.1383
 5882SOL     OW29104   0.880   3.367  11.992  0.1465 -0.8275 -0.1013
 5882SOL    HW129105   0.855   3.366  11.900 -0.2015 -0.3020 -0.0133
 5882SOL    HW229106   0.807   3.402  12.044  0.1015 -0.9511 -0.0809
 5883SOL     OW29107   1.521   3.757   8.815  0.3244 -0.2499  0.1734
 5883SOL    HW129108   1.604   3.775   8.770  0.5033  0.3964  0.7687
 5883SOL    HW229109   1.535   3.679   8.869  3.1346 -2.0620 -3.1845
 5884SOL     OW29110   3.698   0.994   5.599  0.1802 -0.2456 -0.0690
 5884SOL    HW129111   3.743   1.017   5.518 -1.9689  0.7244 -0.9992
 5884SOL    HW229112   3.766   0.950   5.650 -2.1482 -0.8806  2.5001
 5885SOL     OW29113   4.664   2.531  17.000 -0.3285 -0.0865  0.5213
 5885SOL    HW129114   4.673   2.621  17.031  0.3314  0.1287 -0.3146
 5885SOL    HW229115   4.683   2.550  16.909  0.3264  0.3663  0.7573
 5886SOL     OW29116   3.876   0.734  13.394 -0.3130  0.1933 -0.5263
 5886SOL    HW129117   3.785   0.728  13.424 -0.5597  0.2545 -1.2612
 5886SOL    HW229118   3.868   0.659  13.335 -0.8899  0.4586 -0.7884
 5887SOL     OW29119   3.290   1.527   6.316 -0.4257 -0.1246 -0.1375
 5887SOL    HW129120   3.347   1.549   6.389 -1.7294  1.7374  0.3158
 5887SOL    HW229121   3.205   1.568   6.328 -0.2269  0.4247 -0.5778
 5888SOL     OW29122   2.744   4.555  10.913  0.4003  0.7244  0.0216
 5888SOL    HW129123   2.774   4.614  10.845 -1.1876  1.7623  0.2158
 5888SOL    HW229124   2.690   4.495  10.861  1.0062 -1.2041  1.5977
 5889SOL     OW29125   2.443   1.545   5.083  0.2205  0.2021 -0.1482
 5889SOL    HW129126   2.439   1.455   5.116  0.6899 -0.0009 -0.6504
 5889SOL    HW229127   2.405   1.591   5.158  0.2843  0.5528 -0.3291
 5890SOL     OW29128   3.209   3.822   5.448 -0.2928 -0.0752  0.3431
 5890SOL    HW129129   3.273   3.751   5.435  0.2616  0.8341 -1.9866
 5890SOL    HW229130   3.132   3.777   5.413 -0.6956 -0.7143  2.0538
 5891SOL     OW29131   3.409   3.470  12.838 -0.0234  0.6141 -0.2853
 5891SOL    HW129132   3.447   3.553  12.867  0.2075 -0.1887  1.6816
 5891SOL    HW229133   3.464   3.468  12.760 -0.3585  3.1010 -0.5880
 5892SOL     OW29134   2.896   3.847  13.165 -0.2769 -0.0308  0.3381
 5892SOL    HW129135   2.856   3.869  13.250 -0.2741  0.9270  0.0851
 5892SOL    HW229136   2.832   3.781  13.140 -1.3003  1.3323 -0.6284
 5893SOL     OW29137   2.955   2.242   4.791  0.0789  0.4014  0.2247
 5893SOL    HW129138   2.901   2.164   4.782  0.1077  0.4972 -0.7842
 5893SOL    HW229139   3.034   2.206   4.833  0.1077  0.3831  0.1535
 5894SOL     OW29140   0.093   1.055   9.278  0.1708  0.1187 -0.0201
 5894SOL    HW129141   0.036   1.053   9.355 -2.0518 -0.3253 -1.6721
 5894SOL    HW229142   0.031   1.033   9.209 -0.2566  1.3902 -0.0379
 5895SOL     OW29143   0.648   1.856   1.027 -0.3119 -0.1497  0.0992
 5895SOL    HW129144   0.569   1.824   1.069 -0.2376  0.7566  0.9402
 5895SOL    HW229145   0.618   1.941   0.997  1.3697  0.2830 -0.3589
 5896SOL     OW29146   0.849   0.510  16.965 -0.6117  0.2369 -0.6269
 5896SOL    HW129147   0.857   0.585  17.024  0.0631  0.6999 -1.3196
 5896SOL    HW229148   0.757   0.493  16.985 -0.7358  0.0804 -1.3496
 5897SOL     OW29149   3.751   0.161  10.795 -0.2521 -0.3623  0.5903
 5897SOL    HW129150   3.672   0.211  10.773  0.8744  1.0884 -0.2138
 5897SOL    HW229151   3.819   0.227  10.776 -1.0547  0.0223 -0.9072
 5898SOL     OW29152   0.569   2.966   4.416 -0.4494  0.1633 -0.3394
 5898SOL    HW129153   0.649   2.926   4.382 -0.2894  0.6524 -0.5381
 5898SOL    HW229154   0.505   2.901   4.387 -0.4305  0.5493 -1.2838
 5899SOL     OW29155   1.715   3.806  12.633  0.0961 -0.2056  0.3992
 5899SOL    HW129156   1.686   3.794  12.723  3.5925 -1.4276  1.3193
 5899SOL    HW229157   1.635   3.768  12.594  0.0143 -1.0197  1.3544
 5900SOL     OW29158   4.519   4.246   8.142  0.1890  0.6444 -0.7883
 5900SOL    HW129159   4.555   4.221   8.227 -1.4881  1.5025  0.1823
 5900SOL    HW229160   4.437   4.290   8.163  1.1193  2.0235 -0.0505
 5901SOL     OW29161   4.172   1.044  10.321  0.0530 -0.0505 -1.0107
 5901SOL    HW129162   4.221   1.049  10.403 -1.3346  1.0457 -0.2567
 5901SOL    HW229163   4.244   1.011  10.266 -0.4733 -0.2229 -1.5934
 5902SOL     OW29164   2.494   1.157   3.481  0.1428 -0.2153  0.0490
 5902SOL    HW129165   2.566   1.200   3.434  0.4615 -1.8309 -0.9251
 5902SOL    HW229166   2.531   1.138   3.567  1.2910 -2.8507 -1.0127
 5903SOL     OW29167   0.935   2.726  17.226 -0.2204  0.6750  0.1030
 5903SOL    HW129168   0.849   2.750  17.261 -0.0860  0.8059  0.3475
 5903SOL    HW229169   0.927   2.647  17.174 -0.6865  1.0374 -0.3784
 5904SOL     OW29170   4.482   0.151   3.355  0.2423 -0.3948  1.0678
 5904SOL    HW129171   4.481   0.066   3.312 -2.5354  0.6554 -0.9176
 5904SOL    HW229172   4.472   0.195   3.271  0.1033  0.6136  1.6073
 5905SOL     OW29173   1.470   4.064   3.857 -0.6504 -0.7495 -0.1786
 5905SOL    HW129174   1.402   3.997   3.862 -1.3383  0.0053  0.4053
 5905SOL    HW229175   1.445   4.112   3.778 -0.6999  0.6466  0.6860
 5906SOL     OW29176   4.706   2.537   7.819  0.4658 -0.0372 -0.0291
 5906SOL    HW129177   4.629   2.524   7.875  1.6843 -0.2008  1.6011
 5906SOL    HW229178   4.673   2.596   7.751 -0.8420  0.2625  0.8614
 5907SOL     OW29179   0.903   3.655  11.094 -0.3485  0.2043 -0.2407
 5907SOL    HW129180   0.836   3.722  11.080  1.3834  2.1854  0.7567
 5907SOL    HW229181   0.869   3.616  11.175  1.6692 -0.0367  0.4988
 5908SOL     OW29182   0.712   4.187   2.777 -0.4693  0.3601  0.7556
 5908SOL    HW129183   0.625   4.213   2.807 -1.5897 -0.2965 -1.9080
 5908SOL    HW229184   0.760   4.190   2.860  0.8610  0.9039 -0.0288
 5909SOL     OW29185   0.328   2.320   6.094 -0.6419  0.0283 -0.9064
 5909SOL    HW129186   0.244   2.307   6.138 -1.6414 -1.1436 -3.1117
 5909SOL    HW229187   0.386   2.277   6.156 -0.4160 -0.1977 -1.2747
 5910SOL     OW29188   1.606   2.874   5.505  0.1100  0.5796  0.1926
 5910SOL    HW129189   1.651   2.938   5.449 -1.2027  1.5331  0.2217
 5910SOL    HW229190   1.668   2.801   5.511 -0.3996  0.2677  1.5656
 5911SOL     OW29191   2.453   2.768   7.153 -0.2454 -0.1241  0.4810
 5911SOL    HW129192   2.500   2.693   7.188  0.5782 -0.3287 -1.0847
 5911SOL    HW229193   2.408   2.727   7.080 -2.1426  1.3333  0.8368
 5912SOL     OW29194   0.694   3.768   5.279 -0.6630 -0.5318  0.2543
 5912SOL    HW129195   0.679   3.836   5.214 -0.6156  1.0926  1.9474
 5912SOL    HW229196   0.745   3.816   5.344  0.4398  1.0270 -1.7728
 5913SOL     OW29197   1.984   2.861   8.700 -0.5114  0.2453 -0.1023
 5913SOL    HW129198   1.940   2.925   8.643  1.1932  1.8186  0.3246
 5913SOL    HW229199   2.060   2.836   8.649  0.0195  1.5348  0.0380
 5914SOL     OW29200   0.097   0.132   9.976 -0.3937  0.5213  0.5280
 5914SOL    HW129201   0.102   0.091  10.063 -0.3113 -1.8094 -0.5725
 5914SOL    HW229202   0.183   0.119   9.937 -1.6218 -1.6076 -1.4207
 5915SOL     OW29203   1.751   2.747   7.622 -0.3552  0.6407  0.0237
 5915SOL    HW129204   1.766   2.782   7.710  0.2801  0.4200  0.0041
 5915SOL    HW229205   1.737   2.658   7.653 -1.0269  0.7651  0.0747
 5916SOL     OW29206   0.886   3.348   7.355 -0.4084 -0.5340 -0.8912
 5916SOL    HW129207   0.854   3.373   7.269 -1.5182 -0.2446 -0.3874
 5916SOL    HW229208   0.966   3.402   7.359  0.2394 -1.6691  1.5654
 5917SOL     OW29209   3.252   0.623   1.657 -0.8741  0.3173  0.3891
 5917SOL    HW129210   3.337   0.649   1.621 -1.6265  2.6291  0.2806
 5917SOL    HW229211   3.194   0.680   1.607 -0.9749 -0.2649 -0.1529
 5918SOL     OW29212   3.187   1.644  14.626  0.5702  0.6139 -0.0164
 5918SOL    HW129213   3.216   1.554  14.643 -1.2258  0.0424  0.0324
 5918SOL    HW229214   3.267   1.688  14.658  1.5008  0.9707 -2.8290
 5919SOL     OW29215   1.105   1.624   7.549 -0.2313 -0.5146 -0.3078
 5919SOL    HW129216   1.074   1.700   7.500 -3.8473 -0.7932  1.5703
 5919SOL    HW229217   1.187   1.656   7.588  0.5654 -2.5919 -0.2472
 5920SOL     OW29218   3.059   0.466   3.362 -0.0808 -0.1513  0.0233
 5920SOL    HW129219   2.979   0.443   3.316  0.7358 -1.4937 -0.7484
 5920SOL    HW229220   3.067   0.406   3.436  0.5622 -1.1702 -0.8641
 5921SOL     OW29221   2.172   1.526   4.435  0.1726  0.1870  0.3374
 5921SOL    HW129222   2.187   1.501   4.526  0.5303  0.1935  0.2813
 5921SOL    HW229223   2.219   1.449   4.402  2.0493  1.2244  0.5800
 5922SOL     OW29224   1.734   0.174   9.919 -0.1841  0.1283 -0.4186
 5922SOL    HW129225   1.703   0.096   9.874 -1.0341 -0.2685  0.8331
 5922SOL    HW229226   1.826   0.150   9.932 -0.5990 -0.9530  0.4699
 5923SOL     OW29227   1.442   2.652   6.880  0.0865  0.1497  0.4768
 5923SOL    HW129228   1.358   2.654   6.834  1.0409  1.2031 -1.2435
 5923SOL    HW229229   1.444   2.561   6.910 -2.2051 -0.3121 -0.7272
 5924SOL     OW29230   1.083   2.261   7.235 -0.0508 -0.1223 -0.1348
 5924SOL    HW129231   1.083   2.254   7.140 -0.5200  0.1524 -0.1581
 5924SOL    HW229232   1.131   2.343   7.246 -1.1794  0.3597  1.2444
 5925SOL     OW29233   2.496   1.499   8.697  0.1196  0.0694 -0.5210
 5925SOL    HW129234   2.490   1.491   8.602 -1.4812 -0.5383 -0.3641
 5925SOL    HW229235   2.573   1.453   8.729  0.3946 -0.0857 -1.4174
 5926SOL     OW29236   1.144   1.551   6.691  0.1415 -0.1358  0.3287
 5926SOL    HW129237   1.083   1.584   6.758  0.7235 -0.5970  1.0825
 5926SOL    HW229238   1.204   1.505   6.750  0.6106 -1.0088 -0.8314
 5927SOL     OW29239   0.591   0.534   4.178 -0.2206 -0.2649  0.2624
 5927SOL    HW129240   0.512   0.559   4.130  0.2356 -2.2704 -1.4847
 5927SOL    HW229241   0.576   0.588   4.256 -1.0358  2.0463 -1.5087
 5928SOL     OW29242   2.600   0.604   2.629  0.8225  0.4765  0.2642
 5928SOL    HW129243   2.569   0.514   2.626  1.8741  0.0613  1.7544
 5928SOL    HW229244   2.516   0.650   2.622  0.2943 -0.4830  0.3251
 5929SOL     OW29245   2.934   0.774   2.405  0.1527 -0.5658 -0.0004
 5929SOL    HW129246   2.946   0.841   2.336  0.3674 -3.6848 -3.0021
 5929SOL    HW229247   2.862   0.806   2.458 -0.1986  0.7036 -1.2173
 5930SOL     OW29248   2.777   4.469   5.947 -0.5426 -0.1668 -0.0280
 5930SOL    HW129249   2.806   4.381   5.970  0.2554 -0.6220 -2.7803
 5930SOL    HW229250   2.698   4.437   5.902  0.6834  0.5909 -2.7034
 5931SOL     OW29251   1.469   4.492  12.681  0.0026 -0.0160  0.5175
 5931SOL    HW129252   1.534   4.495  12.751  1.3963  0.6752 -0.7943
 5931SOL    HW229253   1.465   4.580  12.644 -1.4638  0.4238  1.7256
 5932SOL     OW29254   3.961   0.987   0.615  0.1874 -0.5949  0.2974
 5932SOL    HW129255   3.991   0.936   0.691  1.4416  0.9992  0.8780
 5932SOL    HW229256   3.875   0.947   0.602 -0.1369  0.0458  0.4575
 5933SOL     OW29257   0.374   3.192   3.110  0.0819  0.2850  0.3171
 5933SOL    HW129258   0.462   3.156   3.117  0.9561  2.1012 -1.2115
 5933SOL    HW229259   0.318   3.114   3.105 -0.6988  0.9696 -1.8097
 5934SOL     OW29260   1.078   2.426   3.523 -0.0003  0.3662 -0.8142
 5934SOL    HW129261   0.985   2.433   3.543 -0.5372  1.1481 -3.4934
 5934SOL    HW229262   1.115   2.376   3.595 -1.0526  0.2076 -0.3801
 5935SOL     OW29263   1.584   3.354  15.273  0.4161 -0.0209  0.6987
 5935SOL    HW129264   1.630   3.430  15.238  0.9549 -0.6432  0.0438
 5935SOL    HW229265   1.515   3.338  15.208  0.9462 -1.0131  0.3689
 5936SOL     OW29266   3.853   4.018   1.480  0.3769 -0.0487 -0.0092
 5936SOL    HW129267   3.833   4.091   1.539 -0.8252 -1.1735  0.9796
 5936SOL    HW229268   3.899   3.953   1.532 -1.9469  0.1118  2.2562
 5937SOL     OW29269   4.714   3.405   3.632 -0.3541  0.1698 -0.2577
 5937SOL    HW129270   0.001   3.488   3.585 -0.5526 -0.0353 -0.6668
 5937SOL    HW229271   4.625   3.385   3.603 -0.1427 -0.0567 -0.7532
 5938SOL     OW29272   0.970   3.781   7.298 -0.3132  0.0820  0.1811
 5938SOL    HW129273   1.037   3.721   7.330  1.5061  1.8014 -0.4421
 5938SOL    HW229274   0.887   3.734   7.306  0.8935 -1.6975  2.1658
 5939SOL     OW29275   0.202   2.570   7.082 -0.1644 -0.0939  0.1183
 5939SOL    HW129276   0.190   2.664   7.092 -1.3475 -0.1504 -0.8533
 5939SOL    HW229277   0.122   2.529   7.114 -0.7819  0.9216 -0.1373
 5940SOL     OW29278   4.397   0.591   5.553  0.4254 -0.0684 -0.1134
 5940SOL    HW129279   4.354   0.599   5.467  1.7935 -2.0713 -0.9667
 5940SOL    HW229280   4.488   0.615   5.535  0.7929 -0.9713  0.6017
 5941SOL     OW29281   0.384   4.535   5.830  0.5119 -0.0074  0.4357
 5941SOL    HW129282   0.413   4.625   5.810 -1.2131  0.0459 -1.7675
 5941SOL    HW229283   0.309   4.550   5.886  1.0560 -0.6296  1.3160
 5942SOL     OW29284   2.452   3.805  16.626  0.2962 -0.1028 -0.6016
 5942SOL    HW129285   2.507   3.818  16.548 -0.0749  0.9194 -0.6943
 5942SOL    HW229286   2.442   3.897  16.652 -0.7320 -0.8248  1.5644
 5943SOL     OW29287   4.095   0.514   1.647 -0.5857 -0.0508  0.5302
 5943SOL    HW129288   4.157   0.516   1.720  0.5585  1.6859 -0.4913
 5943SOL    HW229289   4.125   0.580   1.584 -2.0028  2.0597  2.0645
 5944SOL     OW29290   3.987   3.259   6.439  0.2430  0.1115 -0.2460
 5944SOL    HW129291   3.954   3.174   6.467  0.5533 -0.2398 -0.9486
 5944SOL    HW229292   4.082   3.246   6.443  0.2157 -0.4917 -1.6401
 5945SOL     OW29293   0.286   4.442   4.822  0.5767  0.4260  0.1976
 5945SOL    HW129294   0.284   4.469   4.914  0.1800 -0.5857  0.4787
 5945SOL    HW229295   0.371   4.397   4.830  0.5562  0.0771 -1.4793
 5946SOL     OW29296   1.538   2.493   4.892  0.2444 -0.2814  0.4197
 5946SOL    HW129297   1.560   2.586   4.882 -1.7141  0.3010  1.4941
 5946SOL    HW229298   1.541   2.478   4.987  1.9608 -0.2039  0.3891
 5947SOL     OW29299   3.425   1.920  14.565  0.2759  0.8942  0.5856
 5947SOL    HW129300   3.357   1.971  14.609 -0.7385  0.3183 -0.3193
 5947SOL    HW229301   3.395   1.928  14.475  2.6005  0.7643 -0.1965
 5948SOL     OW29302   1.089   1.652   5.396 -0.3475  0.0518 -0.2158
 5948SOL    HW129303   1.179   1.671   5.368 -0.7812  2.6042  0.1224
 5948SOL    HW229304   1.095   1.563   5.430 -1.1120  0.4411  0.9559
 5949SOL     OW29305   2.134   2.110   2.064  0.0848 -0.0369 -0.1989
 5949SOL    HW129306   2.157   2.111   1.971  2.8781 -0.6099  0.4862
 5949SOL    HW229307   2.187   2.186   2.085 -0.0702 -0.4609  1.7190
 5950SOL     OW29308   2.566   3.322   4.088  0.1294  0.2576  0.8204
 5950SOL    HW129309   2.506   3.335   4.162 -0.3324 -1.9746  0.8521
 5950SOL    HW229310   2.612   3.247   4.126  0.5553 -0.8529 -1.8515
 5951SOL     OW29311   0.067   0.933   1.272 -0.0967 -0.3759  0.0853
 5951SOL    HW129312   0.160   0.935   1.250 -0.0968  0.3055  0.1239
 5951SOL    HW229313   0.029   1.016   1.242 -0.3890 -0.5950 -0.1459
 5952SOL     OW29314   1.668   3.718   3.961  0.5857  0.2682 -0.1213
 5952SOL    HW129315   1.742   3.681   3.914  1.8945 -0.7105  2.7424
 5952SOL    HW229316   1.698   3.720   4.052  0.0444  2.6192  0.0111
 5953SOL     OW29317   3.160   2.106   1.206  0.4872  0.2883  0.2751
 5953SOL    HW129318   3.074   2.127   1.242 -0.6098 -0.6870 -1.7962
 5953SOL    HW229319   3.187   2.041   1.271  0.7728  1.0835  0.9565
 5954SOL     OW29320   1.021   1.541   0.237  0.2996  0.2950  0.3088
 5954SOL    HW129321   0.970   1.608   0.192  2.5400  0.4242 -2.0486
 5954SOL    HW229322   0.945   1.484   0.250  1.9581 -1.2276  3.4648
 5955SOL     OW29323   0.019   4.658   4.851  0.7295  0.6019 -0.1782
 5955SOL    HW129324   0.013   4.584   4.912  0.1377 -1.3641 -2.5892
 5955SOL    HW229325   0.044   4.625   4.765  0.9305 -1.5569  0.7054
 5956SOL     OW29326   0.102   3.287   5.425 -0.1644  0.5166 -0.6066
 5956SOL    HW129327   0.117   3.366   5.477  0.6389  0.2535 -0.4371
 5956SOL    HW229328   0.112   3.221   5.494  2.6543  1.0615 -0.4746
 5957SOL     OW29329   3.558   1.057  11.978 -0.0995 -0.7346  0.2060
 5957SOL    HW129330   3.552   1.151  11.993 -1.4643 -0.6174 -1.1060
 5957SOL    HW229331   3.501   1.031  12.051 -0.9459 -0.9004 -0.5138
 5958SOL     OW29332   2.721   3.488   5.307 -0.2700 -0.1798  0.1955
 5958SOL    HW129333   2.645   3.544   5.324  1.7543  2.5991  0.0295
 5958SOL    HW229334   2.795   3.542   5.279 -0.8541  0.3229 -0.3845
 5959SOL     OW29335   2.369   0.368   1.482  0.2335  0.5118  0.6694
 5959SOL    HW129336   2.432   0.431   1.518 -0.3440  0.8832  1.0271
 5959SOL    HW229337   2.434   0.299   1.466  0.3662  0.6105  0.7820
 5960SOL     OW29338   2.656   2.834   0.822  0.6499  0.4574 -0.6530
 5960SOL    HW129339   2.591   2.862   0.757  0.1963 -0.9645 -0.8162
 5960SOL    HW229340   2.730   2.892   0.802  0.8671  0.2402 -0.4722
 5961SOL     OW29341   4.403   3.581   3.511  0.2067  0.3858  0.2846
 5961SOL    HW129342   4.357   3.633   3.445 -0.1174  2.8282  2.4235
 5961SOL    HW229343   4.354   3.500   3.502 -0.5215  0.5107  2.9556
 5962SOL     OW29344   1.814   1.921   1.614 -0.1261  0.1971  0.2266
 5962SOL    HW129345   1.849   1.832   1.609 -1.1158 -0.2224  0.9415
 5962SOL    HW229346   1.803   1.929   1.519 -0.5154 -1.6148  0.1063
 5963SOL     OW29347   4.330   0.677   4.076  0.2180 -0.2015 -0.8594
 5963SOL    HW129348   4.402   0.736   4.055 -1.1286  1.8897  0.4143
 5963SOL    HW229349   4.263   0.684   4.008 -0.9952 -0.1644  0.3389
 5964SOL     OW29350   3.799   0.480  13.857  0.4137 -0.4285 -0.5744
 5964SOL    HW129351   3.739   0.407  13.872 -0.4389  0.4009  0.0605
 5964SOL    HW229352   3.795   0.492  13.762  0.6706 -1.2677 -0.6860
 5965SOL     OW29353   0.102   3.992   5.828  0.4148 -0.4189  0.3465
 5965SOL    HW129354   0.186   4.023   5.863  0.9508 -2.4492  0.8661
 5965SOL    HW229355   0.093   4.046   5.750  0.1917 -0.3546  0.4180
 5966SOL     OW29356   4.379   2.450   3.853  0.3845  0.4960  0.4467
 5966SOL    HW129357   4.398   2.533   3.810 -0.4426  0.2836 -0.3241
 5966SOL    HW229358   4.380   2.478   3.945  0.3685  0.1643  0.5488
 5967SOL     OW29359   2.174   1.273  16.418 -0.4273  0.3745  0.1574
 5967SOL    HW129360   2.269   1.276  16.434 -0.1529 -0.1279 -1.4326
 5967SOL    HW229361   2.138   1.233  16.497 -2.1396 -1.9517 -1.8114
 5968SOL     OW29362   4.171   0.670   9.356 -0.3612 -0.2978 -0.4641
 5968SOL    HW129363   4.214   0.599   9.404  0.9940  2.6495  2.6932
 5968SOL    HW229364   4.197   0.658   9.265  0.4378  1.8559 -0.5064
 5969SOL     OW29365   2.609   4.442  17.246 -0.3322  0.3196 -0.6511
 5969SOL    HW129366   2.645   4.500  17.179 -1.4727 -0.2517 -1.7450
 5969SOL    HW229367   2.618   4.354  17.210 -1.4243  0.7130 -1.8750
 5970SOL     OW29368   0.939   0.505  13.845  0.1240  0.2036 -0.1620
 5970SOL    HW129369   0.919   0.470  13.932 -1.8822 -0.5670 -0.9206
 5970SOL    HW229370   0.860   0.558  13.833 -0.1103 -0.2662 -0.6629
 5971SOL     OW29371   1.592   1.891  14.527 -0.2269  0.5977  0.1773
 5971SOL    HW129372   1.626   1.802  14.524  0.3368  0.8755 -1.6213
 5971SOL    HW229373   1.574   1.907  14.619 -1.9645 -0.1945 -0.0366
 5972SOL     OW29374   3.310   1.408   8.439 -0.3434 -0.0801 -0.4177
 5972SOL    HW129375   3.346   1.480   8.491 -1.2113  0.3132 -0.3575
 5972SOL    HW229376   3.287   1.348   8.510  0.4868  0.1335  0.0319
 5973SOL     OW29377   4.601   2.014  14.900  0.4258  0.3566  0.2450
 5973SOL    HW129378   4.633   1.924  14.907  0.3547  0.1383 -2.1126
 5973SOL    HW229379   4.572   2.029  14.990 -0.1376 -0.5092  0.2059
 5974SOL     OW29380   2.924   1.369  10.955  0.4947 -0.2564 -0.2970
 5974SOL    HW129381   2.833   1.342  10.944  1.2844 -1.9750 -2.3297
 5974SOL    HW229382   2.905   1.462  10.971 -1.5723 -0.9639  1.3897
 5975SOL     OW29383   4.119   4.207   5.165 -0.1527  0.3691 -0.1247
 5975SOL    HW129384   4.179   4.148   5.210  0.9044  1.0668 -0.6207
 5975SOL    HW229385   4.038   4.186   5.212 -0.3887 -2.5951 -1.8872
 5976SOL     OW29386   1.666   2.365   6.986  0.0173 -0.3133 -0.0155
 5976SOL    HW129387   1.572   2.350   6.976 -0.5702  3.0595  0.3681
 5976SOL    HW229388   1.661   2.461   6.989  2.5095 -0.1587 -0.5932
 5977SOL     OW29389   2.500   3.717   8.049 -0.4624 -0.2563 -0.8269
 5977SOL    HW129390   2.451   3.641   8.017  0.1689 -1.4184  0.9629
 5977SOL    HW229391   2.580   3.703   7.999 -0.0523  2.5775 -0.9667
 5978SOL     OW29392   4.012   4.560   2.814  0.0641  0.2068 -0.4707
 5978SOL    HW129393   4.034   4.469   2.829 -1.2101 -0.0203 -0.0174
 5978SOL    HW229394   3.927   4.563   2.770 -0.7803 -0.7803  1.0964
 5979SOL     OW29395   1.002   2.790  15.539  0.4599 -0.2191  0.2309
 5979SOL    HW129396   0.909   2.775  15.556  0.4756  0.0139  0.5123
 5979SOL    HW229397   1.017   2.715  15.480  1.4202  0.9471 -1.0049
 5980SOL     OW29398   0.028   3.756   2.604  0.6291 -0.5060  0.3943
 5980SOL    HW129399   0.031   3.703   2.525 -2.1876 -0.5680  0.2985
 5980SOL    HW229400   4.690   3.702   2.656  1.5906 -0.7401  1.2722
 5981SOL     OW29401   2.510   3.511  16.792  0.6470  1.2537  0.8936
 5981SOL    HW129402   2.432   3.547  16.834  0.5046  2.5951 -0.5341
 5981SOL    HW229403   2.570   3.487  16.863  0.0375  3.1097  2.0272
 5982SOL     OW29404   2.653   4.387   6.583 -0.4412 -0.1761 -0.0502
 5982SOL    HW129405   2.652   4.348   6.495  1.1004 -2.3485  0.8976
 5982SOL    HW229406   2.671   4.305   6.629  1.7167 -0.9596 -2.2927
 5983SOL     OW29407   2.201   0.000  13.347 -0.3492  1.0165 -0.5369
 5983SOL    HW129408   2.282   0.033  13.387  0.4211 -0.2902 -1.0213
 5983SOL    HW229409   2.231   4.658  13.284 -0.1486 -1.8021  2.4431
 5984SOL     OW29410   1.915   2.258   5.105 -0.3287 -0.4078 -0.3876
 5984SOL    HW129411   1.976   2.195   5.143  0.6463  0.8821  0.1831
 5984SOL    HW229412   1.829   2.216   5.095 -1.6873  2.0100  1.1098
 5985SOL     OW29413   1.369   3.357   8.718  0.8212 -0.0193 -0.4335
 5985SOL    HW129414   1.351   3.398   8.803  0.8012 -0.3450 -0.2832
 5985SOL    HW229415   1.314   3.409   8.659 -0.3864 -0.8330 -0.0453
 5986SOL     OW29416   1.334   1.664   3.230  0.6449  0.5143 -0.0007
 5986SOL    HW129417   1.406   1.725   3.246 -0.0758  1.5580 -0.7155
 5986SOL    HW229418   1.390   1.591   3.204  1.2930  1.6412 -1.8141
 5987SOL     OW29419   2.251   2.952   9.244  0.1913  0.6449  0.3292
 5987SOL    HW129420   2.315   2.889   9.212 -0.9665 -0.7480  0.7145
 5987SOL    HW229421   2.307   3.015   9.288  1.4454  0.0055 -0.3636
 5988SOL     OW29422   3.451   0.518   9.814 -0.0896  0.0971 -0.0819
 5988SOL    HW129423   3.431   0.522   9.908  0.8013  4.2794 -0.1001
 5988SOL    HW229424   3.546   0.520   9.815 -0.0199 -1.9470 -1.4388
 5989SOL     OW29425   3.612   1.559   8.377 -0.5150 -1.0510  0.0860
 5989SOL    HW129426   3.662   1.492   8.424 -0.5041 -0.8563  0.3492
 5989SOL    HW229427   3.609   1.506   8.297 -1.2718 -0.7094 -0.1051
 5990SOL     OW29428   4.383   1.419   7.821 -0.0196 -0.1365 -0.6581
 5990SOL    HW129429   4.346   1.507   7.830 -2.1325 -0.8392 -2.3992
 5990SOL    HW229430   4.297   1.376   7.813 -1.4019  2.9899 -2.8408
 5991SOL     OW29431   2.389   0.149  14.526 -0.2311  0.3015  0.1086
 5991SOL    HW129432   2.472   0.143  14.572 -0.2431 -1.1189 -0.0495
 5991SOL    HW229433   2.330   0.118  14.595 -0.9901  1.5994  0.0390
 5992SOL     OW29434   3.625   4.440  11.339  0.2169 -0.2090  0.1762
 5992SOL    HW129435   3.614   4.519  11.286  1.4163 -0.5784 -0.6350
 5992SOL    HW229436   3.584   4.473  11.418  2.7815  1.4793  0.8025
 5993SOL     OW29437   1.185   4.030  12.471  0.6009 -0.0943  0.0847
 5993SOL    HW129438   1.263   3.978  12.492  1.9978  1.4988 -1.1221
 5993SOL    HW229439   1.167   3.976  12.395  0.7775 -0.7291  0.4991
 5994SOL     OW29440   4.402   0.534   1.405  0.5402 -0.1628 -0.1194
 5994SOL    HW129441   4.463   0.606   1.388 -0.8554  1.5730  2.0758
 5994SOL    HW229442   4.318   0.555   1.364  1.1142 -1.4817 -1.9642
 5995SOL     OW29443   1.764   2.473   7.637 -0.2607  0.5237 -0.1830
 5995SOL    HW129444   1.829   2.416   7.679 -1.0609 -0.4302 -0.2448
 5995SOL    HW229445   1.778   2.452   7.545  0.2586 -0.8375  0.2221
 5996SOL     OW29446   0.847   0.448   5.542 -0.0331 -0.4672  0.0824
 5996SOL    HW129447   0.941   0.443   5.560 -0.0171 -1.3939 -0.2449
 5996SOL    HW229448   0.816   0.451   5.633  0.1453  0.7885  0.0926
 5997SOL     OW29449   1.072   0.654   8.924  0.5976  0.2269 -0.4135
 5997SOL    HW129450   1.067   0.745   8.953 -0.2281  0.3205 -0.8652
 5997SOL    HW229451   1.127   0.621   8.996  0.9087  1.1194 -0.2351
 5998SOL     OW29452   2.976   0.083   8.595 -0.3079  0.2579 -0.0326
 5998SOL    HW129453   2.990   0.174   8.620  1.2143 -0.5469  2.0611
 5998SOL    HW229454   2.955   0.043   8.680  0.6426 -0.5310 -0.1762
 5999SOL     OW29455   4.085   0.809  12.303 -0.0052 -0.0022  0.3587
 5999SOL    HW129456   4.162   0.752  12.307  1.5525  2.0594 -0.3645
 5999SOL    HW229457   4.060   0.811  12.211  3.3062 -1.8745 -0.5954
 6000SOL     OW29458   3.131   0.720   4.490 -0.0390 -0.2817 -0.7629
 6000SOL    HW129459   3.155   0.800   4.444  3.9063 -0.0814  1.6143
 6000SOL    HW229460   3.065   0.753   4.551 -0.4323 -2.2794 -0.1092
 6001SOL     OW29461   0.409   0.756  12.249 -0.5906 -0.4006  0.2930
 6001SOL    HW129462   0.361   0.837  12.234 -0.0869 -0.4448 -1.5029
 6001SOL    HW229463   0.446   0.769  12.337 -1.8468 -1.8304  1.0475
 6002SOL     OW29464   1.086   0.130  11.304  0.2828 -0.0253  0.7266
 6002SOL    HW129465   1.108   0.219  11.330 -0.0293  0.6103 -1.2316
 6002SOL    HW229466   1.049   0.145  11.217  1.2702 -1.0591  0.1278
 6003SOL     OW29467   0.954   3.139   3.896 -0.1111 -0.2616  0.1756
 6003SOL    HW129468   0.978   3.105   3.809 -0.0007 -2.7273  1.1983
 6003SOL    HW229469   0.915   3.067   3.944  3.8780 -2.2515  0.4849
 6004SOL     OW29470   0.271   4.251   8.762 -0.1776 -0.2612  0.1532
 6004SOL    HW129471   0.247   4.325   8.706 -1.3618 -0.5888  0.2332
 6004SOL    HW229472   0.342   4.284   8.817  0.7705 -0.4167 -0.9792
 6005SOL     OW29473   3.398   0.853  12.459 -0.0509  0.1949  0.1937
 6005SOL    HW129474   3.346   0.784  12.502 -0.3508  0.1566 -0.2296
 6005SOL    HW229475   3.386   0.927  12.518  0.5993 -1.6256  2.6251
 6006SOL     OW29476   1.178   0.229   6.448  0.5894  0.4852 -0.6087
 6006SOL    HW129477   1.173   0.143   6.488  0.0532  0.0787 -1.5481
 6006SOL    HW229478   1.202   0.281   6.525  0.7584 -1.5358  0.7023
 6007SOL     OW29479   1.470   3.765   7.484 -0.0576  0.0437  0.2734
 6007SOL    HW129480   1.471   3.699   7.416  1.0435 -0.3158  0.6367
 6007SOL    HW229481   1.545   3.822   7.466  0.3699 -0.5803  0.0726
 6008SOL     OW29482   3.829   2.781   1.421 -0.1966 -0.1582  0.0072
 6008SOL    HW129483   3.849   2.731   1.500  0.6056 -1.8058 -1.2551
 6008SOL    HW229484   3.743   2.743   1.403 -0.3271 -0.9989  2.3621
 6009SOL     OW29485   1.827   0.575   6.788  0.0645 -0.0127  0.1369
 6009SOL    HW129486   1.870   0.653   6.754  2.8932 -1.1520  1.0636
 6009SOL    HW229487   1.860   0.515   6.721  0.5048  0.0071  0.3349
 6010SOL     OW29488   3.404   3.898   6.508 -0.0761  0.0004  0.8264
 6010SOL    HW129489   3.433   3.866   6.594  0.6288 -0.2117  0.5098
 6010SOL    HW229490   3.317   3.933   6.527 -1.9014 -3.8575 -0.5829
 6011SOL     OW29491   2.163   3.936  11.083 -0.3609  0.2471  0.2472
 6011SOL    HW129492   2.074   3.902  11.093 -0.8461  1.3669 -0.2232
 6011SOL    HW229493   2.152   4.028  11.058  1.4238 -0.3400 -2.6345
 6012SOL     OW29494   4.250   3.212   0.119 -0.1556  0.2704 -0.9120
 6012SOL    HW129495   4.190   3.157   0.170 -1.1410  2.4348  0.2626
 6012SOL    HW229496   4.231   3.214   0.025 -0.5516  2.6603 -0.7789
 6013SOL     OW29497   0.197   2.086   8.149  0.1706  0.1403  0.1154
 6013SOL    HW129498   0.282   2.117   8.119  0.1402 -0.4221 -0.5546
 6013SOL    HW229499   0.224   2.020   8.213  2.1151 -0.6960 -1.5491
 6014SOL     OW29500   3.195   0.201  14.890  0.4151 -0.1870 -0.4899
 6014SOL    HW129501   3.179   0.161  14.975  1.3733 -1.0439 -0.7060
 6014SOL    HW229502   3.154   0.286  14.902 -2.1797 -1.4433 -0.5477
 6015SOL     OW29503   4.494   0.214  13.831  0.2906 -0.1289  0.4319
 6015SOL    HW129504   4.565   0.255  13.881  1.4694 -0.5653 -0.8740
 6015SOL    HW229505   4.464   0.143  13.888  2.5232  0.4801  2.3694
 6016SOL     OW29506   0.569   2.891   7.047 -0.4245 -0.6968 -0.2723
 6016SOL    HW129507   0.501   2.923   6.987 -2.2422 -0.1814  2.0231
 6016SOL    HW229508   0.613   2.975   7.062  0.8696 -1.0479 -2.2053
 6017SOL     OW29509   1.117   2.339  15.537  0.3442 -0.1860  0.3912
 6017SOL    HW129510   1.187   2.304  15.482  1.9499  1.4212  1.4330
 6017SOL    HW229511   1.100   2.416  15.483  0.5926 -1.5080 -1.5638
 6018SOL     OW29512   3.293   1.022  11.745 -0.3559  0.6765  0.1137
 6018SOL    HW129513   3.211   0.990  11.708  0.2626 -1.6598  0.7645
 6018SOL    HW229514   3.315   0.948  11.801  0.4285 -0.6367 -1.9514
 6019SOL     OW29515   3.287   2.096  14.730  0.3280 -0.3463  0.1266
 6019SOL    HW129516   3.298   2.059  14.818 -0.4150 -0.3016  0.2363
 6019SOL    HW229517   3.196   2.072  14.713  0.2068  0.3663 -0.2612
 6020SOL     OW29518   2.558   3.180   7.336  0.0834 -0.2599  0.2727
 6020SOL    HW129519   2.570   3.127   7.257 -1.1316 -0.5589  0.2926
 6020SOL    HW229520   2.602   3.127   7.402 -0.0985 -0.0972  0.5218
 6021SOL     OW29521   3.839   4.102   2.700  0.1399 -0.2509  0.7777
 6021SOL    HW129522   3.816   4.090   2.608  2.1560  1.8130 -0.0183
 6021SOL    HW229523   3.782   4.039   2.743 -1.0044  0.4947  0.3645
 6022SOL     OW29524   4.437   2.173  15.899  0.5247  0.0896  0.1637
 6022SOL    HW129525   4.503   2.106  15.881 -1.2646 -0.8459 -2.8070
 6022SOL    HW229526   4.481   2.201  15.980  2.2010 -0.3607 -0.5864
 6023SOL     OW29527   0.284   1.453   6.404 -0.1687 -0.2499  0.4034
 6023SOL    HW129528   0.284   1.533   6.457  0.7777  0.5819 -0.8705
 6023SOL    HW229529   0.377   1.439   6.387  0.3395  1.7698  1.4948
 6024SOL     OW29530   1.347   3.450   4.768  0.1129  0.1263 -0.0123
 6024SOL    HW129531   1.348   3.382   4.700  0.3067 -0.5910  0.7039
 6024SOL    HW229532   1.362   3.393   4.844  0.9326 -0.2998 -0.5008
 6025SOL     OW29533   1.294   0.408   7.021 -0.1529  0.2475  0.2657
 6025SOL    HW129534   1.237   0.332   7.011  0.3720 -0.3537  1.8897
 6025SOL    HW229535   1.241   0.471   7.069  1.6087  0.3777  2.0235
 6026SOL     OW29536   1.120   1.944   4.184 -0.3511 -0.3529 -0.1027
 6026SOL    HW129537   1.121   1.969   4.276 -0.7149  0.8309 -0.4289
 6026SOL    HW229538   1.210   1.914   4.170  0.4916  1.9385  0.3828
 6027SOL     OW29539   4.594   0.337   8.379  0.1260 -0.1827  0.1377
 6027SOL    HW129540   4.545   0.352   8.298  0.6396  3.4238  0.4994
 6027SOL    HW229541   4.649   0.265   8.350 -0.5608 -1.1597  1.2817
 6028SOL     OW29542   4.193   0.445   8.395 -0.2150 -0.1508 -0.0250
 6028SOL    HW129543   4.172   0.430   8.303  0.5509  1.5265 -0.4774
 6028SOL    HW229544   4.138   0.383   8.442 -0.1844 -0.4692 -0.4062
 6029SOL     OW29545   1.778   1.413   5.337  0.0811 -0.4291 -0.9890
 6029SOL    HW129546   1.873   1.404   5.329  0.4324  1.6033  0.9638
 6029SOL    HW229547   1.764   1.329   5.380 -0.0885  0.2767  0.3230
 6030SOL     OW29548   2.440   2.962   6.020  0.3600  0.0790 -0.8596
 6030SOL    HW129549   2.506   3.012   6.068  0.6976 -2.5225  1.4365
 6030SOL    HW229550   2.408   3.022   5.953 -0.5373 -0.9594 -1.3682
 6031SOL     OW29551   4.304   1.569   7.553  0.5209  0.0489  0.3985
 6031SOL    HW129552   4.348   1.485   7.543  1.0859  0.3467  0.3930
 6031SOL    HW229553   4.300   1.594   7.460  0.1345  0.1345  0.4392
 6032SOL     OW29554   1.792   3.684   4.246 -0.6242 -0.3721 -0.5516
 6032SOL    HW129555   1.827   3.639   4.323 -1.4272 -1.3401 -0.7606
 6032SOL    HW229556   1.807   3.773   4.279 -0.0825 -0.9803  0.8597
 6033SOL     OW29557   4.132   1.999   8.112  0.5120  0.6822 -0.4345
 6033SOL    HW129558   4.045   1.999   8.151  1.6787  0.4999  2.1650
 6033SOL    HW229559   4.153   2.089   8.136  2.1023  0.0800  0.4629
 6034SOL     OW29560   1.723   2.288   5.770  0.6966 -0.5611 -0.3369
 6034SOL    HW129561   1.684   2.315   5.687 -1.2262 -1.9147  0.1096
 6034SOL    HW229562   1.804   2.338   5.768  1.6141 -2.0637 -0.5132
 6035SOL     OW29563   1.424   2.840   6.575  0.3163  0.9580 -0.3064
 6035SOL    HW129564   1.403   2.749   6.596  0.2299  1.4995  2.0656
 6035SOL    HW229565   1.405   2.854   6.483 -0.5982  2.0830  0.0514
 6036SOL     OW29566   1.295   0.134  10.952  0.8618  0.3572  0.7792
 6036SOL    HW129567   1.292   0.228  10.967 -0.0457  0.6913 -1.5192
 6036SOL    HW229568   1.338   0.120  10.868  0.5806 -1.5284  0.9346
 6037SOL     OW29569   0.717   4.105   6.821  0.4261  0.1612  0.1211
 6037SOL    HW129570   0.674   4.056   6.751  2.8783 -2.1868  0.2771
 6037SOL    HW229571   0.646   4.161   6.853  0.0456 -0.1923 -0.0987
 6038SOL     OW29572   3.913   3.748  15.038  0.5253 -0.9128  0.2001
 6038SOL    HW129573   3.863   3.795  14.972  0.8944 -1.1972 -0.2830
 6038SOL    HW229574   4.001   3.742  15.003  0.8019  0.6437  0.6570
 6039SOL     OW29575   2.037   3.708   8.960 -0.1675 -0.1590  0.2969
 6039SOL    HW129576   2.108   3.721   8.898 -1.3875  2.6866 -0.4891
 6039SOL    HW229577   2.058   3.775   9.025  1.0894 -0.2770 -0.0012
 6040SOL     OW29578   1.165   3.336   6.035  0.3605  0.4348  0.3716
 6040SOL    HW129579   1.149   3.429   6.018 -0.5306 -0.4598 -3.7738
 6040SOL    HW229580   1.079   3.331   6.077 -0.1847 -1.1843 -0.9538
 6041SOL     OW29581   3.569   2.174   8.422 -0.3088 -0.5716 -0.2696
 6041SOL    HW129582   3.628   2.121   8.477  1.1380 -0.5459 -1.7976
 6041SOL    HW229583   3.601   2.261   8.448  1.4257 -2.2783  3.4437
 6042SOL     OW29584   0.042   1.006   6.795  0.1263  0.5994  0.1913
 6042SOL    HW129585   0.099   0.929   6.797 -0.4068  0.1686 -1.3025
 6042SOL    HW229586   0.108   1.073   6.782 -0.6976  0.9260 -2.2158
 6043SOL     OW29587   3.487   2.390   5.425  0.0508  0.0270  0.0717
 6043SOL    HW129588   3.492   2.298   5.451  0.2136  0.2592  0.8478
 6043SOL    HW229589   3.578   2.421   5.417  0.9029 -2.1903  0.9995
 6044SOL     OW29590   4.138   4.382   3.403  0.8130 -0.2115  0.1452
 6044SOL    HW129591   4.085   4.314   3.445  0.2962 -0.7666 -1.4094
 6044SOL    HW229592   4.102   4.381   3.315  0.3001  0.0507  0.3487
 6045SOL     OW29593   1.980   4.571  10.675 -0.0955  0.1920 -0.7820
 6045SOL    HW129594   1.887   4.548  10.668  0.2823 -1.1488 -1.4870
 6045SOL    HW229595   1.998   4.560  10.582 -0.8132 -0.0329 -0.8947
 6046SOL     OW29596   1.253   3.157   6.231 -0.1149  0.4092  0.0796
 6046SOL    HW129597   1.217   3.208   6.158 -2.4366  0.5951  1.3480
 6046SOL    HW229598   1.277   3.232   6.286  0.7483 -0.3185  0.6865
 6047SOL     OW29599   4.183   1.616  14.171 -0.1701  0.5775  0.1416
 6047SOL    HW129600   4.242   1.543  14.190  0.6582  1.3872  0.6544
 6047SOL    HW229601   4.240   1.692  14.181  1.4964 -1.0167  2.8560
 6048SOL     OW29602   3.608   1.814   1.731  0.4210 -0.0506  0.6346
 6048SOL    HW129603   3.698   1.793   1.706  0.2319  0.0234 -0.0957
 6048SOL    HW229604   3.570   1.833   1.645  1.3121  1.5351  0.5787
 6049SOL     OW29605   4.138   1.528   3.544 -0.3257  0.1615 -0.0146
 6049SOL    HW129606   4.147   1.478   3.625 -1.6892 -0.1881 -0.0748
 6049SOL    HW229607   4.080   1.602   3.560  0.9599  0.8676  1.3921
 6050SOL     OW29608   1.060   4.404   0.636  0.2594 -0.0644 -0.0526
 6050SOL    HW129609   1.118   4.332   0.659  1.3685  0.7375 -0.3749
 6050SOL    HW229610   1.097   4.479   0.683 -2.1945  1.0044  0.1694
 6051SOL     OW29611   4.104   1.604   2.078 -0.3518 -0.0243 -0.1737
 6051SOL    HW129612   4.117   1.605   1.983 -1.0602 -0.2611 -0.2757
 6051SOL    HW229613   4.189   1.601   2.122  0.2003 -0.9441 -1.3018
 6052SOL     OW29614   0.963   3.483   2.762  0.3444 -0.1668  0.3700
 6052SOL    HW129615   1.001   3.415   2.707 -0.4808  1.5895 -2.3797
 6052SOL    HW229616   1.042   3.509   2.808  2.0822 -2.4061 -1.3868
 6053SOL     OW29617   0.402   4.449  15.672 -0.6548 -0.4216 -0.5780
 6053SOL    HW129618   0.404   4.494  15.756  2.8053 -0.2367 -0.7222
 6053SOL    HW229619   0.479   4.493  15.635 -0.5894  0.0593  0.1325
 6054SOL     OW29620   4.672   0.964   3.577  0.0187  0.1286 -0.4004
 6054SOL    HW129621   0.039   0.995   3.566  0.8431 -2.2109 -0.4466
 6054SOL    HW229622   4.689   0.870   3.567 -5.0045 -0.8355  0.3314
 6055SOL     OW29623   3.101   2.206  10.461  0.8582  0.1799 -0.3608
 6055SOL    HW129624   3.056   2.129  10.428  1.9472  0.7501 -3.2131
 6055SOL    HW229625   3.102   2.175  10.551 -0.4196 -0.9154 -0.7143
 6056SOL     OW29626   2.778   1.082   7.042  0.4659  0.2184  0.6437
 6056SOL    HW129627   2.806   1.098   7.132 -0.6220 -0.4495  1.0976
 6056SOL    HW229628   2.850   1.122   6.993  0.8099 -0.9455  0.1936
 6057SOL     OW29629   1.677   3.062   3.761 -0.2771 -0.2633  0.3261
 6057SOL    HW129630   1.749   3.063   3.698  1.0902  0.8194  1.8883
 6057SOL    HW229631   1.736   3.065   3.837  2.3300 -0.8190 -1.6776
 6058SOL     OW29632   1.405   2.800   2.286  0.0926  0.8327  0.2453
 6058SOL    HW129633   1.433   2.754   2.207 -1.1507 -0.9112  0.8495
 6058SOL    HW229634   1.457   2.749   2.348  0.5037  1.4149  0.3854
 6059SOL     OW29635   0.404   4.051  10.481 -0.5548  0.1878  0.1549
 6059SOL    HW129636   0.354   3.983  10.434 -0.5418  0.1809  0.1510
 6059SOL    HW229637   0.460   4.081  10.409 -0.8670  1.6329  0.5258
 6060SOL     OW29638   4.516   4.331   1.599  0.0490 -0.5913 -0.5560
 6060SOL    HW129639   4.431   4.376   1.595 -0.0190 -0.3649  3.4139
 6060SOL    HW229640   4.539   4.365   1.685 -3.1302  0.0105  0.0677
 6061SOL     OW29641   0.032   0.202   4.995  0.0406 -0.4664 -0.8138
 6061SOL    HW129642   4.662   0.214   4.976  0.3742  1.0508 -1.4485
 6061SOL    HW229643   0.064   0.156   4.917 -0.5694 -0.7767 -0.8776
 6062SOL     OW29644   0.734   1.795  14.346 -0.1299 -0.0339  0.6135
 6062SOL    HW129645   0.736   1.821  14.254 -2.4107 -1.4332  0.1664
 6062SOL    HW229646   0.826   1.798  14.370  0.3798  1.0120 -1.5194
 6063SOL     OW29647   3.782   2.321  16.550  0.0074 -0.5702 -0.0514
 6063SOL    HW129648   3.794   2.400  16.603  0.8079 -0.3056 -0.6245
 6063SOL    HW229649   3.778   2.341  16.456  1.3448 -1.1139 -0.2251
 6064SOL     OW29650   1.452   1.514   7.055  0.0486 -0.0927  0.3237
 6064SOL    HW129651   1.430   1.492   7.145  0.3434  1.9938  0.8955
 6064SOL    HW229652   1.547   1.515   7.064  0.2466  2.2064 -2.1337
 6065SOL     OW29653   0.857   1.287   1.573  0.4409  0.1743  0.8176
 6065SOL    HW129654   0.906   1.345   1.515 -0.3527  0.6735  0.6469
 6065SOL    HW229655   0.857   1.207   1.521  2.9488  0.8940 -0.2479
 6066SOL     OW29656   0.898   0.130   4.236  0.4107 -0.1647 -0.5226
 6066SOL    HW129657   0.828   0.189   4.263 -0.0083 -0.2651 -1.4021
 6066SOL    HW229658   0.851   0.047   4.244  0.8032 -0.2691  0.7489
 6067SOL     OW29659   0.839   2.857   8.203 -0.0642 -0.1275  0.2893
 6067SOL    HW129660   0.905   2.903   8.254 -0.5653  1.8299 -0.7746
 6067SOL    HW229661   0.793   2.932   8.163 -1.3707  0.0068  2.0206
 6068SOL     OW29662   1.887   3.695  17.681  0.0296  0.2391  0.2842
 6068SOL    HW129663   1.972   3.655   0.008  0.4383  1.1966  0.4245
 6068SOL    HW229664   1.883   3.765   0.052 -0.4395  1.5385 -1.1628
 6069SOL     OW29665   1.024   2.296   8.229 -0.2110  0.4974 -0.9108
 6069SOL    HW129666   1.063   2.294   8.317 -2.2128  0.2463 -0.0301
 6069SOL    HW229667   0.938   2.333   8.249 -0.4362 -0.8085  0.5997
 6070SOL     OW29668   1.036   3.760   2.899  0.2156  0.1320  0.4306
 6070SOL    HW129669   0.998   3.827   2.842  1.8090 -0.1797 -0.9887
 6070SOL    HW229670   1.117   3.735   2.854  1.0147 -1.0882  2.5745
 6071SOL     OW29671   2.583   1.228   0.524  0.8273  0.4951 -0.0254
 6071SOL    HW129672   2.593   1.306   0.470  1.5988  0.6140  0.2854
 6071SOL    HW229673   2.580   1.260   0.614 -1.7360 -0.1616  0.1293
 6072SOL     OW29674   0.815   4.524   2.862 -0.4839 -0.1789 -0.9091
 6072SOL    HW129675   0.832   4.561   2.776  2.4507  1.4756  0.3980
 6072SOL    HW229676   0.720   4.522   2.871 -0.6794  2.6499 -2.4227
 6073SOL     OW29677   3.688   3.429   7.173 -0.6096  0.2440  1.2438
 6073SOL    HW129678   3.699   3.341   7.210  2.9407  1.3179  2.7636
 6073SOL    HW229679   3.763   3.466   7.220  0.7361  0.9695 -1.4973
 6074SOL     OW29680   2.786   4.077   8.893  0.5143 -0.0405  0.0069
 6074SOL    HW129681   2.826   3.991   8.907  1.7684  0.3090 -1.4089
 6074SOL    HW229682   2.725   4.078   8.967 -0.8551 -2.4588 -1.0883
 6075SOL     OW29683   1.858   1.309   8.032  0.2767  0.3382 -0.2094
 6075SOL    HW129684   1.874   1.242   8.098  0.2865 -1.5014 -2.0690
 6075SOL    HW229685   1.879   1.397   8.064 -0.6624  0.0555  1.1509
 6076SOL     OW29686   2.326   1.358   8.858  0.1040 -0.0704  0.5902
 6076SOL    HW129687   2.383   1.281   8.859 -0.1359 -0.2597 -0.3003
 6076SOL    HW229688   2.394   1.422   8.833 -0.6227  0.3523 -0.3017
 6077SOL     OW29689   1.682   3.286  14.929 -0.1253  0.2796  0.5489
 6077SOL    HW129690   1.667   3.211  14.872  0.2645  1.2856 -0.8913
 6077SOL    HW229691   1.774   3.270  14.952  0.3373  1.7639 -0.2971
 6078SOL     OW29692   0.123   0.077   5.825 -0.6422 -0.0442  0.5167
 6078SOL    HW129693   0.104   0.171   5.827  0.0044  0.0416  3.0493
 6078SOL    HW229694   0.058   0.049   5.760  0.8810 -1.3809 -0.4582
 6079SOL     OW29695   3.266   2.459   5.555 -0.1730 -0.2582 -0.9216
 6079SOL    HW129696   3.225   2.373   5.570  0.8165 -0.2485  1.7662
 6079SOL    HW229697   3.345   2.438   5.505  0.6552  0.9370 -0.1052
 6080SOL     OW29698   3.369   1.868  13.879  0.5605  0.0130  1.0226
 6080SOL    HW129699   3.284   1.900  13.850  1.1696 -0.7488 -1.6015
 6080SOL    HW229700   3.427   1.935  13.843 -0.6588  2.0871  2.9495
 6081SOL     OW29701   3.919   0.948  15.084  0.4671 -0.2913 -0.3308
 6081SOL    HW129702   3.906   0.946  15.179  2.0702 -1.9427 -0.1341
 6081SOL    HW229703   3.873   0.868  15.060  0.1651 -0.6667  1.4701
 6082SOL     OW29704   2.333   4.217   6.655  0.6188 -0.0715 -0.7806
 6082SOL    HW129705   2.259   4.260   6.613  0.8493 -1.2156 -2.3797
 6082SOL    HW229706   2.367   4.292   6.702 -0.2136  0.9970 -1.8808
 6083SOL     OW29707   3.404   3.053   1.352  0.0390  0.2951 -0.1126
 6083SOL    HW129708   3.388   3.035   1.445 -0.6328  0.1915 -0.2518
 6083SOL    HW229709   3.487   3.102   1.356  0.7183 -0.9215  0.7569
 6084SOL     OW29710   0.976   4.583   6.860 -0.0553  0.2671 -1.0255
 6084SOL    HW129711   0.908   4.645   6.886  0.6662  1.3089 -1.5922
 6084SOL    HW229712   1.041   4.647   6.829  0.5485  1.3456  2.4656
 6085SOL     OW29713   2.029   2.621   9.205 -0.1399  0.1294  0.3425
 6085SOL    HW129714   2.086   2.641   9.280 -0.8274  0.4589  0.7807
 6085SOL    HW229715   2.001   2.712   9.195  1.9806  0.8418  0.8362
 6086SOL     OW29716   2.648   3.766  13.521 -1.0087 -0.2180  0.4349
 6086SOL    HW129717   2.608   3.850  13.545  0.2409  0.7176 -0.7584
 6086SOL    HW229718   2.574   3.707  13.537 -1.1514 -0.3143 -0.5500
 6087SOL     OW29719   0.896   3.380   6.139  0.1716  0.1548 -0.0368
 6087SOL    HW129720   0.825   3.436   6.107  1.5314  2.1516  0.4602
 6087SOL    HW229721   0.849   3.297   6.127  2.4150 -1.3819  1.7491
 6088SOL     OW29722   1.049   2.641   6.391 -0.8851  0.2565  0.5400
 6088SOL    HW129723   0.960   2.663   6.420 -0.8685 -1.6889  2.1182
 6088SOL    HW229724   1.057   2.550   6.422  2.2461  0.2030 -0.4386
 6089SOL     OW29725   1.102   0.971  12.144  0.1330 -0.6459 -0.0791
 6089SOL    HW129726   1.009   0.955  12.125 -0.5850  2.7554  0.5368
 6089SOL    HW229727   1.102   1.024  12.224 -0.2322 -1.3921  0.4175
 6090SOL     OW29728   1.089   3.044   2.174 -0.1626 -0.1093  0.1342
 6090SOL    HW129729   1.007   3.086   2.150  0.2536  0.9372  0.5237
 6090SOL    HW229730   1.074   2.953   2.147 -0.7556  0.2038 -0.5688
 6091SOL     OW29731   4.547   0.556  15.051  0.5013  0.2005  0.0273
 6091SOL    HW129732   4.642   0.560  15.052  0.5045  0.1668 -0.2841
 6091SOL    HW229733   4.535   0.588  15.140 -0.9851  1.4912 -0.6262
 6092SOL     OW29734   3.811   0.653   2.775  0.3324 -0.5259  0.1559
 6092SOL    HW129735   3.745   0.686   2.836 -0.2631  0.4922 -1.0348
 6092SOL    HW229736   3.884   0.714   2.769 -0.7276  0.7622  0.4562
 6093SOL     OW29737   3.931   2.328   4.516  0.6052  0.4125  0.0263
 6093SOL    HW129738   3.924   2.238   4.483  0.3549 -0.0725  1.4287
 6093SOL    HW229739   4.011   2.312   4.567 -1.4718 -2.2588  2.4730
 6094SOL     OW29740   1.431   3.465  17.149 -0.0352 -0.1058 -0.3328
 6094SOL    HW129741   1.389   3.382  17.124 -0.6619 -0.0939  0.6883
 6094SOL    HW229742   1.378   3.518  17.089  0.9518  0.5207 -0.6469
 6095SOL     OW29743   2.399   0.359   6.720 -0.2960  0.1306  0.0912
 6095SOL    HW129744   2.346   0.439   6.727 -0.7101 -0.1033 -0.3167
 6095SOL    HW229745   2.440   0.364   6.633 -0.9044 -1.1797 -0.2613
 6096SOL     OW29746   3.055   0.499   7.408  0.1563 -0.7030  0.1526
 6096SOL    HW129747   3.067   0.582   7.454 -1.6214 -1.9345  2.8967
 6096SOL    HW229748   2.961   0.488   7.427  0.2391 -1.5216  0.1014
 6097SOL     OW29749   3.605   3.335   4.970  0.1852  0.2115  0.1428
 6097SOL    HW129750   3.555   3.268   5.018  1.4515  0.6514  2.0918
 6097SOL    HW229751   3.651   3.381   5.041 -1.6110  0.0229  1.4336
 6098SOL     OW29752   0.942   2.483   8.593  0.1665  0.5159  0.2863
 6098SOL    HW129753   1.016   2.432   8.561  1.0327  1.3368  0.9745
 6098SOL    HW229754   0.890   2.503   8.515 -0.8862 -0.8091  0.6475
 6099SOL     OW29755   2.659   3.953   3.870 -0.0795  0.4674  0.1555
 6099SOL    HW129756   2.566   3.968   3.854 -0.6353 -0.5117  2.3632
 6099SOL    HW229757   2.674   4.026   3.929  0.9463 -0.3648  0.9179
 6100SOL     OW29758   1.107   2.775   2.122 -0.3430  0.0253 -0.1340
 6100SOL    HW129759   1.075   2.695   2.079 -0.2628 -1.8288  3.2124
 6100SOL    HW229760   1.198   2.750   2.137 -0.4175  1.1520  2.2571
 6101SOL     OW29761   0.901   2.795   7.584 -0.3006  0.1540  0.2107
 6101SOL    HW129762   0.892   2.811   7.678  2.1260  0.1802  0.4445
 6101SOL    HW229763   0.996   2.805   7.577 -0.2998 -1.6947 -2.5803
 6102SOL     OW29764   1.731   4.015   3.229 -0.4601  0.7107  0.1868
 6102SOL    HW129765   1.679   3.944   3.191 -1.3976  2.1726 -1.2437
 6102SOL    HW229766   1.783   4.039   3.153 -1.8724 -1.6682 -1.5237
 6103SOL     OW29767   1.874   3.094   3.584 -0.0507  0.2072 -0.2673
 6103SOL    HW129768   1.961   3.082   3.545  1.3202 -0.5022  3.0340
 6103SOL    HW229769   1.828   3.126   3.507 -0.4837  1.8762  0.6812
 6104SOL     OW29770   1.743   1.674   6.587 -0.5549 -0.0215 -0.8418
 6104SOL    HW129771   1.727   1.628   6.669 -1.1960  2.1010  0.2196
 6104SOL    HW229772   1.655   1.709   6.573 -0.0924  1.8244  0.9399
 6105SOL     OW29773   2.305   3.642   5.581  0.4831  0.1867 -0.7231
 6105SOL    HW129774   2.244   3.703   5.538  0.2156  2.5340  2.9716
 6105SOL    HW229775   2.378   3.700   5.601  0.4867 -0.3313  0.7675
 6106SOL     OW29776   4.465   3.681  13.361  0.0984 -0.0413 -0.0318
 6106SOL    HW129777   4.486   3.761  13.312 -0.4304 -0.3535 -0.7633
 6106SOL    HW229778   4.451   3.611  13.298  0.4539 -0.0729 -0.0786
 6107SOL     OW29779   1.605   0.841  17.345 -0.7031  0.2452 -0.3840
 6107SOL    HW129780   1.650   0.762  17.317  0.9749  1.3374 -0.8156
 6107SOL    HW229781   1.561   0.860  17.262 -3.5475  1.5179  1.4006
 6108SOL     OW29782   2.075   1.602   2.120 -0.0933  0.0377  0.3990
 6108SOL    HW129783   2.144   1.669   2.118  0.2863 -0.3740 -0.4534
 6108SOL    HW229784   2.107   1.544   2.051  1.8345 -0.5189  1.7797
 6109SOL     OW29785   2.982   0.100   6.899 -0.3082 -0.3549  0.3235
 6109SOL    HW129786   3.021   0.062   6.978  1.1563 -1.0885 -0.7287
 6109SOL    HW229787   3.007   0.033   6.835  0.5775  0.1975  0.0990
 6110SOL     OW29788   0.768   4.251   1.346 -0.0450  0.0691 -0.0024
 6110SOL    HW129789   0.793   4.319   1.284 -1.4895  0.7436  0.1375
 6110SOL    HW229790   0.842   4.191   1.347 -0.2648 -0.2306 -1.7341
 6111SOL     OW29791   2.812   4.623   2.106 -0.1088 -0.0402  0.3267
 6111SOL    HW129792   2.723   4.659   2.113 -0.2388 -0.0182 -1.2608
 6111SOL    HW229793   2.862   4.672   2.171  2.1814 -0.3454 -1.2000
 6112SOL     OW29794   2.189   3.155  14.874 -0.2418  0.1749  0.0979
 6112SOL    HW129795   2.180   3.247  14.846 -1.4611 -0.0460 -0.2779
 6112SOL    HW229796   2.262   3.160  14.935 -0.1344 -1.8946  0.1121
 6113SOL     OW29797   1.595   0.159   6.333  0.9397  0.8643  1.0877
 6113SOL    HW129798   1.628   0.131   6.419 -0.7853 -3.2199  0.4142
 6113SOL    HW229799   1.566   0.248   6.351 -1.2144  0.7026 -1.5955
 6114SOL     OW29800   3.540   2.136   2.583 -0.4747  0.5501  0.1166
 6114SOL    HW129801   3.628   2.164   2.605 -0.4650 -0.4094  1.3109
 6114SOL    HW229802   3.519   2.087   2.662 -0.8533  0.5640  0.0272
 6115SOL     OW29803   0.750   3.445   8.954  0.2267 -0.2288 -0.2417
 6115SOL    HW129804   0.700   3.371   8.919 -1.2542 -0.2273  1.8762
 6115SOL    HW229805   0.840   3.415   8.948  0.1907 -0.5143  0.6492
 6116SOL     OW29806   1.651   1.003   6.027 -0.1425  0.0736  0.0114
 6116SOL    HW129807   1.592   1.075   6.002  0.5310 -0.2529 -2.5288
 6116SOL    HW229808   1.618   0.939   5.964  0.7018 -1.8584  1.5703
 6117SOL     OW29809   1.047   4.020   9.404  0.5663 -0.7127 -0.1083
 6117SOL    HW129810   1.004   4.053   9.483 -1.2238 -1.3060 -0.8310
 6117SOL    HW229811   1.108   3.958   9.444  1.2963  0.8357  1.1703
 6118SOL     OW29812   1.858   2.742   8.904  0.0643  0.6958  0.1071
 6118SOL    HW129813   1.890   2.790   8.827  0.9485 -0.1892 -0.0683
 6118SOL    HW229814   1.870   2.811   8.969 -1.4723 -0.1998  1.3368
 6119SOL     OW29815   2.438   2.087  12.961 -0.1305  0.0874 -0.6086
 6119SOL    HW129816   2.488   2.010  12.933  1.0406  0.9721 -0.9122
 6119SOL    HW229817   2.470   2.098  13.050  0.6124  1.6834 -1.0673
 6120SOL     OW29818   3.996   1.380   5.715 -0.3221 -0.2210 -0.0045
 6120SOL    HW129819   3.967   1.417   5.631  0.9562  0.0240 -0.3432
 6120SOL    HW229820   3.940   1.420   5.782 -3.4366 -2.4071 -1.2954
 6121SOL     OW29821   1.831   3.380   9.740  0.0235 -0.2864 -0.1826
 6121SOL    HW129822   1.864   3.371   9.829  0.5909  1.2793 -0.2196
 6121SOL    HW229823   1.908   3.411   9.693  0.1291  2.0182  1.5018
 6122SOL     OW29824   1.515   3.975   8.596  0.7582 -0.3841 -0.1081
 6122SOL    HW129825   1.549   4.060   8.625  2.8586 -0.8210 -1.3033
 6122SOL    HW229826   1.525   3.917   8.671 -2.1426 -1.1812 -0.3272
 6123SOL     OW29827   1.746   0.538   3.282  0.3093 -0.9052 -0.0889
 6123SOL    HW129828   1.700   0.557   3.200 -1.3184  1.3471  1.3476
 6123SOL    HW229829   1.748   0.443   3.277 -0.1415 -0.9372  0.3031
 6124SOL     OW29830   2.174   3.905   4.121  0.3944  0.0563  1.2635
 6124SOL    HW129831   2.153   3.819   4.156 -0.0636 -0.1188  0.5412
 6124SOL    HW229832   2.086   3.936   4.102 -0.0171 -0.9446  1.5917
 6125SOL     OW29833   2.416   0.605  14.757  0.0678  0.3293  0.0822
 6125SOL    HW129834   2.367   0.611  14.840 -1.3799  0.2875 -0.7647
 6125SOL    HW229835   2.413   0.509  14.753 -1.8732  0.3630  0.5180
 6126SOL     OW29836   3.623   0.816   4.064  0.3203  0.3057 -0.0435
 6126SOL    HW129837   3.590   0.899   4.098  0.4845  0.2805  0.1809
 6126SOL    HW229838   3.674   0.788   4.140 -0.1358 -0.6748 -0.1022
 6127SOL     OW29839   0.199   3.366   2.911  0.1534  0.3829 -0.2009
 6127SOL    HW129840   0.110   3.397   2.928  0.2708  0.4171  0.3651
 6127SOL    HW229841   0.203   3.293   2.973 -1.0188 -0.7879 -1.5302
 6128SOL     OW29842   0.150   0.578   3.464 -0.1586 -0.1301  0.0533
 6128SOL    HW129843   0.205   0.573   3.386 -1.4601  1.0620 -0.9508
 6128SOL    HW229844   0.184   0.503   3.513 -0.0522  0.1366  0.3945
 6129SOL     OW29845   2.993   1.490   4.239  0.0873 -0.3984  0.1087
 6129SOL    HW129846   2.956   1.403   4.249  0.2031 -0.1835  2.4689
 6129SOL    HW229847   2.921   1.544   4.207  1.1529  0.4211 -0.9155
 6130SOL     OW29848   0.505   0.399   2.474 -0.7369  0.1689  0.6709
 6130SOL    HW129849   0.523   0.467   2.539  0.0514 -0.7644  1.4338
 6130SOL    HW229850   0.411   0.404   2.459 -0.7316 -1.4401  0.1261
 6131SOL     OW29851   0.688   0.490   3.902  0.2296  0.2850  0.3130
 6131SOL    HW129852   0.660   0.582   3.903 -0.6245  0.0329 -1.3198
 6131SOL    HW229853   0.670   0.471   3.994 -0.1756 -0.3121  0.1102
 6132SOL     OW29854   3.722   3.123   6.355 -0.1449  0.3249  0.0979
 6132SOL    HW129855   3.666   3.200   6.362 -0.4551  0.3364 -2.3270
 6132SOL    HW229856   3.736   3.099   6.447 -1.7919 -0.7179  0.0737
 6133SOL     OW29857   4.291   0.901  13.624 -0.0911 -0.7605  0.2520
 6133SOL    HW129858   4.201   0.868  13.623 -0.1649 -0.5610  0.3052
 6133SOL    HW229859   4.311   0.914  13.717 -0.1766 -1.6406  0.3961
 6134SOL     OW29860   2.461   0.956   1.417  0.1898 -0.1557 -0.5898
 6134SOL    HW129861   2.499   1.022   1.358 -0.0888  0.1398 -0.4361
 6134SOL    HW229862   2.457   0.880   1.359  1.5213 -0.9060  0.3069
 6135SOL     OW29863   2.513   1.575   8.030 -0.1566 -0.9017 -0.0737
 6135SOL    HW129864   2.516   1.639   7.960  1.4930 -0.3468  0.4915
 6135SOL    HW229865   2.439   1.520   8.004  0.0887 -0.9638 -0.6294
 6136SOL     OW29866   3.282   0.932  13.958  0.4350  0.1456 -0.3050
 6136SOL    HW129867   3.350   0.865  13.971 -1.4614 -1.8106 -0.3630
 6136SOL    HW229868   3.327   1.016  13.957 -0.0537  0.3497 -3.8965
 6137SOL     OW29869   0.708   4.054  17.445  0.2301  0.4299 -0.1237
 6137SOL    HW129870   0.643   4.020  17.507  0.9054 -1.1824 -0.2949
 6137SOL    HW229871   0.728   3.973  17.397  0.8028 -0.0369  0.9115
 6138SOL     OW29872   0.356   2.922   3.943 -0.0610  0.0983  0.1868
 6138SOL    HW129873   0.391   2.943   3.856  0.6131 -1.8719 -0.0102
 6138SOL    HW229874   0.442   2.900   3.978 -0.2459 -1.7184 -0.4986
 6139SOL     OW29875   3.436   1.285   2.120 -0.2145 -0.3286 -0.2131
 6139SOL    HW129876   3.392   1.291   2.035  1.5317 -0.4889 -1.1245
 6139SOL    HW229877   3.527   1.303   2.099 -0.7463  2.7208 -0.0022
 6140SOL     OW29878   4.280   1.333   3.350  0.8228 -0.5068 -0.4374
 6140SOL    HW129879   4.339   1.285   3.408 -0.2628 -1.8663 -0.4630
 6140SOL    HW229880   4.304   1.425   3.354 -0.0653 -0.2906 -0.1606
 6141SOL     OW29881   3.133   0.507   9.294 -0.4700 -0.5678  0.1703
 6141SOL    HW129882   3.220   0.468   9.305  0.6962  2.3329  1.1070
 6141SOL    HW229883   3.135   0.551   9.209 -2.1782 -0.4797  0.1817
 6142SOL     OW29884   0.181   4.656   7.131  0.1905  0.0098 -0.0549
 6142SOL    HW129885   0.197   4.574   7.178 -1.1338 -0.1732  0.0805
 6142SOL    HW229886   0.140   4.709   7.200 -0.0079  0.5088 -0.5584
 6143SOL     OW29887   2.638   1.566   2.845 -0.4535 -0.2368 -0.6690
 6143SOL    HW129888   2.724   1.607   2.854 -0.2243 -1.0813  0.9559
 6143SOL    HW229889   2.654   1.499   2.779  0.2310 -1.5823  0.8618
 6144SOL     OW29890   2.044   1.374  12.861  0.5173  0.5629 -0.5508
 6144SOL    HW129891   2.018   1.288  12.829  1.3973  0.9770 -2.3955
 6144SOL    HW229892   2.114   1.389  12.798  0.5264  0.2580 -0.6138
 6145SOL     OW29893   3.920   2.095   0.631 -0.1371 -0.1125  0.1251
 6145SOL    HW129894   3.850   2.081   0.695 -1.1561  1.0213 -0.7277
 6145SOL    HW229895   3.982   2.137   0.690  0.4381  0.2809 -0.7681
 6146SOL     OW29896   3.523   1.054   7.486  0.1409 -0.8123  0.0642
 6146SOL    HW129897   3.470   1.086   7.559 -0.9899 -1.7260 -0.3424
 6146SOL    HW229898   3.457   1.035   7.419  0.7082  2.0934 -1.3375
 6147SOL     OW29899   4.688   3.324  13.135  0.0666 -0.3272  0.4454
 6147SOL    HW129900   4.670   3.400  13.079  0.0718  0.4790  1.5371
 6147SOL    HW229901   4.719   3.261  13.070 -2.5294 -2.5002  1.3146
 6148SOL     OW29902   2.635   4.176   6.376 -0.0468 -0.0072  0.2667
 6148SOL    HW129903   2.613   4.253   6.324  0.3023 -1.2321 -1.6758
 6148SOL    HW229904   2.661   4.111   6.310  1.4537  1.4975 -0.6040
 6149SOL     OW29905   1.467   3.128  12.712  0.7166 -0.2809  0.2895
 6149SOL    HW129906   1.448   3.219  12.689 -0.8392 -0.3928  1.1601
 6149SOL    HW229907   1.549   3.138  12.761  0.6786  2.3389 -0.2047
 6150SOL     OW29908   4.404   4.229  12.462  0.0577 -0.3956  0.1730
 6150SOL    HW129909   4.347   4.195  12.531 -0.8603  1.5115  0.3596
 6150SOL    HW229910   4.344   4.285  12.413 -0.3522 -0.4149  0.6447
 6151SOL     OW29911   2.341   4.670   6.486  0.2579 -0.6198  0.2492
 6151SOL    HW129912   2.255   4.679   6.527 -0.3813 -2.0184 -0.7621
 6151SOL    HW229913   2.358   0.030   6.441 -0.2174 -0.1502  0.9337
 6152SOL     OW29914   2.684   1.872   8.928  0.3163 -0.3227 -0.1024
 6152SOL    HW129915   2.765   1.821   8.927  0.7113  0.3167 -1.1579
 6152SOL    HW229916   2.650   1.829   9.007  0.1332  2.1151  1.1635
 6153SOL     OW29917   3.103   2.511   1.265  0.3421 -0.1411  0.1608
 6153SOL    HW129918   3.120   2.419   1.245  0.7157  0.2347 -1.2316
 6153SOL    HW229919   3.010   2.517   1.243  0.3948  2.1521  0.5363
 6154SOL     OW29920   4.413   0.821   9.062 -0.5023  0.3262 -0.0034
 6154SOL    HW129921   4.345   0.755   9.071  0.9299 -0.8172  2.5201
 6154SOL    HW229922   4.358   0.895   9.087 -2.1449 -0.7334 -0.4731
 6155SOL     OW29923   4.013   3.743   2.866  0.1848 -0.4179 -0.1627
 6155SOL    HW129924   4.095   3.701   2.839 -0.4103 -2.6553  1.5120
 6155SOL    HW229925   4.025   3.798   2.943 -1.4936 -0.8286  0.4035
 6156SOL     OW29926   2.890   3.753   8.839 -0.2055 -0.2359  0.3712
 6156SOL    HW129927   2.843   3.700   8.775 -0.4692 -0.6231  0.8808
 6156SOL    HW229928   2.953   3.803   8.787  0.6403  0.1858  1.7841
 6157SOL     OW29929   2.121   4.169   2.972  0.0534  0.3719 -0.6406
 6157SOL    HW129930   2.172   4.249   2.955  1.1022 -0.3928 -1.1083
 6157SOL    HW229931   2.041   4.207   3.009  0.3621  0.7163 -0.3194
 6158SOL     OW29932   0.570   4.586   3.606  0.3626  0.2239  0.4081
 6158SOL    HW129933   0.661   4.609   3.590  0.0178  0.3042 -1.4779
 6158SOL    HW229934   0.534   4.664   3.647  0.6798  0.0855  0.9495
 6159SOL     OW29935   3.695   3.849   2.143 -0.3277  0.7210  0.0137
 6159SOL    HW129936   3.722   3.773   2.195 -0.0182  0.7151 -0.1520
 6159SOL    HW229937   3.654   3.908   2.206  1.6316  1.8517  0.2169
 6160SOL     OW29938   2.893   3.193   8.266 -0.0775 -0.9279 -0.3028
 6160SOL    HW129939   2.887   3.109   8.219  0.3064 -0.7778 -0.6192
 6160SOL    HW229940   2.984   3.220   8.259  0.1251 -1.0211  2.0937
 6161SOL     OW29941   0.948   1.440  15.783  0.5234  0.8415 -0.3568
 6161SOL    HW129942   1.032   1.401  15.804 -0.0638 -0.6581 -0.8050
 6161SOL    HW229943   0.934   1.392  15.701 -0.6172 -0.9336  0.8663
 6162SOL     OW29944   4.445   2.311   6.976  0.7382 -0.6285  0.2724
 6162SOL    HW129945   4.465   2.254   6.901 -1.0979 -0.1962 -0.5346
 6162SOL    HW229946   4.443   2.259   7.056 -0.7603  0.7846  1.1695
 6163SOL     OW29947   2.021   0.211  12.565 -0.1858 -0.0996 -0.3903
 6163SOL    HW129948   1.927   0.197  12.555 -0.3887  1.3696 -0.4245
 6163SOL    HW229949   2.046   0.118  12.558  3.6795  0.8453  0.5383
 6164SOL     OW29950   3.068   3.405   3.856 -0.2936  0.6476  0.2420
 6164SOL    HW129951   3.050   3.478   3.796  2.9767  0.4331 -0.9960
 6164SOL    HW229952   2.983   3.392   3.898  0.8718 -0.1749  2.2936
 6165SOL     OW29953   3.519   0.680   0.963  0.8268 -0.0770 -0.0540
 6165SOL    HW129954   3.449   0.682   0.898  1.3402 -2.5132 -0.6679
 6165SOL    HW229955   3.574   0.756   0.941  1.8778 -0.6709  0.5094
 6166SOL     OW29956   3.866   1.700   8.834 -0.2013 -0.1301 -0.0247
 6166SOL    HW129957   3.892   1.624   8.886 -1.7330  1.7124  3.4289
 6166SOL    HW229958   3.908   1.679   8.751 -0.1867  0.0885 -0.0736
 6167SOL     OW29959   3.663   3.374  10.976  0.2618 -0.6863  0.4081
 6167SOL    HW129960   3.732   3.367  10.910 -0.6343 -0.1592 -0.5836
 6167SOL    HW229961   3.692   3.299  11.028  1.0351  0.1078  1.1080
 6168SOL     OW29962   1.332   2.680  14.350  0.2116 -0.4244 -0.1506
 6168SOL    HW129963   1.346   2.676  14.444 -1.9350 -1.0707  0.1297
 6168SOL    HW229964   1.417   2.693  14.308  0.2824 -1.3507 -0.3087
 6169SOL     OW29965   2.294   0.962   7.907  0.7424 -0.1393 -0.4350
 6169SOL    HW129966   2.237   1.035   7.883  0.4246 -0.9103 -1.9991
 6169SOL    HW229967   2.251   0.921   7.982 -0.2091  0.0918 -0.8607
 6170SOL     OW29968   0.379   2.738   7.556 -0.0332  0.2750 -0.5372
 6170SOL    HW129969   0.443   2.677   7.519 -2.5030 -2.5527 -0.2001
 6170SOL    HW229970   0.395   2.724   7.650  1.5869 -3.7936 -1.4174
 6171SOL     OW29971   2.129   1.525  17.121  0.5397 -0.8217  0.6131
 6171SOL    HW129972   2.117   1.520  17.026  0.7514 -0.7190  0.5789
 6171SOL    HW229973   2.041   1.549  17.150  0.3408  0.3628 -0.9700
 6172SOL     OW29974   2.496   1.259   7.248 -0.1891  0.1104 -0.0948
 6172SOL    HW129975   2.576   1.295   7.211 -1.0956  2.1778 -0.0356
 6172SOL    HW229976   2.505   1.293   7.337  0.6507 -0.8362  0.1883
 6173SOL     OW29977   4.467   0.089   1.074 -0.4108 -0.5090  0.3434
 6173SOL    HW129978   4.483   4.718   1.066  0.5208 -0.3721  0.6603
 6173SOL    HW229979   4.522   0.112   1.148 -1.1521  2.3784 -0.0158
 6174SOL     OW29980   4.005   2.993   5.143 -0.0422 -0.4956  0.1554
 6174SOL    HW129981   4.065   3.007   5.215  1.0615 -0.2424 -0.8149
 6174SOL    HW229982   4.054   2.928   5.094 -0.0055  0.5586 -1.2299
 6175SOL     OW29983   3.930   4.216   8.285 -0.1535  0.3806  0.5261
 6175SOL    HW129984   3.854   4.159   8.292 -0.0037  0.2565  1.0919
 6175SOL    HW229985   3.956   4.195   8.195 -1.1022  2.8963 -0.3457
 6176SOL     OW29986   0.235   2.436   4.620 -0.2073 -0.5891  0.4329
 6176SOL    HW129987   0.161   2.389   4.660  0.6652 -0.6657  1.9681
 6176SOL    HW229988   0.198   2.523   4.609 -0.3718  0.0942  5.9625
 6177SOL     OW29989   2.149   0.188  16.554  0.3620  0.9942  0.1410
 6177SOL    HW129990   2.147   0.269  16.604 -0.7684 -0.2274  2.0657
 6177SOL    HW229991   2.117   0.126  16.619  1.0463 -0.4133 -0.8491
 6178SOL     OW29992   3.835   3.305   7.794  0.6826 -0.4795 -0.1433
 6178SOL    HW129993   3.809   3.361   7.721  3.2701  0.5318 -0.2855
 6178SOL    HW229994   3.879   3.372   7.846 -0.5155  0.8788 -0.8847
 6179SOL     OW29995   2.301   2.512   2.307 -0.5838 -0.1502  0.6702
 6179SOL    HW129996   2.365   2.584   2.307  1.3962 -1.9118  0.7096
 6179SOL    HW229997   2.260   2.521   2.393 -1.0368 -0.5371  0.4901
 6180SOL     OW29998   1.169   4.653   6.479 -0.4918 -0.3203 -0.1757
 6180SOL    HW129999   1.109   4.597   6.429  0.2652 -0.2969 -1.1131
 6180SOL    HW230000   1.224   4.685   6.408  1.2288 -2.9342  0.0246
 6181SOL     OW30001   1.948   3.016   2.359 -0.0892  0.1427 -0.2700
 6181SOL    HW130002   1.984   3.064   2.434 -1.2425  1.5960 -0.6433
 6181SOL    HW230003   1.988   3.059   2.284  0.8179  0.0433  0.1514
 6182SOL     OW30004   0.298   0.407  17.524 -0.0491  0.5062  0.3304
 6182SOL    HW130005   0.227   0.436  17.581 -1.1054  0.4639 -0.9691
 6182SOL    HW230006   0.299   0.312  17.533 -0.1865  0.6573  2.0288
 6183SOL     OW30007   0.073   1.451   2.209  0.3370  0.1445 -0.4406
 6183SOL    HW130008   0.063   1.368   2.163 -0.4715 -0.8239  1.5056
 6183SOL    HW230009   0.166   1.455   2.229  0.0761  0.4379  0.7074
 6184SOL     OW30010   4.491   0.614   2.047 -0.4229  0.0994  0.0324
 6184SOL    HW130011   4.446   0.530   2.044  0.4211 -0.4239  1.7731
 6184SOL    HW230012   4.578   0.590   2.015 -1.4690 -0.3177 -2.5197
 6185SOL     OW30013   3.773   2.832  12.896 -0.0800  0.3370 -0.0211
 6185SOL    HW130014   3.744   2.830  12.987  0.3916 -0.7224  0.1128
 6185SOL    HW230015   3.743   2.919  12.870 -3.8885 -0.7076  0.9059
 6186SOL     OW30016   3.434   3.663   2.191  0.1162 -0.3504 -0.2774
 6186SOL    HW130017   3.445   3.580   2.145 -2.8769  0.8620 -3.1872
 6186SOL    HW230018   3.461   3.728   2.126 -0.2172  1.1711  1.0960
 6187SOL     OW30019   0.236   1.220   9.125 -0.4819  0.1171  0.0466
 6187SOL    HW130020   0.255   1.272   9.203 -0.5351 -0.0163  0.1476
 6187SOL    HW230021   0.188   1.147   9.164  0.4236 -0.6901 -0.3350
 6188SOL     OW30022   1.798   0.766   6.175  0.1550 -0.5646 -0.0399
 6188SOL    HW130023   1.761   0.746   6.261 -0.9394 -2.3194 -0.9021
 6188SOL    HW230024   1.773   0.692   6.119 -0.4629  1.8989 -3.0518
 6189SOL     OW30025   3.444   0.704   3.047 -0.2230 -0.2550 -0.1644
 6189SOL    HW130026   3.442   0.726   3.140  1.1767 -3.9110  0.7661
 6189SOL    HW230027   3.456   0.610   3.066 -1.2517 -0.1953  0.7903
 6190SOL     OW30028   0.692   3.521   3.826 -0.2949  0.2731  0.1010
 6190SOL    HW130029   0.641   3.447   3.792 -1.4496  0.7925  0.6686
 6190SOL    HW230030   0.714   3.576   3.751 -1.4285  0.4653 -0.0963
 6191SOL     OW30031   2.641   2.829  17.299  0.0241  0.0700 -0.0096
 6191SOL    HW130032   2.583   2.796  17.230 -0.9317  0.9435  0.3731
 6191SOL    HW230033   2.685   2.751  17.333  0.4768  0.8733  1.2449
 6192SOL     OW30034   1.396   0.360   0.949  0.2827 -0.0974  0.2255
 6192SOL    HW130035   1.402   0.267   0.972 -0.2285  0.2878  1.8987
 6192SOL    HW230036   1.409   0.407   1.031 -1.3654  1.8860 -0.6622
 6193SOL     OW30037   2.900   4.291  10.921  0.4619  0.2382 -0.0729
 6193SOL    HW130038   2.885   4.242  10.840  2.1300  0.7253 -0.6923
 6193SOL    HW230039   2.851   4.373  10.914 -0.7339 -0.3896  0.9646
 6194SOL     OW30040   2.340   2.049   8.566  0.3735  0.4060  0.2878
 6194SOL    HW130041   2.386   2.037   8.649  0.1244 -0.3562  0.3169
 6194SOL    HW230042   2.395   2.102   8.509  0.2914 -0.1787 -0.3506
 6195SOL     OW30043   3.032   1.533  13.231 -0.3136 -0.5126 -0.4588
 6195SOL    HW130044   3.090   1.597  13.190 -0.7552  0.5198  0.5249
 6195SOL    HW230045   2.951   1.584  13.238  0.4399  0.6642 -0.2265
 6196SOL     OW30046   1.680   4.258   5.541  0.5070  0.1277 -0.4669
 6196SOL    HW130047   1.588   4.276   5.517 -0.2993 -0.3155  2.3383
 6196SOL    HW230048   1.719   4.236   5.456  1.2438  2.7121 -0.7994
 6197SOL     OW30049   1.296   1.828   7.609 -0.0596 -0.0586 -0.0514
 6197SOL    HW130050   1.340   1.823   7.694 -2.7164 -1.3946  1.2491
 6197SOL    HW230051   1.247   1.910   7.621  0.6683  0.3327  0.2443
 6198SOL     OW30052   3.292   2.627   2.112  0.5803  0.4945  0.0874
 6198SOL    HW130053   3.307   2.611   2.019 -3.0916  0.2784 -0.4846
 6198SOL    HW230054   3.217   2.687   2.115  0.2391 -0.0483  2.2646
 6199SOL     OW30055   2.570   1.843  14.040 -0.5087  0.2910 -0.3892
 6199SOL    HW130056   2.514   1.818  14.114  0.2526 -2.2860 -0.6932
 6199SOL    HW230057   2.652   1.870  14.081 -0.8298  2.4045 -1.1512
 6200SOL     OW30058   4.058   4.308   7.551  0.0245  0.6022 -0.2499
 6200SOL    HW130059   4.089   4.301   7.461  2.7090  0.5885  0.6686
 6200SOL    HW230060   4.136   4.274   7.595 -0.6844  0.8028  1.1603
 6201SOL     OW30061   3.284   2.007   2.360 -0.0230 -0.2532 -0.0624
 6201SOL    HW130062   3.196   1.994   2.395 -0.2479  4.2390  1.1096
 6201SOL    HW230063   3.278   1.956   2.279  0.7234 -0.1249 -0.2050
 6202SOL     OW30064   1.316   1.074  11.004 -0.0617 -0.0700 -0.2379
 6202SOL    HW130065   1.354   1.032  11.081  1.8981 -0.7716 -1.5987
 6202SOL    HW230066   1.390   1.127  10.973  0.5116 -0.1076  1.0599
 6203SOL     OW30067   4.549   0.936   5.088 -0.4215  0.1327  0.6699
 6203SOL    HW130068   4.471   0.981   5.055  1.1155 -0.4248 -3.6822
 6203SOL    HW230069   4.586   0.875   5.025  1.2761  0.5323  1.2727
 6204SOL     OW30070   0.356   3.678   2.506 -0.3754 -0.7236  0.0223
 6204SOL    HW130071   0.426   3.620   2.536  0.9266 -0.1699 -1.9212
 6204SOL    HW230072   0.298   3.656   2.578 -0.7390  1.2355  0.3305
 6205SOL     OW30073   2.713   4.526   0.603 -0.2668 -0.2416 -0.2736
 6205SOL    HW130074   2.694   4.465   0.674 -2.2863 -1.2012 -1.6393
 6205SOL    HW230075   2.655   4.593   0.639 -0.2582  0.3201 -1.2947
 6206SOL     OW30076   1.527   0.240  16.538 -0.0850 -0.3468  0.3430
 6206SOL    HW130077   1.556   0.247  16.447 -0.2787 -0.3609  0.2815
 6206SOL    HW230078   1.446   0.290  16.536 -1.5835 -2.8963 -1.4439
 6207SOL     OW30079   3.292   4.509   1.949 -0.3201  0.3259 -0.3536
 6207SOL    HW130080   3.246   4.514   2.032  2.9142  0.7297  1.3948
 6207SOL    HW230081   3.283   4.599   1.916 -1.6812  0.0147 -0.8500
 6208SOL     OW30082   1.327   2.166   8.703  0.6838 -0.2985  0.2175
 6208SOL    HW130083   1.356   2.088   8.656 -2.2725 -2.4154  1.9968
 6208SOL    HW230084   1.404   2.222   8.686  0.9312 -0.3052  1.3143
 6209SOL     OW30085   1.180   0.993  14.345  0.1287  0.5683  0.0597
 6209SOL    HW130086   1.104   1.004  14.401 -0.3823 -1.9122 -0.1469
 6209SOL    HW230087   1.251   1.013  14.406  0.2591 -0.3566  0.2191
 6210SOL     OW30088   3.153   1.887  15.657 -0.4968  0.3763  0.2436
 6210SOL    HW130089   3.159   1.948  15.584 -1.0440 -0.3913 -0.4518
 6210SOL    HW230090   3.243   1.888  15.690 -0.5768  3.4359  0.3434
 6211SOL     OW30091   3.119   0.838   7.866  0.6463 -0.3684 -0.3322
 6211SOL    HW130092   3.036   0.885   7.858  0.7965 -0.2871 -1.4295
 6211SOL    HW230093   3.128   0.834   7.961 -1.4066 -1.6866 -0.2023
 6212SOL     OW30094   2.118   4.481  12.255  0.4626 -0.4409 -0.2834
 6212SOL    HW130095   2.205   4.453  12.285  0.0915  1.0888  2.2497
 6212SOL    HW230096   2.062   4.467  12.331 -0.7795 -0.4784 -1.2146
 6213SOL     OW30097   0.333   0.522   3.765 -0.0219 -0.9971  0.5650
 6213SOL    HW130098   0.293   0.599   3.725 -0.3076 -0.7617  1.3054
 6213SOL    HW230099   0.314   0.445   3.711  0.7673  0.3407 -1.6012
 6214SOL     OW30100   2.850   0.343  10.474 -0.3310 -0.1051 -0.2755
 6214SOL    HW130101   2.900   0.392  10.408 -0.4226  0.5174  0.1108
 6214SOL    HW230102   2.799   0.287  10.417 -2.2903  1.3385  0.0605
 6215SOL     OW30103   2.126   2.405  14.600  0.3968  0.0265 -0.1169
 6215SOL    HW130104   2.181   2.462  14.654  0.4140 -1.4505  1.4379
 6215SOL    HW230105   2.193   2.340  14.579  0.5878  0.3190 -0.4089
 6216SOL     OW30106   3.772   2.643   3.456  0.2357 -0.6838 -0.3948
 6216SOL    HW130107   3.795   2.650   3.548 -0.2281  0.4311 -0.3628
 6216SOL    HW230108   3.680   2.670   3.449 -0.2450 -1.7136  2.1829
 6217SOL     OW30109   4.000   3.926   5.049  0.5925  0.0257  0.3052
 6217SOL    HW130110   3.938   3.876   5.101 -1.2806 -2.7697 -4.6632
 6217SOL    HW230111   3.977   4.007   5.095  2.1793  1.6458 -1.7709
 6218SOL     OW30112   0.923   0.923   2.222 -0.4284 -0.5791 -0.0161
 6218SOL    HW130113   0.908   0.829   2.234 -0.7352 -0.7186 -1.5566
 6218SOL    HW230114   0.834   0.958   2.217  0.1669  0.9601  0.2715
 6219SOL     OW30115   3.056   2.804   8.372  0.4338  0.7604  0.0548
 6219SOL    HW130116   3.064   2.776   8.281 -3.1658 -0.8788  0.2429
 6219SOL    HW230117   3.142   2.841   8.391  0.8713  0.5043 -1.4351
 6220SOL     OW30118   2.997   4.583   2.511  0.4437  0.8948 -0.6009
 6220SOL    HW130119   2.973   4.491   2.499 -1.2480  1.6991 -3.3277
 6220SOL    HW230120   2.908   4.619   2.507 -0.4869 -1.2015  1.6845
 6221SOL     OW30121   4.142   0.645   1.040 -0.5536 -0.3425 -0.5728
 6221SOL    HW130122   4.194   0.699   1.100 -1.2677  0.9140 -1.0876
 6221SOL    HW230123   4.087   0.598   1.103  1.2655  0.7375  1.8194
 6222SOL     OW30124   3.929   2.464   6.777 -0.3794 -0.2344 -0.1960
 6222SOL    HW130125   3.970   2.551   6.775 -1.6163  0.3106 -2.3670
 6222SOL    HW230126   3.964   2.435   6.861 -3.3752  2.0086  1.8309
 6223SOL     OW30127   2.465   3.510   9.957  0.5738  0.1638  0.1202
 6223SOL    HW130128   2.389   3.453   9.944  0.8448  0.0939 -1.0991
 6223SOL    HW230129   2.433   3.567  10.027  1.5437  1.0817 -0.1925
 6224SOL     OW30130   2.183   3.802   5.380 -0.3007  0.2175 -0.0815
 6224SOL    HW130131   2.187   3.897   5.364  0.9991  0.0938 -0.5647
 6224SOL    HW230132   2.088   3.794   5.377 -0.3499  0.2662  1.4214
 6225SOL     OW30133   2.549   2.814   7.443  0.3099 -0.5760  0.4971
 6225SOL    HW130134   2.614   2.797   7.511  0.5513 -0.4137  0.3088
 6225SOL    HW230135   2.601   2.795   7.365  1.3498 -1.3142  1.3587
 6226SOL     OW30136   4.590   2.172  11.607 -0.0503 -0.1912 -0.0060
 6226SOL    HW130137   4.684   2.175  11.622  0.1508  0.2517 -1.3977
 6226SOL    HW230138   4.572   2.082  11.634  0.7670 -0.0526  1.0136
 6227SOL     OW30139   2.398   4.533   7.395  0.3193  0.3391  0.3236
 6227SOL    HW130140   2.383   4.497   7.482  0.3047  0.1315  0.2353
 6227SOL    HW230141   2.484   4.493   7.385 -0.1078 -1.0226  2.2101
 6228SOL     OW30142   3.318   3.671   0.362 -0.1200  0.3669 -0.2070
 6228SOL    HW130143   3.279   3.755   0.384 -0.9964 -0.4055  1.2461
 6228SOL    HW230144   3.316   3.644   0.454  1.5276  2.4078  0.4137
 6229SOL     OW30145   4.064   0.524   4.101  0.2508 -0.0434 -1.2055
 6229SOL    HW130146   3.970   0.516   4.118  0.2641  1.6277 -0.3056
 6229SOL    HW230147   4.070   0.580   4.024  0.3723  1.3573 -0.1790
 6230SOL     OW30148   4.590   2.956   4.196 -0.0817 -0.6343  0.0604
 6230SOL    HW130149   4.611   2.986   4.285  0.7986  1.0208 -0.7002
 6230SOL    HW230150   4.679   2.964   4.162  0.4894 -0.6265  1.5455
 6231SOL     OW30151   1.505   0.151  12.806 -0.1233  0.0622 -0.2020
 6231SOL    HW130152   1.562   0.159  12.882 -0.7883  1.7788  0.1150
 6231SOL    HW230153   1.425   0.193  12.838 -0.9830 -1.7625  0.1016
 6232SOL     OW30154   1.524   0.958   8.642 -0.6314  0.0609 -0.0590
 6232SOL    HW130155   1.454   0.972   8.578 -0.8176  0.1799  0.1722
 6232SOL    HW230156   1.474   0.953   8.723  0.4925  1.0553  0.6895
 6233SOL     OW30157   0.193   2.162   7.899  0.4002  0.4243  0.5183
 6233SOL    HW130158   0.207   2.067   7.904  0.1966  0.3721  0.1474
 6233SOL    HW230159   0.147   2.183   7.980 -0.1112 -0.0998  0.3635
 6234SOL     OW30160   4.646   0.865   5.991  0.0066  0.1138 -0.0741
 6234SOL    HW130161   4.698   0.789   5.966 -0.9630 -1.0538  1.5212
 6234SOL    HW230162   4.628   0.904   5.905 -0.4782  2.0891  0.9226
 6235SOL     OW30163   3.084   1.640  11.294 -0.1728  0.4528 -0.4280
 6235SOL    HW130164   3.154   1.691  11.334 -1.4914  2.6186 -0.9045
 6235SOL    HW230165   3.003   1.660  11.341  0.3411  1.8966 -0.1581
 6236SOL     OW30166   2.495   3.813   1.789 -0.1101  0.6401 -0.4689
 6236SOL    HW130167   2.442   3.859   1.724  0.5041  0.0466 -1.3916
 6236SOL    HW230168   2.440   3.792   1.864  0.4497 -0.5847 -0.3956
 6237SOL     OW30169   4.008   4.490   4.375 -0.5045  0.0381  0.1808
 6237SOL    HW130170   4.097   4.455   4.375 -0.9470 -1.0692 -2.9213
 6237SOL    HW230171   3.988   4.461   4.286  0.7917 -0.1970 -0.0303
 6238SOL     OW30172   0.741   1.016   2.484  0.2888  0.2573  0.0383
 6238SOL    HW130173   0.771   1.104   2.464  0.0302  0.4910  0.6908
 6238SOL    HW230174   0.665   1.011   2.424 -0.4163  0.6027  0.9034
 6239SOL     OW30175   3.165   1.189  15.635  0.1051  0.1805 -0.2599
 6239SOL    HW130176   3.194   1.122  15.573 -0.7505  0.3737 -0.8872
 6239SOL    HW230177   3.150   1.265  15.579 -0.5089 -0.0423 -0.4060
 6240SOL     OW30178   0.255   3.247  13.903  0.1687  0.1025  0.1628
 6240SOL    HW130179   0.259   3.342  13.894  3.4335  0.0581  1.0410
 6240SOL    HW230180   0.211   3.223  13.821  1.6811  2.2701 -1.2791
 6241SOL     OW30181   4.225   2.384   7.108  0.0971 -1.0664  0.3964
 6241SOL    HW130182   4.271   2.351   7.185 -0.7506 -0.1062  1.3092
 6241SOL    HW230183   4.296   2.380   7.044 -1.3263 -2.6769 -1.0656
 6242SOL     OW30184   2.390   4.487   5.567 -0.2800 -0.1850 -0.4097
 6242SOL    HW130185   2.376   4.542   5.644 -0.6445 -0.1765 -0.4814
 6242SOL    HW230186   2.375   4.397   5.596 -0.5293 -0.0640 -0.1577
 6243SOL     OW30187   1.027   0.637   7.888 -0.4359 -0.2467  0.1979
 6243SOL    HW130188   0.986   0.582   7.955 -2.3190  0.3832 -0.4309
 6243SOL    HW230189   1.120   0.636   7.912 -0.7273  0.3702  1.3457
 6244SOL     OW30190   1.754   1.227  12.933  0.8454  0.2290 -0.1818
 6244SOL    HW130191   1.741   1.132  12.941  0.9454  0.2574  0.3388
 6244SOL    HW230192   1.837   1.232  12.981  0.1812  0.4032  0.9626
 6245SOL     OW30193   4.654   1.018   4.144 -0.1220  0.2601 -0.4282
 6245SOL    HW130194   4.591   1.066   4.090  0.0748  1.7248  0.6442
 6245SOL    HW230195   0.013   1.069   4.136 -0.8956  1.6014  0.1717
 6246SOL     OW30196   2.853   2.019   7.938 -0.2853 -0.5233 -0.1311
 6246SOL    HW130197   2.840   2.075   8.014 -0.5782  0.5277 -0.9626
 6246SOL    HW230198   2.933   1.972   7.961  0.5472  0.2156 -1.5445
 6247SOL     OW30199   2.289   0.828  12.144 -0.1882  0.2815 -0.6345
 6247SOL    HW130200   2.345   0.853  12.070 -1.1980  0.6423 -1.2758
 6247SOL    HW230201   2.202   0.806  12.110 -0.5078  2.4408 -1.2215
 6248SOL     OW30202   0.057   1.570   4.503 -0.3769  0.1974 -0.1551
 6248SOL    HW130203   0.003   1.503   4.462  2.0045 -1.0519 -1.2749
 6248SOL    HW230204   0.055   1.539   4.593  1.8239 -1.1910 -0.5808
 6249SOL     OW30205   3.431   3.760   1.519  0.9999 -0.4211  0.1229
 6249SOL    HW130206   3.347   3.781   1.479  1.4293 -0.9191 -1.0175
 6249SOL    HW230207   3.466   3.847   1.540 -0.0806  0.3149 -1.1018
 6250SOL     OW30208   1.636   3.384   1.289  0.6028  0.2041  0.3810
 6250SOL    HW130209   1.613   3.456   1.347 -1.1381 -1.1115  1.3408
 6250SOL    HW230210   1.574   3.410   1.220  0.5598  0.5580  0.5565
 6251SOL     OW30211   4.532   0.843   3.893  0.1237 -0.3099 -0.5549
 6251SOL    HW130212   4.624   0.836   3.868 -0.0291 -0.9917 -0.9309
 6251SOL    HW230213   4.518   0.937   3.905  0.3429 -0.3592  0.1085
 6252SOL     OW30214   2.811   0.231   6.645  0.2056  0.2893 -0.2577
 6252SOL    HW130215   2.836   0.266   6.731  2.2784  0.4483 -0.9363
 6252SOL    HW230216   2.866   0.157   6.618 -2.0609 -1.1535 -0.9124
 6253SOL     OW30217   3.267   2.842   1.869  0.6904  0.2587  0.0577
 6253SOL    HW130218   3.242   2.753   1.843 -1.6452  1.4307 -1.6697
 6253SOL    HW230219   3.182   2.884   1.854  1.1357  1.4088  0.7660
 6254SOL     OW30220   0.278   0.003   9.218  0.1686  0.1093 -0.6222
 6254SOL    HW130221   0.202   4.668   9.205  0.3989 -0.1005 -1.0336
 6254SOL    HW230222   0.314   4.695   9.301  0.8794  0.7934 -0.6882
 6255SOL     OW30223   2.326   2.678   6.917  0.0354 -0.4681 -0.0302
 6255SOL    HW130224   2.276   2.622   6.977 -2.4846 -1.0553 -2.6942
 6255SOL    HW230225   2.302   2.642   6.832  3.9885 -2.9682 -0.0862
 6256SOL     OW30226   0.303   0.137   8.163 -0.0555 -0.2296  0.4894
 6256SOL    HW130227   0.231   0.182   8.208 -0.4821  1.2668 -1.7113
 6256SOL    HW230228   0.283   0.149   8.071  0.7664  1.7323  0.5786
 6257SOL     OW30229   3.259   2.112   0.677  0.0469 -0.5712 -0.1435
 6257SOL    HW130230   3.340   2.096   0.629  0.6875  0.5285  0.5815
 6257SOL    HW230231   3.205   2.033   0.670  0.3826 -0.7531 -0.6616
 6258SOL     OW30232   4.224   1.616   2.723  0.1163  0.3738 -0.0657
 6258SOL    HW130233   4.256   1.540   2.676  0.5038 -0.4461  1.5367
 6258SOL    HW230234   4.169   1.585   2.795  1.6310 -0.7468  0.6049
 6259SOL     OW30235   0.818   3.759   4.669  0.2508 -0.1915 -0.1367
 6259SOL    HW130236   0.852   3.848   4.680  1.4696 -0.6457 -0.1691
 6259SOL    HW230237   0.869   3.732   4.593  0.9476  0.7410 -0.0107
 6260SOL     OW30238   2.580   1.989  15.210 -0.1048 -0.4062  0.0728
 6260SOL    HW130239   2.558   1.975  15.302  1.3920 -2.2046  0.1813
 6260SOL    HW230240   2.511   1.937  15.170 -1.8177 -0.4873  3.1819
 6261SOL     OW30241   0.252   3.477  10.959  0.5897 -0.0742 -0.3997
 6261SOL    HW130242   0.286   3.415  10.895  2.7719  0.0514  0.6148
 6261SOL    HW230243   0.333   3.527  10.977  1.6306 -0.7218 -3.2421
 6262SOL     OW30244   1.799   3.218   7.140  0.3863  0.4723 -0.0403
 6262SOL    HW130245   1.838   3.259   7.063 -0.7096 -2.2472 -2.0929
 6262SOL    HW230246   1.872   3.244   7.196  1.3179 -3.2189  0.4925
 6263SOL     OW30247   1.535   3.350   2.296 -0.5943 -0.2108  0.1496
 6263SOL    HW130248   1.462   3.290   2.284  0.5842 -1.2464 -1.8556
 6263SOL    HW230249   1.495   3.430   2.260 -1.4977 -2.0230 -2.8229
 6264SOL     OW30250   2.871   2.426   2.076 -0.3027 -0.3790 -0.3339
 6264SOL    HW130251   2.844   2.461   1.991  0.2257 -0.6482 -0.6101
 6264SOL    HW230252   2.878   2.332   2.062  0.0241 -0.3774 -0.1820
 6265SOL     OW30253   3.473   0.688   3.347 -0.3720 -0.0193  0.3783
 6265SOL    HW130254   3.471   0.744   3.424  2.2780 -2.5560  2.2870
 6265SOL    HW230255   3.419   0.617   3.383  2.2230 -2.5374 -0.7265
 6266SOL     OW30256   2.252   2.029   8.284 -0.3568 -0.1930  0.3048
 6266SOL    HW130257   2.238   2.123   8.292 -0.4070 -0.1112 -0.8187
 6266SOL    HW230258   2.325   2.024   8.345 -1.1912 -2.1587  1.1759
 6267SOL     OW30259   3.239   0.266  14.635 -0.3444 -0.1216  0.0723
 6267SOL    HW130260   3.289   0.324  14.692 -1.1775  0.0662  0.6161
 6267SOL    HW230261   3.200   0.212  14.704 -1.5966 -0.7703 -1.1427
 6268SOL     OW30262   0.474   2.641   1.783  0.3655  0.3653  0.4549
 6268SOL    HW130263   0.505   2.728   1.757  1.7718  0.1195  1.3306
 6268SOL    HW230264   0.556   2.592   1.785  0.5693  0.6313 -1.5210
 6269SOL     OW30265   3.126   0.631   9.030 -0.4674  0.0588 -0.6128
 6269SOL    HW130266   3.067   0.671   8.966 -0.2378 -0.3895 -1.1041
 6269SOL    HW230267   3.208   0.679   9.013 -0.8032  1.6319  2.1202
 6270SOL     OW30268   3.724   1.958   3.775  0.6727 -0.3216 -1.1498
 6270SOL    HW130269   3.734   1.924   3.864 -0.5764 -0.6509 -1.1296
 6270SOL    HW230270   3.816   1.979   3.761 -0.0807  5.1602  2.0785
 6271SOL     OW30271   1.265   1.677  10.472 -0.2134 -0.1220  0.1307
 6271SOL    HW130272   1.180   1.711  10.501  1.3254  2.4656  1.6148
 6271SOL    HW230273   1.247   1.588  10.442 -0.3517 -0.0452 -0.0156
 6272SOL     OW30274   0.797   4.593   4.259  0.3584  0.0661  0.4975
 6272SOL    HW130275   0.748   4.613   4.179  3.0784 -1.4206 -1.5295
 6272SOL    HW230276   0.740   4.521   4.287 -1.2642  0.7807 -0.9223
 6273SOL     OW30277   1.625   1.497   4.967  0.2158 -0.6127 -0.2839
 6273SOL    HW130278   1.569   1.567   4.936  0.6255  0.3422  1.1635
 6273SOL    HW230279   1.714   1.530   4.953  0.5069 -1.4145 -0.3522
 6274SOL     OW30280   2.873   4.365   9.140  0.7434 -0.4420  0.6616
 6274SOL    HW130281   2.893   4.458   9.134  2.9948 -0.8189  1.9441
 6274SOL    HW230282   2.811   4.362   9.213  0.3759 -0.6931  0.3423
 6275SOL     OW30283   4.254   0.029   5.075 -0.4471 -0.4265 -0.3414
 6275SOL    HW130284   4.167   0.052   5.109  0.3505 -0.5007  1.7074
 6275SOL    HW230285   4.222   4.675   5.028  0.2268  0.3681 -2.0845
 6276SOL     OW30286   0.143   2.839   5.854  0.1893  0.3644 -0.2834
 6276SOL    HW130287   0.205   2.901   5.892  0.5943  0.7606 -1.5906
 6276SOL    HW230288   0.124   2.783   5.929 -2.9793 -0.6845 -1.8567
 6277SOL     OW30289   2.920   2.889   7.400 -0.1265 -0.4126  0.3554
 6277SOL    HW130290   2.858   2.962   7.402 -0.4597 -0.7785  3.6490
 6277SOL    HW230291   2.970   2.907   7.321 -0.8907 -0.1774 -0.0699
 6278SOL     OW30292   1.649   0.514  14.514  0.5534  0.4413  0.8330
 6278SOL    HW130293   1.616   0.449  14.451  0.4747  1.3637 -0.0818
 6278SOL    HW230294   1.738   0.481  14.526  0.3482 -0.2931  0.3563
 6279SOL     OW30295   0.764   1.828   6.644  0.1450 -0.4461  0.2958
 6279SOL    HW130296   0.690   1.810   6.702 -0.1592 -0.8299 -0.2113
 6279SOL    HW230297   0.822   1.868   6.708 -1.5348  1.3532  0.6982
 6280SOL     OW30298   3.029   0.109   9.930  0.2836 -0.1626 -0.0660
 6280SOL    HW130299   3.108   0.105   9.984 -0.5675  0.1431  1.1912
 6280SOL    HW230300   2.986   0.179   9.979  0.6890  0.6756 -0.9136
 6281SOL     OW30301   2.522   4.703   9.322  0.3284 -0.5908  0.3574
 6281SOL    HW130302   2.442   4.659   9.351 -0.1800 -0.1598 -0.4060
 6281SOL    HW230303   2.496   0.071   9.332  2.0465 -0.0152 -0.4957
 6282SOL     OW30304   2.442   3.726   1.323 -0.1784 -0.1169  0.1169
 6282SOL    HW130305   2.347   3.727   1.329 -0.1723  0.5171  0.0469
 6282SOL    HW230306   2.463   3.671   1.399  2.2638 -0.0496 -0.4860
 6283SOL     OW30307   2.469   2.690   6.380  0.5089  0.4438 -0.4221
 6283SOL    HW130308   2.456   2.749   6.454  1.1431 -2.6308  2.1334
 6283SOL    HW230309   2.404   2.626   6.409  1.9338  0.2250  2.3062
 6284SOL     OW30310   3.897   4.497   5.637 -0.2932 -0.2445  0.3225
 6284SOL    HW130311   3.931   4.509   5.726 -0.4695  0.4812  0.2989
 6284SOL    HW230312   3.912   4.582   5.595 -0.7470  0.4460  1.5376
 6285SOL     OW30313   0.019   0.181  11.783 -0.3976 -0.5453 -0.4264
 6285SOL    HW130314   0.056   0.092  11.789  0.6928 -0.1198 -0.8954
 6285SOL    HW230315   4.709   0.178  11.693  0.3556 -0.0422 -0.7156
 6286SOL     OW30316   2.539   4.639   4.740 -0.0494 -0.3041 -0.4525
 6286SOL    HW130317   2.527   4.709   4.804 -1.5105  0.1688 -1.2491
 6286SOL    HW230318   2.553   4.682   4.656  0.3613 -1.6059 -1.0603
 6287SOL     OW30319   0.602   4.525   1.205  0.0227  0.5896 -0.0591
 6287SOL    HW130320   0.694   4.529   1.230 -0.0054 -0.2033  0.1801
 6287SOL    HW230321   0.620   4.491   1.117  0.0525  1.2493 -0.3069
 6288SOL     OW30322   3.304   3.922   2.155 -0.6039  0.3048  0.0260
 6288SOL    HW130323   3.281   3.859   2.224  2.1691 -1.9942 -1.1482
 6288SOL    HW230324   3.239   3.887   2.094 -0.6188 -2.4519  1.6419
 6289SOL     OW30325   0.642   1.321   2.926  1.4715  0.2916  0.4962
 6289SOL    HW130326   0.636   1.385   2.997  0.7231 -1.3518  1.9241
 6289SOL    HW230327   0.629   1.375   2.848  0.8439  1.1332  1.1792
 6290SOL     OW30328   3.595   4.446  16.538  0.3885 -0.3172  0.1798
 6290SOL    HW130329   3.622   4.355  16.545 -1.2320 -0.9147 -1.2797
 6290SOL    HW230330   3.595   4.480  16.627  1.7500  0.3962 -0.0847
 6291SOL     OW30331   4.095   3.295   3.875 -0.1886  0.3852 -0.2638
 6291SOL    HW130332   4.011   3.260   3.846  1.2729 -1.0493 -2.8301
 6291SOL    HW230333   4.092   3.378   3.828 -1.3839  0.3185 -0.3117
 6292SOL     OW30334   0.129   1.464   1.409 -0.8231  0.6667 -0.1935
 6292SOL    HW130335   0.194   1.504   1.351  0.1797 -2.1971 -1.0512
 6292SOL    HW230336   0.096   1.388   1.361 -1.3550  1.4229 -1.0117
 6293SOL     OW30337   4.338   1.007   7.175 -0.3726 -0.2255 -0.2363
 6293SOL    HW130338   4.400   1.017   7.247 -0.5674  1.8329 -0.3591
 6293SOL    HW230339   4.348   0.914   7.154 -1.0087 -0.4032  0.2115
 6294SOL     OW30340   2.529   3.970   6.993 -0.0638  0.6442 -0.1226
 6294SOL    HW130341   2.511   4.020   7.073  0.5123  0.3558  0.1916
 6294SOL    HW230342   2.580   3.898   7.029 -0.0519 -0.1283 -1.6888
 6295SOL     OW30343   2.922   3.006  14.746 -0.1098  0.4487  0.3777
 6295SOL    HW130344   2.917   2.962  14.831 -2.1309 -0.7361 -0.3549
 6295SOL    HW230345   3.015   3.025  14.755  0.2889 -2.3719  2.3895
 6296SOL     OW30346   3.058   4.315   4.554 -0.1690  0.1244 -0.0417
 6296SOL    HW130347   3.035   4.254   4.485 -0.4420 -0.0649  0.2157
 6296SOL    HW230348   3.096   4.394   4.516  1.7516 -0.9972 -0.4277
 6297SOL     OW30349   3.272   2.091   0.319  0.4807 -0.2559  0.1264
 6297SOL    HW130350   3.357   2.102   0.362  1.2616  1.2273 -1.8262
 6297SOL    HW230351   3.248   2.000   0.303 -3.2215  0.7633 -0.3128
 6298SOL     OW30352   0.351   0.267   0.233 -0.2188 -0.1458 -0.1782
 6298SOL    HW130353   0.344   0.182   0.189 -2.6585 -0.4814  0.8329
 6298SOL    HW230354   0.257   0.266   0.251 -0.2589 -0.2817 -0.3862
 6299SOL     OW30355   1.979   4.428   5.994  0.0515  0.3027 -0.2228
 6299SOL    HW130356   1.974   4.377   5.914 -0.0066  0.2203 -0.1670
 6299SOL    HW230357   2.020   4.362   6.051  2.7742  2.3602  0.1990
 6300SOL     OW30358   0.156   3.324   0.253 -0.3584  0.2601  0.3834
 6300SOL    HW130359   0.120   3.238   0.273  1.6684 -0.3362  1.4355
 6300SOL    HW230360   0.166   3.362   0.341  1.9428 -0.4283  0.4080
 6301SOL     OW30361   1.369   3.004  15.214  0.6485 -0.1134  0.0737
 6301SOL    HW130362   1.307   2.974  15.147 -0.1476 -2.9307  2.0823
 6301SOL    HW230363   1.415   3.070  15.163 -0.5401  0.4583 -0.2638
 6302SOL     OW30364   0.730   4.080  14.510  0.0813  0.4929 -0.3739
 6302SOL    HW130365   0.673   4.062  14.434  0.6599 -0.0671 -0.6741
 6302SOL    HW230366   0.777   4.151  14.466 -0.8473  1.7769  0.7312
 6303SOL     OW30367   3.173   1.181   0.224  0.7708 -0.2180 -0.4598
 6303SOL    HW130368   3.211   1.248   0.281 -1.7619 -0.7821  1.8857
 6303SOL    HW230369   3.246   1.160   0.167  0.0238  1.0386 -1.8748
 6304SOL     OW30370   2.881   4.557  11.357  0.1180  0.4666  0.2173
 6304SOL    HW130371   2.893   4.534  11.265 -0.4996  3.1886 -0.5396
 6304SOL    HW230372   2.958   4.604  11.389 -0.3429  1.4124 -0.0594
 6305SOL     OW30373   0.736   3.940   7.572 -0.4568  0.2819  0.4922
 6305SOL    HW130374   0.642   3.932   7.558 -0.1227  1.2129 -2.2541
 6305SOL    HW230375   0.746   3.849   7.598  1.2192  0.4985  0.6487
 6306SOL     OW30376   1.358   2.726  14.616 -0.2351 -0.1345 -0.2871
 6306SOL    HW130377   1.425   2.684  14.670 -1.6396 -1.0287  0.7480
 6306SOL    HW230378   1.389   2.817  14.610 -0.0716 -0.3410 -2.5148
 6307SOL     OW30379   2.765   0.596   0.305  0.1143  0.0216 -0.2766
 6307SOL    HW130380   2.732   0.540   0.375  1.3067 -1.3094 -0.7963
 6307SOL    HW230381   2.857   0.603   0.330 -0.2990 -1.1897  1.5548
 6308SOL     OW30382   2.851   3.481   6.881  0.3125 -0.2852 -0.6519
 6308SOL    HW130383   2.860   3.455   6.790 -2.5923 -0.4998 -0.9023
 6308SOL    HW230384   2.835   3.399   6.929 -1.6148 -0.2086 -1.1684
 6309SOL     OW30385   4.572   2.287   9.942 -0.3149  0.4265 -0.2672
 6309SOL    HW130386   4.631   2.361   9.951  0.6491 -0.3773  0.0530
 6309SOL    HW230387   4.517   2.288  10.021  0.0961  0.9675  0.0101
 6310SOL     OW30388   1.612   2.837   3.078  0.1741 -0.3679  0.5587
 6310SOL    HW130389   1.601   2.921   3.122 -2.9263 -0.2208 -0.4825
 6310SOL    HW230390   1.557   2.840   3.000  0.0803 -1.4061  0.5876
 6311SOL     OW30391   2.225   3.051  15.314 -0.2100 -0.3074  0.3387
 6311SOL    HW130392   2.145   3.103  15.305 -1.4665 -1.9451  1.8745
 6311SOL    HW230393   2.249   3.082  15.402 -0.3448  0.8903 -0.0544
 6312SOL     OW30394   0.781   4.601   7.388  0.1272  0.4473  0.4176
 6312SOL    HW130395   0.773   4.539   7.316 -1.0762  0.4776  0.5233
 6312SOL    HW230396   0.735   4.562   7.462 -0.6490 -0.9097 -0.7867
 6313SOL     OW30397   4.238   3.126   8.525  0.3643 -0.4694 -0.1087
 6313SOL    HW130398   4.226   3.114   8.620  1.3546  1.1666  0.2285
 6313SOL    HW230399   4.214   3.036   8.502 -0.5949  0.1870 -1.6436
 6314SOL     OW30400   1.352   2.269   8.196  0.6833  0.1464  0.0098
 6314SOL    HW130401   1.345   2.231   8.284 -2.7251  0.5782 -0.0539
 6314SOL    HW230402   1.266   2.255   8.156  2.2963 -2.3145 -2.5936
 6315SOL     OW30403   3.698   1.314   2.066 -0.2719 -0.5139  0.5276
 6315SOL    HW130404   3.771   1.316   2.128  1.9955 -1.8982 -2.0750
 6315SOL    HW230405   3.738   1.343   1.984  0.5534  2.2296  1.9250
 6316SOL     OW30406   2.226   0.371   8.382  0.3149  0.7073 -0.0762
 6316SOL    HW130407   2.294   0.315   8.419 -0.3649  0.0864  0.2389
 6316SOL    HW230408   2.251   0.378   8.290  0.4533  0.7786 -0.0331
 6317SOL     OW30409   4.248   0.304   2.663  0.0407  0.4519 -0.6690
 6317SOL    HW130410   4.240   0.214   2.695  1.8102 -0.2976 -2.3506
 6317SOL    HW230411   4.268   0.345   2.748 -0.0350 -1.6699  0.3826
 6318SOL     OW30412   1.630   2.876   6.347  0.3642 -0.6354 -0.2051
 6318SOL    HW130413   1.623   2.929   6.425  0.2930 -0.7500 -0.1332
 6318SOL    HW230414   1.540   2.864   6.317 -0.5503  2.2202  1.4011
 6319SOL     OW30415   2.934   0.081   3.374  0.3228  0.1803 -0.3713
 6319SOL    HW130416   2.947   4.709   3.378  1.3302  0.2781 -1.4567
 6319SOL    HW230417   3.018   0.091   3.330  0.3920  0.4060 -0.1844
 6320SOL     OW30418   2.420   2.403   3.537  0.2239 -0.5589 -0.0239
 6320SOL    HW130419   2.474   2.482   3.530  2.7643 -2.2694  0.4830
 6320SOL    HW230420   2.474   2.345   3.483 -0.1364 -0.8959 -0.0196
 6321SOL     OW30421   1.448   1.934   3.043  0.1319  0.3905 -0.5068
 6321SOL    HW130422   1.436   2.018   3.086  0.1544  0.4139 -0.5469
 6321SOL    HW230423   1.496   1.898   3.118 -0.2030 -2.6047 -1.7317
 6322SOL     OW30424   1.835   0.025  12.755 -0.3511 -0.6886 -0.0476
 6322SOL    HW130425   1.921   4.712  12.776 -0.3875  0.2340  1.6548
 6322SOL    HW230426   1.851   0.108  12.800  0.6038 -2.1901  2.4061
 6323SOL     OW30427   1.568   3.599   7.240 -0.3306  0.2203  0.8435
 6323SOL    HW130428   1.652   3.554   7.232 -0.1452  1.0135 -1.9632
 6323SOL    HW230429   1.587   3.677   7.187  1.7207  0.2391  1.5989
 6324SOL     OW30430   3.190   3.625  12.694 -0.8045 -0.8511  0.2838
 6324SOL    HW130431   3.225   3.707  12.730 -1.1086 -1.3810  1.7677
 6324SOL    HW230432   3.199   3.559  12.762  1.3580 -2.8216 -1.9409
 6325SOL     OW30433   4.636   2.977   9.132 -0.8762 -0.4015 -0.4683
 6325SOL    HW130434   0.001   2.942   9.118  0.3401  1.7118  1.9848
 6325SOL    HW230435   4.630   2.964   9.227  4.5276  1.2036  0.1054
 6326SOL     OW30436   2.397   2.354   5.742 -0.3244 -0.0645  0.0770
 6326SOL    HW130437   2.392   2.402   5.825 -0.2420  0.6163 -0.3100
 6326SOL    HW230438   2.449   2.411   5.684 -0.0962 -0.5027 -0.1479
 6327SOL     OW30439   2.408   4.601   4.348 -0.3456  0.7882 -0.1187
 6327SOL    HW130440   2.460   4.654   4.409 -0.4064 -1.3737  1.7807
 6327SOL    HW230441   2.461   4.596   4.268 -0.6421  1.4493 -0.3647
 6328SOL     OW30442   0.432   4.622   9.927  0.4717 -0.4960 -0.0633
 6328SOL    HW130443   0.463   4.614   9.836 -0.7470  1.0187 -0.6128
 6328SOL    HW230444   0.513   4.650   9.969  1.2790 -0.0985 -1.8711
 6329SOL     OW30445   2.534   4.669   7.773 -0.4265 -0.2426  0.0004
 6329SOL    HW130446   2.510   4.682   7.681  2.0508 -0.8342 -0.7395
 6329SOL    HW230447   2.598   0.016   7.790  0.1384  0.0818 -3.3730
 6330SOL     OW30448   4.645   3.994   2.541  0.3142 -0.2381 -0.6683
 6330SOL    HW130449   4.686   4.057   2.601  0.4805 -0.5066 -0.4981
 6330SOL    HW230450   4.651   3.906   2.578  0.5532 -0.0107 -0.1630
 6331SOL     OW30451   0.985   4.086   5.371  0.1312  0.5362  0.2977
 6331SOL    HW130452   1.016   4.026   5.304  0.5138 -0.0479  1.0033
 6331SOL    HW230453   0.902   4.044   5.391  0.8720 -1.4360 -0.8301
 6332SOL     OW30454   1.139   4.549   3.211  0.5392  0.5663 -0.7370
 6332SOL    HW130455   1.117   4.606   3.285  0.9618  0.0603 -0.2270
 6332SOL    HW230456   1.141   4.466   3.258  2.3798 -1.0872 -3.8035
 6333SOL     OW30457   0.866   0.354   3.789 -0.6783  0.9543  0.4524
 6333SOL    HW130458   0.904   0.441   3.774 -0.0325  0.3047 -1.7675
 6333SOL    HW230459   0.795   0.383   3.846 -0.7095 -0.0053  0.9023
 6334SOL     OW30460   0.330   3.562   8.903 -0.4977 -0.6357  0.3534
 6334SOL    HW130461   0.392   3.526   8.966  0.7287 -1.6118 -1.3980
 6334SOL    HW230462   0.251   3.523   8.938  0.4171 -1.8192  1.0854
 6335SOL     OW30463   0.880   1.610   7.260 -0.0601 -0.4700 -0.3219
 6335SOL    HW130464   0.892   1.538   7.323 -0.1613  0.9428  1.3351
 6335SOL    HW230465   0.786   1.628   7.258  0.2967  1.0861 -3.4285
 6336SOL     OW30466   2.326   2.235   6.790  0.0552  0.4260 -0.2032
 6336SOL    HW130467   2.357   2.174   6.723  1.9254  0.2184  0.8646
 6336SOL    HW230468   2.391   2.304   6.779  0.1597  0.4040  0.2864
 6337SOL     OW30469   1.596   3.695   9.775 -0.0459 -0.0429  0.1791
 6337SOL    HW130470   1.594   3.721   9.867 -2.6953 -0.0921  0.1551
 6337SOL    HW230471   1.566   3.604   9.783 -0.8446  0.2880  0.8942
 6338SOL     OW30472   2.926   0.166   4.956 -0.0806  0.4604  0.3076
 6338SOL    HW130473   2.972   0.247   4.932  0.9039  0.8125  3.4509
 6338SOL    HW230474   2.970   0.138   5.035  0.1306 -0.5844 -0.1891
 6339SOL     OW30475   2.651   4.051  14.552 -0.2910 -0.3533  0.0942
 6339SOL    HW130476   2.622   4.141  14.569 -0.0332 -0.2477 -0.0293
 6339SOL    HW230477   2.747   4.050  14.549 -0.1937  1.0295  1.9523
 6340SOL     OW30478   1.358   3.718   1.202  0.3573 -0.0938 -0.3442
 6340SOL    HW130479   1.361   3.799   1.151  0.3815  1.4010  2.0310
 6340SOL    HW230480   1.276   3.680   1.171 -0.9290  1.1349  1.5452
 6341SOL     OW30481   3.979   1.769   6.987 -0.1977  0.7153 -0.4027
 6341SOL    HW130482   4.005   1.834   7.052 -2.4363  2.8498 -1.6403
 6341SOL    HW230483   4.066   1.736   6.964  0.9875  2.6253  1.2906
 6342SOL     OW30484   4.592   1.300   1.786  0.3084  0.2789 -0.2193
 6342SOL    HW130485   4.561   1.218   1.825 -0.7659  0.1985 -1.2657
 6342SOL    HW230486   4.626   1.263   1.705  1.1567  1.4623 -0.4012
 6343SOL     OW30487   2.943   1.227   2.923  0.4094 -0.0451  0.6365
 6343SOL    HW130488   2.910   1.184   3.001 -0.0531  0.0725  0.5077
 6343SOL    HW230489   2.900   1.179   2.852  0.3419  0.9316  0.0202
 6344SOL     OW30490   1.039   2.649   7.050  0.0282  0.3926 -0.1859
 6344SOL    HW130491   0.987   2.729   7.042 -0.2903  0.3305  1.2162
 6344SOL    HW230492   1.001   2.584   6.992  0.0190  0.2272  0.0059
 6345SOL     OW30493   3.156   0.990   9.572  0.4765 -0.8177 -0.3105
 6345SOL    HW130494   3.204   0.912   9.598  1.6772  0.0843  0.1708
 6345SOL    HW230495   3.119   0.960   9.489 -0.3396  0.3426 -0.3742
 6346SOL     OW30496   0.333   4.419   9.036 -0.6095 -0.1936 -0.2676
 6346SOL    HW130497   0.385   4.442   9.113  1.8177 -2.6650 -1.1467
 6346SOL    HW230498   0.389   4.350   9.001  0.3801  1.1022 -1.2110
 6347SOL     OW30499   0.696   3.870   7.858 -0.1625 -0.0170 -0.4312
 6347SOL    HW130500   0.662   3.872   7.947 -1.5537 -0.9129 -0.9480
 6347SOL    HW230501   0.705   3.964   7.841 -1.8556  0.0625 -0.8503
 6348SOL     OW30502   2.251   1.825   2.101 -0.0700  0.1743  0.5905
 6348SOL    HW130503   2.234   1.920   2.106  2.5207  0.6120  0.8708
 6348SOL    HW230504   2.305   1.826   2.022  1.3405 -2.1332  1.5331
 6349SOL     OW30505   4.465   4.620   3.254 -0.0488  0.3444  0.1797
 6349SOL    HW130506   4.456   4.532   3.289 -1.3788  0.5927  0.4894
 6349SOL    HW230507   4.376   4.631   3.220  0.5690 -0.7330 -1.7789
 6350SOL     OW30508   4.036   3.888  10.701 -0.4098 -0.0087 -0.2528
 6350SOL    HW130509   4.132   3.885  10.710 -0.2549  2.0749 -1.1059
 6350SOL    HW230510   4.020   3.944  10.625  1.7488 -1.7662 -1.9824
 6351SOL     OW30511   3.959   4.180  16.677  0.3367  0.4382 -0.4837
 6351SOL    HW130512   4.033   4.223  16.720 -0.6567  1.1830  0.4700
 6351SOL    HW230513   3.994   4.170  16.589  0.7462  2.1275 -0.5137
 6352SOL     OW30514   2.800   4.035   2.546  0.4818  0.1496  0.1965
 6352SOL    HW130515   2.772   3.971   2.611 -0.7027  1.5764  1.0855
 6352SOL    HW230516   2.785   3.987   2.465 -1.6813  1.9684 -0.4615
 6353SOL     OW30517   3.332   0.744  11.809  0.0572 -0.1473  0.9119
 6353SOL    HW130518   3.413   0.718  11.853  0.9609 -1.5970 -1.6468
 6353SOL    HW230519   3.274   0.677  11.845  0.3529 -1.4355 -1.0423
 6354SOL     OW30520   3.881   3.307   1.225 -0.2004  0.5095 -0.2364
 6354SOL    HW130521   3.807   3.329   1.169 -0.1831 -0.1460 -0.5205
 6354SOL    HW230522   3.858   3.337   1.312  0.3401  1.7256 -0.5169
 6355SOL     OW30523   0.479   1.503   5.779  0.0705 -0.0502  0.0683
 6355SOL    HW130524   0.500   1.480   5.870  0.0295  1.1336  0.3856
 6355SOL    HW230525   0.384   1.511   5.789 -0.0696 -0.7488 -0.7643
 6356SOL     OW30526   0.207   2.314   2.011  0.3110  0.1996  0.3443
 6356SOL    HW130527   0.214   2.410   2.010  1.1577  0.1331 -0.7633
 6356SOL    HW230528   0.117   2.306   1.979 -0.2469  0.2572  1.8883
 6357SOL     OW30529   2.766   3.378   1.794 -0.2204 -0.7597 -0.0493
 6357SOL    HW130530   2.682   3.393   1.837 -0.5336 -2.3975 -0.0810
 6357SOL    HW230531   2.827   3.367   1.868  1.7228 -1.3629 -1.7375
 6358SOL     OW30532   2.065   1.290   8.744 -0.5982 -0.3781  0.6276
 6358SOL    HW130533   2.054   1.195   8.742 -0.8840 -0.3563  1.4251
 6358SOL    HW230534   2.158   1.300   8.762 -0.5789 -0.8682  0.7986
 6359SOL     OW30535   4.483   0.455   6.998 -0.2861 -0.2335  0.4580
 6359SOL    HW130536   4.462   0.393   6.928 -0.0219  1.2225 -0.9397
 6359SOL    HW230537   4.404   0.509   6.993  0.2478  0.6212  1.1014
 6360SOL     OW30538   3.384   1.187   3.088  0.3746  0.6316  0.4028
 6360SOL    HW130539   3.389   1.100   3.048 -0.9826  0.3026  0.9648
 6360SOL    HW230540   3.317   1.166   3.153 -0.3367 -1.1947 -0.9010
 6361SOL     OW30541   4.555   0.787   6.775 -0.2503  0.3423 -0.0246
 6361SOL    HW130542   4.603   0.863   6.809  0.5691  0.0031 -0.4108
 6361SOL    HW230543   4.533   0.813   6.685 -2.7321 -0.9428  0.2254
 6362SOL     OW30544   4.383   2.532   9.138 -0.3876 -0.1190 -0.0651
 6362SOL    HW130545   4.359   2.465   9.203 -0.1998  1.4735  1.6350
 6362SOL    HW230546   4.361   2.612   9.186 -0.2443 -1.1582  1.7582
 6363SOL     OW30547   0.867   4.187   2.982  0.2097 -0.1597  0.3721
 6363SOL    HW130548   0.918   4.267   2.972  2.2948 -1.7659 -2.0703
 6363SOL    HW230549   0.852   4.183   3.076 -0.0248  1.2663  0.3851
 6364SOL     OW30550   4.112   0.033  13.691 -0.5936 -0.3168  0.6541
 6364SOL    HW130551   4.195   0.053  13.649 -0.0025 -0.4354  1.7854
 6364SOL    HW230552   4.095   0.103  13.753  0.2469 -0.2506  0.7951
 6365SOL     OW30553   0.546   1.479   6.942 -0.1951 -0.2679 -0.2180
 6365SOL    HW130554   0.452   1.462   6.938 -0.7495  2.2359  1.9146
 6365SOL    HW230555   0.553   1.471   7.037  0.1089  1.9310 -0.0476
 6366SOL     OW30556   3.809   4.072   7.403  0.3297 -0.0614  0.2696
 6366SOL    HW130557   3.867   4.125   7.347  0.5457 -0.2377  0.3293
 6366SOL    HW230558   3.736   4.132   7.418  0.1928 -0.2429  0.3311
 6367SOL     OW30559   2.031   2.294  16.705  0.1769 -0.3631  0.2761
 6367SOL    HW130560   1.972   2.264  16.636  1.2452  0.7705 -1.1104
 6367SOL    HW230561   2.009   2.233  16.776  2.5210 -0.8185  0.6115
 6368SOL     OW30562   0.332   4.660   6.250 -0.0143 -0.0204  0.1948
 6368SOL    HW130563   0.356   0.005   6.188  0.4742 -0.0120  0.3993
 6368SOL    HW230564   0.364   4.580   6.209 -2.0022  0.3674 -2.1129
 6369SOL     OW30565   4.675   3.288   7.402  0.3083  0.2139  0.3585
 6369SOL    HW130566   4.705   3.279   7.493 -2.0514  0.8906  1.1835
 6369SOL    HW230567   0.015   3.222   7.371 -0.6122  0.5485 -2.1927
 6370SOL     OW30568   1.054   3.354   8.431  0.3134 -0.4926 -0.3402
 6370SOL    HW130569   1.056   3.294   8.356  1.4553 -1.0853  0.1585
 6370SOL    HW230570   0.995   3.308   8.491 -0.3137  0.5369 -0.1734
 6371SOL     OW30571   3.443   1.177   1.328 -0.1092  0.7988 -0.0671
 6371SOL    HW130572   3.435   1.212   1.417  0.1154  0.7125 -0.0130
 6371SOL    HW230573   3.518   1.220   1.287  0.0029 -0.8961 -1.6269
 6372SOL     OW30574   4.157   1.536   9.225  0.6729 -0.2842  0.0402
 6372SOL    HW130575   4.104   1.457   9.214  1.1922 -1.0475  2.8890
 6372SOL    HW230576   4.189   1.548   9.135 -0.6133 -2.8840 -0.7906
 6373SOL     OW30577   3.987   4.595   3.786 -0.4521  0.0334 -0.1744
 6373SOL    HW130578   4.082   4.605   3.796 -0.5528  0.7848  0.0046
 6373SOL    HW230579   3.978   4.567   3.695 -0.4437  1.6902 -0.6909
 6374SOL     OW30580   3.704   3.698  17.601  0.4103  0.0321  0.3804
 6374SOL    HW130581   3.639   3.683  17.670  0.8791 -0.7787  0.6448
 6374SOL    HW230582   3.778   3.641  17.621 -0.2634 -0.2801  1.9936
 6375SOL     OW30583   0.963   4.426   2.065 -0.4331  0.5914  0.0145
 6375SOL    HW130584   0.929   4.448   1.978 -0.3395  2.6457  0.4916
 6375SOL    HW230585   1.030   4.364   2.035 -1.3644  0.3845 -1.6089
 6376SOL     OW30586   0.661   2.961   5.348 -0.0419  0.4523  0.2419
 6376SOL    HW130587   0.579   2.968   5.397  0.2712  1.6074  0.5974
 6376SOL    HW230588   0.696   2.887   5.396  0.3815 -0.3949 -1.3624
 6377SOL     OW30589   0.030   1.145   2.602  0.0448  0.2536 -0.2087
 6377SOL    HW130590   4.693   1.176   2.669  0.4733 -1.4172  0.9597
 6377SOL    HW230591   0.114   1.141   2.649 -0.0581  0.9777  0.0343
 6378SOL     OW30592   0.775   1.871  15.539 -0.8359 -0.2188  0.1350
 6378SOL    HW130593   0.827   1.832  15.610 -0.6339 -0.3375 -0.0772
 6378SOL    HW230594   0.705   1.809  15.521  1.1795 -1.6835 -2.7440
 6379SOL     OW30595   2.127   0.047  15.511 -0.2860 -0.2713 -0.1466
 6379SOL    HW130596   2.119   4.705  15.441  0.8525  0.4829 -0.9937
 6379SOL    HW230597   2.047   0.097  15.494 -1.4421 -2.1906 -0.2683
 6380SOL     OW30598   0.839   3.998   4.588 -0.1221  0.2009 -0.9810
 6380SOL    HW130599   0.917   4.047   4.615 -0.1683 -0.7248  0.8921
 6380SOL    HW230600   0.853   3.997   4.494  0.1995 -0.3832 -0.9273
 6381SOL     OW30601   4.235   3.762  15.168 -0.4027  0.5662  0.0245
 6381SOL    HW130602   4.171   3.737  15.234 -1.1208 -2.7325 -1.9522
 6381SOL    HW230603   4.320   3.753  15.211 -0.3155  1.8579  0.1422
 6382SOL     OW30604   4.100   1.342   2.223  0.1237  0.5355 -0.1417
 6382SOL    HW130605   4.007   1.333   2.245  0.2965  2.3572  1.3982
 6382SOL    HW230606   4.102   1.432   2.191  1.4679  0.8572  0.8436
 6383SOL     OW30607   2.148   1.228   5.750  0.1497 -0.2220 -0.0549
 6383SOL    HW130608   2.074   1.249   5.807  0.5429  0.3227  0.2572
 6383SOL    HW230609   2.103   1.195   5.672  0.0986  1.2458 -0.6424
 6384SOL     OW30610   4.445   3.825   7.349 -0.2534  0.1766  0.0030
 6384SOL    HW130611   4.389   3.748   7.336 -1.0543  0.7594 -0.0195
 6384SOL    HW230612   4.422   3.836   7.442  0.5192 -1.5141  0.4025
 6385SOL     OW30613   3.514   1.879   4.097  0.0317  0.9864  0.3254
 6385SOL    HW130614   3.587   1.838   4.052 -1.9782  0.4879 -2.5303
 6385SOL    HW230615   3.544   1.970   4.103 -0.5328  1.1429  0.8158
 6386SOL     OW30616   4.528   2.276  14.953  0.3052 -0.5098 -0.2036
 6386SOL    HW130617   4.527   2.184  14.927  1.2813 -0.5955  0.0749
 6386SOL    HW230618   4.586   2.277  15.029 -0.7671  2.7139  0.5724
 6387SOL     OW30619   2.598   1.927   3.062 -0.2391  0.0383  0.4461
 6387SOL    HW130620   2.536   1.901   2.994 -1.4026 -0.1161  1.5564
 6387SOL    HW230621   2.655   1.990   3.019 -0.2431  0.1852  0.6521
 6388SOL     OW30622   1.288   4.204   4.584  0.0936  0.5650 -0.4651
 6388SOL    HW130623   1.291   4.202   4.488  0.0124 -0.4017 -0.4463
 6388SOL    HW230624   1.379   4.220   4.611  0.3733 -1.3436 -0.2557
 6389SOL     OW30625   4.089   1.250  15.500 -0.1704  0.1505 -0.6526
 6389SOL    HW130626   4.071   1.328  15.553  2.8281  0.8335 -0.6095
 6389SOL    HW230627   4.014   1.252  15.442 -1.8401 -1.3362  1.4473
 6390SOL     OW30628   2.631   0.523   2.151  0.3136 -0.0844  0.0107
 6390SOL    HW130629   2.578   0.453   2.187  1.0769 -0.3094  0.6977
 6390SOL    HW230630   2.706   0.514   2.210  0.3032 -0.0725  0.0258
 6391SOL     OW30631   4.611   0.167   1.290  0.6821 -0.1715  0.0646
 6391SOL    HW130632   4.611   0.208   1.376  2.3994 -3.8034  1.7962
 6391SOL    HW230633   4.705   0.151   1.280  0.8088  0.2590  0.6202
 6392SOL     OW30634   0.515   1.619   8.058 -0.0824 -0.3510 -0.0482
 6392SOL    HW130635   0.543   1.528   8.051  1.6003  0.1353  0.2905
 6392SOL    HW230636   0.504   1.649   7.968  0.5770 -0.1474 -0.0570
 6393SOL     OW30637   3.331   3.823   4.196  0.2129  0.2884 -0.2012
 6393SOL    HW130638   3.354   3.739   4.235  1.1023 -0.3379 -2.0846
 6393SOL    HW230639   3.369   3.822   4.108 -1.5613 -0.7244 -0.9472
 6394SOL     OW30640   2.518   0.868  17.403 -0.2257 -0.5453 -0.1122
 6394SOL    HW130641   2.502   0.954  17.442 -2.9884 -0.6763 -0.9261
 6394SOL    HW230642   2.437   0.820  17.417 -1.8907  2.5694  0.9510
 6395SOL     OW30643   1.028   1.167  17.172 -0.1280  0.2317  0.6513
 6395SOL    HW130644   1.007   1.074  17.183  1.8999 -0.0337  2.2091
 6395SOL    HW230645   0.956   1.218  17.209 -0.2404  0.0715  0.6530
 6396SOL     OW30646   2.927   4.683   8.831  0.2216  0.9525  0.2681
 6396SOL    HW130647   2.988   4.648   8.896  2.0067 -0.8226 -2.3836
 6396SOL    HW230648   2.910   4.613   8.769 -1.5482  0.9742  0.7184
 6397SOL     OW30649   1.467   4.664   1.510  0.6393 -0.6694  0.4821
 6397SOL    HW130650   1.557   4.694   1.494  0.0648  1.0307  0.4398
 6397SOL    HW230651   1.452   4.603   1.438 -0.7527  0.1533  0.0907
 6398SOL     OW30652   2.145   1.599   8.401 -0.6422  0.2668 -0.7150
 6398SOL    HW130653   2.180   1.534   8.340  0.3730  1.1905 -1.1212
 6398SOL    HW230654   2.221   1.640   8.442  0.5874 -1.0327 -1.6927
 6399SOL     OW30655   0.052   0.415  17.629 -0.0117  0.1555 -0.4888
 6399SOL    HW130656   0.020   0.455   0.017 -0.4528  0.4861 -0.8215
 6399SOL    HW230657   0.032   0.326  17.656 -0.6524  0.2313 -0.6963
 6400SOL     OW30658   2.934   4.076  13.499 -0.0274  0.1331 -0.7211
 6400SOL    HW130659   3.002   4.010  13.515 -0.2211 -0.2317 -1.4033
 6400SOL    HW230660   2.895   4.088  13.586 -0.1966  0.1594 -0.8015
 6401SOL     OW30661   3.262   2.322   6.347  0.1730 -0.5540  0.5055
 6401SOL    HW130662   3.176   2.341   6.384  0.8234 -1.5678  2.5963
 6401SOL    HW230663   3.271   2.233   6.381 -0.7691 -0.8155  0.0747
 6402SOL     OW30664   0.364   4.539   4.571  0.0539 -0.3463 -0.1087
 6402SOL    HW130665   0.342   4.505   4.658 -2.6806  1.2021 -0.1868
 6402SOL    HW230666   0.357   4.466   4.510 -1.1813  0.1049 -0.5055
 6403SOL     OW30667   0.415   0.056  17.298 -0.7176 -0.2878 -0.2220
 6403SOL    HW130668   0.444   0.005  17.222  1.3014  0.9525 -0.2862
 6403SOL    HW230669   0.497   0.077  17.342 -1.0546  0.9633 -0.1823
 6404SOL     OW30670   2.663   0.552   6.806  0.4026  0.0931  0.1789
 6404SOL    HW130671   2.609   0.473   6.804 -0.3421  0.6365 -1.3182
 6404SOL    HW230672   2.610   0.613   6.755 -0.9206 -0.3527  1.0185
 6405SOL     OW30673   4.649   4.043   2.257 -0.2640  0.5666  0.3408
 6405SOL    HW130674   4.555   4.050   2.269 -0.3857  0.4990 -0.5994
 6405SOL    HW230675   4.664   4.019   2.348  1.4393  1.0636  0.1853
 6406SOL     OW30676   4.459   4.611   6.049 -0.3262  0.2003  0.1102
 6406SOL    HW130677   4.437   4.673   6.119  1.0061  2.6010 -1.6228
 6406SOL    HW230678   4.391   4.544   6.045  1.0475 -1.2846  0.9973
 6407SOL     OW30679   2.733   2.587   6.604  0.8157  0.3423 -0.4786
 6407SOL    HW130680   2.812   2.627   6.643  1.3754  0.9963 -2.3008
 6407SOL    HW230681   2.656   2.634   6.637 -0.4380 -2.4945  0.5849
 6408SOL     OW30682   4.481   3.551  15.670  0.3094 -0.0309 -0.1833
 6408SOL    HW130683   4.566   3.535  15.629  0.7080 -2.1261  1.4720
 6408SOL    HW230684   4.415   3.523  15.607  1.2508 -1.3628 -0.5838
 6409SOL     OW30685   2.031   2.261  14.808  0.1946  0.1523  0.1640
 6409SOL    HW130686   1.988   2.195  14.754  0.2655  0.6952 -0.5586
 6409SOL    HW230687   2.071   2.315  14.739 -0.5464 -0.7830 -0.9944
 6410SOL     OW30688   1.933   4.510  12.032 -0.1299 -0.5576  0.3928
 6410SOL    HW130689   1.857   4.482  12.082 -1.2493  0.1796 -0.9053
 6410SOL    HW230690   2.004   4.501  12.096  1.3359 -0.1411 -1.1840
 6411SOL     OW30691   4.417   3.825   6.207  0.0171  0.4138  0.1431
 6411SOL    HW130692   4.337   3.790   6.246  0.7707  1.1067  2.3610
 6411SOL    HW230693   4.385   3.850   6.121 -0.3987 -1.8744 -0.3778
 6412SOL     OW30694   3.376   2.366   3.640  0.0748  0.2507  0.0136
 6412SOL    HW130695   3.312   2.436   3.625 -1.2126 -0.3818  2.6267
 6412SOL    HW230696   3.332   2.284   3.617  1.0436 -0.8064  1.9496
 6413SOL     OW30697   0.822   0.177  10.091 -0.4867 -0.1843 -0.3506
 6413SOL    HW130698   0.743   0.129  10.113  0.4791 -0.6295  2.1176
 6413SOL    HW230699   0.873   0.095  10.088 -0.1706  0.0565 -1.7068
 6414SOL     OW30700   4.528   0.571  14.750 -0.2043  0.1200  0.4192
 6414SOL    HW130701   4.477   0.520  14.812  1.9960 -1.6337  0.7599
 6414SOL    HW230702   4.612   0.583  14.794  0.5521 -1.4889 -0.6026
 6415SOL     OW30703   2.427   1.575  12.340  0.1007  0.0500 -0.0838
 6415SOL    HW130704   2.387   1.489  12.324  1.1004 -0.1441 -1.4742
 6415SOL    HW230705   2.348   1.626  12.361  1.0935  0.4567  2.6663
 6416SOL     OW30706   4.661   3.990   6.955  0.1670 -0.3466 -0.1196
 6416SOL    HW130707   4.682   3.951   7.040 -1.4215 -0.3356  0.2779
 6416SOL    HW230708   4.596   4.056   6.979  0.4623  0.1309 -0.6232
 6417SOL     OW30709   3.268   4.577   4.924  0.1332 -0.5367 -0.1034
 6417SOL    HW130710   3.302   4.569   5.013  1.1302 -1.2284 -0.5406
 6417SOL    HW230711   3.218   4.496   4.914  0.0807 -0.1427 -2.8844
 6418SOL     OW30712   1.003   4.107   1.325 -0.2894 -0.2408 -0.1781
 6418SOL    HW130713   1.006   4.082   1.233  0.5356 -0.1204 -0.1752
 6418SOL    HW230714   1.086   4.073   1.357 -0.5030 -1.6110 -1.1024
 6419SOL     OW30715   0.254   1.217   2.775 -0.2729 -0.4440 -0.3816
 6419SOL    HW130716   0.321   1.260   2.723  0.0683  0.3948  0.7556
 6419SOL    HW230717   0.195   1.291   2.786  3.0004  2.4679 -2.8049
 6420SOL     OW30718   3.224   1.903   9.117 -0.2371  0.9375 -0.0386
 6420SOL    HW130719   3.216   1.994   9.090 -0.3543  0.8423 -0.3231
 6420SOL    HW230720   3.199   1.907   9.209  0.4239 -0.6201  0.2238
 6421SOL     OW30721   3.126   0.610   2.792  0.0414 -0.2269 -0.5764
 6421SOL    HW130722   3.098   0.669   2.863  1.3030 -1.2674  0.7898
 6421SOL    HW230723   3.048   0.583   2.743 -1.5607  1.4762  1.0209
 6422SOL     OW30724   0.793   0.834   6.045 -0.1502 -0.3715 -0.1995
 6422SOL    HW130725   0.863   0.814   6.107  0.8606  0.1759 -1.1696
 6422SOL    HW230726   0.843   0.871   5.973 -0.8449  1.2196  0.1483
 6423SOL     OW30727   4.003   2.525   2.019 -0.6290 -0.3033  0.0756
 6423SOL    HW130728   3.954   2.445   2.036  4.0866 -2.6591  2.4581
 6423SOL    HW230729   3.936   2.594   2.023  0.7721  0.8970  2.8703
 6424SOL     OW30730   0.555   4.159   5.325 -0.1507 -0.4455  0.1132
 6424SOL    HW130731   0.522   4.080   5.283  1.0948 -1.1046  0.3814
 6424SOL    HW230732   0.510   4.156   5.409  3.4861  0.1486  2.1043
 6425SOL     OW30733   3.348   4.238   2.021  0.6295  0.4165 -0.2239
 6425SOL    HW130734   3.263   4.271   1.989  0.0220 -2.3578 -1.5180
 6425SOL    HW230735   3.336   4.146   2.044 -0.0370  0.8612  1.2102
 6426SOL     OW30736   0.150   1.134  14.922 -0.1663  0.0546 -0.8190
 6426SOL    HW130737   0.071   1.140  14.977  0.5896 -0.5645  0.3290
 6426SOL    HW230738   0.198   1.215  14.941  0.7051 -1.0969  1.9207
 6427SOL     OW30739   1.583   1.454   3.985 -0.1807  0.4051  0.1172
 6427SOL    HW130740   1.562   1.369   4.023 -1.2700  0.0509 -1.2726
 6427SOL    HW230741   1.504   1.498   4.017 -0.8103 -0.7794  0.1940
 6428SOL     OW30742   1.945   3.062   7.395  0.1535  0.3878  0.1122
 6428SOL    HW130743   2.012   3.101   7.339  1.5106 -0.0053  1.4833
 6428SOL    HW230744   1.965   3.096   7.482 -0.5528 -0.4835  0.6096
 6429SOL     OW30745   4.061   2.856   2.087  0.3826 -0.3441 -0.5539
 6429SOL    HW130746   3.975   2.820   2.109  0.5171 -0.7221 -0.6534
 6429SOL    HW230747   4.056   2.823   1.997  0.2280  1.4459 -1.2263
 6430SOL     OW30748   2.006   1.504   3.554  0.1997 -0.4795 -0.4273
 6430SOL    HW130749   1.975   1.455   3.630 -2.7280  2.0142 -0.0262
 6430SOL    HW230750   1.922   1.547   3.537  0.8964 -0.0903 -2.8692
 6431SOL     OW30751   3.608   1.921   8.917 -0.1228 -0.4062 -0.0075
 6431SOL    HW130752   3.581   1.902   9.007  0.1416 -1.3068 -0.1235
 6431SOL    HW230753   3.686   1.974   8.934 -0.7774  1.1173 -1.7583
 6432SOL     OW30754   3.456   2.644   3.877 -0.1486  0.7825  0.6564
 6432SOL    HW130755   3.373   2.683   3.851 -1.1689 -1.0857  1.1424
 6432SOL    HW230756   3.459   2.670   3.969  0.0243  1.4192  0.4718
 6433SOL     OW30757   3.700   0.654  15.250  0.5658 -0.3702 -0.2171
 6433SOL    HW130758   3.679   0.564  15.273  1.8213 -0.2511  1.4005
 6433SOL    HW230759   3.776   0.675  15.304  1.8593 -1.3129 -1.6848
 6434SOL     OW30760   4.704   1.945  10.584  0.2367  0.1720  0.1032
 6434SOL    HW130761   4.649   2.021  10.601 -0.0998 -0.2917  1.0727
 6434SOL    HW230762   4.645   1.896  10.528 -0.5317 -0.3873  1.4033
 6435SOL     OW30763   1.604   4.662   4.883  0.2022 -0.6324  0.1364
 6435SOL    HW130764   1.541   4.700   4.822  1.1808  0.2188 -0.3465
 6435SOL    HW230765   1.664   0.011   4.902 -0.2605 -0.5280  1.2153
 6436SOL     OW30766   0.060   1.703   3.558  0.1669 -0.0794 -0.1508
 6436SOL    HW130767   0.111   1.638   3.510  2.3761  0.9603  0.7834
 6436SOL    HW230768   0.037   1.646   3.631  1.7886 -0.3119  0.1800
 6437SOL     OW30769   4.367   1.715   1.749  0.4789 -0.4482  0.4947
 6437SOL    HW130770   4.375   1.620   1.749 -2.4525 -0.7061  1.0757
 6437SOL    HW230771   4.356   1.729   1.655  1.7093  0.2950  0.4654
 6438SOL     OW30772   3.250   0.434   7.990  0.0084  0.2616 -0.1640
 6438SOL    HW130773   3.281   0.504   7.932  1.2271  0.9539  1.3019
 6438SOL    HW230774   3.264   0.359   7.932 -1.2374 -0.2197  0.1568
 6439SOL     OW30775   0.577   3.756   9.171 -0.0320  0.5711 -0.4919
 6439SOL    HW130776   0.641   3.779   9.104 -2.2097  1.1184 -2.3659
 6439SOL    HW230777   0.567   3.662   9.159 -1.9186  0.4230  2.2242
 6440SOL     OW30778   3.050   0.229   9.171 -0.3081 -0.5988 -0.2824
 6440SOL    HW130779   2.973   0.251   9.119  0.1049  0.4564 -0.4467
 6440SOL    HW230780   3.035   0.277   9.252 -0.2220  0.8530 -1.1273
 6441SOL     OW30781   1.989   4.103   9.316 -0.2101 -0.1223 -0.0428
 6441SOL    HW130782   1.916   4.160   9.340  0.8036 -0.0704  2.8208
 6441SOL    HW230783   2.063   4.141   9.363  1.4276 -0.9389 -1.9817
 6442SOL     OW30784   4.062   4.625   8.785 -0.0545  1.1326 -0.4616
 6442SOL    HW130785   3.995   4.682   8.748 -0.4649 -0.7833 -2.7229
 6442SOL    HW230786   4.075   4.653   8.875 -1.6941 -1.8167  0.7222
 6443SOL     OW30787   3.103   2.907  17.249  0.9756  0.3590 -0.1458
 6443SOL    HW130788   3.186   2.955  17.251  1.5411 -0.5407 -1.4143
 6443SOL    HW230789   3.050   2.965  17.302 -0.5051  0.0427 -1.2873
 6444SOL     OW30790   1.002   2.739  14.164  0.2057 -0.5200 -0.0239
 6444SOL    HW130791   1.034   2.682  14.094 -0.5357 -1.4486  0.4150
 6444SOL    HW230792   0.917   2.702  14.184  0.2064 -1.9762 -2.6576
 6445SOL     OW30793   3.954   0.651   3.112  0.0228  0.1127 -0.0755
 6445SOL    HW130794   3.870   0.679   3.149  0.7066  1.0397  0.7804
 6445SOL    HW230795   3.923   0.566   3.081 -2.2570  0.2601  1.7739
 6446SOL     OW30796   0.653   0.654  14.297  0.1523  0.1749 -0.1096
 6446SOL    HW130797   0.746   0.666  14.276  0.1069  1.1630  0.2677
 6446SOL    HW230798   0.619   0.725  14.243 -1.1363 -1.2814 -1.2189
 6447SOL     OW30799   1.416   2.404   7.016 -0.8333 -0.0548 -0.4754
 6447SOL    HW130800   1.365   2.432   7.092  0.5723 -1.3973  0.9630
 6447SOL    HW230801   1.356   2.340   6.978 -0.4755 -1.5243  1.4839
 6448SOL     OW30802   2.427   4.194  16.854 -0.2688 -0.3785  0.6920
 6448SOL    HW130803   2.510   4.185  16.901  0.4835 -1.2838 -0.7967
 6448SOL    HW230804   2.462   4.173  16.767 -1.7970 -0.3763  0.0738
 6449SOL     OW30805   4.428   2.229   6.671 -0.1796 -0.1682 -0.2201
 6449SOL    HW130806   4.415   2.319   6.700  0.6224  0.2891 -1.3115
 6449SOL    HW230807   4.409   2.243   6.578  1.2094  2.9288 -0.0009
 6450SOL     OW30808   0.407   1.251   6.192 -0.0277  0.3489  0.2117
 6450SOL    HW130809   0.340   1.192   6.156 -0.0381  0.5823 -0.1493
 6450SOL    HW230810   0.402   1.239   6.287  1.4419 -2.2629 -0.0460
 6451SOL     OW30811   0.734   0.130   8.654  0.4783  0.1077 -0.4836
 6451SOL    HW130812   0.717   0.224   8.642  1.4306  0.7711  3.5685
 6451SOL    HW230813   0.669   0.111   8.722  0.8477  0.0602 -0.1474
 6452SOL     OW30814   2.613   2.271   4.112  0.4501  0.3257  0.5012
 6452SOL    HW130815   2.519   2.285   4.117  0.5760  1.4416 -0.2945
 6452SOL    HW230816   2.630   2.346   4.056  0.1036  0.0274  0.0015
 6453SOL     OW30817   0.611   0.858   9.763  0.4120  0.2317  0.4332
 6453SOL    HW130818   0.678   0.824   9.822  0.4181  0.6477  0.6669
 6453SOL    HW230819   0.603   0.940   9.811  0.5977  0.0915  0.7029
 6454SOL     OW30820   2.210   0.809   4.236 -0.1934  0.5182  0.0948
 6454SOL    HW130821   2.286   0.866   4.224 -0.0769  0.5439  0.9905
 6454SOL    HW230822   2.145   0.860   4.187 -1.2925 -1.5064 -0.5413
 6455SOL     OW30823   0.563   1.260   3.895  0.2975 -0.9948 -0.1853
 6455SOL    HW130824   0.591   1.170   3.881 -0.0450 -1.1116 -0.1223
 6455SOL    HW230825   0.509   1.255   3.974  0.2868  0.8168 -0.0809
 6456SOL     OW30826   4.120   0.639   6.683  0.4340 -0.0285  0.2297
 6456SOL    HW130827   4.077   0.663   6.765 -0.7062  0.5294 -0.5445
 6456SOL    HW230828   4.077   0.698   6.621 -0.3481 -3.3292 -2.3086
 6457SOL     OW30829   3.473   4.095  10.043 -0.0113 -0.2553  0.1018
 6457SOL    HW130830   3.521   4.058   9.969  2.5433  2.6554  0.3315
 6457SOL    HW230831   3.532   4.154  10.089  0.5938 -1.2167  0.5672
 6458SOL     OW30832   1.607   3.931   0.645  0.2563  0.4439 -0.1130
 6458SOL    HW130833   1.532   3.922   0.588 -0.3992 -0.3879  0.8763
 6458SOL    HW230834   1.566   3.914   0.730  2.0586  1.0251  0.8785
 6459SOL     OW30835   1.916   0.679  10.733 -0.0103  0.5550  0.2709
 6459SOL    HW130836   1.954   0.722  10.657 -0.3392  0.7062  0.1936
 6459SOL    HW230837   1.934   0.744  10.801 -0.0565  0.9861 -0.1337
 6460SOL     OW30838   3.322   0.675   4.161  0.0509  0.0827  0.3074
 6460SOL    HW130839   3.325   0.745   4.095  1.7974  1.8089  2.2127
 6460SOL    HW230840   3.263   0.610   4.124 -1.3857  0.4122  1.9943
 6461SOL     OW30841   0.876   2.424   1.538  0.4413  0.6921 -0.3087
 6461SOL    HW130842   0.909   2.513   1.524 -0.1988  0.7105 -1.7554
 6461SOL    HW230843   0.837   2.427   1.625  1.5277  0.2679  0.1829
 6462SOL     OW30844   4.029   0.227   8.540 -0.1883 -0.1970 -0.0618
 6462SOL    HW130845   4.051   0.150   8.487 -0.1287 -0.1873 -0.0507
 6462SOL    HW230846   4.064   0.201   8.625  0.4021  0.5239 -0.0927
 6463SOL     OW30847   0.304   3.840   5.463 -0.1148  0.0630 -0.4711
 6463SOL    HW130848   0.261   3.923   5.483  0.2837 -0.1476  1.2821
 6463SOL    HW230849   0.292   3.841   5.368 -0.9607 -2.8377 -0.4017
 6464SOL     OW30850   3.314   3.174   0.249  0.0975  0.2786 -0.1866
 6464SOL    HW130851   3.289   3.266   0.240 -0.5114  0.0443 -0.8826
 6464SOL    HW230852   3.286   3.157   0.339 -0.8407 -0.4400 -0.6074
 6465SOL     OW30853   2.643   0.892  11.301  0.0886  0.3095 -0.3558
 6465SOL    HW130854   2.694   0.882  11.382  1.2873 -1.5104 -1.3173
 6465SOL    HW230855   2.722   0.908  11.250 -0.5564 -1.1887 -1.8376
 6466SOL     OW30856   1.941   4.420   3.060 -0.2197  0.2453 -0.5857
 6466SOL    HW130857   1.883   4.453   3.128  0.6953 -0.4084  0.5127
 6466SOL    HW230858   1.897   4.452   2.982 -1.1445  0.4849  0.0423
 6467SOL     OW30859   1.501   3.600   9.272  0.7113 -0.0606  0.4606
 6467SOL    HW130860   1.409   3.626   9.267  0.2452 -1.2185  3.1017
 6467SOL    HW230861   1.481   3.508   9.288  0.3734 -0.4566 -2.1177
 6468SOL     OW30862   1.405   1.035   2.834  0.4197  0.5915  0.6200
 6468SOL    HW130863   1.329   1.063   2.885  1.4224  1.7084  1.4692
 6468SOL    HW230864   1.380   1.076   2.751  0.4054  0.3543  0.5054
 6469SOL     OW30865   2.204   2.735   7.745  0.7265  0.4259 -0.2679
 6469SOL    HW130866   2.269   2.667   7.761  0.1138  0.0946  0.8563
 6469SOL    HW230867   2.148   2.702   7.675  0.0692  0.8173  0.0677
 6470SOL     OW30868   2.867   2.184   2.624  0.5221 -0.4160  0.0061
 6470SOL    HW130869   2.950   2.137   2.621  0.4018 -0.5420 -1.3164
 6470SOL    HW230870   2.810   2.135   2.565  0.5249 -0.4585  0.0384
 6471SOL     OW30871   4.203   3.575   1.640  0.3293 -0.3081 -0.1379
 6471SOL    HW130872   4.156   3.608   1.563  1.4252  1.7921  0.0853
 6471SOL    HW230873   4.144   3.556   1.712  3.1515  0.8085  2.4672
 6472SOL     OW30874   1.641   0.353   8.749 -0.0019  0.0894  0.5747
 6472SOL    HW130875   1.657   0.354   8.655  0.0521  2.0719  0.6010
 6472SOL    HW230876   1.547   0.372   8.751  0.0990  0.5820  0.8101
 6473SOL     OW30877   2.414   2.642   0.727  0.1958 -0.2076  0.3835
 6473SOL    HW130878   2.390   2.697   0.802 -2.7330  1.4050 -1.7695
 6473SOL    HW230879   2.500   2.626   0.766 -1.1695  0.8600  3.8191
 6474SOL     OW30880   2.840   2.452   1.786  0.1287  0.5893 -0.1360
 6474SOL    HW130881   2.893   2.494   1.718 -0.2421 -0.2573 -0.9424
 6474SOL    HW230882   2.760   2.430   1.739 -0.7538  1.8191  0.7841
 6475SOL     OW30883   2.610   2.741   6.780  0.2434 -1.1046 -0.4179
 6475SOL    HW130884   2.536   2.691   6.812 -1.1610  0.9759 -0.4017
 6475SOL    HW230885   2.672   2.718   6.849  0.8784  1.8422  0.0090
 6476SOL     OW30886   2.801   0.087   8.386 -0.2319 -0.1286 -0.1246
 6476SOL    HW130887   2.833   0.108   8.474  0.0389 -2.6251  0.3645
 6476SOL    HW230888   2.885   0.070   8.343 -0.9373  0.2517 -1.6335
 6477SOL     OW30889   4.382   2.856   7.448 -0.0033 -0.0833  0.1451
 6477SOL    HW130890   4.300   2.869   7.496  0.0786  0.1600  0.2183
 6477SOL    HW230891   4.428   2.937   7.471  2.6155 -1.7168  0.6049
 6478SOL     OW30892   0.481   3.960   7.562 -0.3341 -0.1421  0.4694
 6478SOL    HW130893   0.437   3.888   7.607 -0.9679  0.1999  0.4012
 6478SOL    HW230894   0.407   3.993   7.509  1.4626 -0.0956 -2.0141
 6479SOL     OW30895   0.467   2.244  13.194  0.1809 -0.5159  0.3495
 6479SOL    HW130896   0.538   2.210  13.249  0.0604 -1.4413 -0.0637
 6479SOL    HW230897   0.498   2.225  13.106  0.6877 -2.0532  0.8490
 6480SOL     OW30898   2.440   3.415  14.722 -0.0182 -0.4875  0.4658
 6480SOL    HW130899   2.344   3.409  14.729 -0.0615  2.5241  2.2965
 6480SOL    HW230900   2.465   3.342  14.779  2.5867  0.7830  0.9055
 6481SOL     OW30901   1.395   3.038   5.585 -0.2040  0.3680  0.3965
 6481SOL    HW130902   1.313   2.992   5.565 -0.4953  0.1631  2.0151
 6481SOL    HW230903   1.465   2.985   5.548 -0.2234  0.9011 -0.3855
 6482SOL     OW30904   1.667   3.024   5.050  0.9105  0.5489  0.7181
 6482SOL    HW130905   1.585   2.975   5.042  2.4570 -2.0284  0.6777
 6482SOL    HW230906   1.724   2.975   4.991 -0.4225  2.7345 -2.3366
 6483SOL     OW30907   3.491   4.110   1.783 -0.0201  0.8274  0.0488
 6483SOL    HW130908   3.523   4.023   1.807 -0.6596  0.1943 -1.3577
 6483SOL    HW230909   3.470   4.149   1.868 -0.5132  0.1464  0.2418
 6484SOL     OW30910   4.421   1.860   9.093 -0.3759 -0.2415  0.3666
 6484SOL    HW130911   4.391   1.937   9.141  2.1134  2.0000 -1.6293
 6484SOL    HW230912   4.484   1.820   9.152  0.1489 -0.6052 -0.4305
 6485SOL     OW30913   3.925   3.373  14.915  0.3614  0.4768  0.0561
 6485SOL    HW130914   3.831   3.366  14.900  0.2312 -0.3477  1.1759
 6485SOL    HW230915   3.956   3.460  14.890  0.2850 -0.0842 -1.9825
 6486SOL     OW30916   3.878   4.210   4.277 -0.3855 -0.7574 -0.1839
 6486SOL    HW130917   3.957   4.230   4.328  0.1041  0.0409 -1.2369
 6486SOL    HW230918   3.892   4.117   4.259 -0.9391 -0.7698 -0.5280
 6487SOL     OW30919   3.878   4.345  11.324 -0.3577 -0.4993  0.0939
 6487SOL    HW130920   3.787   4.371  11.339 -0.0442 -0.1174  1.3764
 6487SOL    HW230921   3.900   4.410  11.258 -1.1470  0.3183  0.6495
 6488SOL     OW30922   2.978   3.037   5.221 -0.8552  0.1170  0.5422
 6488SOL    HW130923   3.005   3.075   5.137  0.5609 -0.3600  0.7900
 6488SOL    HW230924   3.053   3.059   5.276 -0.2504 -1.6470  0.4153
 6489SOL     OW30925   2.574   1.540   7.688  0.1362  0.9168  0.4736
 6489SOL    HW130926   2.598   1.474   7.753  0.3108 -1.1816 -1.7212
 6489SOL    HW230927   2.546   1.621   7.732 -0.8352  1.0014 -0.2859
 6490SOL     OW30928   3.614   0.982  13.282 -0.1873  0.3056 -0.6215
 6490SOL    HW130929   3.637   0.905  13.334  1.4541  0.4706 -1.0855
 6490SOL    HW230930   3.660   1.047  13.335 -1.4203  0.9248 -0.3075
 6491SOL     OW30931   1.521   0.045   8.834 -0.4739  0.0149 -1.0955
 6491SOL    HW130932   1.459   0.089   8.776 -1.5527  0.7557  0.6029
 6491SOL    HW230933   1.485   0.049   8.923  1.0886 -2.2673 -0.3737
 6492SOL     OW30934   0.511   4.619  17.116 -0.5404 -0.4837  0.0154
 6492SOL    HW130935   0.520   4.524  17.105  0.4122 -0.4477  0.4216
 6492SOL    HW230936   0.603   4.645  17.116 -0.5929 -0.3125 -1.1310
 6493SOL     OW30937   2.563   0.730   4.116 -0.5545  0.4957 -0.1578
 6493SOL    HW130938   2.654   0.706   4.098 -1.0592 -2.0725  0.7136
 6493SOL    HW230939   2.517   0.646   4.109 -1.1897  0.6741  1.8444
 6494SOL     OW30940   4.650   2.666   4.658 -0.2297  0.7290  0.1470
 6494SOL    HW130941   0.004   2.673   4.601  1.1495  1.5996  2.1564
 6494SOL    HW230942   4.690   2.676   4.744  2.4919  1.8156 -1.2556
 6495SOL     OW30943   2.544   3.605   3.666  0.3471  0.2940  0.2470
 6495SOL    HW130944   2.504   3.674   3.720  1.0776  0.5806  0.4333
 6495SOL    HW230945   2.553   3.539   3.735  0.9345  1.1267  0.9688
 6496SOL     OW30946   1.692   1.980   8.365  0.2693  0.0736  0.1839
 6496SOL    HW130947   1.690   2.026   8.281  1.2282  0.6638  0.4753
 6496SOL    HW230948   1.745   1.904   8.340 -2.5086 -1.2881 -1.5146
 6497SOL     OW30949   0.760   3.536   5.786  0.6270  0.2880  0.2039
 6497SOL    HW130950   0.725   3.591   5.856 -0.5673 -1.0909  0.6984
 6497SOL    HW230951   0.702   3.460   5.792 -0.3766  1.0628  0.2152
 6498SOL     OW30952   3.834   1.668  12.683 -0.0199  0.1468 -0.0114
 6498SOL    HW130953   3.837   1.714  12.599  0.5802  0.4256  0.1619
 6498SOL    HW230954   3.877   1.732  12.741  2.2060  0.5927 -2.1395
 6499SOL     OW30955   2.125   3.661   4.223  0.2392  0.2647 -0.0891
 6499SOL    HW130956   2.067   3.586   4.236  1.0796 -0.7907 -2.3950
 6499SOL    HW230957   2.202   3.630   4.272 -0.6068  0.4908  1.3918
 6500SOL     OW30958   4.463   1.047   0.477  0.1719  0.4183 -0.5737
 6500SOL    HW130959   4.511   1.059   0.395  2.6677 -0.0640  0.8194
 6500SOL    HW230960   4.531   1.027   0.541  0.0800 -2.3256 -1.3172
 6501SOL     OW30961   2.347   0.108   3.394  0.1742 -0.3655 -0.9957
 6501SOL    HW130962   2.255   0.100   3.418  0.3680  0.9000  0.1932
 6501SOL    HW230963   2.364   0.034   3.336  1.5486 -1.6414  1.0582
 6502SOL     OW30964   1.001   2.303  11.408 -0.2959  0.0755  0.1620
 6502SOL    HW130965   0.948   2.229  11.439 -2.2029  0.4098 -2.3481
 6502SOL    HW230966   0.927   2.350  11.369  2.1367  2.2654 -1.7392
 6503SOL     OW30967   1.600   1.235  11.326  0.3034  0.5862 -0.4660
 6503SOL    HW130968   1.662   1.288  11.375 -0.3004  0.5485  0.3395
 6503SOL    HW230969   1.532   1.221  11.392  2.0266 -0.2396  1.1242
 6504SOL     OW30970   0.740   4.058   5.951 -0.3700 -0.1066 -0.0719
 6504SOL    HW130971   0.832   4.042   5.934 -0.7566  0.0302 -2.2929
 6504SOL    HW230972   0.729   4.150   5.925  0.3300 -0.3281 -1.1259
 6505SOL     OW30973   3.383   0.372  15.091 -0.3702 -0.2881 -0.0268
 6505SOL    HW130974   3.318   0.431  15.130  0.0220 -1.6468  2.6802
 6505SOL    HW230975   3.359   0.379  14.998 -0.7605  0.7009  0.1514
 6506SOL     OW30976   4.422   3.656   8.115 -0.5394 -0.3305 -0.1464
 6506SOL    HW130977   4.357   3.722   8.138 -0.5686 -1.1638  2.2094
 6506SOL    HW230978   4.380   3.575   8.145  1.0669 -1.1123 -0.0193
 6507SOL     OW30979   0.302   0.875   2.220 -0.1391 -0.1929 -0.3263
 6507SOL    HW130980   0.315   0.955   2.168 -0.5727 -0.5752 -1.0296
 6507SOL    HW230981   0.256   0.893   2.302  0.9922  0.8412  0.0902
 6508SOL     OW30982   3.774   2.957   4.559 -0.1451 -0.6884  0.4978
 6508SOL    HW130983   3.732   2.892   4.502 -1.1618  0.3081  0.1105
 6508SOL    HW230984   3.719   2.959   4.638  0.7532 -0.1806  1.1136
 6509SOL     OW30985   4.606   0.926   1.617  0.0193 -0.0632  0.4353
 6509SOL    HW130986   4.552   0.870   1.673 -0.9922  0.7386  0.2642
 6509SOL    HW230987   4.695   0.891   1.611  0.2994  0.8923 -0.9273
 6510SOL     OW30988   4.301   0.874   8.512  0.1887 -0.6858 -0.8082
 6510SOL    HW130989   4.244   0.798   8.525  1.1956 -1.0001  1.7546
 6510SOL    HW230990   4.373   0.861   8.574  1.1420  0.8522 -1.6243
 6511SOL     OW30991   4.007   3.833   7.912  0.4714  0.3340 -0.0283
 6511SOL    HW130992   4.094   3.866   7.934  0.7709 -0.8661  0.5681
 6511SOL    HW230993   3.990   3.871   7.825 -0.5503 -0.5006 -0.1861
 6512SOL     OW30994   0.545   1.110   9.856 -0.2548 -0.0478 -0.2299
 6512SOL    HW130995   0.541   1.148   9.769 -0.5108  0.7606  0.1332
 6512SOL    HW230996   0.589   1.173   9.913 -1.2319  0.0077  0.4844
 6513SOL     OW30997   1.037   2.877  16.591 -0.6254 -0.0044  0.5504
 6513SOL    HW130998   0.959   2.896  16.539  1.4651  1.2860 -2.1019
 6513SOL    HW230999   1.057   2.968  16.616  1.3109  0.2617 -1.9850
 6514SOL     OW31000   0.187   0.949   2.785  0.3412 -0.1552  0.0537
 6514SOL    HW131001   0.256   0.893   2.750 -0.2034  0.3728 -1.8623
 6514SOL    HW231002   0.239   1.029   2.780  0.6872 -0.3198  1.0114
 6515SOL     OW31003   4.130   3.616  16.255 -0.1146 -0.2434  0.2533
 6515SOL    HW131004   4.189   3.674  16.304  0.8732  0.3356 -1.5998
 6515SOL    HW231005   4.124   3.662  16.171  1.7510  1.8639  1.2888
 6516SOL     OW31006   3.885   0.717  10.711  0.1195 -0.0487  0.4756
 6516SOL    HW131007   3.852   0.727  10.800 -2.3028  1.0919 -0.5757
 6516SOL    HW231008   3.980   0.733  10.709  0.5638 -2.5349  1.3183
 6517SOL     OW31009   3.466   2.583  16.613 -0.2369  0.1489 -0.9779
 6517SOL    HW131010   3.400   2.642  16.575 -2.4989 -0.7827  1.5321
 6517SOL    HW231011   3.510   2.549  16.535 -0.4017 -1.4013 -0.3828
 6518SOL     OW31012   3.358   4.518   3.005  0.0045  0.0565 -0.3248
 6518SOL    HW131013   3.344   4.586   2.940  0.3236  0.8343  0.4157
 6518SOL    HW231014   3.384   4.569   3.082 -2.5018  3.3756 -1.6867
 6519SOL     OW31015   1.255   2.279   5.273 -0.3239 -0.8416 -0.0927
 6519SOL    HW131016   1.273   2.267   5.179  1.0143  0.7018 -0.0244
 6519SOL    HW231017   1.228   2.192   5.301  0.7076 -1.3493 -0.6633
 6520SOL     OW31018   1.348   4.365   4.111 -1.0749  0.3511 -0.1589
 6520SOL    HW131019   1.402   4.346   4.034 -1.9983  1.5735 -1.1082
 6520SOL    HW231020   1.347   4.460   4.111 -1.5952  0.3440  0.5837
 6521SOL     OW31021   2.382   4.443   7.655 -0.0897 -0.0420  0.1378
 6521SOL    HW131022   2.447   4.381   7.687  0.2057 -0.6318 -1.6082
 6521SOL    HW231023   2.341   4.480   7.734 -2.1970 -0.1971 -0.8791
 6522SOL     OW31024   1.010   2.904   5.957 -0.3257  0.2852 -0.9629
 6522SOL    HW131025   1.103   2.925   5.946  0.5086 -1.7416  2.3244
 6522SOL    HW231026   0.981   2.883   5.869 -0.2030  0.0654 -0.9498
 6523SOL     OW31027   1.744   3.028  15.091 -0.3588 -0.1344 -0.4021
 6523SOL    HW131028   1.688   3.106  15.098 -0.0105  0.1030 -0.3103
 6523SOL    HW231029   1.810   3.058  15.028  0.4505  0.0755  0.5609
 6524SOL     OW31030   1.751   0.585   9.085  0.5039 -0.5020  0.3344
 6524SOL    HW131031   1.761   0.585   8.990  0.9742  0.4863  0.3765
 6524SOL    HW231032   1.709   0.500   9.095 -0.1594 -0.1715  0.3289
 6525SOL     OW31033   1.072   4.042   6.609 -0.1165  0.3344 -0.4309
 6525SOL    HW131034   1.123   4.021   6.688  0.3694  2.6660 -0.1024
 6525SOL    HW231035   1.062   4.134   6.635 -1.9668 -0.1801  0.6272
 6526SOL     OW31036   0.955   4.214  13.937 -0.7787 -0.3373  0.1793
 6526SOL    HW131037   0.995   4.259  13.864  1.5440 -2.5687  0.0897
 6526SOL    HW231038   1.032   4.196  13.991 -1.2100  0.4997  1.0793
 6527SOL     OW31039   1.319   4.433   7.209  0.6015 -0.5417  0.0017
 6527SOL    HW131040   1.254   4.363   7.214  0.7906 -0.8731 -2.0767
 6527SOL    HW231041   1.262   4.505   7.236  1.3160 -0.7098  1.9166
 6528SOL     OW31042   4.027   0.704   6.347  0.2412  0.2598 -0.6648
 6528SOL    HW131043   4.017   0.610   6.364 -1.2255  0.3311 -1.1992
 6528SOL    HW231044   3.989   0.743   6.426  0.1314  0.0045 -0.5911
 6529SOL     OW31045   4.181   0.183   1.873  0.0875  0.6667 -0.0807
 6529SOL    HW131046   4.274   0.163   1.863  0.4492  1.2778  1.9235
 6529SOL    HW231047   4.159   0.171   1.966 -0.7917  1.3139 -0.2128
 6530SOL     OW31048   2.610   0.501   1.227 -0.6553  0.0368  0.2324
 6530SOL    HW131049   2.608   0.436   1.298 -1.8409  0.0705  0.2376
 6530SOL    HW231050   2.696   0.477   1.192 -0.8279 -1.1626  0.6152
 6531SOL     OW31051   3.272   0.975   2.465  0.0954 -0.6590 -0.0204
 6531SOL    HW131052   3.276   1.048   2.404 -0.2359  1.8098  2.9215
 6531SOL    HW231053   3.247   1.027   2.541 -1.4280 -1.1569 -0.1910
 6532SOL     OW31054   2.775   2.012  16.275 -0.1439 -0.1298 -0.1538
 6532SOL    HW131055   2.817   1.928  16.295 -0.4799 -0.1399  0.5015
 6532SOL    HW231056   2.728   1.992  16.194 -1.1715  1.3485  0.0877
 6533SOL     OW31057   2.038   0.852   4.536  0.0613 -0.1625  0.3540
 6533SOL    HW131058   1.990   0.895   4.465  2.1319  0.5292 -0.6583
 6533SOL    HW231059   2.126   0.885   4.516  0.7823 -1.9158  0.6249
 6534SOL     OW31060   2.365   0.400  15.194  0.4481  0.6954  0.1994
 6534SOL    HW131061   2.336   0.460  15.263 -1.7240 -1.7049  1.3906
 6534SOL    HW231062   2.300   0.330  15.193  1.4492 -0.2094 -0.8404
 6535SOL     OW31063   0.470   2.664   3.671  0.0111  0.4596 -0.3338
 6535SOL    HW131064   0.383   2.626   3.683  1.3169 -2.6880 -0.7019
 6535SOL    HW231065   0.503   2.638   3.757  1.3969  2.6058 -0.2147
 6536SOL     OW31066   1.568   4.328   4.597 -1.0945  0.2466  0.1430
 6536SOL    HW131067   1.609   4.362   4.676 -2.3708  0.4526  0.7178
 6536SOL    HW231068   1.642   4.319   4.537  0.2436 -0.4699  1.9035
 6537SOL     OW31069   2.494   0.028   5.125 -0.2592  0.7473 -0.0941
 6537SOL    HW131070   2.417   0.030   5.181 -1.4132 -1.4218 -1.5942
 6537SOL    HW231071   2.537   0.110   5.147  1.9140 -0.7164  1.1539
 6538SOL     OW31072   2.207   3.347  15.326  0.3016  0.3676  0.1085
 6538SOL    HW131073   2.236   3.431  15.362  0.5361  0.3643 -0.0756
 6538SOL    HW231074   2.149   3.315  15.395  0.4030  0.2155  0.1233
 6539SOL     OW31075   4.022   4.139  16.414 -0.2730 -0.2964  0.0425
 6539SOL    HW131076   4.076   4.217  16.397 -0.4893 -0.2066 -0.2478
 6539SOL    HW231077   4.044   4.070  16.351  0.7376  1.2810 -1.3304
 6540SOL     OW31078   3.499   3.153   4.565 -0.3863 -0.5190  0.0083
 6540SOL    HW131079   3.452   3.226   4.525  1.3063  0.3492 -0.3878
 6540SOL    HW231080   3.590   3.184   4.569 -0.1778 -1.0807 -0.3168
 6541SOL     OW31081   1.582   1.019   7.245 -0.0994 -0.4372  0.3962
 6541SOL    HW131082   1.496   0.998   7.210 -0.7891  1.1738  1.1046
 6541SOL    HW231083   1.563   1.091   7.306  0.8224  0.7136 -0.6755
 6542SOL     OW31084   1.289   2.473  10.162  0.3031 -0.0457 -0.4521
 6542SOL    HW131085   1.209   2.432  10.195  0.6259  0.0506  0.4444
 6542SOL    HW231086   1.306   2.541  10.227 -0.7805 -1.0709  0.8935
 6543SOL     OW31087   1.890   2.380   2.710 -0.6762  0.3045  0.0427
 6543SOL    HW131088   1.910   2.416   2.624  2.8332 -0.7151  0.4377
 6543SOL    HW231089   1.796   2.366   2.699 -0.4005  0.7026 -2.8017
 6544SOL     OW31090   1.023   4.342   0.366 -0.5846 -0.6512  1.2172
 6544SOL    HW131091   1.017   4.371   0.457 -2.7132  4.4327 -0.5573
 6544SOL    HW231092   1.092   4.276   0.361  1.3701  1.4349  0.8626
 6545SOL     OW31093   0.717   2.974   3.404 -0.4644 -0.4996 -0.0488
 6545SOL    HW131094   0.810   2.984   3.426 -0.9219  2.4128  0.4641
 6545SOL    HW231095   0.709   2.988   3.310 -1.0214 -0.8516 -0.0512
 6546SOL     OW31096   4.186   2.480   2.641 -0.5042 -0.3136 -0.6846
 6546SOL    HW131097   4.223   2.496   2.554  0.5361 -1.7784 -0.5034
 6546SOL    HW231098   4.093   2.501   2.628 -0.1068  0.9258 -1.5900
 6547SOL     OW31099   3.577   1.075   4.101  0.2218  0.1200  0.2666
 6547SOL    HW131100   3.499   1.123   4.126  0.5460  0.2343  1.0389
 6547SOL    HW231101   3.643   1.140   4.122  0.9046  0.1015 -1.7857
 6548SOL     OW31102   1.051   0.226  17.337  0.1255  0.3110 -0.0515
 6548SOL    HW131103   0.979   0.278  17.372 -0.2046 -0.3976  0.3234
 6548SOL    HW231104   1.112   0.292  17.304 -1.5411  0.6933 -2.3897
 6549SOL     OW31105   3.121   1.546   2.113 -0.3746  0.3042  0.1078
 6549SOL    HW131106   3.130   1.508   2.025 -0.9564  3.0482 -1.1289
 6549SOL    HW231107   3.056   1.613   2.095  0.5512  0.2931 -3.3177
 6550SOL     OW31108   1.036   3.882  17.568  0.0159 -0.2710  0.5863
 6550SOL    HW131109   0.951   3.848  17.541  0.0800 -0.3777  0.5210
 6550SOL    HW231110   1.061   3.820  17.636 -0.0351 -2.3826 -1.3425
 6551SOL     OW31111   4.707   0.754   4.192  0.3232 -0.0936  0.1237
 6551SOL    HW131112   0.071   0.740   4.153 -0.0381 -0.0964 -0.6737
 6551SOL    HW231113   4.679   0.837   4.153  0.5734 -0.3675 -0.6284
 6552SOL     OW31114   0.443   1.715  11.699  0.5249  0.5075 -0.0520
 6552SOL    HW131115   0.376   1.651  11.674 -1.4250  2.4166  0.2903
 6552SOL    HW231116   0.507   1.705  11.629  0.3749 -1.1074  0.0303
 6553SOL     OW31117   0.140   3.044   6.624  0.2267 -0.3684 -0.9117
 6553SOL    HW131118   0.200   2.983   6.582  0.6482 -1.3164  1.0978
 6553SOL    HW231119   0.055   3.015   6.589  0.0564 -0.5156 -0.3784
 6554SOL     OW31120   2.539   2.634  11.584  0.5256  0.1404  0.3207
 6554SOL    HW131121   2.518   2.717  11.543  1.3031  0.5371  0.7211
 6554SOL    HW231122   2.509   2.660  11.672  2.4387  0.8276  0.7616
 6555SOL     OW31123   1.279   3.966  13.943 -0.5400 -0.0251 -0.0755
 6555SOL    HW131124   1.241   4.024  14.009 -0.8371  0.1680 -0.4130
 6555SOL    HW231125   1.307   4.024  13.872  1.1700  0.3462  0.9128
 6556SOL     OW31126   3.076   3.125   7.728 -0.3314  0.2477  0.0908
 6556SOL    HW131127   3.012   3.193   7.705 -0.0454  0.1834 -0.8939
 6556SOL    HW231128   3.066   3.115   7.823  0.7324 -0.9669  0.0720
 6557SOL     OW31129   0.012   3.788   2.926 -0.2558  0.4456  0.3259
 6557SOL    HW131130   4.671   3.833   2.870  1.1958  0.7573 -1.0646
 6557SOL    HW231131   0.029   3.704   2.884  3.0454  0.9327  0.6614
 6558SOL     OW31132   2.071   1.496   6.031 -0.9497  0.3230 -0.6910
 6558SOL    HW131133   2.007   1.437   5.992 -0.4027 -0.0579 -1.0153
 6558SOL    HW231134   2.032   1.583   6.021 -0.3818  0.9579  2.6365
 6559SOL     OW31135   0.799   3.581   8.130 -0.3052 -0.7499  0.6894
 6559SOL    HW131136   0.800   3.649   8.198  1.6482  0.8550 -0.9222
 6559SOL    HW231137   0.834   3.621   8.051  2.0773  1.5135  2.8720
 6560SOL     OW31138   2.673   3.536   2.667  0.1189  0.0684  0.3444
 6560SOL    HW131139   2.723   3.461   2.702  1.5992  0.3112 -1.2722
 6560SOL    HW231140   2.712   3.544   2.580 -0.6186 -0.2940 -0.0167
 6561SOL     OW31141   3.513   0.176   4.003 -0.3027  0.0372 -0.1508
 6561SOL    HW131142   3.459   0.124   3.944 -1.1738 -1.9113  2.3789
 6561SOL    HW231143   3.521   0.119   4.079  1.2622 -0.1130 -0.4300
 6562SOL     OW31144   0.608   2.406   8.485 -0.3645  0.0073 -0.3600
 6562SOL    HW131145   0.519   2.440   8.495 -0.1798 -0.2466  2.1128
 6562SOL    HW231146   0.656   2.410   8.567  0.6092 -0.4275 -0.9119
 6563SOL     OW31147   1.883   0.797  14.485 -0.9507 -0.3440  0.4119
 6563SOL    HW131148   1.947   0.773  14.417 -0.7817 -1.2901  0.9150
 6563SOL    HW231149   1.901   0.731  14.551 -0.2137 -1.0483 -0.4833
 6564SOL     OW31150   3.439   2.405   0.461  0.2268 -0.2367 -0.4314
 6564SOL    HW131151   3.493   2.410   0.540  0.9236 -0.2341 -0.9080
 6564SOL    HW231152   3.471   2.316   0.443 -3.6582 -1.8982  0.8543
 6565SOL     OW31153   4.368   2.213  16.263 -0.1945 -0.2756 -0.1460
 6565SOL    HW131154   4.450   2.238  16.220 -1.8919  1.0050 -2.6492
 6565SOL    HW231155   4.374   2.253  16.349  3.4752  0.8885 -0.9189
 6566SOL     OW31156   2.073   1.616   4.939  0.7403 -0.2504  0.3312
 6566SOL    HW131157   2.015   1.630   4.864 -0.9624 -1.9353  1.3541
 6566SOL    HW231158   2.042   1.684   4.999  0.3565 -0.6740  0.6046
 6567SOL     OW31159   4.371   2.233  15.348  0.2564  0.5241  0.5150
 6567SOL    HW131160   4.401   2.313  15.390 -1.7281  0.8207  1.3707
 6567SOL    HW231161   4.299   2.205  15.406  1.4212  1.1707  2.2660
 6568SOL     OW31162   1.134   3.036   4.704  0.0224  0.2567  0.0285
 6568SOL    HW131163   1.146   2.989   4.787 -1.2295  2.1186  1.2765
 6568SOL    HW231164   1.053   3.082   4.728  0.3868  1.3363 -0.8185
 6569SOL     OW31165   4.372   3.070   9.073  0.2153 -0.0677 -0.1040
 6569SOL    HW131166   4.461   3.042   9.097  0.0219  0.2043  0.9360
 6569SOL    HW231167   4.321   3.036   9.146 -0.1493 -0.5985 -0.6135
 6570SOL     OW31168   1.384   3.252   2.775  0.7045  0.0554 -0.4053
 6570SOL    HW131169   1.479   3.258   2.770  0.8322 -1.5411  0.2900
 6570SOL    HW231170   1.365   3.171   2.728  0.5612 -0.4890  0.6112
 6571SOL     OW31171   0.219   3.919   4.237 -0.7971 -0.5977  0.0703
 6571SOL    HW131172   0.247   3.842   4.287 -1.0652  0.6684  2.1610
 6571SOL    HW231173   0.250   3.893   4.150 -1.1424 -0.0713 -0.2030
 6572SOL     OW31174   1.641   0.324  13.008 -0.3775 -0.1629 -0.0791
 6572SOL    HW131175   1.732   0.296  13.001 -0.0789 -0.0721  3.4477
 6572SOL    HW231176   1.648   0.400  12.950 -2.3772  1.2781  1.5362
 6573SOL     OW31177   4.607   0.181   3.808 -0.1445  0.0100  0.6034
 6573SOL    HW131178   4.662   0.250   3.844  0.2465  0.3195 -0.5978
 6573SOL    HW231179   4.561   0.235   3.743  0.2876  0.4804  0.6936
 6574SOL     OW31180   2.522   0.493   8.236 -0.7348 -0.4992  0.5152
 6574SOL    HW131181   2.461   0.438   8.187 -0.5237 -2.3229  2.2645
 6574SOL    HW231182   2.516   0.579   8.195  3.1675 -0.3011  0.4093
 6575SOL     OW31183   4.546   2.473  11.076  0.0312  0.3569 -0.7064
 6575SOL    HW131184   4.590   2.490  11.159  0.0612 -2.0034 -0.2295
 6575SOL    HW231185   4.507   2.387  11.094 -0.3122  0.7185  0.2418
 6576SOL     OW31186   4.071   4.550   5.308 -0.1722 -0.1238 -0.0455
 6576SOL    HW131187   4.054   4.643   5.297  0.5018 -0.1914 -1.6997
 6576SOL    HW231188   4.153   4.550   5.356  0.2373  2.0443 -0.7626
 6577SOL     OW31189   1.538   3.007   1.662  0.3733 -0.4025  0.1296
 6577SOL    HW131190   1.455   3.022   1.616  0.0824  0.1357  0.8299
 6577SOL    HW231191   1.564   2.931   1.610 -1.8966 -1.3700  0.3902
 6578SOL     OW31192   4.642   1.062   9.493 -0.1973 -0.2501 -0.0338
 6578SOL    HW131193   4.611   1.152   9.483  1.7582  0.5170  0.8275
 6578SOL    HW231194   4.608   1.028   9.576 -1.8906  0.6107 -0.3680
 6579SOL     OW31195   0.328   1.691   5.994 -0.5235  0.3724  0.0636
 6579SOL    HW131196   0.280   1.636   5.932 -0.1551 -0.1521  0.2512
 6579SOL    HW231197   0.392   1.626   6.021 -0.7203  0.7932  1.5091
 6580SOL     OW31198   0.714   0.075   7.806 -0.4081  0.2200  0.0834
 6580SOL    HW131199   0.787   0.097   7.864 -0.0028  0.7664 -0.6274
 6580SOL    HW231200   0.720   0.155   7.754  2.2927 -0.4687 -0.6805
 6581SOL     OW31201   4.697   1.327  13.235  0.5027  0.0953 -0.2116
 6581SOL    HW131202   4.680   1.380  13.157  2.1459 -0.4761 -0.9573
 6581SOL    HW231203   0.058   1.357  13.270  0.8794  1.4191 -2.2600
 6582SOL     OW31204   3.912   0.864   6.138 -0.4585  0.2236  0.0750
 6582SOL    HW131205   3.987   0.844   6.082 -0.6164  2.5612 -0.9837
 6582SOL    HW231206   3.944   0.845   6.226  0.2961 -1.3814 -0.5552
 6583SOL     OW31207   2.731   4.240   2.097 -0.1817 -0.1107 -0.4486
 6583SOL    HW131208   2.662   4.305   2.088 -0.0652 -0.1805 -1.8151
 6583SOL    HW231209   2.768   4.256   2.184  1.3918 -1.6423 -0.8307
 6584SOL     OW31210   3.937   1.122   7.270 -0.0722  0.4645  0.1447
 6584SOL    HW131211   3.868   1.148   7.331  0.6759  0.8068  0.8435
 6584SOL    HW231212   4.009   1.182   7.289 -0.6829  1.0345  0.6872
 6585SOL     OW31213   4.266   0.489   7.258  0.0050  0.0763  0.4282
 6585SOL    HW131214   4.175   0.485   7.289  0.0787  1.2288  0.7770
 6585SOL    HW231215   4.258   0.447   7.172 -5.1440  0.1216  0.8919
 6586SOL     OW31216   3.538   1.068   3.832  0.4032 -0.1277 -0.1926
 6586SOL    HW131217   3.463   1.011   3.814  1.0127 -1.4181  1.2312
 6586SOL    HW231218   3.529   1.084   3.926  1.5860  3.7604 -0.7358
 6587SOL     OW31219   0.950   4.438   8.877  0.1331 -0.0514  0.5054
 6587SOL    HW131220   0.924   4.427   8.969  1.8677  0.0987  1.0142
 6587SOL    HW231221   0.990   4.353   8.857 -1.4246 -0.8744  0.9200
 6588SOL     OW31222   4.402   1.648   8.748 -0.0908 -0.1879 -0.3018
 6588SOL    HW131223   4.319   1.659   8.702 -0.4836  0.8274  0.6201
 6588SOL    HW231224   4.452   1.710   8.695  1.2377 -1.4223 -0.4861
 6589SOL     OW31225   2.544   3.195   3.577  0.3508  0.3990 -0.2281
 6589SOL    HW131226   2.531   3.279   3.534 -0.3483  0.4443  0.0664
 6589SOL    HW231227   2.613   3.216   3.640  0.3243  0.1816 -0.1251
 6590SOL     OW31228   4.372   3.029  12.844  0.6438 -0.3814 -0.3159
 6590SOL    HW131229   4.290   2.995  12.808 -0.7255  0.3308  2.0932
 6590SOL    HW231230   4.381   3.098  12.779  2.6128  0.2950  0.6670
 6591SOL     OW31231   3.363   0.672   2.645  0.7611  0.4447  0.0598
 6591SOL    HW131232   3.273   0.659   2.677 -0.1367 -0.1855 -2.7278
 6591SOL    HW231233   3.384   0.582   2.620 -0.4011  0.6040 -1.5140
 6592SOL     OW31234   2.316   1.468   7.156 -0.5073  0.6107 -0.2300
 6592SOL    HW131235   2.365   1.386   7.166 -1.3210  0.0915 -0.4180
 6592SOL    HW231236   2.289   1.459   7.065 -1.5859  0.6876  0.0725
 6593SOL     OW31237   0.208   3.324  15.533 -0.9616 -0.0754 -0.2765
 6593SOL    HW131238   0.189   3.408  15.575 -0.3196 -0.1363  0.1478
 6593SOL    HW231239   0.271   3.294  15.599  0.7836 -2.9171 -3.2092
 6594SOL     OW31240   4.538   4.527   8.370 -0.0762 -0.3575 -0.4084
 6594SOL    HW131241   4.526   4.503   8.462 -3.6636 -2.0611 -1.3020
 6594SOL    HW231242   4.464   4.480   8.331  0.5027 -1.2086 -0.4664
 6595SOL     OW31243   0.013   3.654   7.079  0.2600  0.5117 -0.1002
 6595SOL    HW131244   0.032   3.565   7.111  0.7537  0.1394 -1.4124
 6595SOL    HW231245   0.008   3.641   6.984 -2.2146 -2.0136  0.3677
 6596SOL     OW31246   0.709   4.713   0.942 -0.1365  0.5703  0.0117
 6596SOL    HW131247   0.771   4.643   0.959 -2.0492 -1.6015 -1.8148
 6596SOL    HW231248   0.684   4.712   0.849  0.0992  2.2950 -0.0676
 6597SOL     OW31249   1.709   2.284   3.165  0.7057  0.3907 -0.6748
 6597SOL    HW131250   1.727   2.349   3.233 -0.1735 -0.8674  0.7671
 6597SOL    HW231251   1.799   2.273   3.136  1.3148  0.4616  1.1867
 6598SOL     OW31252   0.516   3.809   7.222  0.3778  0.1952 -0.5102
 6598SOL    HW131253   0.435   3.771   7.257  0.9603 -0.3439  0.2597
 6598SOL    HW231254   0.500   3.808   7.128 -2.7000  0.0820 -0.0091
 6599SOL     OW31255   0.304   3.790   6.325 -0.4455 -0.1213 -0.2195
 6599SOL    HW131256   0.321   3.875   6.365 -0.9691 -0.6960  1.2140
 6599SOL    HW231257   0.307   3.731   6.400 -1.9131 -0.3136 -0.2961
 6600SOL     OW31258   0.982   2.985   5.160  0.0433 -0.2938 -0.0920
 6600SOL    HW131259   0.927   3.005   5.083 -0.4489 -0.2397  0.2738
 6600SOL    HW231260   0.912   2.958   5.220 -1.0253  1.1527 -0.6876
 6601SOL     OW31261   4.145   2.618   1.123  0.0731  0.0228 -0.3356
 6601SOL    HW131262   4.193   2.536   1.114  1.2810  0.6497  0.3822
 6601SOL    HW231263   4.168   2.661   1.041  1.8127 -0.3044 -0.0179
 6602SOL     OW31264   4.033   0.420   7.796  0.1090  0.6186  0.1566
 6602SOL    HW131265   4.068   0.337   7.764 -0.7976 -0.1538  1.1764
 6602SOL    HW231266   4.100   0.447   7.860 -1.2318  0.0923  1.7593
 6603SOL     OW31267   0.736   3.099   2.290  0.0538 -0.6764  0.2686
 6603SOL    HW131268   0.724   3.051   2.207  0.5595 -0.7557  0.2430
 6603SOL    HW231269   0.782   3.034   2.344  0.5819 -0.7435 -0.2575
 6604SOL     OW31270   4.034   2.551   5.665  0.5993 -0.2725  0.0306
 6604SOL    HW131271   4.129   2.550   5.660  0.7047  1.5084  1.7235
 6604SOL    HW231272   4.019   2.528   5.573  3.8249  0.2628 -0.6177
 6605SOL     OW31273   1.433   3.939   6.879 -0.4276 -0.6914  0.1824
 6605SOL    HW131274   1.377   4.014   6.896 -0.6124 -0.6229 -0.7347
 6605SOL    HW231275   1.390   3.897   6.804  0.1828  0.6545 -0.9097
 6606SOL     OW31276   3.525   1.017   1.865 -0.2871 -0.4513 -0.1724
 6606SOL    HW131277   3.609   1.011   1.909  0.4524 -1.7345 -1.7499
 6606SOL    HW231278   3.489   0.928   1.856  1.8267 -1.1425 -1.7050
 6607SOL     OW31279   2.819   3.159   4.618  0.3442 -0.8538 -0.2431
 6607SOL    HW131280   2.755   3.088   4.614  0.3832 -0.8699 -0.6156
 6607SOL    HW231281   2.877   3.110   4.677  0.5360 -2.1806 -1.5194
 6608SOL     OW31282   1.999   2.111   6.116  0.2408  0.3731  0.1726
 6608SOL    HW131283   2.092   2.133   6.126  0.3664 -1.2325  2.4386
 6608SOL    HW231284   1.965   2.185   6.167  2.5474  1.1209  0.6094
 6609SOL     OW31285   3.831   0.783   3.876 -0.4745 -0.5282 -0.6889
 6609SOL    HW131286   3.809   0.873   3.851  0.2197 -0.3991 -0.8151
 6609SOL    HW231287   3.772   0.762   3.949 -0.1492  1.8352  0.2259
 6610SOL     OW31288   0.079   4.070   5.422  0.3300 -0.3235  0.6142
 6610SOL    HW131289   0.126   4.118   5.354  0.8872  0.2725  1.4305
 6610SOL    HW231290   0.013   4.019   5.374  0.6532 -0.0423 -0.1421
 6611SOL     OW31291   2.835   2.745   7.879  0.1205  0.7824  0.3361
 6611SOL    HW131292   2.911   2.762   7.823  0.0928  0.3875  0.1734
 6611SOL    HW231293   2.827   2.650   7.889  1.4420  0.7802  1.4407
 6612SOL     OW31294   4.247   1.072   2.958  0.0108  0.0316  0.0917
 6612SOL    HW131295   4.272   1.043   2.870 -0.3618  0.6000 -0.2005
 6612SOL    HW231296   4.178   1.011   2.982 -1.2795  0.5889 -2.1759
 6613SOL     OW31297   4.135   0.012   6.497 -0.3474 -0.2416  0.4325
 6613SOL    HW131298   4.139   4.681   6.417 -1.3638  1.3435 -0.6741
 6613SOL    HW231299   4.225   0.001   6.528 -0.4731 -1.0919  0.4937
 6614SOL     OW31300   1.759   1.104   2.554 -0.0008  0.1468  0.3564
 6614SOL    HW131301   1.793   1.140   2.472 -2.4864 -1.4298 -1.3779
 6614SOL    HW231302   1.674   1.069   2.528 -0.4542  0.5879  1.2462
 6615SOL     OW31303   4.722   3.669   7.448 -0.4735 -0.1238 -0.6433
 6615SOL    HW131304   4.644   3.655   7.395 -0.0782 -1.9383 -0.7558
 6615SOL    HW231305   4.711   3.620   7.530 -2.0275  1.8827  0.3424
 6616SOL     OW31306   2.023   0.478   5.374  0.3670 -0.7030 -0.4249
 6616SOL    HW131307   2.010   0.480   5.469  1.2929 -1.2313 -0.2821
 6616SOL    HW231308   1.948   0.528   5.343 -0.5054 -0.2767  2.3967
 6617SOL     OW31309   2.509   3.190  14.871 -0.1030  0.4236  0.4650
 6617SOL    HW131310   2.493   3.100  14.844 -0.5670  0.4662  0.5964
 6617SOL    HW231311   2.538   3.189  14.962 -1.6957 -1.7185  0.9467
 6618SOL     OW31312   4.379   3.853  17.374  0.3302  0.0832  0.3106
 6618SOL    HW131313   4.445   3.860  17.306  0.2922 -1.6925  0.0944
 6618SOL    HW231314   4.311   3.904  17.330  1.0282 -0.6626 -1.5937
 6619SOL     OW31315   1.105   0.687   8.661 -0.5227  0.5473 -0.2357
 6619SOL    HW131316   1.021   0.652   8.631  0.2623 -2.0829  0.6392
 6619SOL    HW231317   1.114   0.668   8.754 -1.7503 -0.8802 -0.4057
 6620SOL     OW31318   3.935   0.824   6.567 -0.2602 -0.3090 -0.3267
 6620SOL    HW131319   3.928   0.917   6.590  1.0887  0.0752 -1.4726
 6620SOL    HW231320   3.842   0.806   6.584 -0.9749  2.9106 -0.8628
 6621SOL     OW31321   3.401   4.713  10.814 -0.2175  0.3437 -0.5816
 6621SOL    HW131322   3.447   0.068  10.844 -0.9524  0.4353  0.2774
 6621SOL    HW231323   3.452   4.642  10.853 -1.8109 -1.6166 -2.0110
 6622SOL     OW31324   0.311   3.813   3.990  0.2108 -0.2938  0.3112
 6622SOL    HW131325   0.288   3.722   3.971  0.7584 -0.5151  0.6930
 6622SOL    HW231326   0.237   3.858   3.950  0.6173 -0.4838 -0.6562
 6623SOL     OW31327   1.559   1.412  14.011 -0.3728 -0.2886  0.1391
 6623SOL    HW131328   1.647   1.411  14.048 -0.1132  1.3510 -0.4264
 6623SOL    HW231329   1.573   1.443  13.921 -2.5898  0.0204 -0.1021
 6624SOL     OW31330   4.568   0.623   1.075  0.3596 -0.2763 -0.6475
 6624SOL    HW131331   4.626   0.561   1.119 -2.3835 -0.9560  2.0602
 6624SOL    HW231332   4.493   0.568   1.051  0.3538 -0.1746 -0.8562
 6625SOL     OW31333   4.657   0.618   5.476  1.1217 -0.2852 -0.3637
 6625SOL    HW131334   4.691   0.573   5.399  0.7775 -1.9768  0.4696
 6625SOL    HW231335   4.645   0.710   5.452 -2.1968 -0.2793  1.3842
 6626SOL     OW31336   4.085   1.643   1.813 -0.1242 -0.1875 -0.2004
 6626SOL    HW131337   4.156   1.707   1.813 -0.0637 -0.2554 -0.9278
 6626SOL    HW231338   4.102   1.600   1.730 -0.4389  1.7425 -1.2716
 6627SOL     OW31339   4.167   2.196   3.781  0.1575  0.0722 -0.3793
 6627SOL    HW131340   4.201   2.151   3.704 -0.8359  1.0116 -1.3678
 6627SOL    HW231341   4.223   2.274   3.776  0.1775  0.3018  3.4383
 6628SOL     OW31342   3.220   0.806  14.933 -0.2509 -0.0529  0.3295
 6628SOL    HW131343   3.310   0.775  14.945 -0.2611 -0.8961 -1.6980
 6628SOL    HW231344   3.228   0.869  14.862  1.4384  0.2698  0.8127
 6629SOL     OW31345   0.714   3.222  10.404  0.6986 -0.3776  0.1553
 6629SOL    HW131346   0.641   3.280  10.383  1.2365 -0.1045 -0.9895
 6629SOL    HW231347   0.702   3.200  10.496  0.5217 -0.8861  0.0077
 6630SOL     OW31348   3.730   3.006   7.072 -0.1379 -0.4317 -0.3650
 6630SOL    HW131349   3.712   2.914   7.093 -2.0944 -0.3258 -1.5918
 6630SOL    HW231350   3.791   3.006   6.998 -0.8781 -2.0890 -0.9699
 6631SOL     OW31351   2.778   3.210   3.721  0.2929 -0.7922 -0.4578
 6631SOL    HW131352   2.830   3.160   3.784  0.5600 -2.1581 -1.7618
 6631SOL    HW231353   2.799   3.295   3.759  1.4148 -1.3880  0.2660
 6632SOL     OW31354   0.363   4.485  11.366  0.4910 -0.5317 -0.4793
 6632SOL    HW131355   0.291   4.514  11.311  0.5871  2.9773  1.2155
 6632SOL    HW231356   0.320   4.461  11.449  2.0851 -0.7431  0.2887
 6633SOL     OW31357   2.506   3.653   8.311 -0.2503  0.3579  0.1574
 6633SOL    HW131358   2.486   3.682   8.222 -0.8394  1.2810  0.5977
 6633SOL    HW231359   2.416   3.626   8.331 -0.5397  0.1086 -1.4332
 6634SOL     OW31360   3.581   4.171   5.897  0.2619  0.3209  0.0254
 6634SOL    HW131361   3.589   4.257   5.855  2.1885  1.4096  2.6373
 6634SOL    HW231362   3.664   4.165   5.943  0.0306 -1.0996  0.2629
 6635SOL     OW31363   1.543   0.095   2.667 -0.1098 -0.5635  0.4986
 6635SOL    HW131364   1.637   0.079   2.674 -0.1039 -0.0362  1.6697
 6635SOL    HW231365   1.503   0.024   2.717  1.4734 -1.6133  0.2589
 6636SOL     OW31366   3.538   0.369   5.225 -0.3996 -0.0402  0.2610
 6636SOL    HW131367   3.609   0.311   5.201 -0.4401  0.1478 -0.3258
 6636SOL    HW231368   3.548   0.439   5.160 -0.5802  1.7070  2.1015
 6637SOL     OW31369   2.585   0.023   4.487  0.2850  0.3862  0.0992
 6637SOL    HW131370   2.592   0.083   4.413 -0.9751 -1.6554 -1.6814
 6637SOL    HW231371   2.670   4.702   4.477  1.3946  2.0300  2.4042
 6638SOL     OW31372   2.468   3.521   1.088  0.6133 -0.0823  0.1765
 6638SOL    HW131373   2.498   3.595   1.141  1.5249 -0.4836  0.2303
 6638SOL    HW231374   2.416   3.457   1.137  0.3999 -0.3600 -0.4188
 6639SOL     OW31375   0.691   2.056   8.857 -0.0066 -0.8001  0.1985
 6639SOL    HW131376   0.733   2.009   8.930  2.9697  0.9594 -0.3667
 6639SOL    HW231377   0.625   2.113   8.895 -1.1243  0.3997 -3.6700
 6640SOL     OW31378   3.256   0.724  11.545 -0.2284 -0.7746 -0.6206
 6640SOL    HW131379   3.189   0.792  11.552  1.7173  1.1316 -0.4941
 6640SOL    HW231380   3.284   0.732  11.636  0.2129 -2.4400 -0.6222
 6641SOL     OW31381   4.254   2.744   6.324  0.0762  0.0573  0.4029
 6641SOL    HW131382   4.209   2.712   6.403 -0.1659  1.6875  0.9418
 6641SOL    HW231383   4.179   2.762   6.267  0.0512  0.0670  0.4386
 6642SOL     OW31384   3.941   3.068   5.593  0.4737 -0.0596 -0.4026
 6642SOL    HW131385   3.954   3.062   5.687 -0.0651 -0.8635 -0.3723
 6642SOL    HW231386   3.994   3.145   5.575  0.4092 -0.5301 -2.6941
 6643SOL     OW31387   4.404   4.188   6.928  0.0749 -0.1311  0.4339
 6643SOL    HW131388   4.414   4.130   7.004 -1.5273 -2.2230 -0.9615
 6643SOL    HW231389   4.320   4.156   6.896  0.6732  0.9705 -2.1913
 6644SOL     OW31390   2.774   1.065   6.472 -0.7145  0.3548  0.3376
 6644SOL    HW131391   2.835   0.992   6.462 -1.2706  0.0207 -0.6129
 6644SOL    HW231392   2.834   1.128   6.513  0.3116 -1.1571  1.1280
 6645SOL     OW31393   3.244   2.757   3.696 -0.2218  0.0435  0.6481
 6645SOL    HW131394   3.229   2.685   3.635  1.9858  1.3396 -1.4275
 6645SOL    HW231395   3.293   2.824   3.648  0.0271 -0.3007  0.4144
 6646SOL     OW31396   4.534   3.816   4.586  0.7121  0.3225 -0.0173
 6646SOL    HW131397   4.613   3.768   4.563 -0.5610 -0.5817 -2.5057
 6646SOL    HW231398   4.494   3.772   4.660  0.1320 -2.6355 -2.0811
 6647SOL     OW31399   3.472   1.615   1.855 -0.2162 -0.3104  0.1266
 6647SOL    HW131400   3.494   1.693   1.806 -0.3132  0.0680  0.6839
 6647SOL    HW231401   3.493   1.543   1.796  0.8200  0.3664 -0.3282
 6648SOL     OW31402   3.157   0.913   5.868 -0.0431 -0.1197  0.8830
 6648SOL    HW131403   3.076   0.955   5.839 -1.1435 -0.7267  3.1265
 6648SOL    HW231404   3.222   0.958   5.814 -1.5617  2.1767  0.9766
 6649SOL     OW31405   2.017   2.150   6.495  0.7434 -0.2987  0.0068
 6649SOL    HW131406   2.000   2.061   6.466  1.5849 -0.6364  0.5483
 6649SOL    HW231407   1.982   2.195   6.418 -1.5148 -3.2824 -0.7026
 6650SOL     OW31408   2.514   3.288   6.392  0.0033  0.0031 -1.0819
 6650SOL    HW131409   2.519   3.368   6.341  1.3233 -0.9007 -2.3699
 6650SOL    HW231410   2.424   3.292   6.425  0.3393  1.9823 -0.4397
 6651SOL     OW31411   2.960   1.222   6.269 -0.0439 -0.3173 -0.4691
 6651SOL    HW131412   2.995   1.227   6.358 -3.1177  1.7950  0.5987
 6651SOL    HW231413   3.033   1.267   6.228 -0.1117 -0.6426 -0.9549
 6652SOL     OW31414   4.176   1.851   8.942  0.0634  0.0171 -0.1029
 6652SOL    HW131415   4.200   1.812   8.858  0.9498  0.9661 -0.2885
 6652SOL    HW231416   4.252   1.825   8.994  0.4846  3.2759  0.8859
 6653SOL     OW31417   3.478   2.025  11.434  0.1518  0.2525  0.9860
 6653SOL    HW131418   3.437   1.971  11.366  1.1076 -1.1420  1.5285
 6653SOL    HW231419   3.409   2.054  11.495 -1.6532  1.0167 -1.4139
 6654SOL     OW31420   0.098   3.339   6.877 -0.6214 -0.4258 -0.0003
 6654SOL    HW131421   0.093   3.279   6.951 -2.5692  1.0463  1.0785
 6654SOL    HW231422   0.180   3.311   6.836 -0.0621 -0.7356  1.3394
 6655SOL     OW31423   0.341   2.991   6.892 -0.3767 -0.0512  0.6119
 6655SOL    HW131424   0.339   3.071   6.840 -0.0420  0.6959  1.7436
 6655SOL    HW231425   0.302   2.929   6.830  1.8289 -0.5176 -0.3077
 6656SOL     OW31426   0.350   4.603   8.808 -0.0931  0.2830  0.7220
 6656SOL    HW131427   0.361   4.567   8.720 -0.1032 -0.1297  0.8902
 6656SOL    HW231428   0.323   4.531   8.865  3.0408  0.2925  2.2675
 6657SOL     OW31429   2.551   2.766  12.622 -0.1307  0.4870 -0.4285
 6657SOL    HW131430   2.480   2.817  12.660 -0.2570  0.2525 -0.3529
 6657SOL    HW231431   2.500   2.691  12.593 -2.8361  1.6452  1.3290
 6658SOL     OW31432   1.671   3.803  15.901  0.0945 -0.0102  0.5560
 6658SOL    HW131433   1.745   3.815  15.841 -0.1441 -0.6737  0.1220
 6658SOL    HW231434   1.673   3.887  15.946  1.0580  0.6058 -0.6273
 6659SOL     OW31435   1.074   1.925  14.263 -0.0280  0.0754 -0.3108
 6659SOL    HW131436   1.158   1.899  14.301  0.3814  0.8762 -0.6621
 6659SOL    HW231437   1.025   1.847  14.288 -0.8903  0.4311 -0.9026
 6660SOL     OW31438   0.502   2.924   1.433  0.0812  0.0880 -0.3324
 6660SOL    HW131439   0.554   2.884   1.363 -0.1708 -0.3498 -0.2720
 6660SOL    HW231440   0.564   2.981   1.478  1.1434 -2.0994  0.9966
 6661SOL     OW31441   3.765   0.899   7.904  0.5046  0.2598 -0.0393
 6661SOL    HW131442   3.802   0.901   7.815 -1.1665  1.8674 -0.6907
 6661SOL    HW231443   3.842   0.907   7.961  1.0789  0.5973 -0.8493
 6662SOL     OW31444   3.994   1.494   7.469 -0.0931 -0.3433 -0.2254
 6662SOL    HW131445   3.994   1.492   7.373 -1.6400 -0.5900 -0.2181
 6662SOL    HW231446   4.089   1.489   7.484 -0.1985 -1.7891  0.0217
 6663SOL     OW31447   1.391   4.523   5.160  0.7926 -0.4145  0.2456
 6663SOL    HW131448   1.420   4.606   5.197 -0.7808 -0.3427  1.3332
 6663SOL    HW231449   1.426   4.524   5.071 -1.3408 -0.2566 -0.6089
 6664SOL     OW31450   0.245   1.445   7.145  0.5974  0.0377 -0.1459
 6664SOL    HW131451   0.223   1.477   7.233  2.3437  0.4673  0.1339
 6664SOL    HW231452   0.245   1.349   7.151 -0.1607 -0.1113 -2.6882
 6665SOL     OW31453   0.647   3.729   5.602 -0.0674 -0.2712 -0.5319
 6665SOL    HW131454   0.680   3.670   5.670  0.7614 -2.1080 -2.5523
 6665SOL    HW231455   0.593   3.673   5.547 -0.0117 -1.4868  0.6417
 6666SOL     OW31456   0.209   0.052   8.957  0.3967  0.6148  0.2262
 6666SOL    HW131457   0.265   4.710   8.914 -0.5219 -2.0018  2.9657
 6666SOL    HW231458   0.239   0.044   9.047 -1.5160 -1.5154  0.6724
 6667SOL     OW31459   0.140   2.525   6.359  0.2889  0.1147  0.4840
 6667SOL    HW131460   0.133   2.447   6.305 -1.9003 -0.2206  1.2461
 6667SOL    HW231461   0.095   2.488   6.435  0.3155 -1.4569 -0.2581
 6668SOL     OW31462   0.420   3.673   3.615  0.3550  0.4017  0.2377
 6668SOL    HW131463   0.334   3.669   3.655  0.3108  0.8602  0.1897
 6668SOL    HW231464   0.445   3.583   3.636  3.6710  1.3747  0.4523
 6669SOL     OW31465   2.782   3.650   7.366  0.6445  0.4930 -0.5822
 6669SOL    HW131466   2.826   3.641   7.450 -0.1835 -0.9497 -0.2933
 6669SOL    HW231467   2.711   3.707   7.394  1.3811  1.4850 -0.7504
 6670SOL     OW31468   3.189   2.868   4.064 -0.2280  0.2016  0.2764
 6670SOL    HW131469   3.198   2.961   4.044 -1.8623  0.1254 -0.7749
 6670SOL    HW231470   3.240   2.863   4.145  2.0894  4.4058 -0.9319
 6671SOL     OW31471   0.746   0.445  11.972 -0.5813  0.1555 -0.2074
 6671SOL    HW131472   0.704   0.516  12.021 -0.1831 -0.9472  1.7165
 6671SOL    HW231473   0.676   0.423  11.910 -2.5120 -0.0675  2.0573
 6672SOL     OW31474   4.030   2.815   1.830  0.6769 -0.3971 -0.6790
 6672SOL    HW131475   3.988   2.899   1.810  1.9388  0.6370  1.0032
 6672SOL    HW231476   4.000   2.760   1.758 -1.0837 -1.7365  1.0817
 6673SOL     OW31477   2.456   2.430   7.184  0.1403  0.6406 -1.0107
 6673SOL    HW131478   2.449   2.335   7.170 -2.0385  0.6602 -0.0317
 6673SOL    HW231479   2.547   2.424   7.156  0.5537  3.3979 -0.2258
 6674SOL     OW31480   3.440   2.384   2.379  0.2756  0.5039 -0.6093
 6674SOL    HW131481   3.347   2.409   2.371  0.8219  2.3746 -1.1021
 6674SOL    HW231482   3.486   2.466   2.365  2.9490 -1.2107 -1.8077
 6675SOL     OW31483   0.799   1.067   7.913 -0.1737  0.2048  0.1679
 6675SOL    HW131484   0.838   1.153   7.930 -0.4850 -0.4909  4.3588
 6675SOL    HW231485   0.880   1.025   7.883 -1.8936 -0.8846 -3.0596
 6676SOL     OW31486   3.811   1.430   8.515 -0.2700  0.0144  0.6230
 6676SOL    HW131487   3.761   1.362   8.562 -0.6060 -0.4242 -0.3734
 6676SOL    HW231488   3.870   1.380   8.459 -0.7404  0.6807 -0.4665
 6677SOL     OW31489   0.358   3.670   6.570 -0.0596  0.1130 -0.0571
 6677SOL    HW131490   0.418   3.608   6.613 -2.5760 -1.4244  1.2611
 6677SOL    HW231491   0.300   3.690   6.644 -0.4216  0.4821 -0.4484
 6678SOL     OW31492   2.328   0.074   1.614  0.2031  0.3792  0.0263
 6678SOL    HW131493   2.421   0.089   1.600  0.5076 -0.2578  1.4477
 6678SOL    HW231494   2.315   0.049   1.522 -0.4192 -1.9307  0.7462
 6679SOL     OW31495   0.244   1.541   1.762 -0.6130  0.1162  0.3674
 6679SOL    HW131496   0.262   1.473   1.697  0.2410 -0.9165  1.6795
 6679SOL    HW231497   0.149   1.537   1.755 -0.5656  0.1391 -0.2993
 6680SOL     OW31498   0.362   4.602   2.085  0.2226 -0.4124  0.3215
 6680SOL    HW131499   0.410   4.648   2.016 -1.3778  1.6395  0.6066
 6680SOL    HW231500   0.420   4.614   2.160  2.3885 -0.1104 -1.3825
 6681SOL     OW31501   0.925   1.435   5.799 -0.1281  0.6239 -0.1329
 6681SOL    HW131502   0.997   1.439   5.735  1.0152 -0.2149  1.1016
 6681SOL    HW231503   0.848   1.450   5.744  0.5139 -0.5986 -1.3552
 6682SOL     OW31504   4.256   3.247  11.886 -0.6280  0.3989  0.6081
 6682SOL    HW131505   4.213   3.162  11.894 -0.4243  0.2253 -0.1708
 6682SOL    HW231506   4.183   3.295  11.845 -0.7435 -0.5441 -0.2844
 6683SOL     OW31507   2.627   4.115   4.708 -0.2325 -0.3502 -0.1209
 6683SOL    HW131508   2.607   4.199   4.666 -0.3347  0.3731  1.3882
 6683SOL    HW231509   2.632   4.057   4.632 -0.0697 -1.1632  0.5122
 6684SOL     OW31510   1.918   0.336  17.111 -0.4555  0.3860 -0.2747
 6684SOL    HW131511   1.985   0.299  17.053 -0.6278  1.2250 -1.0030
 6684SOL    HW231512   1.876   0.253  17.135 -1.5568  0.9859 -0.1504
 6685SOL     OW31513   4.127   1.856  11.388  0.0033  0.4834 -0.0949
 6685SOL    HW131514   4.140   1.780  11.331 -0.8957 -0.2367  0.6580
 6685SOL    HW231515   4.161   1.923  11.328  0.5641 -1.3168 -1.7737
 6686SOL     OW31516   0.770   1.568   7.852  0.0851 -0.1150 -0.5642
 6686SOL    HW131517   0.849   1.527   7.886 -1.0795 -1.6972  0.2370
 6686SOL    HW231518   0.737   1.492   7.803 -0.0409  1.3069 -2.7126
 6687SOL     OW31519   4.081   4.278   7.947 -0.3249 -0.3040 -0.4436
 6687SOL    HW131520   4.045   4.366   7.955  1.0797  0.3105 -0.9284
 6687SOL    HW231521   4.000   4.226   7.952 -2.0272  2.2052 -2.1109
 6688SOL     OW31522   4.524   2.009   2.636  0.0106  0.1725  0.1226
 6688SOL    HW131523   4.479   1.935   2.675  0.4317 -0.4385 -0.5504
 6688SOL    HW231524   4.606   1.971   2.602 -0.0309  2.4807 -2.5882
 6689SOL     OW31525   2.462   1.722  11.123  0.4995  0.0414 -0.1605
 6689SOL    HW131526   2.433   1.710  11.213 -1.0682  0.4532 -0.6221
 6689SOL    HW231527   2.403   1.688  11.057 -1.5053 -3.5922  3.5331
 6690SOL     OW31528   1.179   0.893  17.138 -0.5337 -0.4492  0.0806
 6690SOL    HW131529   1.106   0.868  17.195 -1.6313  1.8131 -0.3553
 6690SOL    HW231530   1.206   0.975  17.179  0.1384 -0.4103 -0.4435
 6691SOL     OW31531   0.295   3.829   3.420  0.0933 -0.1334  0.4829
 6691SOL    HW131532   0.344   3.757   3.459 -0.1707  0.8467  2.6231
 6691SOL    HW231533   0.267   3.789   3.337  0.4122  0.4257  0.0998
 6692SOL     OW31534   2.366   0.595   7.457  0.2029 -0.5585  0.1031
 6692SOL    HW131535   2.435   0.660   7.444 -0.1940 -0.3142 -0.7950
 6692SOL    HW231536   2.286   0.637   7.487 -0.1077 -1.0761 -0.0042
 6693SOL     OW31537   1.552   0.379  16.273 -0.0545  0.3686 -0.6445
 6693SOL    HW131538   1.524   0.468  16.294  0.4236  0.2416  0.5373
 6693SOL    HW231539   1.476   0.344  16.225 -1.7757  2.1192  0.7910
 6694SOL     OW31540   3.964   3.960   7.690  0.2406  0.2527 -0.1421
 6694SOL    HW131541   4.011   3.982   7.609 -1.2249  0.4500 -0.9252
 6694SOL    HW231542   3.874   3.944   7.661  0.9522 -0.1951 -2.1228
 6695SOL     OW31543   1.050   0.620  12.192  0.0059  0.2143 -0.0782
 6695SOL    HW131544   1.000   0.670  12.126 -0.3845 -0.3097 -0.1807
 6695SOL    HW231545   1.025   0.670  12.270  0.5588  1.4406 -0.6797
 6696SOL     OW31546   2.561   2.405   0.333 -0.3751 -0.0923 -0.6746
 6696SOL    HW131547   2.613   2.368   0.404 -0.2882 -1.7232 -1.5993
 6696SOL    HW231548   2.627   2.440   0.274 -0.4595  2.3036  0.6315
 6697SOL     OW31549   3.949   3.199   8.925 -0.4161  0.4818 -0.1639
 6697SOL    HW131550   3.873   3.143   8.913 -1.4601  1.9385 -0.3588
 6697SOL    HW231551   3.971   3.191   9.018  0.4204 -0.6559 -0.4631
 6698SOL     OW31552   4.235   3.646   5.349 -0.0062  0.8227 -0.3912
 6698SOL    HW131553   4.254   3.698   5.427 -1.6160 -1.6100  1.6309
 6698SOL    HW231554   4.309   3.585   5.338  0.4623  1.5272 -1.1043
 6699SOL     OW31555   1.565   2.176   4.651 -0.6217 -0.1073 -0.2473
 6699SOL    HW131556   1.642   2.232   4.659  0.4317 -1.1649 -3.1699
 6699SOL    HW231557   1.556   2.164   4.557  0.8229 -4.1662  0.1284
 6700SOL     OW31558   2.758   4.683   7.230 -0.0841  0.3535  0.1949
 6700SOL    HW131559   2.805   4.604   7.202  0.6874  0.2245  1.8382
 6700SOL    HW231560   2.683   4.692   7.171 -0.6535  0.7833  0.9868
 6701SOL     OW31561   1.908   3.242  14.670 -0.5002 -0.2388  0.2277
 6701SOL    HW131562   2.003   3.253  14.677 -0.7780  1.7494  0.8844
 6701SOL    HW231563   1.888   3.218  14.760  0.6975  0.9967  0.8145
 6702SOL     OW31564   4.084   1.082   2.043 -0.4399 -0.0922  0.2630
 6702SOL    HW131565   4.092   1.145   2.115  1.5946 -0.7466  0.6187
 6702SOL    HW231566   4.055   1.007   2.096  2.2650 -0.5321  1.1315
 6703SOL     OW31567   0.775   0.490   3.082  0.0048  0.1840 -0.4561
 6703SOL    HW131568   0.753   0.411   3.131  1.1646 -0.3915 -0.8688
 6703SOL    HW231569   0.766   0.460   2.991 -1.6176 -1.1757  0.1462
 6704SOL     OW31570   4.101   2.056  14.465 -0.5689 -0.6839  0.6285
 6704SOL    HW131571   4.104   2.147  14.493 -0.4302 -1.0178  1.7261
 6704SOL    HW231572   4.027   2.053  14.405 -0.5830  1.9845  0.5095
 6705SOL     OW31573   2.974   2.337   3.908  0.0858 -0.1054 -0.1854
 6705SOL    HW131574   3.046   2.277   3.888  1.0301  0.7363  0.6584
 6705SOL    HW231575   3.026   2.396   3.962 -0.4584  1.0873 -0.9635
 6706SOL     OW31576   2.018   3.327   5.745  0.0549 -0.7568  0.0479
 6706SOL    HW131577   1.992   3.404   5.796  1.2742  0.4218 -1.0999
 6706SOL    HW231578   1.937   3.278   5.756  0.2155 -1.0887 -0.2722
 6707SOL     OW31579   3.002   0.657   1.858  0.6809 -0.6762  0.3999
 6707SOL    HW131580   3.051   0.707   1.924 -0.0701 -0.0816  0.4979
 6707SOL    HW231581   2.926   0.715   1.854  0.4359 -0.9396  1.3132
 6708SOL     OW31582   1.959   0.897   6.717  0.4696  0.2793  0.2324
 6708SOL    HW131583   1.933   0.906   6.808 -1.7284 -0.8503 -0.3024
 6708SOL    HW231584   1.966   0.988   6.688  2.3637 -0.0601 -0.3948
 6709SOL     OW31585   3.126   0.249  14.380 -0.4729 -0.5051 -0.4480
 6709SOL    HW131586   3.034   0.236  14.405 -0.9471  3.4393 -0.1352
 6709SOL    HW231587   3.164   0.257  14.467 -1.5552  2.2322 -0.2016
 6710SOL     OW31588   4.283   1.797   6.713  0.0124  0.0269 -0.0334
 6710SOL    HW131589   4.247   1.873   6.759  2.0044 -0.0398  1.6498
 6710SOL    HW231590   4.295   1.747   6.794 -1.1396 -0.5921 -0.2544
 6711SOL     OW31591   4.079   0.740   3.915 -0.0724  0.1093 -1.0693
 6711SOL    HW131592   4.111   0.817   3.869  1.8952 -1.1340 -1.8042
 6711SOL    HW231593   3.990   0.723   3.885 -1.0172 -0.1157  1.9011
 6712SOL     OW31594   4.464   0.969  13.050 -0.7161 -0.0117 -0.1251
 6712SOL    HW131595   4.484   0.894  12.996  0.3816 -0.5791  1.0718
 6712SOL    HW231596   4.370   0.952  13.040 -0.9831  1.2035  0.3071
 6713SOL     OW31597   3.237   3.295  16.914 -0.4523 -0.0973  0.0729
 6713SOL    HW131598   3.144   3.312  16.925 -0.2220  1.1724  0.0560
 6713SOL    HW231599   3.276   3.286  17.001  2.5502  0.1135 -1.2457
 6714SOL     OW31600   2.972   1.268   8.620 -0.5732 -0.0856  0.3375
 6714SOL    HW131601   2.959   1.287   8.527  0.7252  0.0698  0.1884
 6714SOL    HW231602   3.062   1.302   8.616 -0.6034  0.0363  0.6757
 6715SOL     OW31603   4.503   3.307   1.760  0.5255 -0.0810 -0.1568
 6715SOL    HW131604   4.574   3.365   1.790 -0.9178  1.0948  0.9809
 6715SOL    HW231605   4.549   3.238   1.712 -0.1269 -1.5489  1.3585
 6716SOL     OW31606   1.264   0.589   7.510 -0.3123 -0.3912 -0.5997
 6716SOL    HW131607   1.231   0.510   7.553  0.7854 -0.5944 -0.1374
 6716SOL    HW231608   1.340   0.555   7.464  1.2363  1.6275  0.4583
 6717SOL     OW31609   3.542   1.766  16.290  0.1096 -0.0492  0.9174
 6717SOL    HW131610   3.473   1.804  16.235 -0.6486 -2.3228  0.2893
 6717SOL    HW231611   3.487   1.713  16.347 -0.7211  0.8163  0.9238
 6718SOL     OW31612   3.373   3.356   3.534 -0.2235 -0.1792  0.4235
 6718SOL    HW131613   3.384   3.408   3.455 -0.1085 -1.6301 -0.5164
 6718SOL    HW231614   3.462   3.327   3.555  0.2168  0.7261 -0.2035
 6719SOL     OW31615   1.720   3.982  12.428  0.2316  0.2140 -0.2212
 6719SOL    HW131616   1.808   3.958  12.400  0.5852  1.1776  0.0832
 6719SOL    HW231617   1.722   3.934  12.510  1.1956  1.9461  0.7661
 6720SOL     OW31618   3.491   1.270   7.133  0.1184 -0.1820 -0.5467
 6720SOL    HW131619   3.488   1.175   7.144 -0.1021 -0.1543 -0.3652
 6720SOL    HW231620   3.586   1.285   7.132  0.0184  0.7929  2.5578
 6721SOL     OW31621   1.642   4.669  10.795  0.0069  0.4742  0.8893
 6721SOL    HW131622   1.639   4.574  10.806  0.3677  0.4625  0.8604
 6721SOL    HW231623   1.735   4.687  10.804  0.3369  1.0631 -3.4504
 6722SOL     OW31624   2.109   0.571   4.550 -0.0111 -0.5183  0.0029
 6722SOL    HW131625   2.092   0.663   4.528  1.3824  0.4451  3.0433
 6722SOL    HW231626   2.071   0.577   4.638  2.8505 -0.4125  1.2145
 6723SOL     OW31627   2.517   3.072   5.394 -0.3319  0.1815 -0.8186
 6723SOL    HW131628   2.537   2.986   5.429 -0.2902  1.0611  1.2944
 6723SOL    HW231629   2.605   3.103   5.372  0.5923 -1.4909  0.5628
 6724SOL     OW31630   0.369   2.538  17.637 -0.7525  0.1704  0.0231
 6724SOL    HW131631   0.385   2.612  17.579 -0.7367 -0.5759 -0.9210
 6724SOL    HW231632   0.388   2.457  17.589 -1.1028 -0.7784  1.4693
 6725SOL     OW31633   2.090   1.930   8.631 -0.0923  0.5450  0.1061
 6725SOL    HW131634   2.178   1.959   8.608  0.2913 -0.9062 -0.3116
 6725SOL    HW231635   2.107   1.857   8.691 -1.1709  0.8768  0.8244
 6726SOL     OW31636   3.377   0.414   5.615  0.2276 -0.2016 -0.1843
 6726SOL    HW131637   3.411   0.401   5.703  0.0595 -0.3462 -0.1410
 6726SOL    HW231638   3.466   0.415   5.579  0.2589 -1.0644 -0.1266
 6727SOL     OW31639   4.032   2.036   7.861  0.1117  0.1856  0.1111
 6727SOL    HW131640   4.102   2.017   7.799  0.3278  1.0338  0.0977
 6727SOL    HW231641   4.066   1.998   7.942 -0.3873 -2.2635 -0.8151
 6728SOL     OW31642   1.168   4.034   3.414  0.1144  0.2019 -0.4610
 6728SOL    HW131643   1.218   4.097   3.362 -1.8612  0.5488 -1.9777
 6728SOL    HW231644   1.182   3.952   3.367 -0.7578  0.3434 -0.9738
 6729SOL     OW31645   4.311   3.771   5.935  1.1261  0.1978  0.3521
 6729SOL    HW131646   4.231   3.815   5.910 -1.0879 -3.3140  1.2759
 6729SOL    HW231647   4.305   3.701   5.870  0.4795  1.7800 -1.2860
 6730SOL     OW31648   0.694   4.395   8.750  0.1724 -0.2089 -0.1690
 6730SOL    HW131649   0.781   4.423   8.780  0.7057 -1.4793 -0.5633
 6730SOL    HW231650   0.670   4.466   8.690 -1.9987 -0.0929  0.8120
 6731SOL     OW31651   1.326   0.116   3.682 -0.3968  0.2714  0.2306
 6731SOL    HW131652   1.304   0.039   3.629 -1.8865  0.2016  0.9511
 6731SOL    HW231653   1.242   0.125   3.727 -1.2192 -0.3944 -1.1552
 6732SOL     OW31654   1.797   0.333   6.046 -0.2960 -0.3640 -0.1996
 6732SOL    HW131655   1.766   0.367   5.962  2.1540 -2.2481 -1.8839
 6732SOL    HW231656   1.890   0.356   6.042 -0.4498  0.0784 -1.3030
 6733SOL     OW31657   1.565   0.223  17.595 -0.4445  0.1211  0.0128
 6733SOL    HW131658   1.515   0.243  17.674  2.2005  0.2136  1.6718
 6733SOL    HW231659   1.630   0.293  17.591 -0.7880  0.3408 -1.5917
 6734SOL     OW31660   1.952   2.772   1.901 -0.8160 -0.0928  0.0315
 6734SOL    HW131661   1.902   2.787   1.820 -0.6987  0.7695  0.1178
 6734SOL    HW231662   2.024   2.834   1.888 -1.0176  0.3654  1.0719
 6735SOL     OW31663   4.498   3.311   3.807 -0.7904  0.2091 -0.2001
 6735SOL    HW131664   4.475   3.246   3.873 -2.5563 -0.1183 -1.1332
 6735SOL    HW231665   4.444   3.282   3.734 -1.6857 -3.4161  1.9093
 6736SOL     OW31666   1.874   3.222  14.409 -0.0201  0.0563  0.5027
 6736SOL    HW131667   1.893   3.245  14.500  2.9388  0.4012 -0.1962
 6736SOL    HW231668   1.936   3.273  14.357 -1.1464  1.7262  0.8044
 6737SOL     OW31669   3.563   1.803   5.169 -0.3876 -0.6092  0.4864
 6737SOL    HW131670   3.542   1.753   5.248  0.1034  0.8596  1.5518
 6737SOL    HW231671   3.478   1.800   5.124  0.5187  0.1766 -1.2482
 6738SOL     OW31672   3.260   0.687   6.277 -0.1218 -0.4042  0.0264
 6738SOL    HW131673   3.322   0.745   6.320 -0.3823 -0.0086 -0.1363
 6738SOL    HW231674   3.218   0.748   6.216  2.9038  0.9965 -0.6371
 6739SOL     OW31675   2.524   1.553   3.148 -0.4105 -0.0760 -0.0112
 6739SOL    HW131676   2.519   1.548   3.052  1.8740  0.7569 -0.1738
 6739SOL    HW231677   2.617   1.532   3.148 -0.2722  0.6169  3.3667
 6740SOL     OW31678   2.879   0.363   7.706 -0.2584  0.1649 -0.1286
 6740SOL    HW131679   2.960   0.335   7.665  0.3987  1.3474  0.3772
 6740SOL    HW231680   2.851   0.406   7.625 -0.6587  1.2328  0.5720
 6741SOL     OW31681   4.476   2.097   6.029 -0.0367 -0.1532 -0.2732
 6741SOL    HW131682   4.502   2.177   6.074 -1.4935  1.7051 -2.7200
 6741SOL    HW231683   4.550   2.044   6.057  0.9694  0.2472 -2.1908
 6742SOL     OW31684   1.265   3.613   6.434 -0.1679  0.6409  0.5918
 6742SOL    HW131685   1.293   3.655   6.353 -0.0035  1.9843  1.3589
 6742SOL    HW231686   1.324   3.655   6.496  2.0630  1.5447 -2.1467
 6743SOL     OW31687   1.134   3.907   6.968  0.0177  0.3089 -0.0034
 6743SOL    HW131688   1.055   3.891   6.916  1.0080 -4.2636 -0.0896
 6743SOL    HW231689   1.106   3.967   7.037 -0.7036 -0.7187  0.5980
 6744SOL     OW31690   0.984   1.941   3.042 -0.0425 -0.1793 -0.3440
 6744SOL    HW131691   0.971   1.870   3.105 -1.4159  0.5759  0.2319
 6744SOL    HW231692   0.950   1.896   2.965  2.1540  1.8352 -2.4861
 6745SOL     OW31693   3.800   0.968   5.348 -0.2064 -0.1532 -0.2398
 6745SOL    HW131694   3.752   0.902   5.299  0.2247 -1.5990  1.2878
 6745SOL    HW231695   3.886   0.938   5.318  0.7951  2.0255  0.4273
 6746SOL     OW31696   2.711   3.166   4.354 -0.0289 -0.2211  0.4486
 6746SOL    HW131697   2.627   3.207   4.375 -0.0614 -0.2672  0.4070
 6746SOL    HW231698   2.763   3.189   4.431 -1.5147 -2.8859  2.2352
 6747SOL     OW31699   4.488   0.457   7.824 -0.4393  0.1340  0.4734
 6747SOL    HW131700   4.503   0.368   7.790 -0.0178 -0.8743  3.2940
 6747SOL    HW231701   4.529   0.512   7.757 -2.6604  1.4664  0.2186
 6748SOL     OW31702   0.644   3.320   7.832  0.1371  0.4485  0.0549
 6748SOL    HW131703   0.655   3.226   7.848 -1.0552  0.5806  1.5642
 6748SOL    HW231704   0.602   3.354   7.910  0.4794 -0.9105  0.8312
 6749SOL     OW31705   4.216   1.129   0.244  0.4058  0.3273  0.6328
 6749SOL    HW131706   4.176   1.109   0.160 -0.9248 -0.9572  1.5680
 6749SOL    HW231707   4.174   1.065   0.301  0.0032  0.6131  0.6546
 6750SOL     OW31708   4.394   4.684   5.770  0.8877  0.2186 -0.1159
 6750SOL    HW131709   4.355   4.597   5.781 -0.9886  1.4126  2.7443
 6750SOL    HW231710   4.443   4.682   5.851 -0.0485 -0.8206  0.4176
 6751SOL     OW31711   2.472   3.850   5.575  0.0012 -0.2857 -0.3504
 6751SOL    HW131712   2.528   3.870   5.651  1.9333  2.6768 -2.5404
 6751SOL    HW231713   2.469   3.931   5.524  2.3552  0.3327  0.4725
 6752SOL     OW31714   1.388   1.912   5.087 -0.2510 -0.0463 -0.7659
 6752SOL    HW131715   1.396   1.978   5.018 -1.4276  1.0034  0.1036
 6752SOL    HW231716   1.332   1.852   5.038 -1.1457 -0.7320  1.1027
 6753SOL     OW31717   3.280   0.773  12.848 -0.1974 -0.1720 -0.7841
 6753SOL    HW131718   3.204   0.827  12.870  0.1006 -0.4722  0.9059
 6753SOL    HW231719   3.297   0.744  12.937 -2.5716  2.5523  0.5627
 6754SOL     OW31720   0.053   0.118   1.523  0.4123  0.1629  0.4615
 6754SOL    HW131721   0.003   0.200   1.532  1.3778  0.9035 -0.8038
 6754SOL    HW231722   0.136   0.159   1.497 -0.3786  2.3917  1.4233
 6755SOL     OW31723   3.379   2.574   7.240 -0.6015  0.1217  0.2043
 6755SOL    HW131724   3.305   2.574   7.301 -1.1301  3.2642 -0.4004
 6755SOL    HW231725   3.337   2.521   7.173  0.6066 -1.2232  0.5296
 6756SOL     OW31726   0.511   4.522   9.266 -0.4010 -0.1636  0.1878
 6756SOL    HW131727   0.500   4.428   9.282  1.2687 -0.3678  0.1663
 6756SOL    HW231728   0.483   4.563   9.348  0.5461 -0.4577  0.6517
 6757SOL     OW31729   3.388   4.673   2.788 -0.0830  0.4360  0.7346
 6757SOL    HW131730   3.437   0.027   2.759 -1.8947  1.4941  0.5099
 6757SOL    HW231731   3.306   4.680   2.739 -0.5696 -1.1383  1.3289
 6758SOL     OW31732   4.470   1.241   6.102  0.0879 -0.5912  0.3080
 6758SOL    HW131733   4.466   1.186   6.180 -0.3934 -0.3649  0.4484
 6758SOL    HW231734   4.563   1.256   6.087 -0.4598  2.8403  0.2894
 6759SOL     OW31735   3.774   4.544   2.694  0.2823 -0.1955 -0.1627
 6759SOL    HW131736   3.689   4.528   2.735  0.7854  3.1024  2.1881
 6759SOL    HW231737   3.768   4.639   2.685  1.0226  0.0804  2.4514
 6760SOL     OW31738   3.725   0.105   6.914 -0.1850 -0.4896  0.2688
 6760SOL    HW131739   3.645   0.157   6.918 -0.9153 -1.7097  1.6474
 6760SOL    HW231740   3.697   0.014   6.926 -1.5461  0.2083  2.3870
 6761SOL     OW31741   2.945   2.687   6.204 -0.2433  0.5748 -0.1991
 6761SOL    HW131742   2.973   2.689   6.295 -0.1055 -0.0769 -0.2257
 6761SOL    HW231743   2.863   2.735   6.218  0.3480  1.0177  1.7469
 6762SOL     OW31744   0.108   1.174  11.113 -0.3199  0.5207  0.8602
 6762SOL    HW131745   0.100   1.255  11.164 -1.8258  0.2700  1.0347
 6762SOL    HW231746   0.020   1.148  11.084  0.4220 -0.0037 -0.9293
 6763SOL     OW31747   0.573   0.995   4.811  0.3969 -0.1432 -0.0402
 6763SOL    HW131748   0.596   0.916   4.763 -1.0188 -0.3898 -0.3133
 6763SOL    HW231749   0.482   1.005   4.783  1.7670  1.4773 -3.9574
 6764SOL     OW31750   0.034   4.146   8.702 -0.4502 -0.4152  0.1579
 6764SOL    HW131751   0.121   4.179   8.723  0.3261 -1.3584 -1.5955
 6764SOL    HW231752   0.013   4.119   8.792 -3.4578  1.3224 -0.0194
 6765SOL     OW31753   1.259   3.869   4.521  0.0747 -0.0121  0.6313
 6765SOL    HW131754   1.322   3.893   4.589  1.2355  0.2659 -0.5407
 6765SOL    HW231755   1.297   3.891   4.436  2.8753 -4.1997  0.8256
 6766SOL     OW31756   0.774   3.392   6.704 -0.1204  0.3101  0.4683
 6766SOL    HW131757   0.703   3.425   6.760 -0.5186 -0.5433  0.4617
 6766SOL    HW231758   0.841   3.450   6.740 -1.3373  0.9185  1.7748
 6767SOL     OW31759   2.094   2.962  12.744 -0.3445 -0.0072  0.0097
 6767SOL    HW131760   2.093   3.033  12.680  0.3082  0.3604  0.4101
 6767SOL    HW231761   2.032   2.999  12.807 -0.0251  0.1558  0.2324
 6768SOL     OW31762   1.355   3.782   9.631 -0.3354 -0.1688 -0.5321
 6768SOL    HW131763   1.348   3.687   9.627 -0.5028 -0.0722 -2.7967
 6768SOL    HW231764   1.443   3.782   9.668 -1.1082  0.8694  1.2909
 6769SOL     OW31765   2.493   3.195  14.184 -0.3975 -0.6727  0.0858
 6769SOL    HW131766   2.583   3.220  14.165 -0.5415 -0.6143 -0.5046
 6769SOL    HW231767   2.467   3.131  14.118  0.7289 -2.0947  1.0080
 6770SOL     OW31768   2.409   0.662  15.027  0.2065 -0.0327 -0.2160
 6770SOL    HW131769   2.503   0.657  15.042 -0.2090  1.5968  2.8523
 6770SOL    HW231770   2.382   0.689  15.114  2.9501  1.4419  0.1627
 6771SOL     OW31771   1.405   0.828   1.938 -0.2275  0.4332 -0.1744
 6771SOL    HW131772   1.328   0.835   1.996 -0.2458  2.5216 -0.4325
 6771SOL    HW231773   1.388   0.905   1.884 -1.3599  0.8391  0.7530
 6772SOL     OW31774   3.556   0.485   2.438  0.5740  0.1965  0.2309
 6772SOL    HW131775   3.581   0.575   2.418  0.7412  0.1036  0.0094
 6772SOL    HW231776   3.644   0.458   2.465 -0.1110 -0.5441  1.7232
 6773SOL     OW31777   4.269   4.189   7.728  0.5182  0.2164 -0.2916
 6773SOL    HW131778   4.326   4.144   7.790 -1.3284  1.4245  2.2875
 6773SOL    HW231779   4.239   4.262   7.782  2.2466  0.6412  0.0755
 6774SOL     OW31780   0.313   3.874   6.066  0.7513 -0.4764  0.1670
 6774SOL    HW131781   0.309   3.832   6.152 -1.2616  0.0836  0.3502
 6774SOL    HW231782   0.349   3.799   6.019  0.5451 -0.5514  0.1267
 6775SOL     OW31783   1.947   4.460   3.880  0.4191  0.0793  0.2103
 6775SOL    HW131784   1.914   4.545   3.909  0.8540  0.7225 -1.2322
 6775SOL    HW231785   1.894   4.450   3.801 -1.4572 -0.1083  1.4625
 6776SOL     OW31786   1.856   0.151   3.018 -0.0829  0.1048  0.0240
 6776SOL    HW131787   1.814   0.124   2.936 -0.2561 -2.0870  0.8348
 6776SOL    HW231788   1.943   0.112   3.017  0.1385  0.6037 -0.3382
 6777SOL     OW31789   4.214   0.698  13.323 -0.5162 -0.2975 -0.0277
 6777SOL    HW131790   4.238   0.605  13.321 -2.0958 -0.6613 -2.8338
 6777SOL    HW231791   4.174   0.707  13.409  0.2769 -0.1222  0.3231
 6778SOL     OW31792   4.618   1.358   4.475  0.3217  0.6356  0.1291
 6778SOL    HW131793   4.676   1.288   4.505 -1.1839 -1.0092 -0.8479
 6778SOL    HW231794   4.565   1.306   4.415  0.4386  1.4126 -0.6415
 6779SOL     OW31795   4.375   1.016   7.610 -0.2499  0.5931 -0.1314
 6779SOL    HW131796   4.316   0.946   7.584 -0.1442  0.3161  0.3782
 6779SOL    HW231797   4.440   0.999   7.543 -0.3339  1.6369 -0.4892
 6780SOL     OW31798   1.766   4.675   9.285 -0.0822 -0.1685  0.0414
 6780SOL    HW131799   1.755   0.029   9.341 -0.8058 -1.5834  1.8228
 6780SOL    HW231800   1.806   0.002   9.213 -1.9772  0.0356 -0.8937
 6781SOL     OW31801   2.953   4.383   0.585 -0.3414  0.3310 -0.6224
 6781SOL    HW131802   2.879   4.425   0.541  0.1292  1.5749 -0.2388
 6781SOL    HW231803   2.914   4.385   0.673  0.9559 -1.5197 -0.0064
 6782SOL     OW31804   2.203   2.873  13.111  0.0320 -0.0813 -0.2198
 6782SOL    HW131805   2.214   2.825  13.194  0.8616  0.1786 -0.1779
 6782SOL    HW231806   2.196   2.962  13.146 -0.1883  0.5080 -1.7750
 6783SOL     OW31807   1.288   1.554   2.829 -0.2322 -0.1176  0.1495
 6783SOL    HW131808   1.370   1.517   2.861 -0.1811 -1.4969 -1.5101
 6783SOL    HW231809   1.289   1.640   2.871 -0.4831  0.8853 -1.8694
 6784SOL     OW31810   2.486   3.683   9.235 -0.2748  0.0279  0.0624
 6784SOL    HW131811   2.408   3.633   9.263  0.1210 -0.6651 -0.0622
 6784SOL    HW231812   2.545   3.609   9.220  0.5267  1.0017 -1.4555
 6785SOL     OW31813   3.363   1.270   5.946 -0.2031 -0.1802  0.6927
 6785SOL    HW131814   3.446   1.295   5.904 -0.0576  1.6742  2.0435
 6785SOL    HW231815   3.403   1.263   6.033  1.0687  4.4339  0.5222
 6786SOL     OW31816   0.251   0.652   3.094 -0.2620  0.0756  0.1872
 6786SOL    HW131817   0.186   0.679   3.029 -0.5530 -0.8139  0.1156
 6786SOL    HW231818   0.239   0.715   3.166  0.6531 -0.2810  0.6458
 6787SOL     OW31819   2.278   0.042   4.943  0.3855  0.0704 -0.4080
 6787SOL    HW131820   2.208   0.014   5.002  0.7993 -1.2397 -0.5577
 6787SOL    HW231821   2.351   0.036   5.003 -1.0651 -1.2709  1.2098
 6788SOL     OW31822   0.820   4.153   3.256  0.4615  0.0654 -0.0529
 6788SOL    HW131823   0.748   4.215   3.271  0.2568 -0.3497  0.7092
 6788SOL    HW231824   0.774   4.080   3.298  0.2046  0.4814  0.4061
 6789SOL     OW31825   1.915   1.524  10.325 -0.2386 -0.4460 -0.1020
 6789SOL    HW131826   1.857   1.593  10.296 -0.8502 -0.7677  0.3527
 6789SOL    HW231827   1.975   1.575  10.379  0.5828 -1.6440  0.1328
 6790SOL     OW31828   1.684   1.991   2.442  0.2279 -0.1077  0.0458
 6790SOL    HW131829   1.741   1.920   2.413  0.7363 -0.3384  1.6352
 6790SOL    HW231830   1.737   2.069   2.422  0.6378 -0.8722 -1.9046
 6791SOL     OW31831   2.275   2.129   9.862 -0.2739 -0.1271  0.1853
 6791SOL    HW131832   2.308   2.170   9.942 -0.0733  1.6374 -0.7854
 6791SOL    HW231833   2.256   2.210   9.814 -2.6933 -0.5066  0.5216
 6792SOL     OW31834   2.081   0.326   4.819  0.3584  0.4041 -0.3458
 6792SOL    HW131835   2.155   0.370   4.861 -0.1422 -0.4977  1.4739
 6792SOL    HW231836   2.029   0.401   4.793 -0.1472 -0.8185 -2.8661
 6793SOL     OW31837   3.107   4.127   2.457  0.3611  0.7768 -0.1955
 6793SOL    HW131838   3.018   4.163   2.462  0.9885  1.9912  2.1596
 6793SOL    HW231839   3.165   4.203   2.461 -0.2608  1.2489 -0.1515
 6794SOL     OW31840   1.994   0.996   7.053 -0.1593  0.1793 -0.0451
 6794SOL    HW131841   2.089   0.996   7.041 -0.1168  1.4324  0.3105
 6794SOL    HW231842   1.998   1.069   7.115  1.0779  0.6078 -0.6283
 6795SOL     OW31843   4.329   1.136   9.867  0.1806 -0.1248  0.5955
 6795SOL    HW131844   4.413   1.180   9.862  0.8728 -1.7426 -2.1611
 6795SOL    HW231845   4.281   1.212   9.899 -1.0073 -0.3639 -0.5734
 6796SOL     OW31846   4.172   4.687   1.512  0.0214 -0.1593 -0.2466
 6796SOL    HW131847   4.173   0.043   1.566 -0.2385  0.2187 -0.7989
 6796SOL    HW231848   4.206   4.718   1.429  2.8721  1.1066  1.4038
 6797SOL     OW31849   1.242   0.947   2.441 -0.2185 -0.1277  0.3751
 6797SOL    HW131850   1.168   0.996   2.477  0.7983  2.7122 -1.3874
 6797SOL    HW231851   1.234   0.867   2.493 -1.1694 -2.1266 -2.8825
 6798SOL     OW31852   1.795   0.002   2.722  0.2142  0.1156  0.6482
 6798SOL    HW131853   1.833   4.638   2.735  1.2747  0.3996 -0.5850
 6798SOL    HW231854   1.870   0.057   2.700  0.6395 -0.2778  1.1316
 6799SOL     OW31855   0.068   2.703  11.791  0.0215 -0.3810  0.8287
 6799SOL    HW131856   0.064   2.608  11.777 -1.1515 -0.1139 -0.5916
 6799SOL    HW231857   0.052   2.722  11.884 -1.1485  1.7068  0.1953
 6800SOL     OW31858   0.952   2.124  17.057  0.0313 -0.1715 -0.0209
 6800SOL    HW131859   0.938   2.038  17.098 -1.2365  1.7119  3.4681
 6800SOL    HW231860   0.906   2.100  16.976 -2.5492 -2.3641  2.1016
 6801SOL     OW31861   3.961   3.319   3.446 -0.0073  0.2721 -0.4463
 6801SOL    HW131862   3.894   3.377   3.410  1.3555  1.6450 -0.7787
 6801SOL    HW231863   3.927   3.234   3.417  0.8212  0.6832 -2.6187
 6802SOL     OW31864   2.641   1.822   5.859  0.5263  0.0610 -0.4798
 6802SOL    HW131865   2.547   1.804   5.859  0.2983  1.2227 -1.0860
 6802SOL    HW231866   2.647   1.900   5.804  0.4889  0.7639  0.5113
 6803SOL     OW31867   4.064   3.761   4.267  0.0411  0.4735  0.3983
 6803SOL    HW131868   4.148   3.778   4.310 -0.5054 -0.7391  1.9140
 6803SOL    HW231869   4.083   3.752   4.173  1.5434  1.3660  0.6144
 6804SOL     OW31870   4.292   4.311  13.651  0.2099 -0.5032 -0.9367
 6804SOL    HW131871   4.228   4.240  13.650  0.0525 -0.3639  0.6064
 6804SOL    HW231872   4.356   4.267  13.595  1.5557 -0.2737  0.4226
 6805SOL     OW31873   3.975   3.010   5.880 -0.1109  0.3901  0.6874
 6805SOL    HW131874   3.978   2.914   5.887  0.7782  0.2490 -1.5986
 6805SOL    HW231875   3.961   3.023   5.973  0.6880 -2.4586  1.1984
 6806SOL     OW31876   3.891   3.285   4.239  0.3371 -0.3550 -0.1727
 6806SOL    HW131877   3.968   3.343   4.237  0.0506  0.0336  0.1889
 6806SOL    HW231878   3.900   3.222   4.167  0.8972 -2.2262  1.5261
 6807SOL     OW31879   4.471   1.530   2.084 -0.0588 -0.2752  0.2304
 6807SOL    HW131880   4.552   1.495   2.123  0.3398  0.9335  0.4980
 6807SOL    HW231881   4.416   1.454   2.101  2.0589 -1.8895 -0.1673
 6808SOL     OW31882   1.465   3.258   8.428 -0.4550 -0.2328  0.6024
 6808SOL    HW131883   1.387   3.269   8.374  0.1021 -0.4681 -0.2493
 6808SOL    HW231884   1.446   3.308   8.507 -0.7020  0.4396  0.1151
 6809SOL     OW31885   3.576   4.191   3.427 -0.0195 -0.0439 -0.2866
 6809SOL    HW131886   3.627   4.141   3.363 -0.6400  0.2805 -1.0336
 6809SOL    HW231887   3.609   4.143   3.503 -0.4303  0.9622  0.5190
 6810SOL     OW31888   2.926   0.731   8.457  0.2529 -0.5023 -0.5942
 6810SOL    HW131889   2.901   0.654   8.509 -0.6847  0.5739  0.5359
 6810SOL    HW231890   2.902   0.699   8.370 -0.1977  0.2586 -0.7446
 6811SOL     OW31891   1.367   1.095   1.292  0.1586  0.2173 -0.3956
 6811SOL    HW131892   1.461   1.111   1.303  0.2322 -1.6409  1.5456
 6811SOL    HW231893   1.369   1.007   1.256 -0.1214 -0.2432  0.7069
 6812SOL     OW31894   2.782   1.756  12.654 -0.3393  0.5178  0.1628
 6812SOL    HW131895   2.781   1.712  12.739  0.8150  1.1398  0.5029
 6812SOL    HW231896   2.691   1.741  12.630 -0.5929  1.4641  0.5288
 6813SOL     OW31897   1.069   2.885  12.900 -0.5233 -0.2713 -0.5159
 6813SOL    HW131898   1.136   2.869  12.834 -2.1059 -3.4708 -1.3317
 6813SOL    HW231899   1.087   2.977  12.919 -1.4415 -0.7030  2.5758
 6814SOL     OW31900   1.917   0.224   8.689  0.5778  0.3089 -0.0178
 6814SOL    HW131901   1.863   0.279   8.631  0.1738  0.0006  0.0634
 6814SOL    HW231902   1.855   0.157   8.718  0.1398  0.7167 -0.0030
 6815SOL     OW31903   2.015   3.830   0.897  0.0220 -0.3006  0.7350
 6815SOL    HW131904   1.964   3.812   0.818 -0.1555 -0.4445  0.8825
 6815SOL    HW231905   1.969   3.781   0.965  0.4101  1.8361  2.5497
 6816SOL     OW31906   3.823   0.504   4.137 -0.7860  0.0408 -0.5908
 6816SOL    HW131907   3.804   0.563   4.209  2.8044  2.1865 -1.4315
 6816SOL    HW231908   3.737   0.478   4.104 -0.5953 -0.4361 -0.7156
 6817SOL     OW31909   3.109   1.666   2.413  0.4623  0.1347  0.0532
 6817SOL    HW131910   3.030   1.612   2.414  0.5800 -0.0061  1.7521
 6817SOL    HW231911   3.185   1.618   2.379  1.1722 -0.0536  1.8997
 6818SOL     OW31912   1.526   3.612   1.408 -0.0135  0.1749  0.2722
 6818SOL    HW131913   1.491   3.644   1.325 -0.0665  0.4039  0.3812
 6818SOL    HW231914   1.576   3.691   1.429 -0.6112  1.2500 -2.3374
 6819SOL     OW31915   0.519   2.256   3.606 -0.3841  0.1594 -0.5287
 6819SOL    HW131916   0.606   2.274   3.569 -0.4942  0.2610 -0.7330
 6819SOL    HW231917   0.473   2.296   3.533 -0.1125 -0.9232 -1.2882
 6820SOL     OW31918   1.318   0.388   5.200  0.2815  0.0816 -0.2842
 6820SOL    HW131919   1.283   0.309   5.241  1.1662  0.7673  1.7376
 6820SOL    HW231920   1.253   0.446   5.240  0.0610 -1.1201  1.0826
 6821SOL     OW31921   4.303   1.032   4.992  0.0238 -0.4327 -0.0731
 6821SOL    HW131922   4.269   0.989   4.913  0.8732 -0.7650 -0.2592
 6821SOL    HW231923   4.221   1.041   5.039 -0.6045 -2.5331 -0.7767
 6822SOL     OW31924   0.919   0.117   8.003 -0.4460  0.5265 -0.4145
 6822SOL    HW131925   0.860   0.091   8.074 -0.6912 -0.3409 -0.9341
 6822SOL    HW231926   1.001   0.099   8.049 -0.7612 -0.2344 -0.1420
 6823SOL     OW31927   3.491   0.202  10.991 -0.6797  0.0294 -0.1788
 6823SOL    HW131928   3.436   0.222  11.066  1.1806 -2.5281  1.8604
 6823SOL    HW231929   3.578   0.192  11.030 -0.1122  2.1967 -0.9023
 6824SOL     OW31930   1.837   1.846   8.121 -0.3592 -0.1707  0.0728
 6824SOL    HW131931   1.829   1.753   8.142 -1.2274  0.0938  0.8647
 6824SOL    HW231932   1.820   1.838   8.027 -0.0778 -2.5575  0.2361
 6825SOL     OW31933   2.633   3.287   1.168 -0.1373 -0.0881  0.3366
 6825SOL    HW131934   2.621   3.382   1.170 -0.2196 -0.0704 -0.8216
 6825SOL    HW231935   2.564   3.267   1.232 -0.9239 -1.5495 -0.9439
 6826SOL     OW31936   4.574   2.532   4.416 -0.1867 -0.6009 -0.5415
 6826SOL    HW131937   4.655   2.489   4.386 -0.4898 -0.0294 -2.1465
 6826SOL    HW231938   4.580   2.557   4.508 -1.2833 -2.1581 -0.0351
 6827SOL     OW31939   1.812   2.620   6.402 -0.1754  0.5744  0.0735
 6827SOL    HW131940   1.834   2.707   6.370  0.2658  0.1951 -0.6576
 6827SOL    HW231941   1.790   2.582   6.317  0.9196 -1.7828  0.8280
 6828SOL     OW31942   0.225   2.898   7.141 -0.6445 -0.0448 -0.2717
 6828SOL    HW131943   0.301   2.876   7.195  0.1329 -0.1080 -1.3969
 6828SOL    HW231944   0.259   2.955   7.072  1.1998 -0.1734  0.5362
 6829SOL     OW31945   1.871   3.027  12.300  0.7657  0.0919 -0.1589
 6829SOL    HW131946   1.898   3.010  12.390  0.6785  2.7375  0.3863
 6829SOL    HW231947   1.815   2.954  12.275  0.5948  0.3591 -0.5745
 6830SOL     OW31948   1.647   1.430   2.650 -0.0638  0.7483  0.2395
 6830SOL    HW131949   1.610   1.493   2.712 -1.6207  0.5551 -0.4930
 6830SOL    HW231950   1.735   1.465   2.642  1.2875 -2.6554  0.2202
 6831SOL     OW31951   1.865   4.424   7.491 -0.4855  0.1729 -0.1847
 6831SOL    HW131952   1.935   4.384   7.542  0.8096  2.1176 -0.4305
 6831SOL    HW231953   1.919   4.458   7.419 -2.0904 -1.3466 -2.1281
 6832SOL     OW31954   4.551   1.183  16.859 -0.2311  0.3075 -0.4482
 6832SOL    HW131955   4.590   1.120  16.919 -1.6575  0.5091  0.6768
 6832SOL    HW231956   4.520   1.255  16.914 -0.8154  0.0600 -0.4591
 6833SOL     OW31957   0.344   0.647   5.868 -0.2218  0.7241  0.1838
 6833SOL    HW131958   0.335   0.553   5.878 -1.2658  0.7059 -1.0349
 6833SOL    HW231959   0.254   0.678   5.881  0.4035  2.9388 -0.7483
 6834SOL     OW31960   2.513   3.917   3.107 -0.3231 -0.0134  0.3462
 6834SOL    HW131961   2.525   3.956   3.020 -1.7184  1.1019  0.6691
 6834SOL    HW231962   2.436   3.966   3.136 -0.2709  0.1938  0.1350
 6835SOL     OW31963   0.649   0.546   3.545 -0.2411 -0.2369  0.3728
 6835SOL    HW131964   0.634   0.588   3.460  1.3357  1.6515  1.0424
 6835SOL    HW231965   0.611   0.459   3.534  1.1021 -0.6326 -1.0866
 6836SOL     OW31966   3.638   4.548  14.749  0.2261 -0.9135 -0.2004
 6836SOL    HW131967   3.567   4.611  14.759 -1.0150 -2.0890 -1.8052
 6836SOL    HW231968   3.660   4.540  14.656  1.4219  0.2388 -0.0320
 6837SOL     OW31969   1.133   2.973   5.457 -0.1730  0.1073  0.1216
 6837SOL    HW131970   1.153   2.886   5.423  1.3651  0.3602  0.3995
 6837SOL    HW231971   1.114   3.031   5.383  1.5800 -1.4825 -1.5608
 6838SOL     OW31972   4.639   3.498   4.713  0.0791  0.0426  0.2741
 6838SOL    HW131973   4.636   3.423   4.772 -0.0047 -0.7207 -0.7064
 6838SOL    HW231974   4.562   3.543   4.747  0.1448 -2.6886  4.0505
 6839SOL     OW31975   3.253   1.898   2.125  0.2003  0.4662  0.2559
 6839SOL    HW131976   3.252   1.940   2.039  0.2217 -1.0353 -0.4742
 6839SOL    HW231977   3.187   1.829   2.122  0.8886 -0.1467 -0.6331
 6840SOL     OW31978   1.329   1.721   7.330  0.1173  0.8908 -0.5145
 6840SOL    HW131979   1.368   1.802   7.298  0.0138  1.4210  0.7157
 6840SOL    HW231980   1.297   1.754   7.414 -0.4044 -1.5670  0.2481
 6841SOL     OW31981   1.621   0.311   6.799  0.5564  0.5941  0.1411
 6841SOL    HW131982   1.710   0.336   6.822  0.3017  1.0083  0.6958
 6841SOL    HW231983   1.581   0.290   6.884  0.1711 -1.7966 -0.6300
 6842SOL     OW31984   1.955   1.385   5.039 -0.5026  0.1578 -0.9135
 6842SOL    HW131985   1.998   1.380   5.125 -0.9111 -1.5557 -0.8101
 6842SOL    HW231986   1.997   1.463   5.003  0.9862 -0.1055  0.2077
 6843SOL     OW31987   3.785   4.487   8.626  0.1708 -0.1978  0.0570
 6843SOL    HW131988   3.805   4.445   8.710  0.8614  1.5417  0.7587
 6843SOL    HW231989   3.813   4.578   8.636 -2.6957  0.6382  0.5137
 6844SOL     OW31990   3.180   0.739   3.665 -0.2539 -0.1792  0.4191
 6844SOL    HW131991   3.087   0.746   3.686 -0.7574 -1.4268 -1.3777
 6844SOL    HW231992   3.184   0.644   3.654 -0.1822 -0.3755  2.2489
 6845SOL     OW31993   2.126   4.138  12.307  0.5200  0.2302  0.2110
 6845SOL    HW131994   2.199   4.201  12.304  3.6286 -3.4570 -2.2115
 6845SOL    HW231995   2.058   4.205  12.309  1.2899  0.9399  2.2075
 6846SOL     OW31996   0.770   3.763   8.652  0.1559  0.2850 -0.1741
 6846SOL    HW131997   0.799   3.848   8.685 -4.0536  2.0843 -1.0936
 6846SOL    HW231998   0.681   3.766   8.687  0.3711 -0.9068  0.4702
 6847SOL     OW31999   2.522   4.050   2.869  0.4008 -0.0914 -0.6060
 6847SOL    HW132000   2.465   3.995   2.815  1.1520 -1.8973  0.4053
 6847SOL    HW232001   2.535   4.131   2.821  0.5152  0.2822  0.0553
 6848SOL     OW32002   0.151   3.903  14.419 -0.0188  0.1110  0.4215
 6848SOL    HW132003   0.102   3.924  14.499 -2.9801 -3.3015 -0.4796
 6848SOL    HW232004   0.219   3.971  14.415  1.2606 -1.2103 -0.3929
 6849SOL     OW32005   4.272   1.369  10.979 -0.1244 -0.2290  0.0854
 6849SOL    HW132006   4.339   1.336  10.918  2.5169  0.4713  2.6456
 6849SOL    HW232007   4.258   1.458  10.948  0.4427 -0.5196 -1.0325
 6850SOL     OW32008   4.663   3.371   9.650  0.1282  0.8862 -0.2696
 6850SOL    HW132009   4.640   3.300   9.709 -2.2087  0.8949 -1.1989
 6850SOL    HW232010   4.645   3.341   9.561  1.6958 -0.8593 -0.0056
 6851SOL     OW32011   2.711   1.143   4.579  0.8394  0.3620 -0.2078
 6851SOL    HW132012   2.646   1.124   4.511  0.4762 -0.6250  0.4198
 6851SOL    HW232013   2.781   1.134   4.514 -0.1773 -0.7953 -1.1604
 6852SOL     OW32014   2.868   4.705   1.472 -0.3724 -0.0183  0.3083
 6852SOL    HW132015   2.950   0.031   1.462  0.7085 -1.9941 -0.2717
 6852SOL    HW232016   2.841   0.018   1.557  1.0092  1.7160  0.0421
 6853SOL     OW32017   3.541   3.226   2.031 -0.3497  0.5177 -0.0501
 6853SOL    HW132018   3.589   3.169   1.971  1.0084  1.4949  0.0854
 6853SOL    HW232019   3.451   3.199   2.014 -0.2531 -0.4668  1.0225
 6854SOL     OW32020   2.897   4.433   3.038  0.5344  0.1906  0.2648
 6854SOL    HW132021   2.857   4.346   3.028  0.4936  0.0108  1.9608
 6854SOL    HW232022   2.939   4.424   3.124  1.0458  3.3468  0.3315
 6855SOL     OW32023   4.718   3.385   8.659 -0.1442  0.1356 -0.4150
 6855SOL    HW132024   4.671   3.433   8.727  2.5938  1.5160  0.5289
 6855SOL    HW232025   4.671   3.302   8.657 -0.0104  0.0658 -0.7060
 6856SOL     OW32026   3.818   0.380   2.693  0.0254  0.2318 -0.6269
 6856SOL    HW132027   3.788   0.362   2.604 -0.4396  0.6415 -0.5580
 6856SOL    HW232028   3.801   0.473   2.709 -2.8124 -0.4881  0.6672
 6857SOL     OW32029   4.006   3.466   6.962  0.4841  1.0292  0.1036
 6857SOL    HW132030   4.091   3.422   6.961  1.1744  2.3639  0.8007
 6857SOL    HW232031   3.994   3.478   6.868  0.4140 -0.9822 -0.1583
 6858SOL     OW32032   2.526   3.675   5.318  0.7134  0.5108  0.2896
 6858SOL    HW132033   2.488   3.710   5.398  1.2432  0.8664  0.3805
 6858SOL    HW232034   2.487   3.738   5.257 -3.0440 -0.6641  1.4657
 6859SOL     OW32035   1.311   0.529   8.045 -0.0356 -0.4228  0.0644
 6859SOL    HW132036   1.279   0.606   8.091 -2.3882 -0.0329 -2.2543
 6859SOL    HW232037   1.295   0.460   8.110 -0.1494  0.6593  1.1840
 6860SOL     OW32038   4.105   3.108   7.741  0.1727 -0.1599 -0.0049
 6860SOL    HW132039   4.024   3.058   7.742 -0.9213  1.6292  2.3884
 6860SOL    HW232040   4.113   3.136   7.833  0.3398  0.3752 -0.1842
 6861SOL     OW32041   0.858   0.582   2.483  0.0602 -0.1920  0.3891
 6861SOL    HW132042   0.818   0.583   2.570 -1.3198  0.5728 -0.2590
 6861SOL    HW232043   0.906   0.664   2.474 -2.0977  1.1623  1.2997
 6862SOL     OW32044   2.616   4.382   2.345 -0.6152 -0.1143 -0.6802
 6862SOL    HW132045   2.598   4.444   2.415 -2.2397 -1.8485  0.4245
 6862SOL    HW232046   2.574   4.428   2.272 -0.1578 -1.3394 -1.7178
 6863SOL     OW32047   2.121   1.351   3.372  0.0368 -0.0141  0.0567
 6863SOL    HW132048   2.208   1.385   3.394  0.8464 -2.2515  0.3187
 6863SOL    HW232049   2.074   1.409   3.432 -0.6270 -0.2894 -0.1972
 6864SOL     OW32050   3.742   3.389   2.113  0.8168 -0.7662  0.3054
 6864SOL    HW132051   3.658   3.357   2.081  0.0986  0.9281  0.4489
 6864SOL    HW232052   3.781   3.302   2.105 -1.4870 -1.9397  1.9266
 6865SOL     OW32053   3.688   1.313   5.350 -0.2349  0.1377 -0.1066
 6865SOL    HW132054   3.722   1.223   5.345 -0.1589  0.0707  1.7058
 6865SOL    HW232055   3.625   1.321   5.422  2.3781  1.5578  2.0256
 6866SOL     OW32056   1.536   1.470   2.020  0.1386  0.1448  0.4714
 6866SOL    HW132057   1.583   1.393   2.052  0.6351 -0.0276 -0.7070
 6866SOL    HW232058   1.470   1.488   2.088 -1.4213 -2.6686 -0.2871
 6867SOL     OW32059   0.453   0.680   7.032  0.4668  0.1497  0.1033
 6867SOL    HW132060   0.449   0.603   6.975  1.7928 -0.3116  0.6177
 6867SOL    HW232061   0.543   0.705   7.009  1.2138  0.2294  3.1230
 6868SOL     OW32062   1.138   0.226   4.205 -0.1161 -0.3207 -0.4321
 6868SOL    HW132063   1.172   0.140   4.230  1.9347  1.1580  1.8725
 6868SOL    HW232064   1.047   0.196   4.201 -0.6085  1.0066  0.5173
 6869SOL     OW32065   4.418   0.181   4.011  0.6558 -0.4583 -1.1635
 6869SOL    HW132066   4.430   0.271   4.040 -0.0278 -0.9736  0.7095
 6869SOL    HW232067   4.502   0.157   3.972 -0.0464 -2.0762 -1.6865
 6870SOL     OW32068   1.103   0.218   3.270  0.0229  0.0811  0.0422
 6870SOL    HW132069   1.117   0.288   3.335  1.1850 -1.0474  1.0081
 6870SOL    HW232070   1.121   0.262   3.187  1.5542 -0.7235 -0.0520
 6871SOL     OW32071   2.578   2.992   2.007 -0.3170 -0.2245  0.1835
 6871SOL    HW132072   2.484   2.975   1.997 -0.2985  0.1022 -0.5459
 6871SOL    HW232073   2.588   3.029   1.919 -0.8711  0.7956  0.5418
 6872SOL     OW32074   0.643   1.031   4.298 -0.1878  0.1868 -0.1988
 6872SOL    HW132075   0.656   1.124   4.282 -0.2790  0.2344  0.0010
 6872SOL    HW232076   0.728   1.017   4.339 -1.2470 -1.8074  1.3162
 6873SOL     OW32077   1.898   3.292   5.115  0.9270 -0.1157 -0.2721
 6873SOL    HW132078   1.876   3.278   5.023  1.0808  0.3205 -0.3766
 6873SOL    HW232079   1.994   3.292   5.111  0.8438 -0.8507 -2.1517
 6874SOL     OW32080   0.755   0.974   0.997 -0.5532 -0.3756  0.1164
 6874SOL    HW132081   0.805   0.979   0.915 -0.7962  0.9552  0.0521
 6874SOL    HW232082   0.785   1.047   1.051  1.1577 -1.4531  0.6229
 6875SOL     OW32083   3.148   0.317   2.244  0.2750 -0.5671  0.2368
 6875SOL    HW132084   3.076   0.324   2.307  0.0746  0.0218 -0.0529
 6875SOL    HW232085   3.164   0.408   2.217  1.6608 -0.7332  0.4753
 6876SOL     OW32086   0.116   1.650   7.908  0.0531 -0.1154  0.3401
 6876SOL    HW132087   0.024   1.674   7.921  0.2599 -0.5844  2.6464
 6876SOL    HW232088   0.127   1.592   7.983 -0.8444  1.7334  1.8846
 6877SOL     OW32089   3.149   4.112   5.339  0.7499  0.0827  0.3860
 6877SOL    HW132090   3.192   4.036   5.379 -1.7184 -1.5190 -0.0094
 6877SOL    HW232091   3.068   4.123   5.389  0.0917 -1.3600 -0.3531
 6878SOL     OW32092   4.395   1.243   8.030  0.5366 -0.2604 -0.2918
 6878SOL    HW132093   4.400   1.324   7.978 -0.4281  0.1888  0.3213
 6878SOL    HW232094   4.414   1.278   8.117 -0.9212 -0.7848  0.2317
 6879SOL     OW32095   2.431   2.113  14.177 -0.5249  0.2577 -0.1294
 6879SOL    HW132096   2.500   2.138  14.115 -1.1704 -1.1535 -1.4481
 6879SOL    HW232097   2.429   2.017  14.173  1.8626  0.1221  2.4889
 6880SOL     OW32098   0.823   4.339   5.917 -0.3190  0.7508  0.3147
 6880SOL    HW132099   0.863   4.311   5.999  1.8698 -0.1831 -1.0755
 6880SOL    HW232100   0.902   4.357   5.865 -2.1505  2.1399 -1.9906
 6881SOL     OW32101   1.181   2.407  13.789 -0.1617 -0.1465 -0.4940
 6881SOL    HW132102   1.189   2.313  13.772 -0.7561 -0.4085  0.7461
 6881SOL    HW232103   1.180   2.442  13.700  1.3005 -1.0423 -0.8813
 6882SOL     OW32104   0.363   4.380   3.166  0.1766  0.4850 -0.1220
 6882SOL    HW132105   0.424   4.454   3.163  1.0091 -0.1888  0.2157
 6882SOL    HW232106   0.284   4.418   3.128  0.0710  0.2527 -0.1318
 6883SOL     OW32107   1.257   3.766   3.402 -0.2028 -0.2658  0.0926
 6883SOL    HW132108   1.334   3.779   3.457 -0.1867  0.9513 -0.2161
 6883SOL    HW232109   1.284   3.682   3.364  2.4813 -0.1500  1.8032
 6884SOL     OW32110   3.333   2.213   4.686 -0.3223  0.0698 -0.0338
 6884SOL    HW132111   3.280   2.285   4.652 -4.2933 -2.6501  0.3917
 6884SOL    HW232112   3.368   2.246   4.769 -1.7916 -0.9162  0.9729
 6885SOL     OW32113   2.333   2.013   7.282  0.5692 -0.0204  0.8043
 6885SOL    HW132114   2.426   2.025   7.303  1.2652  1.9756 -3.2520
 6885SOL    HW232115   2.325   1.941   7.219 -1.5981  1.3040 -0.4290
 6886SOL     OW32116   0.302   1.321   8.875 -0.2854 -0.6225 -0.1136
 6886SOL    HW132117   0.395   1.298   8.869 -0.6977 -2.0926 -0.8669
 6886SOL    HW232118   0.276   1.291   8.962  1.8922  2.0551  1.4911
 6887SOL     OW32119   1.570   2.812   7.427 -0.1787  0.3993 -0.1077
 6887SOL    HW132120   1.642   2.790   7.486  0.4757  3.0945  0.1344
 6887SOL    HW232121   1.576   2.907   7.443  0.4901  0.1000  1.4605
 6888SOL     OW32122   1.152   1.792   4.654  0.5900 -0.1650 -0.2452
 6888SOL    HW132123   1.214   1.750   4.593 -0.3534 -0.7159 -0.8318
 6888SOL    HW232124   1.119   1.864   4.600 -0.8150 -1.6413 -1.3623
 6889SOL     OW32125   4.402   2.827   5.293 -0.1417  0.9028 -0.0649
 6889SOL    HW132126   4.327   2.787   5.337 -1.4069  1.3440 -1.8139
 6889SOL    HW232127   4.461   2.752   5.303 -0.1912  1.0435  1.2723
 6890SOL     OW32128   3.103   4.221   3.700  0.7579 -0.0013 -0.9201
 6890SOL    HW132129   3.057   4.258   3.624 -2.5622  1.0595  1.5780
 6890SOL    HW232130   3.087   4.299   3.755 -5.0487 -2.5639  1.0366
 6891SOL     OW32131   0.790   4.499  12.308 -0.1422  0.2435  0.3609
 6891SOL    HW132132   0.745   4.562  12.364  1.5350  1.6548  0.1176
 6891SOL    HW232133   0.847   4.547  12.248 -0.4224  0.1700  0.0387
 6892SOL     OW32134   0.684   2.148   7.769 -1.0873  0.2490 -0.1596
 6892SOL    HW132135   0.608   2.098   7.799 -0.6367 -0.6218 -0.4764
 6892SOL    HW232136   0.706   2.092   7.695  1.1578  1.6477 -0.5676
 6893SOL     OW32137   4.522   2.209   5.332 -0.3926  0.8749 -0.5427
 6893SOL    HW132138   4.545   2.301   5.317  0.3190  0.6166 -1.0316
 6893SOL    HW232139   4.479   2.214   5.417  0.5342  0.6797 -0.0593
 6894SOL     OW32140   0.173   2.384   0.061  0.0643  0.1998  0.2865
 6894SOL    HW132141   0.227   2.459   0.037  2.0994 -1.0700  0.9078
 6894SOL    HW232142   0.083   2.404   0.034  0.7634 -0.2863 -2.4120
 6895SOL     OW32143   0.126   2.116   8.783  0.7509 -0.0605 -0.0331
 6895SOL    HW132144   0.211   2.092   8.820  0.1782 -2.9819 -0.5639
 6895SOL    HW232145   0.075   2.034   8.780  1.3832 -0.3855 -1.8661
 6896SOL     OW32146   4.648   3.318   3.046  0.3768 -0.5162  0.0252
 6896SOL    HW132147   4.581   3.268   3.094 -0.7422  2.3724  1.5118
 6896SOL    HW232148   4.618   3.306   2.956  0.2333  2.2882 -0.3084
 6897SOL     OW32149   3.598   2.466   4.164 -0.4523 -0.5940 -0.3312
 6897SOL    HW132150   3.506   2.447   4.147 -0.7797  1.1016 -0.5363
 6897SOL    HW232151   3.608   2.460   4.260  1.8677  2.8746 -0.3384
 6898SOL     OW32152   1.237   1.361   5.900 -0.4668  0.3032 -0.0866
 6898SOL    HW132153   1.218   1.386   5.990  0.0079 -1.0423  0.3974
 6898SOL    HW232154   1.314   1.416   5.892  0.0256 -0.4003 -0.2277
 6899SOL     OW32155   0.412   2.285   7.146  0.5263  0.3972 -0.0207
 6899SOL    HW132156   0.387   2.334   7.224  0.1994 -1.0564  0.7775
 6899SOL    HW232157   0.415   2.361   7.087  2.7326  1.0851  0.9995
 6900SOL     OW32158   2.785   4.272   7.549  0.1057  0.3023  0.8048
 6900SOL    HW132159   2.813   4.185   7.520  0.7207  0.5963  0.5040
 6900SOL    HW232160   2.873   4.307   7.561  0.3841  0.8671 -2.7999
 6901SOL     OW32161   4.718   3.403  11.472 -0.0999 -0.7281 -0.1191
 6901SOL    HW132162   0.012   3.327  11.526  0.8422  0.1543  0.8195
 6901SOL    HW232163   0.036   3.476  11.517  3.5290 -1.9951 -1.3873
 6902SOL     OW32164   3.276   4.609   0.856 -0.4412  0.3650  0.4494
 6902SOL    HW132165   3.291   4.682   0.917 -1.9317 -1.4239  2.9840
 6902SOL    HW232166   3.348   4.623   0.794  1.5365 -2.5493  2.0460
 6903SOL     OW32167   1.712   4.653   3.184 -0.1537  0.2619 -0.5031
 6903SOL    HW132168   1.730   0.012   3.136  1.6678  0.3378  0.2984
 6903SOL    HW232169   1.695   4.600   3.107  0.9573 -1.1966  0.2702
 6904SOL     OW32170   0.746   3.187   8.388  0.1163  0.5786  0.0817
 6904SOL    HW132171   0.784   3.234   8.314 -0.3349  2.9375  1.3505
 6904SOL    HW232172   0.821   3.133   8.414 -0.4442 -0.9391 -1.4411
 6905SOL     OW32173   3.219   2.947   9.287 -0.0035 -0.1763  0.1024
 6905SOL    HW132174   3.236   3.000   9.209  0.0939 -1.0748 -0.4853
 6905SOL    HW232175   3.134   2.909   9.263  0.5823 -1.2168 -0.3032
 6906SOL     OW32176   3.882   4.091   3.067 -0.5569  0.6270 -0.4368
 6906SOL    HW132177   3.947   4.021   3.059  0.0462  1.0295  0.9312
 6906SOL    HW232178   3.817   4.043   3.118  0.2811  1.6174  1.5586
 6907SOL     OW32179   3.771   2.706   5.521  0.4863  0.5641 -0.0804
 6907SOL    HW132180   3.694   2.759   5.543 -0.5684 -0.1413 -1.9943
 6907SOL    HW232181   3.753   2.622   5.562  2.2197  0.3409  0.1937
 6908SOL     OW32182   2.289   3.701   4.869  0.1379 -0.5309  0.0512
 6908SOL    HW132183   2.273   3.692   4.962 -0.3350 -3.5247 -0.3244
 6908SOL    HW232184   2.369   3.754   4.865 -0.4417  0.2464 -1.2295
 6909SOL     OW32185   3.277   3.307   4.988 -0.1090 -0.6954  0.3440
 6909SOL    HW132186   3.304   3.231   4.936  0.0128  0.1644 -0.8350
 6909SOL    HW232187   3.249   3.381   4.935 -1.7127 -1.7920 -0.3368
 6910SOL     OW32188   4.171   2.115   2.605  0.2376  0.1009  0.4975
 6910SOL    HW132189   4.259   2.149   2.621  0.6169 -0.9958  0.7116
 6910SOL    HW232190   4.174   2.021   2.586  0.6593 -0.0512  1.3010
 6911SOL     OW32191   4.347   1.838   8.229  0.6059  0.2032  0.3100
 6911SOL    HW132192   4.304   1.909   8.181  2.5409  0.7691 -0.6300
 6911SOL    HW232193   4.277   1.793   8.276 -1.3230  2.1670 -0.6680
 6912SOL     OW32194   4.389   2.731   6.870 -0.1166  0.0311  0.0716
 6912SOL    HW132195   4.441   2.761   6.795 -0.8429  1.8475  0.2934
 6912SOL    HW232196   4.448   2.751   6.943  0.4198  2.0966 -0.9146
 6913SOL     OW32197   3.123   1.754   4.875 -0.3569  0.0912  0.5818
 6913SOL    HW132198   3.087   1.676   4.833  0.1011  0.3721 -0.3166
 6913SOL    HW232199   3.045   1.809   4.884 -0.8923 -0.5995  0.1646
 6914SOL     OW32200   0.215   2.633   3.738  0.0257 -0.1544 -0.2687
 6914SOL    HW132201   0.161   2.621   3.816 -1.8362  1.6531 -1.2701
 6914SOL    HW232202   0.171   2.575   3.676  0.5808  0.8676 -1.6462
 6915SOL     OW32203   0.725   3.761   0.534 -0.0805  0.5888 -0.2654
 6915SOL    HW132204   0.730   3.842   0.585 -0.7470  0.5769 -0.1846
 6915SOL    HW232205   0.707   3.697   0.603  1.6241 -0.0791 -0.4443
 6916SOL     OW32206   2.769   0.445   7.098  0.3868 -0.1269  0.9002
 6916SOL    HW132207   2.736   0.535   7.088 -0.1696 -0.4639 -0.2581
 6916SOL    HW232208   2.856   0.464   7.062  0.3809  0.0484  0.9783
 6917SOL     OW32209   2.718   1.041  14.908 -0.5911  1.0534  0.6017
 6917SOL    HW132210   2.648   1.053  14.972 -0.3649 -3.6161  1.7455
 6917SOL    HW232211   2.690   0.984  14.836  1.4998 -0.1367  0.7358
 6918SOL     OW32212   0.905   1.208   4.786  0.1520  0.1354  0.0478
 6918SOL    HW132213   0.894   1.129   4.839  1.0212 -1.3936 -2.0499
 6918SOL    HW232214   0.860   1.272   4.842 -1.1819  0.0828 -0.9662
 6919SOL     OW32215   1.798   4.446   4.403  0.4506  0.0500 -0.7307
 6919SOL    HW132216   1.862   4.453   4.332  0.8754 -1.2658 -0.4761
 6919SOL    HW232217   1.849   4.466   4.481  0.8295 -2.4626 -0.3191
 6920SOL     OW32218   2.391   3.365   4.303  0.0692 -0.1731  0.1469
 6920SOL    HW132219   2.407   3.329   4.391  1.5714  0.1549  0.0081
 6920SOL    HW232220   2.344   3.447   4.318 -1.4057 -1.1364  0.8064
 6921SOL     OW32221   3.803   1.286   4.657  0.1242 -0.0811  0.3395
 6921SOL    HW132222   3.752   1.352   4.610  0.8262  2.1022  2.6052
 6921SOL    HW232223   3.861   1.260   4.586 -0.5072 -3.1015  0.9499
 6922SOL     OW32224   0.506   3.071  12.753 -0.0262  0.0508 -0.1659
 6922SOL    HW132225   0.537   3.154  12.718  1.7817 -1.0187 -1.1148
 6922SOL    HW232226   0.470   3.092  12.839 -1.6943 -0.5902 -0.7183
 6923SOL     OW32227   0.843   2.476   2.693  0.2741  0.1739 -0.0569
 6923SOL    HW132228   0.825   2.570   2.685  0.8864  0.3381  0.5367
 6923SOL    HW232229   0.923   2.464   2.642 -1.2410 -1.9314 -1.9589
 6924SOL     OW32230   3.822   3.199   0.336  0.0296 -0.5667  0.3169
 6924SOL    HW132231   3.883   3.185   0.263 -0.4365 -0.8237 -0.0263
 6924SOL    HW232232   3.795   3.282   0.298  0.2578 -0.4200  0.4741
 6925SOL     OW32233   1.566   0.044   7.213  0.3451 -0.0414 -0.1282
 6925SOL    HW132234   1.657   0.049   7.186  0.7028 -2.2064  0.6908
 6925SOL    HW232235   1.577   4.694   7.274  0.1426 -1.4064 -1.7212
 6926SOL     OW32236   3.977   0.724   1.795 -0.5485 -0.0970 -0.0809
 6926SOL    HW132237   3.915   0.680   1.853  0.2470  0.1854  0.9792
 6926SOL    HW232238   3.982   0.664   1.721  0.6033 -0.1995  0.0803
 6927SOL     OW32239   0.872   4.246   6.994 -0.2198 -0.1250  0.4725
 6927SOL    HW132240   0.860   4.197   7.075 -0.0569 -0.6899  0.1496
 6927SOL    HW232241   0.814   4.207   6.929 -0.7680 -1.2502  1.6402
 6928SOL     OW32242   3.626   3.872   1.132  0.3790 -0.3540 -0.2569
 6928SOL    HW132243   3.659   3.873   1.042 -0.1391 -0.4197 -0.4447
 6928SOL    HW232244   3.641   3.965   1.149 -1.0535 -0.4574  1.5921
 6929SOL     OW32245   2.615   2.941  10.736  0.1153  0.8301 -0.2875
 6929SOL    HW132246   2.685   2.999  10.706  0.2795  0.5677 -0.4082
 6929SOL    HW232247   2.644   2.926  10.826 -0.8242  2.9147  0.3707
 6930SOL     OW32248   3.323   0.591   6.829  1.1485  0.2476  0.3252
 6930SOL    HW132249   3.394   0.545   6.784 -1.2337 -1.5095 -1.6428
 6930SOL    HW232250   3.311   0.542   6.911 -1.1373 -0.7939 -0.6239
 6931SOL     OW32251   4.462   4.041   5.931  0.4401  0.5625 -0.3326
 6931SOL    HW132252   4.527   4.092   5.979  1.2483 -1.4599  0.7054
 6931SOL    HW232253   4.506   3.956   5.931 -1.1900 -0.2751 -0.2051
 6932SOL     OW32254   3.362   1.679   5.777  0.0943 -0.0000  0.5147
 6932SOL    HW132255   3.372   1.703   5.870  2.4978 -0.2876  0.3061
 6932SOL    HW232256   3.450   1.698   5.745 -0.1025  1.6443  0.9563
 6933SOL     OW32257   2.484   0.333   6.082  0.3466 -0.7358 -0.0079
 6933SOL    HW132258   2.466   0.268   6.014 -0.5471 -0.2369 -0.2534
 6933SOL    HW232259   2.566   0.298   6.115 -0.0979 -0.8725  0.9519
 6934SOL     OW32260   2.888   4.679   4.707 -0.2228  0.1211 -0.2701
 6934SOL    HW132261   2.861   4.704   4.796  1.1786  0.1148  0.1587
 6934SOL    HW232262   2.886   0.042   4.664  1.5202 -0.5556 -1.6715
 6935SOL     OW32263   1.045   3.663   6.586  0.5051 -0.0909 -0.1203
 6935SOL    HW132264   1.113   3.639   6.524  1.6823 -0.4962  1.3351
 6935SOL    HW232265   0.965   3.652   6.535  0.6578  0.0288 -0.3823
 6936SOL     OW32266   4.103   4.413   2.272  0.2345  0.1017 -0.1039
 6936SOL    HW132267   4.077   4.351   2.203  1.3773 -0.4053 -0.0869
 6936SOL    HW232268   4.015   4.436   2.301 -0.0257 -0.5458 -0.3709
 6937SOL     OW32269   1.916   1.426   3.818  1.0107  0.2452 -0.2079
 6937SOL    HW132270   1.900   1.472   3.901  0.4836 -1.0648  0.4268
 6937SOL    HW232271   2.011   1.424   3.826  1.0631  0.1758 -0.8957
 6938SOL     OW32272   3.566   3.271  16.375 -0.6186 -0.0916 -0.2721
 6938SOL    HW132273   3.527   3.286  16.461  1.1439  0.8651  0.3532
 6938SOL    HW232274   3.657   3.272  16.405 -0.4125 -2.8634 -0.7830
 6939SOL     OW32275   3.479   1.125  16.471  0.3895 -0.5597  0.1843
 6939SOL    HW132276   3.568   1.154  16.491  0.9518 -1.6101 -0.7659
 6939SOL    HW232277   3.495   1.053  16.409  3.0331 -0.7097  1.0373
 6940SOL     OW32278   2.817   2.529   8.757  0.3416  0.1643  0.3185
 6940SOL    HW132279   2.758   2.501   8.826  1.5569  0.7263  1.5881
 6940SOL    HW232280   2.868   2.448   8.749 -0.0560  0.0375 -0.8820
 6941SOL     OW32281   4.622   4.540   4.123 -0.4981  0.1070 -0.4525
 6941SOL    HW132282   4.704   4.584   4.144 -0.3475 -1.2795  1.8581
 6941SOL    HW232283   4.648   4.503   4.038  0.6058 -0.6590  0.2248
 6942SOL     OW32284   1.316   2.994  13.538  0.1222 -0.3582 -0.0063
 6942SOL    HW132285   1.311   3.076  13.490 -1.8879 -1.2461 -1.3200
 6942SOL    HW232286   1.294   3.022  13.627 -0.0034 -0.2314 -0.0770
 6943SOL     OW32287   1.424   0.140   5.797 -0.3780 -0.1247 -0.0600
 6943SOL    HW132288   1.513   0.149   5.832 -0.4207 -0.1572  0.0557
 6943SOL    HW232289   1.368   0.180   5.863  1.6471  0.5405  1.2381
 6944SOL     OW32290   4.350   2.797   9.818 -0.2480 -0.2089  0.2087
 6944SOL    HW132291   4.383   2.739   9.886  1.2292  0.8959  0.4502
 6944SOL    HW232292   4.295   2.860   9.865 -1.5108 -0.0956 -1.4091
 6945SOL     OW32293   1.333   4.386  17.584  0.6446 -0.3258  0.5707
 6945SOL    HW132294   1.285   4.337  17.516 -0.6978 -0.7363  1.8185
 6945SOL    HW232295   1.344   4.305  17.633  1.6992 -0.4030  0.1970
 6946SOL     OW32296   1.708   3.516   6.476  0.1211 -0.2846 -0.1904
 6946SOL    HW132297   1.738   3.482   6.560 -0.6701 -0.7713 -0.1062
 6946SOL    HW232298   1.703   3.432   6.432 -2.6023  0.8041 -1.9510
 6947SOL     OW32299   3.947   2.898   8.080 -0.5445  0.2764  0.4098
 6947SOL    HW132300   4.023   2.934   8.126 -2.7282  0.2608  4.1091
 6947SOL    HW232301   3.920   2.965   8.017 -1.2674  1.2056  1.7010
 6948SOL     OW32302   0.851   2.004   4.082  0.2396 -0.9212 -0.4015
 6948SOL    HW132303   0.946   1.988   4.086  0.5149  0.4537 -1.7285
 6948SOL    HW232304   0.832   2.051   4.163 -1.9567 -1.5271 -0.5740
 6949SOL     OW32305   2.015   3.917   7.436 -0.4613 -0.3022  0.1342
 6949SOL    HW132306   2.088   3.953   7.386 -1.1916  0.1874 -0.5785
 6949SOL    HW232307   2.063   3.896   7.517  0.3547 -1.2126 -0.5854
 6950SOL     OW32308   3.504   3.075   5.693  0.3617 -0.1391  0.8694
 6950SOL    HW132309   3.494   3.010   5.623  1.0731  0.4824  0.1860
 6950SOL    HW232310   3.559   3.137   5.645 -0.1520  0.0182  0.4904
 6951SOL     OW32311   3.733   2.511   4.854  0.6374  0.0018  0.2993
 6951SOL    HW132312   3.791   2.454   4.905 -0.0576 -1.2697 -0.3421
 6951SOL    HW232313   3.790   2.529   4.779  0.3386 -0.6478 -0.0834
 6952SOL     OW32314   1.218   4.162  14.112  0.7410  0.1282 -0.1209
 6952SOL    HW132315   1.293   4.220  14.128  2.8332 -1.9830 -2.0909
 6952SOL    HW232316   1.184   4.156  14.201 -0.3079  0.6268 -0.4880
 6953SOL     OW32317   0.171   2.445   7.612 -0.1546  0.0523  0.0157
 6953SOL    HW132318   0.221   2.440   7.693 -1.2328  0.4375  0.7016
 6953SOL    HW232319   0.101   2.505   7.637  0.2151  0.1356  0.8647
 6954SOL     OW32320   1.975   0.807   4.960 -0.0674 -0.0302  0.4015
 6954SOL    HW132321   1.935   0.812   4.874 -1.1184 -0.7875  0.8447
 6954SOL    HW232322   2.029   0.728   4.962 -0.6993 -0.4717  0.1866
 6955SOL     OW32323   4.442   1.724  10.740 -0.6917 -0.2039  0.4221
 6955SOL    HW132324   4.497   1.658  10.698 -0.9984  0.0025 -0.3072
 6955SOL    HW232325   4.473   1.719  10.831 -3.5793  1.6614  1.5036
 6956SOL     OW32326   3.235   2.452   6.991  0.2016  0.3623 -0.3499
 6956SOL    HW132327   3.296   2.503   6.937  1.5318 -1.5061 -0.6334
 6956SOL    HW232328   3.165   2.517   7.000 -2.6233 -2.5833 -1.0989
 6957SOL     OW32329   2.506   3.783   8.745  0.0186  1.2076 -0.4648
 6957SOL    HW132330   2.530   3.795   8.837  2.7871 -2.2565 -0.7201
 6957SOL    HW232331   2.560   3.707   8.723  0.0366  1.1870 -0.3452
 6958SOL     OW32332   4.643   1.516  11.195 -0.0254  0.5167  0.8296
 6958SOL    HW132333   4.684   1.551  11.274  1.5090 -1.7194  1.0450
 6958SOL    HW232334   4.582   1.452  11.232  0.0124  1.3892  2.3773
 6959SOL     OW32335   3.980   1.649   7.861  0.3199  0.2258  0.0356
 6959SOL    HW132336   3.950   1.683   7.777 -0.8403 -0.7562  0.0424
 6959SOL    HW232337   4.073   1.644   7.842 -0.1729  0.5257 -2.4235
 6960SOL     OW32338   1.638   2.529   2.417  0.4488  0.5567 -0.4145
 6960SOL    HW132339   1.659   2.439   2.438 -0.1080  0.1604 -1.5414
 6960SOL    HW232340   1.659   2.578   2.497  1.4585 -1.1403  0.3366
 6961SOL     OW32341   4.596   0.891  14.936  0.0542  0.0416 -0.5559
 6961SOL    HW132342   4.625   0.800  14.928 -2.8651 -1.0010  0.6776
 6961SOL    HW232343   4.510   0.894  14.893 -0.4575 -1.7009  0.3502
 6962SOL     OW32344   1.221   0.195  12.422  0.3937 -0.1870  0.1742
 6962SOL    HW132345   1.133   0.185  12.459 -0.0660  0.2742 -0.7826
 6962SOL    HW232346   1.213   0.280  12.378 -1.8785 -0.3364  0.2682
 6963SOL     OW32347   4.272   0.540  10.282 -0.2026 -0.5486 -0.7654
 6963SOL    HW132348   4.261   0.580  10.368  0.8515  1.3607 -1.5086
 6963SOL    HW232349   4.202   0.585  10.234  1.8104  3.4204  0.0244
 6964SOL     OW32350   3.411   3.409  11.169  0.5601 -0.0323  0.2366
 6964SOL    HW132351   3.438   3.431  11.258 -2.7459 -2.4334  1.8564
 6964SOL    HW232352   3.431   3.316  11.180  0.9566 -0.0776 -0.8217
 6965SOL     OW32353   1.252   0.716   6.584  0.0587  0.7127 -0.0046
 6965SOL    HW132354   1.263   0.686   6.674 -2.0035  1.9144  0.6443
 6965SOL    HW232355   1.288   0.805   6.588 -0.5077  0.8389  2.0174
 6966SOL     OW32356   3.362   4.471   5.798 -0.5546 -0.2376  0.2170
 6966SOL    HW132357   3.312   4.419   5.735 -0.9816 -1.1295  1.2956
 6966SOL    HW232358   3.348   4.422   5.878  0.6433  0.6376  0.9673
 6967SOL     OW32359   3.318   0.822   7.058  0.5472 -0.3611  0.0871
 6967SOL    HW132360   3.234   0.798   7.019  0.9875  0.2986 -1.2329
 6967SOL    HW232361   3.343   0.737   7.094 -1.3197 -1.2596 -0.6961
 6968SOL     OW32362   3.429   2.126   7.658 -0.1873 -0.4884 -0.2994
 6968SOL    HW132363   3.343   2.126   7.701  0.5303  0.3808  1.1299
 6968SOL    HW232364   3.472   2.190   7.714 -3.6534  0.4562  1.2783
 6969SOL     OW32365   3.142   3.912   6.562  0.1922  0.2742 -0.2656
 6969SOL    HW132366   3.053   3.919   6.527 -0.1807 -1.5635  0.3131
 6969SOL    HW232367   3.123   3.950   6.648  0.2948 -2.2857  0.8821
 6970SOL     OW32368   0.145   2.877   9.000 -0.3436  0.0618  0.0767
 6970SOL    HW132369   0.240   2.875   8.987 -0.2517  0.5975  0.6978
 6970SOL    HW232370   0.138   2.790   9.040 -1.2245 -0.6560 -1.6306
 6971SOL     OW32371   2.896   4.284   4.016 -0.0655 -0.1792  0.6466
 6971SOL    HW132372   2.828   4.227   4.051  0.0156 -0.3686  0.4959
 6971SOL    HW232373   2.968   4.222   4.001  0.8361  0.8945  0.5384
 6972SOL     OW32374   0.070   4.205   5.660 -0.6809 -0.3264 -0.2109
 6972SOL    HW132375   0.128   4.275   5.630  1.4616 -1.6294  0.8664
 6972SOL    HW232376   0.079   4.144   5.587 -0.9994  1.9979 -2.1829
 6973SOL     OW32377   4.266   4.146  12.659 -0.6541 -0.2024  0.4973
 6973SOL    HW132378   4.177   4.118  12.682 -0.8632 -0.4746 -0.6092
 6973SOL    HW232379   4.315   4.119  12.736  1.2419 -0.5248 -0.8042
 6974SOL     OW32380   1.625   3.121   1.393 -0.1630 -0.2465  0.4235
 6974SOL    HW132381   1.637   3.212   1.366 -0.2336 -0.5055 -0.5166
 6974SOL    HW232382   1.540   3.116   1.438 -0.7879 -0.8242 -0.8113
 6975SOL     OW32383   0.778   3.978  10.582 -0.2367 -0.1505  0.0788
 6975SOL    HW132384   0.752   4.060  10.541 -1.9820 -0.6290  0.2481
 6975SOL    HW232385   0.801   4.011  10.669 -1.3577  0.5924  0.0835
 6976SOL     OW32386   3.231   1.047   7.570 -0.4378  0.6706  0.0691
 6976SOL    HW132387   3.286   1.112   7.613 -1.2034 -0.0388  2.1418
 6976SOL    HW232388   3.150   1.098   7.563  0.0251  1.5488  1.1103
 6977SOL     OW32389   3.786   2.923   3.147  0.9521  0.7177  0.1409
 6977SOL    HW132390   3.859   2.870   3.179 -0.2428 -2.3100 -2.1510
 6977SOL    HW232391   3.735   2.851   3.109  0.1478  1.6075 -0.4831
 6978SOL     OW32392   0.580   0.564  15.531 -0.7031 -0.0493  0.2078
 6978SOL    HW132393   0.516   0.534  15.596  0.9799  0.1141  1.9551
 6978SOL    HW232394   0.554   0.654  15.511  0.0698  0.3120  0.8349
 6979SOL     OW32395   1.497   0.503   7.841  0.2805 -0.6868 -0.2244
 6979SOL    HW132396   1.482   0.409   7.830  2.2430 -1.0225 -0.0705
 6979SOL    HW232397   1.437   0.522   7.913  1.2561  4.9298 -0.8696
 6980SOL     OW32398   3.324   4.078  12.119 -0.0186  0.2065 -0.3624
 6980SOL    HW132399   3.237   4.063  12.082  0.7164  0.0564 -2.0300
 6980SOL    HW232400   3.330   4.171  12.099  1.1721  0.5549  1.6121
 6981SOL     OW32401   1.947   2.860   5.540  0.1681 -0.4308  0.2220
 6981SOL    HW132402   1.993   2.858   5.456 -1.4036 -1.4073 -0.6293
 6981SOL    HW232403   1.983   2.940   5.577  2.6622 -0.7145 -1.6172
 6982SOL     OW32404   1.535   0.409   1.587  0.2159  0.5029  0.2159
 6982SOL    HW132405   1.530   0.337   1.649  1.1524  0.7490  0.5805
 6982SOL    HW232406   1.549   0.477   1.654 -0.6406  0.8007  0.0935
 6983SOL     OW32407   4.024   1.088   5.099  0.1120  0.0861  0.4796
 6983SOL    HW132408   3.987   1.172   5.126 -0.4506  0.3413 -1.0519
 6983SOL    HW232409   3.979   1.077   5.015 -0.8976  2.5475  0.7019
 6984SOL     OW32410   0.424   4.305   0.075  0.0066 -0.1785 -0.3447
 6984SOL    HW132411   0.422   4.304   0.171  0.9567 -1.2287 -0.3393
 6984SOL    HW232412   0.445   4.213   0.062 -0.3599 -0.3259  0.1073
 6985SOL     OW32413   1.923   4.055   8.017  0.0848 -0.0619  0.1522
 6985SOL    HW132414   1.976   4.064   8.096  0.0908 -2.7057  0.4816
 6985SOL    HW232415   1.836   4.088   8.039  0.9508  2.1983  0.1717
 6986SOL     OW32416   4.548   0.972   9.739  0.0106  0.1126  0.4527
 6986SOL    HW132417   4.536   0.919   9.818  1.3101  1.1282  1.3314
 6986SOL    HW232418   4.468   1.025   9.740  0.5314  0.8958  0.5000
 6987SOL     OW32419   1.029   1.236   4.528  0.3740  0.4673 -0.3213
 6987SOL    HW132420   1.002   1.223   4.619  1.3686 -1.5767 -0.3282
 6987SOL    HW232421   1.065   1.324   4.539  0.2005  0.5947 -0.7767
 6988SOL     OW32422   0.299   1.942   8.353 -0.1953  0.5895 -0.0152
 6988SOL    HW132423   0.270   1.853   8.373  0.6013  0.1276 -0.9388
 6988SOL    HW232424   0.386   1.930   8.318  0.5294  2.6659  1.0492
 6989SOL     OW32425   3.593   2.423   2.093 -0.3484 -0.4838  0.5697
 6989SOL    HW132426   3.639   2.407   2.010 -1.0067 -3.0236  0.6912
 6989SOL    HW232427   3.531   2.350   2.095 -0.9667  0.0333  0.3823
 6990SOL     OW32428   3.197   3.413   0.294 -0.1760 -0.3730 -0.2497
 6990SOL    HW132429   3.104   3.438   0.287  0.2140  2.2707  4.0641
 6990SOL    HW232430   3.236   3.495   0.321  1.5540 -2.6066  4.0238
 6991SOL     OW32431   1.049   3.704   7.685 -0.1064 -0.1210 -0.8395
 6991SOL    HW132432   1.120   3.708   7.750 -0.5659  1.0982 -0.3972
 6991SOL    HW232433   1.023   3.796   7.681  1.7408  0.3233 -2.8901
 6992SOL     OW32434   2.992   3.361  17.018  0.0715  0.2382  0.0291
 6992SOL    HW132435   2.993   3.394  17.108 -1.4471 -0.1329  0.1927
 6992SOL    HW232436   2.944   3.438  16.985  0.8722  1.2015  1.1283
 6993SOL     OW32437   0.498   4.447   2.467  0.4528 -0.0574  0.0266
 6993SOL    HW132438   0.545   4.475   2.388  0.9470  3.9613  1.7768
 6993SOL    HW232439   0.572   4.417   2.521  0.1443 -1.3977 -0.2901
 6994SOL     OW32440   1.877   1.590   5.683  0.5397  0.4719  0.1553
 6994SOL    HW132441   1.804   1.648   5.660 -0.5926 -1.3768 -0.8635
 6994SOL    HW232442   1.822   1.517   5.711  2.0265  0.2700  2.4717
 6995SOL     OW32443   1.142   0.925  14.764 -0.3718 -0.5812  0.4165
 6995SOL    HW132444   1.151   0.857  14.831  0.9337 -2.7420 -1.9102
 6995SOL    HW232445   1.190   0.994  14.808 -0.1374 -0.9755  0.7799
 6996SOL     OW32446   4.172   3.625   3.748 -0.4936 -0.2394  0.5025
 6996SOL    HW132447   4.255   3.600   3.709 -0.2467  2.0721 -0.4262
 6996SOL    HW232448   4.110   3.609   3.677  0.4154 -0.4467 -0.2455
 6997SOL     OW32449   2.066   4.471   9.587 -0.1813 -0.6519 -0.3160
 6997SOL    HW132450   2.088   4.562   9.605  2.4102 -1.5131  0.9086
 6997SOL    HW232451   1.988   4.465   9.643 -0.7772 -1.6755 -1.2514
 6998SOL     OW32452   3.038   2.143   7.549 -0.0962  0.1801 -0.3999
 6998SOL    HW132453   2.949   2.151   7.583  0.5477  1.0437  1.0531
 6998SOL    HW232454   3.082   2.124   7.631  3.6232  0.8834 -2.2267
 6999SOL     OW32455   2.533   3.939   4.477 -0.5027 -0.3378  0.0641
 6999SOL    HW132456   2.597   3.934   4.406 -1.7191  1.1804 -1.1571
 6999SOL    HW232457   2.565   3.867   4.531  2.9952  0.2714 -1.2265
 7000SOL     OW32458   0.265   0.375   2.088  0.1154 -0.2853 -0.1741
 7000SOL    HW132459   0.300   0.458   2.118 -1.1968  0.1902  0.0651
 7000SOL    HW232460   0.342   0.319   2.084  1.7284  1.7614  2.5211
 7001SOL     OW32461   2.757   3.792   4.646 -0.1007  0.9044  0.5821
 7001SOL    HW132462   2.695   3.720   4.650 -0.1254  0.9127  0.3680
 7001SOL    HW232463   2.829   3.746   4.602 -0.4576  0.2886  0.6465
 7002SOL     OW32464   3.613   4.412  16.814 -0.4199 -0.4678  0.1274
 7002SOL    HW132465   3.646   4.423  16.903 -1.5268  1.0512  0.3529
 7002SOL    HW232466   3.665   4.341  16.777 -0.2815 -0.6489  0.6660
 7003SOL     OW32467   0.696   2.503   9.112 -0.0639  0.7097  0.1542
 7003SOL    HW132468   0.762   2.435   9.100  0.3026  0.2479  4.8461
 7003SOL    HW232469   0.617   2.449   9.113  1.8976 -2.1870 -0.3444
 7004SOL     OW32470   0.657   1.394   3.641  0.0544  0.4188  0.3338
 7004SOL    HW132471   0.607   1.463   3.597 -0.1767  0.1300  0.1409
 7004SOL    HW232472   0.626   1.404   3.731  1.3193  0.8853  0.7140
 7005SOL     OW32473   2.632   1.160   3.724  0.8479 -0.1003  0.0038
 7005SOL    HW132474   2.620   1.253   3.743  0.0631 -0.8389  3.0566
 7005SOL    HW232475   2.724   1.140   3.706  1.2197 -1.2332  3.2835
 7006SOL     OW32476   1.709   3.608   2.532  0.0959 -0.5146  0.3829
 7006SOL    HW132477   1.726   3.692   2.576  0.7555  0.0037 -0.8773
 7006SOL    HW232478   1.661   3.559   2.599 -1.4110  1.5350  0.8033
 7007SOL     OW32479   1.005   3.273   7.969  0.1909  0.0626  0.6551
 7007SOL    HW132480   1.051   3.353   7.945 -0.4526  0.5009  0.8697
 7007SOL    HW232481   0.945   3.272   7.895 -0.3205 -0.6314  1.0733
 7008SOL     OW32482   1.117   4.158   4.035 -0.6433 -0.4596  0.5132
 7008SOL    HW132483   1.207   4.185   4.055 -1.4234  0.5961  2.5911
 7008SOL    HW232484   1.128   4.064   4.020 -1.7699 -0.3644 -0.8578
 7009SOL     OW32485   1.644   4.055   7.796 -0.1347  0.0469  0.0127
 7009SOL    HW132486   1.628   4.039   7.889 -1.9854  2.9322  0.1823
 7009SOL    HW232487   1.669   4.148   7.801 -0.6971  0.1206  1.2304
 7010SOL     OW32488   0.891   0.098   5.541 -0.6920 -0.0003  0.2656
 7010SOL    HW132489   0.980   0.131   5.530 -0.6269 -0.4368 -0.5527
 7010SOL    HW232490   0.907   0.005   5.556 -0.9115  0.2900  2.2427
 7011SOL     OW32491   1.549   0.144   2.392 -0.0656  0.0681 -0.0049
 7011SOL    HW132492   1.535   0.123   2.484 -2.6341  1.7075 -0.0040
 7011SOL    HW232493   1.619   0.207   2.406 -2.2079  1.4494  4.5584
 7012SOL     OW32494   2.529   0.572   1.591  1.0830 -0.0912  0.6581
 7012SOL    HW132495   2.578   0.647   1.557 -1.6355  1.2086 -0.3390
 7012SOL    HW232496   2.578   0.552   1.671  2.0711  0.5010  0.2058
 7013SOL     OW32497   1.508   1.288   2.318 -0.6656  0.3986  0.0656
 7013SOL    HW132498   1.568   1.268   2.247 -2.3763 -3.0219 -0.3945
 7013SOL    HW232499   1.553   1.369   2.345 -0.3477 -0.0583  0.8890
 7014SOL     OW32500   1.844   1.978   4.429 -0.2383 -0.3435 -0.6139
 7014SOL    HW132501   1.864   2.045   4.364 -0.2814  0.7362  0.4800
 7014SOL    HW232502   1.920   1.919   4.427 -1.0012 -1.3911  1.3145
 7015SOL     OW32503   1.112   3.097   6.885 -0.5502  0.0957  0.5030
 7015SOL    HW132504   1.117   3.036   6.811  0.7155  1.3930 -0.4602
 7015SOL    HW232505   1.153   3.039   6.949 -0.8805 -1.1120 -0.3632
 7016SOL     OW32506   0.299   0.637  11.644 -0.3061  0.0858 -0.0642
 7016SOL    HW132507   0.346   0.714  11.612  0.0187 -0.4012 -0.7554
 7016SOL    HW232508   0.297   0.644  11.739  1.0366 -2.2287  0.1251
 7017SOL     OW32509   3.785   0.754   4.284 -0.8463 -0.2494 -0.3592
 7017SOL    HW132510   3.816   0.841   4.259  0.4257 -0.8139 -0.7858
 7017SOL    HW232511   3.795   0.755   4.379 -0.0920  0.2405 -0.4405
 7018SOL     OW32512   1.456   2.147   7.647  0.6113 -0.1736  0.4981
 7018SOL    HW132513   1.502   2.204   7.586 -2.6637 -0.2243 -2.0059
 7018SOL    HW232514   1.376   2.131   7.596 -0.7278  1.6221  2.0149
 7019SOL     OW32515   3.566   3.300   2.425 -0.4228  0.1333  0.2046
 7019SOL    HW132516   3.604   3.344   2.502 -1.7920  1.6643  0.0024
 7019SOL    HW232517   3.646   3.273   2.379  0.5418  1.4188  1.1317
 7020SOL     OW32518   3.086   1.653  14.925  0.4729 -0.1008 -0.3525
 7020SOL    HW132519   3.138   1.591  14.873  0.6921  0.5718 -0.9373
 7020SOL    HW232520   3.080   1.609  15.009 -0.7475  1.4627  0.3766
 7021SOL     OW32521   0.968   4.012   4.332 -0.0883  0.0855  0.0562
 7021SOL    HW132522   0.957   4.009   4.237  0.7580  0.5226 -0.0587
 7021SOL    HW232523   1.000   3.924   4.352 -0.6708  0.3203  2.0854
 7022SOL     OW32524   0.247   0.186   7.656  0.0606 -0.4035 -0.1602
 7022SOL    HW132525   0.304   0.186   7.732  0.8873  0.4923 -0.7845
 7022SOL    HW232526   0.186   0.117   7.685 -2.3088  1.0030 -1.7270
 7023SOL     OW32527   1.032   4.695   7.594 -0.3065 -0.3720 -0.8362
 7023SOL    HW132528   0.993   4.612   7.618 -2.1617  0.6271 -0.4343
 7023SOL    HW232529   1.007   4.701   7.502  0.2450 -0.6531 -1.0083
 7024SOL     OW32530   2.257   3.616  16.613  0.4074 -0.0648 -0.1111
 7024SOL    HW132531   2.323   3.682  16.591 -2.2212  2.4227 -0.5071
 7024SOL    HW232532   2.244   3.636  16.706 -0.2161  2.1966 -0.6844
 7025SOL     OW32533   0.606   2.469   3.859 -0.4401 -0.7574 -0.7517
 7025SOL    HW132534   0.663   2.510   3.794 -0.5283 -1.2540 -1.1412
 7025SOL    HW232535   0.648   2.382   3.860 -3.3771 -2.1206  2.8930
 7026SOL     OW32536   1.926   1.214   2.149 -0.0364 -0.0765  0.3737
 7026SOL    HW132537   1.949   1.282   2.213  1.1010  0.1525 -0.2738
 7026SOL    HW232538   1.992   1.148   2.171 -0.0671 -0.0265  0.6169
 7027SOL     OW32539   1.285   1.014   3.307  0.0104  0.3398  0.5693
 7027SOL    HW132540   1.219   1.039   3.242  0.3359  1.9409  0.8649
 7027SOL    HW232541   1.362   1.061   3.276 -0.3050 -0.4132 -1.3909
 7028SOL     OW32542   1.441   1.034  14.449 -0.4710 -0.2748  0.6669
 7028SOL    HW132543   1.446   0.971  14.377  3.1670 -1.0220  1.5787
 7028SOL    HW232544   1.490   0.986  14.516 -0.5652  0.4295  1.2392
 7029SOL     OW32545   2.910   1.862   5.512  0.0105 -0.2426 -0.8333
 7029SOL    HW132546   2.941   1.814   5.588 -0.9452 -1.6657 -1.3348
 7029SOL    HW232547   2.944   1.801   5.447 -1.4051  0.5912 -2.3713
 7030SOL     OW32548   2.353   1.467   2.480 -0.7667  0.2612  0.1760
 7030SOL    HW132549   2.376   1.512   2.398  3.2656 -0.4326  0.9368
 7030SOL    HW232550   2.403   1.522   2.540  0.2256 -0.5303  0.0710
 7031SOL     OW32551   3.480   2.759   4.155 -0.3104  0.1760 -0.2254
 7031SOL    HW132552   3.552   2.811   4.190 -0.7403  0.9458 -0.4987
 7031SOL    HW232553   3.444   2.731   4.240 -0.1988  1.4016  0.2234
 7032SOL     OW32554   4.009   1.054  16.588  0.3496  0.4667  0.0642
 7032SOL    HW132555   3.975   1.115  16.653  0.4911 -2.3214  2.7353
 7032SOL    HW232556   4.010   1.106  16.508 -0.0264 -1.7647 -1.3870
 7033SOL     OW32557   1.938   4.567   5.282 -0.0748  0.4199  0.9291
 7033SOL    HW132558   2.025   4.529   5.272 -0.2649  0.8939 -2.7941
 7033SOL    HW232559   1.916   4.518   5.361  1.5684  0.4553  1.3958
 7034SOL     OW32560   1.006   4.537   8.576  0.2672 -0.0273 -0.0455
 7034SOL    HW132561   0.988   4.631   8.582 -1.0422 -0.2330 -0.5723
 7034SOL    HW232562   1.053   4.533   8.659  0.1597  1.8421  0.1079
 7035SOL     OW32563   1.076   3.720   3.797  0.1393 -0.1027  0.1497
 7035SOL    HW132564   1.045   3.748   3.711  2.9286  0.5972 -0.6355
 7035SOL    HW232565   1.079   3.625   3.790  0.2705 -0.2540  2.2393
 7036SOL     OW32566   0.336   2.276   8.418 -0.2701  0.1180 -0.1003
 7036SOL    HW132567   0.380   2.272   8.333  0.3578 -1.0386  0.2879
 7036SOL    HW232568   0.248   2.299   8.386 -1.5305 -2.2018  1.6999
 7037SOL     OW32569   0.530   3.452   8.068  0.4491 -0.2298 -0.1112
 7037SOL    HW132570   0.597   3.521   8.075  1.2939 -0.9706 -0.8395
 7037SOL    HW232571   0.535   3.416   8.156 -2.3543 -1.4597 -0.4631
 7038SOL     OW32572   1.995   0.950   4.142 -0.0497 -0.4179  0.0289
 7038SOL    HW132573   1.942   0.915   4.071  0.4287 -1.2245  0.0674
 7038SOL    HW232574   1.938   0.947   4.218  1.5151 -1.6352  1.1351
 7039SOL     OW32575   2.140   3.323  10.797  0.4064 -0.3193  0.0015
 7039SOL    HW132576   2.078   3.350  10.730  0.9146  0.1243 -0.2918
 7039SOL    HW232577   2.131   3.230  10.774 -2.9922 -0.4648  1.9234
 7040SOL     OW32578   2.968   4.140  12.948  0.1495 -0.5764  0.5456
 7040SOL    HW132579   3.009   4.080  12.885 -2.3872 -1.2051 -0.5420
 7040SOL    HW232580   2.976   4.227  12.908 -0.5140 -0.7195  0.0986
 7041SOL     OW32581   2.173   0.896   3.053  0.1112 -0.2393 -0.6830
 7041SOL    HW132582   2.213   0.926   2.971  0.2285 -2.0301 -1.2733
 7041SOL    HW232583   2.108   0.837   3.014 -0.7254  0.5414 -0.4815
 7042SOL     OW32584   2.719   2.429   2.894 -0.4103 -0.1886 -0.7569
 7042SOL    HW132585   2.681   2.397   2.812 -0.5466 -1.6496 -0.1204
 7042SOL    HW232586   2.763   2.507   2.861  0.9614  0.2860  2.2431
 7043SOL     OW32587   0.467   2.942   2.488  0.3040 -0.2356  0.9299
 7043SOL    HW132588   0.396   2.923   2.550 -0.0413  1.1776  0.9783
 7043SOL    HW232589   0.443   2.892   2.410 -0.1192  2.4446 -0.6441
 7044SOL     OW32590   3.472   1.123   8.450 -0.3822 -0.2151  0.1881
 7044SOL    HW132591   3.418   1.177   8.392  0.1949  0.8374  0.6214
 7044SOL    HW232592   3.538   1.107   8.383  1.1020 -0.8729  1.8205
 7045SOL     OW32593   0.009   2.249  16.991  0.3566  0.0852  0.0053
 7045SOL    HW132594   0.098   2.278  16.972  1.5070 -1.5881  2.9092
 7045SOL    HW232595   4.687   2.333  16.996 -0.8844 -0.7471  2.9600
 7046SOL     OW32596   4.239   0.826   1.240 -0.1203  0.2875 -0.3019
 7046SOL    HW132597   4.323   0.863   1.214 -0.5227  0.9163 -0.7084
 7046SOL    HW232598   4.250   0.824   1.335 -4.5053 -1.0823  0.1911
 7047SOL     OW32599   0.952   2.280   2.864  0.5831  0.6587  0.0658
 7047SOL    HW132600   1.000   2.340   2.921  1.6989 -1.1398  1.0345
 7047SOL    HW232601   0.900   2.346   2.818 -0.0710 -0.4288 -0.7651
 7048SOL     OW32602   1.973   4.414   7.928 -0.0267 -0.4852 -0.4777
 7048SOL    HW132603   1.891   4.377   7.895  0.5049 -1.0150 -1.2143
 7048SOL    HW232604   1.985   4.354   8.002  0.2142 -0.0518 -0.1687
 7049SOL     OW32605   4.367   1.809  10.237  0.2965  1.2392 -0.2300
 7049SOL    HW132606   4.441   1.863  10.265  0.8541 -0.2177  1.1097
 7049SOL    HW232607   4.315   1.869  10.184  0.7876  1.3152 -0.6299
 7050SOL     OW32608   1.394   2.844   2.861 -0.4982 -0.4094 -0.2679
 7050SOL    HW132609   1.449   2.836   2.783  1.5469  0.5055  1.0788
 7050SOL    HW232610   1.312   2.879   2.826 -0.2547  0.2385 -0.1857
 7051SOL     OW32611   1.082   1.203  16.727  0.3941 -0.1234 -0.2586
 7051SOL    HW132612   1.109   1.116  16.758  1.5123  0.6886  1.0501
 7051SOL    HW232613   1.121   1.256  16.796  1.0915  0.2447 -0.9457
 7052SOL     OW32614   1.209   2.650   6.750  0.3612 -0.5672  0.4054
 7052SOL    HW132615   1.196   2.745   6.743  1.0916 -0.5931 -1.3737
 7052SOL    HW232616   1.126   2.619   6.714  0.6353  0.2956 -0.9618
 7053SOL     OW32617   3.978   2.184   4.782 -0.1931  0.1521 -0.1330
 7053SOL    HW132618   4.021   2.183   4.867 -0.5934 -0.3990  0.0576
 7053SOL    HW232619   4.054   2.150   4.735  0.6441 -0.2295  1.4942
 7054SOL     OW32620   4.514   2.256  11.871  0.2354  0.1909  0.3374
 7054SOL    HW132621   4.462   2.336  11.876  0.6739  0.1969  5.1316
 7054SOL    HW232622   4.545   2.257  11.781  0.7008  1.7430  0.5158
 7055SOL     OW32623   3.735   1.239   8.910  0.1257  0.0466  0.6403
 7055SOL    HW132624   3.650   1.260   8.948  0.7194 -2.9073  3.6348
 7055SOL    HW232625   3.707   1.200   8.827  1.4167  0.7392 -0.1201
 7056SOL     OW32626   3.261   1.535   1.145  0.2220  0.2988 -0.3362
 7056SOL    HW132627   3.335   1.574   1.097  1.2692 -0.4344  0.6986
 7056SOL    HW232628   3.232   1.608   1.200  0.1535 -0.6533  0.8842
 7057SOL     OW32629   0.883   3.431   4.584 -0.0006 -0.0663 -0.3034
 7057SOL    HW132630   0.935   3.468   4.655 -0.4449 -1.7433  0.9017
 7057SOL    HW232631   0.948   3.410   4.517  3.3077  1.5205  2.4584
 7058SOL     OW32632   4.213   2.564   4.803 -0.0988 -0.4728 -0.2591
 7058SOL    HW132633   4.275   2.629   4.769  0.4491 -0.4589  0.7708
 7058SOL    HW232634   4.214   2.498   4.733  1.1960 -0.2917 -0.4169
 7059SOL     OW32635   1.216   1.384   2.626 -0.4576  0.0619  0.4958
 7059SOL    HW132636   1.302   1.346   2.606  0.9818  1.6085  3.7686
 7059SOL    HW232637   1.245   1.444   2.695  1.1380  1.1261 -1.0912
 7060SOL     OW32638   0.378   3.181  12.960 -0.0477  0.2071  0.1775
 7060SOL    HW132639   0.285   3.166  12.975  0.1741  0.2812  1.6564
 7060SOL    HW232640   0.395   3.254  13.019 -1.6629 -0.0078  0.9254
 7061SOL     OW32641   3.256   1.792   9.462  0.1749 -0.0506 -0.7518
 7061SOL    HW132642   3.222   1.782   9.551  0.6253 -0.5848 -0.6378
 7061SOL    HW232643   3.350   1.793   9.481 -0.3419  0.6155  1.8154
 7062SOL     OW32644   2.993   3.130   2.089 -0.0839  0.8334  0.4705
 7062SOL    HW132645   2.972   3.222   2.070  3.2273  1.4029 -0.4454
 7062SOL    HW232646   2.912   3.096   2.126  1.4153 -1.3177  1.8453
 7063SOL     OW32647   4.618   1.280  14.945 -0.2340  0.0901 -0.1913
 7063SOL    HW132648   4.551   1.271  15.012  0.1625  1.6810  0.4180
 7063SOL    HW232649   4.576   1.239  14.869  3.4044 -1.1304 -1.5557
 7064SOL     OW32650   3.742   3.270   6.804 -0.3061 -0.7699  0.0365
 7064SOL    HW132651   3.764   3.360   6.830 -1.5551  0.0945 -1.9263
 7064SOL    HW232652   3.672   3.256   6.869  0.0605  0.6548  0.7390
 7065SOL     OW32653   2.773   4.175   3.033  0.1401 -0.1337 -0.2646
 7065SOL    HW132654   2.805   4.121   3.106 -0.0486  0.6931  0.4308
 7065SOL    HW232655   2.697   4.126   3.000 -1.1159  1.5543  0.1091
 7066SOL     OW32656   3.671   3.832   7.242 -0.2784  0.3836 -0.5152
 7066SOL    HW132657   3.691   3.809   7.151 -0.8466 -0.2251 -0.4890
 7066SOL    HW232658   3.759   3.828   7.279  0.1061  1.7562 -1.2947
 7067SOL     OW32659   3.323   1.525   2.295 -0.3251 -0.5847  0.5119
 7067SOL    HW132660   3.267   1.526   2.217 -0.7315 -1.4517  0.7926
 7067SOL    HW232661   3.407   1.530   2.250 -1.1548 -1.0657 -1.1165
 7068SOL     OW32662   3.374   1.354   0.025 -0.5289 -0.1846 -0.0388
 7068SOL    HW132663   3.327   1.374  17.638  0.1641 -1.1213 -0.6894
 7068SOL    HW232664   3.439   1.424   0.025  1.0435 -1.6254  0.5655
 7069SOL     OW32665   4.690   1.057  13.202  0.2462 -0.3728  0.3766
 7069SOL    HW132666   4.603   1.050  13.163  0.6958  0.5218 -0.7654
 7069SOL    HW232667   4.707   1.150  13.215 -0.0707 -0.2684  0.0240
 7070SOL     OW32668   4.714   0.586   6.875  0.1450  0.7963 -0.2508
 7070SOL    HW132669   4.654   0.534   6.928  1.5148 -1.8744 -1.3548
 7070SOL    HW232670   4.655   0.631   6.814 -1.7385  0.3324  1.2140
 7071SOL     OW32671   0.963   0.437   8.069 -0.8333 -0.0143 -0.7854
 7071SOL    HW132672   0.874   0.402   8.070 -0.0365 -2.0209  0.1705
 7071SOL    HW232673   1.005   0.408   8.150 -0.3351 -1.4683 -1.5731
 7072SOL     OW32674   3.739   1.181  16.496  0.1756 -0.0006  0.1466
 7072SOL    HW132675   3.694   1.234  16.561 -2.0248 -1.1915 -0.4085
 7072SOL    HW232676   3.819   1.228  16.469  0.6386 -0.5502  0.5744
 7073SOL     OW32677   4.489   2.807   8.962 -0.4861  0.1242  0.3317
 7073SOL    HW132678   4.492   2.894   9.003  0.2082  0.1302  0.2586
 7073SOL    HW232679   4.549   2.760   9.020  0.0090 -1.0544 -1.1610
 7074SOL     OW32680   2.128   2.201   7.942 -0.0404  0.8547 -0.5191
 7074SOL    HW132681   2.106   2.109   7.949 -1.7533  1.4848  2.3174
 7074SOL    HW232682   2.058   2.257   7.907 -1.8070 -0.1063  1.4666
 7075SOL     OW32683   2.053   0.316   7.404  0.1083  0.1985  0.4162
 7075SOL    HW132684   2.061   0.330   7.310 -0.1931  1.4450  0.5670
 7075SOL    HW232685   1.970   0.268   7.403  0.4923 -0.4563 -0.0710
 7076SOL     OW32686   0.166   2.189   0.278 -0.1800  0.5329  0.1266
 7076SOL    HW132687   0.185   2.267   0.226  0.8354  0.1710 -0.0443
 7076SOL    HW232688   0.109   2.139   0.220 -0.8873 -1.2303  2.3314
 7077SOL     OW32689   4.218   0.057   8.334  0.1895  0.0212 -0.3000
 7077SOL    HW132690   4.227   0.094   8.422  2.7790  0.7432 -0.8974
 7077SOL    HW232691   4.303   0.064   8.291 -0.0815  0.7246 -0.7200
 7078SOL     OW32692   0.170   2.760  11.321 -0.3786 -0.0962  0.2395
 7078SOL    HW132693   0.252   2.710  11.323 -0.2366  0.1621  1.0248
 7078SOL    HW232694   0.142   2.746  11.231 -1.5332  0.0672  0.5685
 7079SOL     OW32695   0.665   1.279   4.637 -0.0018 -0.0819  0.1920
 7079SOL    HW132696   0.639   1.191   4.609  0.0353  0.0974 -0.4238
 7079SOL    HW232697   0.758   1.268   4.656 -0.1325 -0.9413  0.3330
 7080SOL     OW32698   2.708   1.196   5.000 -0.0272 -0.2438  0.6624
 7080SOL    HW132699   2.770   1.150   4.943  0.7537 -0.3077  1.5587
 7080SOL    HW232700   2.631   1.164   4.953  0.9164 -0.1635 -0.9553
 7081SOL     OW32701   1.572   3.008   8.399  0.4566  0.2308  0.5359
 7081SOL    HW132702   1.486   2.967   8.387  0.2113  1.0839 -0.6080
 7081SOL    HW232703   1.538   3.096   8.412 -0.9976 -0.0110 -1.5512
 7082SOL     OW32704   2.146   4.189   4.909  0.2671 -0.3317 -0.3461
 7082SOL    HW132705   2.158   4.165   4.817  0.2049  0.1408 -0.4821
 7082SOL    HW232706   2.052   4.209   4.912  0.2013 -0.8575  0.7918
 7083SOL     OW32707   0.209   3.018   4.445 -0.0712 -0.6963 -0.1941
 7083SOL    HW132708   0.276   2.958   4.414  1.9544  0.7169  1.4408
 7083SOL    HW232709   0.263   3.075   4.500 -0.4239 -0.8620  0.3295
 7084SOL     OW32710   1.811   1.805   3.268  1.0216 -0.1599 -1.1440
 7084SOL    HW132711   1.827   1.897   3.248 -0.2340 -0.0842 -1.8101
 7084SOL    HW232712   1.902   1.773   3.265  0.8848 -0.6729  0.2864
 7085SOL     OW32713   1.424   0.051   9.089 -0.5929  0.2587 -0.1819
 7085SOL    HW132714   1.348   0.107   9.109 -0.9735  0.0666 -1.1048
 7085SOL    HW232715   1.379   4.698   9.053 -0.3749  0.2177 -0.3688
 7086SOL     OW32716   2.270   1.656   5.685 -0.0225  0.0767 -0.3001
 7086SOL    HW132717   2.212   1.732   5.691 -1.2093 -0.6957 -1.8073
 7086SOL    HW232718   2.297   1.638   5.774  0.5156 -4.2304 -1.3196
 7087SOL     OW32719   2.665   3.321   8.612 -0.2936  0.3473  0.2238
 7087SOL    HW132720   2.618   3.322   8.528  0.8156 -1.6565 -0.4316
 7087SOL    HW232721   2.741   3.265   8.592 -1.0342  0.8898 -4.2698
 7088SOL     OW32722   3.821   3.746   5.484  0.8665 -0.6188  0.3904
 7088SOL    HW132723   3.803   3.804   5.409 -0.8116 -2.4784 -0.6576
 7088SOL    HW232724   3.753   3.778   5.543 -0.2901 -0.9978 -0.7331
 7089SOL     OW32725   0.966   1.891   7.774  0.2293  0.3485 -0.6671
 7089SOL    HW132726   0.991   1.937   7.854 -1.2016  0.3661 -0.2190
 7089SOL    HW232727   1.030   1.925   7.712  0.2970  1.1830 -0.1488
 7090SOL     OW32728   0.544   3.659  17.122 -0.4231 -0.3651  0.2830
 7090SOL    HW132729   0.450   3.657  17.107 -0.3315 -0.6168 -0.2637
 7090SOL    HW232730   0.553   3.629  17.213  0.6600 -1.6384 -0.2366
 7091SOL     OW32731   2.298   1.065  14.714  0.3299 -0.5723 -0.2166
 7091SOL    HW132732   2.367   0.999  14.719 -0.3847 -1.5300 -3.0483
 7091SOL    HW232733   2.224   1.004  14.720  1.2821 -1.5183  1.8331
 7092SOL     OW32734   1.067   2.776   3.127  0.0674 -0.0008  0.1291
 7092SOL    HW132735   1.042   2.857   3.172 -0.1806 -0.0318  0.0461
 7092SOL    HW232736   1.016   2.704   3.163  1.3194 -0.6780  0.5360
 7093SOL     OW32737   2.291   2.521   3.242 -0.2012 -0.4393 -0.0364
 7093SOL    HW132738   2.308   2.431   3.212 -1.4179 -0.4695 -0.6478
 7093SOL    HW232739   2.203   2.508   3.277 -0.6521  0.0282 -1.0012
 7094SOL     OW32740   1.589   3.962  13.774  0.0864 -0.1550 -0.1225
 7094SOL    HW132741   1.569   3.952  13.867  1.1863  0.4599  0.1848
 7094SOL    HW232742   1.555   4.050  13.753 -0.3566 -0.0888  0.8781
 7095SOL     OW32743   2.928   4.048   5.852  0.3995 -0.7347 -0.1399
 7095SOL    HW132744   2.896   4.108   5.785  1.5063  1.9396  1.7002
 7095SOL    HW232745   2.915   4.096   5.934 -1.0909 -2.1306  0.4420
 7096SOL     OW32746   3.445   3.239   0.529 -0.5746 -0.0415 -0.1720
 7096SOL    HW132747   3.475   3.303   0.465 -1.4153  0.0929 -0.4304
 7096SOL    HW232748   3.518   3.237   0.591 -0.6817 -1.2338 -0.0923
 7097SOL     OW32749   0.058   3.316   9.988 -0.0471  0.2305 -0.4277
 7097SOL    HW132750   0.047   3.384  10.054  1.1737 -0.5421  0.5935
 7097SOL    HW232751   4.698   3.271  10.010  0.0733  1.4233  2.5319
 7098SOL     OW32752   3.820   3.752  15.297  0.5786 -0.5550  0.6015
 7098SOL    HW132753   3.858   3.730  15.212  4.1723  3.4517  1.2201
 7098SOL    HW232754   3.902   3.776  15.339  0.4591  2.2643 -0.7785
 7099SOL     OW32755   4.076   1.614   0.246  0.5115  0.2431  0.4677
 7099SOL    HW132756   4.077   1.658   0.331 -0.2713  1.4103 -0.1374
 7099SOL    HW232757   4.005   1.551   0.259 -0.6319  0.9149 -2.5799
 7100SOL     OW32758   4.488   4.375   9.567 -0.4160  0.1096 -0.1197
 7100SOL    HW132759   4.466   4.454   9.617  2.2320  1.3857 -0.9721
 7100SOL    HW232760   4.568   4.406   9.523 -1.7656 -0.4261 -2.9466
 7101SOL     OW32761   4.271   1.224  11.908  0.2828  0.4985 -0.2889
 7101SOL    HW132762   4.215   1.215  11.985 -1.4372 -0.2826 -1.6207
 7101SOL    HW232763   4.210   1.273  11.852  0.5644 -0.7914 -1.7300
 7102SOL     OW32764   1.915   1.082  15.725  0.2124  0.1448  0.3549
 7102SOL    HW132765   1.994   1.109  15.678  0.0953  0.0050  0.0781
 7102SOL    HW232766   1.932   1.117  15.812  1.5772 -2.3300  1.1011
 7103SOL     OW32767   0.330   0.499   8.098  0.4356 -0.0274 -0.6874
 7103SOL    HW132768   0.254   0.444   8.077  1.1403 -1.5566  0.7548
 7103SOL    HW232769   0.371   0.503   8.012 -1.6570  0.2519 -1.6728
 7104SOL     OW32770   1.710   0.982   7.903 -0.8643 -0.1575 -0.0894
 7104SOL    HW132771   1.755   1.058   7.939 -0.5974  0.1796 -1.1182
 7104SOL    HW232772   1.631   1.030   7.877 -0.1707  0.1971 -1.5545
 7105SOL     OW32773   3.038   1.194   6.579  0.4860 -0.6599  0.1108
 7105SOL    HW132774   3.131   1.201   6.556 -0.8161  2.4247 -4.3882
 7105SOL    HW232775   3.030   1.138   6.656  0.8434 -1.3101 -0.3248
 7106SOL     OW32776   3.789   3.868   5.216 -0.2198 -0.3274 -0.2396
 7106SOL    HW132777   3.700   3.882   5.184  0.0665  2.3310  0.1255
 7106SOL    HW232778   3.800   3.958   5.247 -0.0131  0.0225 -1.3147
 7107SOL     OW32779   4.406   4.595   7.023 -0.2924 -0.1501  0.2095
 7107SOL    HW132780   4.365   4.667   6.975  1.7243 -0.4499 -1.9745
 7107SOL    HW232781   4.343   4.525   7.005 -1.4294  1.2902 -1.4053
 7108SOL     OW32782   3.637   3.343   1.090  0.1674  0.2707  0.3695
 7108SOL    HW132783   3.561   3.304   1.133  0.7732  1.4366  2.5073
 7108SOL    HW232784   3.602   3.350   1.001 -1.4945 -2.9398  0.7601
 7109SOL     OW32785   0.765   4.706  17.164  0.2583 -0.1664 -0.0680
 7109SOL    HW132786   0.741   0.003  17.254  0.0229  0.7472 -0.3330
 7109SOL    HW232787   0.860   4.711  17.163  0.2269  0.3963 -0.5587
 7110SOL     OW32788   4.177   3.142   2.030 -0.3116 -0.0773  0.2438
 7110SOL    HW132789   4.230   3.080   1.981  1.2794  0.5272  1.1593
 7110SOL    HW232790   4.107   3.088   2.065 -1.2275  0.6985 -0.3888
 7111SOL     OW32791   0.415   2.805   3.094 -0.5561  0.2561  0.2101
 7111SOL    HW132792   0.475   2.823   3.166 -0.5125 -0.2451  0.2993
 7111SOL    HW232793   0.453   2.869   3.034  2.6556 -2.1008 -0.2439
 7112SOL     OW32794   1.423   3.866   5.679  0.8799  0.0405  0.4868
 7112SOL    HW132795   1.436   3.957   5.650 -0.5271  0.5648  1.4975
 7112SOL    HW232796   1.342   3.883   5.727  0.5975  1.3794 -0.4562
 7113SOL     OW32797   3.347   3.429   8.106 -0.0052  0.4769  0.2153
 7113SOL    HW132798   3.418   3.450   8.167 -1.0029  0.8434  1.2511
 7113SOL    HW232799   3.274   3.487   8.131 -1.3718 -0.9997 -0.3592
 7114SOL     OW32800   4.705   2.234  14.464 -0.5377 -0.1890  0.3864
 7114SOL    HW132801   4.647   2.173  14.418 -1.6025  1.9632 -1.1384
 7114SOL    HW232802   4.663   2.260  14.546 -0.8434  0.9612 -0.1405
 7115SOL     OW32803   2.577   3.114   1.759  0.2192 -0.2694 -0.0297
 7115SOL    HW132804   2.512   3.180   1.779  1.4830  1.0480 -0.2883
 7115SOL    HW232805   2.609   3.145   1.675  0.5857 -1.8270 -0.4797
 7116SOL     OW32806   3.783   3.623  12.179  0.3154  0.2724 -0.0794
 7116SOL    HW132807   3.766   3.587  12.093 -1.2137 -0.2412  0.4429
 7116SOL    HW232808   3.873   3.651  12.166  0.7763 -0.5270  1.3785
 7117SOL     OW32809   4.613   0.555   7.579  0.2608 -0.1256  0.1405
 7117SOL    HW132810   4.666   0.609   7.520 -1.8877  0.7861 -0.9431
 7117SOL    HW232811   4.652   0.469   7.563 -0.7836 -0.1144 -2.4868
 7118SOL     OW32812   2.937   2.386  16.774 -0.4595  0.3748 -0.0777
 7118SOL    HW132813   2.980   2.408  16.692 -0.3389  0.7801  0.0958
 7118SOL    HW232814   2.948   2.472  16.814  0.0928  0.1540  0.2453
 7119SOL     OW32815   0.029   0.725   2.506  0.3175 -0.1044  0.6504
 7119SOL    HW132816   4.674   0.680   2.472  1.1535 -2.1020  1.3813
 7119SOL    HW232817   0.054   0.655   2.567  0.7878 -0.0262  0.5427
 7120SOL     OW32818   2.552   3.559   6.289  0.2229 -0.2190 -0.0690
 7120SOL    HW132819   2.468   3.606   6.289  1.0221  1.2197 -0.5511
 7120SOL    HW232820   2.561   3.569   6.194  0.7978 -1.5999 -0.1522
 7121SOL     OW32821   2.754   2.034   2.848 -0.2488 -0.9627  0.5432
 7121SOL    HW132822   2.767   2.085   2.768  2.7997 -1.5231  0.6772
 7121SOL    HW232823   2.846   2.023   2.874 -0.2095  0.3950  1.0262
 7122SOL     OW32824   4.173   2.428  15.633 -0.0806 -0.4613  0.7176
 7122SOL    HW132825   4.257   2.437  15.587 -0.8650  0.7902 -0.4522
 7122SOL    HW232826   4.164   2.333  15.636  0.4562 -0.5774 -1.3118
 7123SOL     OW32827   0.795   1.256   5.551  0.4621 -0.3146  0.1053
 7123SOL    HW132828   0.709   1.265   5.510  2.0064  0.4312 -2.9544
 7123SOL    HW232829   0.817   1.166   5.528  0.3424 -0.1624 -0.6079
 7124SOL     OW32830   3.606   3.701   8.589 -0.3085  0.6289  0.1326
 7124SOL    HW132831   3.699   3.690   8.571 -0.0580  1.3764  0.9616
 7124SOL    HW232832   3.604   3.777   8.647 -0.8824  0.9341 -0.2808
 7125SOL     OW32833   1.826   2.819   7.864 -0.2083  0.3072 -0.5324
 7125SOL    HW132834   1.886   2.880   7.908  0.6432 -1.1095  0.2710
 7125SOL    HW232835   1.865   2.735   7.887 -1.8985  0.0798  1.5266
 7126SOL     OW32836   2.894   2.089  15.927  0.6472 -0.1613  0.1242
 7126SOL    HW132837   2.820   2.060  15.979  1.5159 -1.2952  0.7412
 7126SOL    HW232838   2.962   2.025  15.949  1.1458 -0.1274 -1.2413
 7127SOL     OW32839   3.959   1.040   3.480  0.2219  0.0617 -0.4728
 7127SOL    HW132840   3.880   0.986   3.492 -0.6820  1.2745 -0.9950
 7127SOL    HW232841   3.920   1.127   3.479 -0.0502 -0.0739 -1.1250
 7128SOL     OW32842   3.663   2.406  17.493  0.0421 -0.1151 -0.1617
 7128SOL    HW132843   3.622   2.340  17.437  1.6590 -1.0001 -0.2996
 7128SOL    HW232844   3.638   2.388  17.583 -0.0604 -0.3487 -0.2395
 7129SOL     OW32845   1.764   0.855   3.610 -0.3223 -0.4036  0.2449
 7129SOL    HW132846   1.673   0.832   3.632 -0.4222  0.7163  1.0257
 7129SOL    HW232847   1.794   0.767   3.586  0.4315 -0.4940  1.4954
 7130SOL     OW32848   1.443   1.305  15.916  0.1649 -0.0691  0.2024
 7130SOL    HW132849   1.351   1.331  15.905  0.3286  0.8421  0.9823
 7130SOL    HW232850   1.499   1.344  15.849  0.8930 -1.1881  0.1715
 7131SOL     OW32851   3.682   2.712  10.068  0.2965  0.2118 -0.0282
 7131SOL    HW132852   3.749   2.732  10.002  1.3421 -2.8907  0.0559
 7131SOL    HW232853   3.608   2.709  10.008  0.4469  0.2837 -0.2186
 7132SOL     OW32854   0.381   2.860   2.240 -0.0284  0.1895  0.2700
 7132SOL    HW132855   0.386   2.944   2.194  6.1560  0.3236  1.2076
 7132SOL    HW232856   0.453   2.812   2.200 -0.4865 -0.9904  0.8631
 7133SOL     OW32857   2.201   1.742   2.517  0.3205 -1.0386  0.0423
 7133SOL    HW132858   2.288   1.715   2.546  0.8109  1.4068  0.8361
 7133SOL    HW232859   2.216   1.836   2.528 -2.6480 -0.3981 -1.4689
 7134SOL     OW32860   0.758   0.897   5.733 -0.0615 -0.3045 -0.1774
 7134SOL    HW132861   0.754   0.962   5.663  0.3809  0.8255  0.8446
 7134SOL    HW232862   0.816   0.834   5.691 -0.5143  0.1628 -1.4972
 7135SOL     OW32863   1.724   3.546  11.132  0.5089 -0.5630 -0.0875
 7135SOL    HW132864   1.683   3.611  11.190 -0.8782 -1.3340 -0.2048
 7135SOL    HW232865   1.717   3.586  11.046  0.3753  2.0193  1.1203
 7136SOL     OW32866   0.977   2.246   5.451  0.4684 -0.3071  0.2213
 7136SOL    HW132867   0.962   2.263   5.543  1.4398  0.0534  0.3143
 7136SOL    HW232868   1.003   2.333   5.420 -0.5157 -0.5380 -1.2707
 7137SOL     OW32869   1.050   2.321   6.739  0.2964  0.2169 -0.3489
 7137SOL    HW132870   0.979   2.311   6.802  3.0799 -0.2915  2.6849
 7137SOL    HW232871   1.049   2.415   6.719 -2.1401  0.5693  1.5178
 7138SOL     OW32872   3.982   2.776   3.305 -0.3338  0.4500 -0.2901
 7138SOL    HW132873   3.931   2.749   3.381 -0.7841 -1.2484 -1.1929
 7138SOL    HW232874   4.016   2.690   3.281  0.2688  1.7633 -4.1819
 7139SOL     OW32875   3.925   2.485   1.274  0.3685  0.4271  0.0568
 7139SOL    HW132876   3.981   2.419   1.231 -0.3878  0.5068 -1.0317
 7139SOL    HW232877   3.868   2.431   1.329  0.8442 -4.2216 -3.9602
 7140SOL     OW32878   3.547   3.462   0.872 -0.0544  0.0208 -0.6218
 7140SOL    HW132879   3.575   3.546   0.908  0.0350  0.6690 -2.1649
 7140SOL    HW232880   3.466   3.492   0.831 -0.0579  0.6156 -0.1800
 7141SOL     OW32881   3.810   1.854   9.973  0.3579  0.2513 -0.2773
 7141SOL    HW132882   3.793   1.762   9.996 -1.2753  0.7208  0.3980
 7141SOL    HW232883   3.843   1.889  10.055  2.5692 -0.2520 -0.9476
 7142SOL     OW32884   0.035   4.361  14.471  0.1502  0.0092  0.1921
 7142SOL    HW132885   4.718   4.339  14.555 -1.5341 -1.1501 -0.9166
 7142SOL    HW232886   4.688   4.417  14.436  1.0958  0.8181 -0.3843
 7143SOL     OW32887   4.345   3.152   4.925 -0.3527 -0.2943 -0.3439
 7143SOL    HW132888   4.258   3.191   4.917 -1.4157 -2.0588  2.3590
 7143SOL    HW232889   4.401   3.196   4.861  0.6896  0.7506  1.2716
 7144SOL     OW32890   3.250   1.656   7.182  0.5226 -0.2661 -0.0488
 7144SOL    HW132891   3.243   1.616   7.095 -1.4236  0.4047 -0.2073
 7144SOL    HW232892   3.163   1.648   7.221  1.0546 -0.0664  1.1587
 7145SOL     OW32893   4.627   1.013   1.973  0.2054  0.9167 -0.1366
 7145SOL    HW132894   4.572   0.966   2.036  1.2453  1.3108  1.0602
 7145SOL    HW232895   4.557   1.046   1.917  0.0489  1.3465  0.3129
 7146SOL     OW32896   2.339   1.973   1.892 -0.4343 -0.5031  0.4546
 7146SOL    HW132897   2.399   2.038   1.854 -0.6638 -1.2274 -1.1306
 7146SOL    HW232898   2.295   1.952   1.810 -0.6901 -2.0721  0.9957
 7147SOL     OW32899   0.242   4.595   5.049 -0.2099  0.1815 -0.6474
 7147SOL    HW132900   0.220   4.659   5.115  2.5876 -0.4205  0.8877
 7147SOL    HW232901   0.271   4.657   4.981 -1.3380  2.7361  1.2235
 7148SOL     OW32902   0.802   2.853   4.355  0.0378  0.3346  0.5981
 7148SOL    HW132903   0.857   2.823   4.427  1.7071 -0.3974 -0.9716
 7148SOL    HW232904   0.853   2.835   4.276  1.2616  0.7115  1.2978
 7149SOL     OW32905   1.079   1.268  14.112  0.4298  0.1601 -0.3223
 7149SOL    HW132906   1.171   1.288  14.129  0.8496 -0.8708 -1.3359
 7149SOL    HW232907   1.031   1.351  14.120 -0.5670 -0.4244 -0.1705
 7150SOL     OW32908   1.137   3.413  10.822  0.0293 -0.3789 -0.4649
 7150SOL    HW132909   1.094   3.499  10.822  0.1510 -0.3162 -0.7932
 7150SOL    HW232910   1.065   3.365  10.783 -0.5499  0.6192 -0.6158
 7151SOL     OW32911   0.921   3.011   9.768 -0.0603 -0.1209 -0.8431
 7151SOL    HW132912   0.997   3.038   9.820 -0.7394  1.0445 -0.4511
 7151SOL    HW232913   0.896   2.928   9.807 -2.4490  0.5305 -0.9784
 7152SOL     OW32914   2.970   3.036   3.205 -0.2049  0.0281 -0.0138
 7152SOL    HW132915   3.021   2.990   3.272 -0.5409  1.2763  1.0968
 7152SOL    HW232916   2.923   3.095   3.263 -0.0883  1.7001 -1.6504
 7153SOL     OW32917   3.053   0.967  16.089 -0.2661  0.3116 -0.8096
 7153SOL    HW132918   3.128   0.974  16.149 -1.4864  1.5287  0.5891
 7153SOL    HW232919   3.086   0.910  16.020  3.2609  0.6842  0.5355
 7154SOL     OW32920   2.723   2.005   6.954 -0.5199  0.8702  0.5364
 7154SOL    HW132921   2.764   1.948   7.019 -0.8328  0.0899  0.0483
 7154SOL    HW232922   2.677   1.944   6.897  0.1794  0.6649  0.1867
 7155SOL     OW32923   4.375   0.303   0.333  0.0299  0.0526 -0.2681
 7155SOL    HW132924   4.361   0.268   0.421  1.1700 -0.9078 -0.4649
 7155SOL    HW232925   4.367   0.225   0.277 -2.2418  0.8910 -1.1157
 7156SOL     OW32926   0.434   2.008   0.139  0.2992 -0.3788  0.9463
 7156SOL    HW132927   0.340   1.993   0.126  0.4281 -1.3863  1.1496
 7156SOL    HW232928   0.476   1.963   0.066 -2.3080 -0.0379 -0.7882
 7157SOL     OW32929   3.756   3.927  13.212 -0.3697  0.0146  0.2219
 7157SOL    HW132930   3.828   3.985  13.189 -1.2536 -0.3058 -3.4306
 7157SOL    HW232931   3.724   3.974  13.289 -0.6987  1.0912 -0.5692
 7158SOL     OW32932   0.912   4.053   8.294 -0.6904  0.0456  0.4114
 7158SOL    HW132933   0.901   4.070   8.387 -0.6766 -0.9563  0.5931
 7158SOL    HW232934   1.007   4.045   8.289 -0.3531  4.1427 -0.5574
 7159SOL     OW32935   0.702   4.364  14.517 -0.1452 -0.4296 -0.3021
 7159SOL    HW132936   0.777   4.344  14.461  1.7135 -1.6244  2.6157
 7159SOL    HW232937   0.749   4.400  14.592 -0.9552 -1.0101  0.4850
 7160SOL     OW32938   4.192   3.896   8.588 -0.1468 -0.1561  0.7168
 7160SOL    HW132939   4.104   3.899   8.625 -0.2874  0.4931  0.3351
 7160SOL    HW232940   4.217   3.989   8.585  1.7893 -0.7245 -1.3748
 7161SOL     OW32941   4.540   3.776   9.366 -0.2435  0.1423 -0.1499
 7161SOL    HW132942   4.537   3.682   9.385 -0.4513  0.2271  0.2381
 7161SOL    HW232943   4.451   3.809   9.375  0.0346  0.6820  0.7014
 7162SOL     OW32944   4.303   4.249  16.874 -0.2156 -0.2007 -0.9439
 7162SOL    HW132945   4.253   4.217  16.949  0.6235 -1.4437 -0.9123
 7162SOL    HW232946   4.337   4.329  16.914  1.7789 -0.5750 -1.8857
 7163SOL     OW32947   0.956   3.770  12.957  0.4431 -0.2197  0.4336
 7163SOL    HW132948   1.010   3.736  12.885 -1.7370 -1.1682 -0.7529
 7163SOL    HW232949   0.868   3.767  12.921  0.7203 -2.2222 -0.1031
 7164SOL     OW32950   1.063   1.269   5.142 -0.6168 -0.2832  0.4059
 7164SOL    HW132951   1.089   1.340   5.200  2.1934 -0.7724 -0.2935
 7164SOL    HW232952   0.982   1.240   5.184 -1.1687  0.5991 -0.0523
 7165SOL     OW32953   3.244   4.230   8.140  0.1856 -0.0697  0.1968
 7165SOL    HW132954   3.256   4.319   8.108  0.6739 -0.3730 -0.4681
 7165SOL    HW232955   3.186   4.241   8.215  1.4927 -2.1807  1.5333
 7166SOL     OW32956   2.129   4.542   8.870  0.1191  0.6025 -0.1675
 7166SOL    HW132957   2.175   4.539   8.954 -2.1928 -0.7389  1.0335
 7166SOL    HW232958   2.069   4.613   8.891 -2.7628 -2.0248  0.3887
 7167SOL     OW32959   3.307   0.029   6.897  0.1149 -0.1397  0.3324
 7167SOL    HW132960   3.296   0.100   6.833  2.1417 -0.2958 -0.1883
 7167SOL    HW232961   3.354   0.079   6.963  1.5412  0.7225 -1.3538
 7168SOL     OW32962   1.192   1.988  12.240  0.7827  0.1547 -0.7793
 7168SOL    HW132963   1.221   2.074  12.270  0.5344  0.4771 -1.4682
 7168SOL    HW232964   1.144   1.945  12.311  1.4331  0.1905 -0.3176
 7169SOL     OW32965   2.976   1.848  10.976 -0.6613  0.0072  0.2302
 7169SOL    HW132966   2.920   1.923  10.953  0.3776  0.0232 -2.2079
 7169SOL    HW232967   3.062   1.886  10.998 -0.2960 -0.7626  0.1167
 7170SOL     OW32968   4.027   0.455   9.169  0.0851 -0.0694  0.6117
 7170SOL    HW132969   3.946   0.493   9.203  0.6674 -0.4728  2.4567
 7170SOL    HW232970   3.989   0.385   9.115  0.7455  0.8898 -1.0797
 7171SOL     OW32971   0.733   1.669  10.391 -0.2495  0.0870 -0.0128
 7171SOL    HW132972   0.641   1.646  10.402  0.3918 -1.5295  2.0973
 7171SOL    HW232973   0.718   1.756  10.355 -2.5983  0.5244  2.0271
 7172SOL     OW32974   2.047   2.381   4.596 -0.8784  0.3723 -0.2022
 7172SOL    HW132975   2.135   2.359   4.626 -0.9384  1.5319  0.7924
 7172SOL    HW232976   2.042   2.475   4.611 -0.7748  0.5404 -1.2064
 7173SOL     OW32977   3.540   2.090   5.549  0.2776 -0.2163  0.1508
 7173SOL    HW132978   3.467   2.028   5.550 -0.4739  0.6950  2.2758
 7173SOL    HW232979   3.605   2.020   5.539  1.7058  0.9562  1.2297
 7174SOL     OW32980   1.979   2.579   2.876  0.0168  0.2810  0.1583
 7174SOL    HW132981   1.933   2.652   2.835 -1.2618 -0.9041 -0.5178
 7174SOL    HW232982   1.983   2.522   2.799 -0.6440 -0.7374  0.8845
 7175SOL     OW32983   0.345   4.144   2.683 -0.2570 -1.0226 -0.2838
 7175SOL    HW132984   0.312   4.057   2.708 -1.2037 -0.5276  0.1730
 7175SOL    HW232985   0.374   4.172   2.770  0.4153 -0.4627 -0.6899
 7176SOL     OW32986   0.588   1.367   8.020  0.2995 -0.2271 -0.5645
 7176SOL    HW132987   0.583   1.369   7.924  0.8203 -1.2189 -0.6116
 7176SOL    HW232988   0.585   1.273   8.038 -0.4914  0.5022  2.9956
 7177SOL     OW32989   3.375   0.374   9.267 -0.0204  0.0751  0.0977
 7177SOL    HW132990   3.425   0.393   9.346  2.3114  0.9168 -1.5568
 7177SOL    HW232991   3.351   0.283   9.284 -0.2872  0.0949 -0.1663
 7178SOL     OW32992   2.121   1.976  11.988  0.5010  0.8990 -0.0292
 7178SOL    HW132993   2.088   2.030  11.917  1.7927  1.3025 -0.3293
 7178SOL    HW232994   2.139   1.904  11.928 -0.4808 -0.5800  1.4648
 7179SOL     OW32995   2.829   3.111   2.920  0.0495 -0.4893 -0.0326
 7179SOL    HW132996   2.797   3.022   2.906 -1.8350  0.0020  1.2251
 7179SOL    HW232997   2.855   3.109   3.012  0.8134 -0.3667 -0.2460
 7180SOL     OW32998   1.666   1.650   5.316 -0.4413 -0.0739  0.0110
 7180SOL    HW132999   1.682   1.674   5.224 -0.8659 -1.6105 -0.4551
 7180SOL    HW233000   1.717   1.569   5.324 -0.7138  0.2677  5.2615
 7181SOL     OW33001   4.239   3.260  16.296 -0.4700 -0.2664 -0.2894
 7181SOL    HW133002   4.332   3.284  16.299 -0.0038 -2.3500  2.5126
 7181SOL    HW233003   4.250   3.216  16.212 -2.4285 -1.5982  0.1649
 7182SOL     OW33004   2.867   0.406   5.658  0.1608  0.0830  0.8981
 7182SOL    HW133005   2.952   0.395   5.615  0.7849  0.0027  2.1387
 7182SOL    HW233006   2.889   0.438   5.745 -0.2948  1.5542  0.4595
 7183SOL     OW33007   1.624   4.095  14.502 -0.6242  0.5535 -0.3366
 7183SOL    HW133008   1.605   4.176  14.455 -0.9173  1.8314  1.9759
 7183SOL    HW233009   1.583   4.035  14.439  0.4784 -2.4325  1.7574
 7184SOL     OW33010   4.026   2.122  12.858  0.1781 -0.5025 -0.2951
 7184SOL    HW133011   4.059   2.142  12.770  1.3504 -0.6746  0.1021
 7184SOL    HW233012   4.041   2.204  12.905  2.0595 -0.1206 -1.5484
 7185SOL     OW33013   4.244   0.135   7.234 -0.1371 -0.2565  0.0945
 7185SOL    HW133014   4.179   0.100   7.295 -0.6273  0.0481 -0.2574
 7185SOL    HW233015   4.201   0.213   7.200 -1.5344 -1.3855 -0.7435
 7186SOL     OW33016   2.281   0.098   5.282  0.4210  0.1578 -0.4807
 7186SOL    HW133017   2.307   0.129   5.368 -0.1586 -0.9374  0.0897
 7186SOL    HW233018   2.192   0.133   5.285 -0.1284 -1.1451 -1.4555
 7187SOL     OW33019   0.977   1.228   2.635  0.2034  0.2837  0.7328
 7187SOL    HW133020   1.003   1.169   2.564 -0.8906  1.2397 -0.4749
 7187SOL    HW233021   1.061   1.273   2.637  1.2471 -1.6528  0.1524
 7188SOL     OW33022   4.271   4.187   8.668 -0.1019 -0.5931 -0.0233
 7188SOL    HW133023   4.265   4.142   8.753  1.8426  0.7964  0.8602
 7188SOL    HW233024   4.355   4.231   8.679 -0.2090 -0.6454  0.9756
 7189SOL     OW33025   2.956   1.537   4.806 -0.5793 -0.1639  0.2058
 7189SOL    HW133026   2.867   1.568   4.788 -1.3565 -1.8737  1.0644
 7189SOL    HW233027   2.959   1.469   4.739 -2.4180 -1.6835  1.6572
 7190SOL     OW33028   2.970   0.835  15.760 -0.0255 -0.1206 -0.0129
 7190SOL    HW133029   2.922   0.824  15.679  0.7998  1.2948 -0.7100
 7190SOL    HW233030   2.900   0.802  15.816  1.6952 -1.2837  1.4421
 7191SOL     OW33031   0.983   2.441  10.994  0.3394  0.7671  0.4685
 7191SOL    HW133032   1.008   2.506  10.929  1.8497  1.1091  1.3886
 7191SOL    HW233033   1.060   2.384  11.002  1.6235  2.4659  0.1980
 7192SOL     OW33034   1.788   0.091   2.199  0.0698  0.4132  0.5641
 7192SOL    HW133035   1.810   0.135   2.281 -0.8360  1.4409  0.2512
 7192SOL    HW233036   1.694   0.080   2.215  0.3207 -1.9368  0.4468
 7193SOL     OW33037   3.883   3.076  10.018 -0.4445  0.5540 -0.4705
 7193SOL    HW133038   3.798   3.059  10.058 -0.3157  2.4467  0.5750
 7193SOL    HW233039   3.889   3.167   9.990 -0.3793  0.4053 -0.9421
 7194SOL     OW33040   4.519   2.971   9.372 -0.4092  0.4886  0.1718
 7194SOL    HW133041   4.425   2.973   9.356 -0.4632 -1.7943  0.1048
 7194SOL    HW233042   4.515   2.961   9.467 -1.5862  1.8493  0.2573
 7195SOL     OW33043   2.133   3.373   3.539  0.6038 -0.5351 -0.4467
 7195SOL    HW133044   2.194   3.323   3.485  1.8904 -0.6635  1.1331
 7195SOL    HW233045   2.162   3.456   3.501  2.8812 -0.9557  0.3749
 7196SOL     OW33046   2.733   2.903  14.305  0.4308 -0.3398 -0.0814
 7196SOL    HW133047   2.753   2.958  14.380  0.7081 -0.1829 -0.2755
 7196SOL    HW233048   2.637   2.903  14.306  0.3949 -0.2571 -4.0621
 7197SOL     OW33049   1.086   2.258   8.817  0.0987 -0.5973  0.5990
 7197SOL    HW133050   1.143   2.299   8.882 -1.2934 -0.2567  1.5946
 7197SOL    HW233051   1.153   2.225   8.756 -0.2560 -0.0169 -0.1069
 7198SOL     OW33052   1.200   0.269   0.422  0.3553 -0.1477 -0.2059
 7198SOL    HW133053   1.230   0.192   0.374  1.3239 -0.0980  0.3033
 7198SOL    HW233054   1.268   0.332   0.397 -0.2645  0.6131  0.0078
 7199SOL     OW33055   3.862   2.257   6.619 -0.0904 -0.4100 -0.3323
 7199SOL    HW133056   3.767   2.244   6.619 -0.3821  1.7923 -0.8244
 7199SOL    HW233057   3.874   2.332   6.677 -0.9430 -1.8986  1.8235
 7200SOL     OW33058   0.366   1.975   1.804 -0.1295  0.1923 -0.1619
 7200SOL    HW133059   0.273   1.957   1.822 -0.7161  1.7601 -1.6177
 7200SOL    HW233060   0.385   1.889   1.768 -0.2760  0.8761 -1.9149
 7201SOL     OW33061   0.907   3.973  12.543  0.3422 -0.0895  0.0921
 7201SOL    HW133062   1.002   3.990  12.539  0.4535 -0.0282  2.7985
 7201SOL    HW233063   0.874   4.054  12.505  0.7819 -0.2640 -0.6467
 7202SOL     OW33064   0.669   4.221  10.555  0.2950 -0.1157  0.3511
 7202SOL    HW133065   0.587   4.235  10.601  0.6382 -0.2256  0.9957
 7202SOL    HW233066   0.680   4.306  10.513 -1.3533  1.4428  3.1538
 7203SOL     OW33067   1.356   2.574   7.529  0.7777  0.3275 -0.5894
 7203SOL    HW133068   1.361   2.649   7.470 -2.4633 -0.1688 -1.5381
 7203SOL    HW233069   1.370   2.616   7.614 -1.0619 -0.3440  0.0516
 7204SOL     OW33070   2.875   3.688   2.178 -0.2216 -0.1114 -0.2901
 7204SOL    HW133071   2.819   3.613   2.158 -0.9742  0.5140 -0.5377
 7204SOL    HW233072   2.958   3.646   2.156 -1.7654 -2.2523 -2.0382
 7205SOL     OW33073   0.592   2.839   7.970  0.6126  0.4995  1.2219
 7205SOL    HW133074   0.683   2.847   7.943  0.7486  0.2779  1.6162
 7205SOL    HW233075   0.582   2.928   8.003  0.9931  1.3142 -0.8839
 7206SOL     OW33076   2.133   0.106   8.561 -0.0092 -0.1643  0.0578
 7206SOL    HW133077   2.070   0.084   8.492  0.0292 -0.5163  0.1331
 7206SOL    HW233078   2.083   0.147   8.631  1.4667 -0.2522  1.1623
 7207SOL     OW33079   1.028   1.390   5.497  0.1631  0.0355 -0.7642
 7207SOL    HW133080   1.109   1.348   5.527  0.0396 -0.4042 -1.0580
 7207SOL    HW233081   0.960   1.326   5.518  2.1096 -1.0000  2.3450
 7208SOL     OW33082   2.521   3.330  15.147 -0.6522 -0.3519 -0.0496
 7208SOL    HW133083   2.543   3.391  15.218 -1.6684  0.6010 -0.5514
 7208SOL    HW233084   2.427   3.345  15.143 -0.7019 -0.7483 -0.3413
 7209SOL     OW33085   4.012   1.489   7.195 -0.0309 -0.1761 -0.5980
 7209SOL    HW133086   4.101   1.517   7.215  0.4332 -2.5535  0.6761
 7209SOL    HW233087   4.017   1.463   7.103 -2.2999 -0.1309 -0.7411
 7210SOL     OW33088   2.767   2.449   6.361  0.3626  0.2667  0.2635
 7210SOL    HW133089   2.753   2.490   6.276 -3.0285  1.3400  1.3100
 7210SOL    HW233090   2.757   2.527   6.416 -0.4122  0.7156 -0.5007
 7211SOL     OW33091   3.293   2.698   5.671 -0.0434  0.8112  0.1529
 7211SOL    HW133092   3.382   2.683   5.701  0.5527 -2.0030 -3.0320
 7211SOL    HW233093   3.270   2.611   5.639 -3.3641  1.5505  0.4637
 7212SOL     OW33094   1.596   3.820   3.069 -0.0759  0.2678 -0.4487
 7212SOL    HW133095   1.630   3.734   3.093  0.9783  0.6825 -0.4206
 7212SOL    HW233096   1.635   3.844   2.985 -0.4817 -1.1821 -1.0445
 7213SOL     OW33097   3.409   1.261   1.848 -0.0813  0.0031 -0.0930
 7213SOL    HW133098   3.314   1.245   1.843 -0.3049  1.3005 -0.0304
 7213SOL    HW233099   3.453   1.176   1.842  1.4516  0.6488  2.0028
 7214SOL     OW33100   3.000   4.344   1.496 -0.5087 -0.4817 -0.2769
 7214SOL    HW133101   2.963   4.266   1.454 -1.5551 -0.2965  0.2828
 7214SOL    HW233102   2.921   4.390   1.526  0.6225 -0.0666  2.0130
 7215SOL     OW33103   1.540   3.957  14.063 -0.0762 -0.0311 -0.1056
 7215SOL    HW133104   1.459   4.009  14.066 -1.0122 -1.3929 -1.3592
 7215SOL    HW233105   1.531   3.893  14.133 -0.0177 -0.4970 -0.5199
 7216SOL     OW33106   0.256   3.446  13.570 -0.1845 -0.3232  0.0805
 7216SOL    HW133107   0.198   3.433  13.495  0.5128 -0.6897 -0.3945
 7216SOL    HW233108   0.282   3.356  13.591 -2.0137 -0.7702  0.3942
 7217SOL     OW33109   3.587   1.398   2.699 -0.3639 -0.8298  0.2371
 7217SOL    HW133110   3.614   1.315   2.658  0.1084 -2.4018  3.7330
 7217SOL    HW233111   3.578   1.357   2.785 -0.1261 -3.8508 -1.1763
 7218SOL     OW33112   4.038   2.023   4.498 -0.5658 -0.4246  0.5715
 7218SOL    HW133113   4.078   1.958   4.556 -0.7580 -2.8136 -2.0079
 7218SOL    HW233114   4.093   2.025   4.421 -0.4775  0.3573  0.6550
 7219SOL     OW33115   0.942   1.228  17.606 -0.6707  0.3056  0.5813
 7219SOL    HW133116   1.017   1.179  17.574 -1.5070 -0.3841 -0.3429
 7219SOL    HW233117   0.963   1.318  17.582  1.3755 -0.8692 -1.9613
 7220SOL     OW33118   3.760   2.176   2.290 -0.0202  0.2873 -0.4102
 7220SOL    HW133119   3.824   2.111   2.320 -1.7026 -1.9012 -1.6074
 7220SOL    HW233120   3.686   2.120   2.266 -1.2064  0.5270  2.6555
 7221SOL     OW33121   0.207   0.903   0.399 -0.2028  0.0309 -0.8448
 7221SOL    HW133122   0.132   0.886   0.456 -0.3811  0.0739 -1.0699
 7221SOL    HW233123   0.173   0.959   0.329 -1.4470 -0.0436 -0.3079
 7222SOL     OW33124   2.730   0.236   7.282 -0.0068  0.4332  0.4828
 7222SOL    HW133125   2.769   0.157   7.247  0.0835 -0.1041  1.7958
 7222SOL    HW233126   2.732   0.295   7.206  0.6680  0.9203  0.8767
 7223SOL     OW33127   2.478   3.402   8.800 -0.1380  0.0514  0.5456
 7223SOL    HW133128   2.521   3.377   8.718  1.7824  0.3341  1.4727
 7223SOL    HW233129   2.395   3.361   8.777 -0.5227  0.7450  0.6972
 7224SOL     OW33130   2.356   2.990  14.735 -0.1409  1.1373 -0.0786
 7224SOL    HW133131   2.291   3.026  14.796 -0.4188  0.7869 -0.1706
 7224SOL    HW233132   2.412   2.936  14.791 -0.6690  0.8166  0.1342
 7225SOL     OW33133   1.322   1.428   7.317 -0.1351  0.9834  0.1034
 7225SOL    HW133134   1.322   1.431   7.412  0.4403  0.5233  0.1170
 7225SOL    HW233135   1.306   1.521   7.301 -2.1792  0.7490  0.7111
 7226SOL     OW33136   1.037   3.949  11.102 -0.1972 -0.1164  0.0008
 7226SOL    HW133137   1.043   4.018  11.168 -0.7167  1.3546 -1.4895
 7226SOL    HW233138   1.102   3.972  11.035  0.9096 -0.5911  0.9248
 7227SOL     OW33139   3.192   0.198   7.835 -0.1905 -0.5066  0.2826
 7227SOL    HW133140   3.170   0.247   7.756 -3.4924 -1.0274  0.8684
 7227SOL    HW233141   3.126   0.128   7.837 -0.1648 -0.6664 -3.9120
 7228SOL     OW33142   1.020   0.523   1.426 -0.3657 -0.5740  0.1428
 7228SOL    HW133143   1.033   0.428   1.422 -0.9505 -0.5786 -1.8050
 7228SOL    HW233144   0.926   0.524   1.410 -0.5851  2.5571  1.6207
 7229SOL     OW33145   1.463   4.295   6.554  0.2081 -0.5431 -0.1438
 7229SOL    HW133146   1.551   4.297   6.516  0.5609 -2.2037  0.5884
 7229SOL    HW233147   1.434   4.386   6.561  0.4879 -0.2107 -3.2877
 7230SOL     OW33148   0.707   2.668   2.334 -0.6759  0.0614  0.1397
 7230SOL    HW133149   0.656   2.672   2.253 -0.0691 -2.0831 -0.3276
 7230SOL    HW233150   0.683   2.578   2.355  1.1954 -0.5213 -0.2691
 7231SOL     OW33151   3.989   3.440   8.771 -0.1357 -0.0664  0.1626
 7231SOL    HW133152   4.006   3.500   8.844  2.7615  1.7753 -2.0353
 7231SOL    HW233153   3.979   3.358   8.821  0.3709 -1.5524 -2.1585
 7232SOL     OW33154   0.807   1.570  10.950 -0.2762 -0.4087 -0.4774
 7232SOL    HW133155   0.883   1.604  10.997 -1.5506  0.0041  1.2556
 7232SOL    HW233156   0.860   1.556  10.871  1.2846 -0.7830  0.6219
 7233SOL     OW33157   0.079   2.099  15.687 -0.7018  0.0908 -0.1670
 7233SOL    HW133158   0.114   2.068  15.603 -1.0884 -1.6046  0.2900
 7233SOL    HW233159   0.076   2.193  15.675 -0.9260  0.0675 -0.2924
 7234SOL     OW33160   1.692   3.845   5.405 -0.2201  0.5954  0.1867
 7234SOL    HW133161   1.664   3.936   5.407 -0.5983  0.4371  2.2737
 7234SOL    HW233162   1.611   3.797   5.423 -0.2228  1.3613  2.1640
 7235SOL     OW33163   2.092   0.683   7.462 -0.6176  0.5982  0.4193
 7235SOL    HW133164   2.062   0.721   7.380  1.2938 -3.0476 -1.9552
 7235SOL    HW233165   2.010   0.652   7.500  0.5548 -0.2693  2.2397
 7236SOL     OW33166   1.762   1.309   7.371  0.3572 -0.1168  0.4746
 7236SOL    HW133167   1.721   1.345   7.292  1.1548  0.5046  0.3434
 7236SOL    HW233168   1.700   1.325   7.442  0.0006  1.1294 -0.1188
 7237SOL     OW33169   3.580   0.829  16.035  0.3807  0.6128  0.4869
 7237SOL    HW133170   3.513   0.796  15.977  1.4313  0.0337 -0.3875
 7237SOL    HW233171   3.657   0.798  15.988 -1.3694 -3.7902  0.5922
 7238SOL     OW33172   3.531   3.479   7.405  0.0468  0.1876  0.7364
 7238SOL    HW133173   3.576   3.489   7.321  0.5906  1.8957  1.2392
 7238SOL    HW233174   3.483   3.562   7.412  1.6820  1.1932  0.0011
 7239SOL     OW33175   2.899   0.070   9.707  0.7086 -0.4749  0.4181
 7239SOL    HW133176   2.935   0.086   9.794  0.7826 -1.6525  0.6005
 7239SOL    HW233177   2.950   4.721   9.671 -1.1397  0.8374 -4.8160
 7240SOL     OW33178   2.316   3.110   3.715  0.1557  0.3723 -0.1287
 7240SOL    HW133179   2.396   3.142   3.674  0.1316 -0.2730 -0.6776
 7240SOL    HW233180   2.287   3.039   3.657  1.0278 -0.3966  0.3972
 7241SOL     OW33181   0.301   4.350  17.536  0.2247 -0.6062 -0.2346
 7241SOL    HW133182   0.349   4.354  17.618  0.5576 -2.4880 -0.3374
 7241SOL    HW233183   0.270   4.260  17.546  0.6572 -0.4954  2.1087
 7242SOL     OW33184   3.806   4.095   9.337 -0.2300 -0.5844  0.1510
 7242SOL    HW133185   3.865   4.057   9.272 -0.1326 -0.3149  0.0781
 7242SOL    HW233186   3.849   4.093   9.422 -1.4216 -0.7000  0.7538
 7243SOL     OW33187   2.178   3.044   8.819  0.2172  0.2751  0.2549
 7243SOL    HW133188   2.102   2.987   8.805  1.0094 -1.6033  3.4893
 7243SOL    HW233189   2.223   3.031   8.735 -1.4123 -2.8110 -0.1697
 7244SOL     OW33190   2.305   0.963   5.274 -0.3573  0.2283 -0.5891
 7244SOL    HW133191   2.268   1.022   5.340 -0.7315 -1.5386  0.7805
 7244SOL    HW233192   2.275   1.000   5.191  1.5248 -1.6508 -2.0695
 7245SOL     OW33193   0.141   4.560  14.054 -0.2179 -0.0757 -0.2345
 7245SOL    HW133194   0.089   4.532  14.129 -0.3398 -1.5737 -0.8683
 7245SOL    HW233195   0.214   4.499  14.066 -1.2796 -1.5246 -1.0663
 7246SOL     OW33196   1.512   0.347   4.838  0.4411 -0.2485 -0.2477
 7246SOL    HW133197   1.461   0.283   4.887  0.9934 -0.8685 -0.4622
 7246SOL    HW233198   1.441   0.397   4.800  1.9420  0.8192 -1.6477
 7247SOL     OW33199   3.362   3.514   1.162  0.3999 -0.4739 -0.2741
 7247SOL    HW133200   3.391   3.427   1.189  1.9488  0.7805  1.9800
 7247SOL    HW233201   3.300   3.502   1.089 -0.7971  2.6721  0.2409
 7248SOL     OW33202   4.601   1.076   4.690 -0.0133  0.5465 -0.5675
 7248SOL    HW133203   4.656   0.999   4.699 -0.7163  0.2637  1.4350
 7248SOL    HW233204   4.595   1.098   4.597  0.5687 -0.4475 -0.8374
 7249SOL     OW33205   0.976   0.076   8.577 -0.2890  0.0363  0.0885
 7249SOL    HW133206   0.888   0.109   8.597 -0.4431  0.3219 -1.0752
 7249SOL    HW233207   1.023   0.126   8.643  1.7907 -1.4439 -0.2654
 7250SOL     OW33208   3.786   3.877   3.767  0.5140 -0.1544  0.9646
 7250SOL    HW133209   3.705   3.928   3.763 -0.2770 -1.3689  1.3836
 7250SOL    HW233210   3.794   3.872   3.863 -0.3115  0.7099  1.0758
 7251SOL     OW33211   2.543   2.013   7.898  0.5922 -0.1278 -0.1261
 7251SOL    HW133212   2.524   1.987   7.988  0.6358 -3.6544 -1.1379
 7251SOL    HW233213   2.636   2.027   7.916  0.4167  1.8303 -0.7904
 7252SOL     OW33214   0.950   2.425  15.164 -0.3903 -0.3531  0.4718
 7252SOL    HW133215   0.913   2.355  15.111 -1.4579  0.1452  0.5485
 7252SOL    HW233216   1.006   2.464  15.097 -0.5841  1.1059  1.1528
 7253SOL     OW33217   0.185   3.193  13.637 -0.5514  0.2627 -0.1382
 7253SOL    HW133218   0.264   3.139  13.634  0.1206  1.1383  1.7538
 7253SOL    HW233219   0.135   3.164  13.561 -1.7123  3.1368 -0.4493
 7254SOL     OW33220   0.004   0.283   3.175  0.0096  0.0413  0.2191
 7254SOL    HW133221   4.641   0.266   3.136  0.5233 -0.9029 -0.5083
 7254SOL    HW233222   0.054   0.282   3.094  1.7167  1.1602  1.2486
 7255SOL     OW33223   3.515   0.214   8.464 -0.0083  0.3260 -0.2735
 7255SOL    HW133224   3.446   0.149   8.479 -1.3051  2.0272  1.1351
 7255SOL    HW233225   3.486   0.280   8.528 -1.2066  0.6699 -1.1711
 7256SOL     OW33226   4.713   4.012   6.261 -0.1772 -0.8006 -0.6102
 7256SOL    HW133227   0.025   4.065   6.189 -0.5607  2.3039  1.4706
 7256SOL    HW233228   4.667   3.949   6.206 -0.0960  0.0095 -1.5953
 7257SOL     OW33229   3.692   2.724  12.046  0.2517  0.2657 -0.0556
 7257SOL    HW133230   3.618   2.729  11.986 -1.1496  0.4430  1.7236
 7257SOL    HW233231   3.710   2.631  12.031 -1.6101 -0.3608  1.6547
 7258SOL     OW33232   4.709   0.782   4.934  0.1995  1.0443  0.1855
 7258SOL    HW133233   4.717   0.688   4.916  3.4674  1.1094  1.2535
 7258SOL    HW233234   0.048   0.805   5.003  0.0673 -1.0583  1.0054
 7259SOL     OW33235   3.512   0.034   5.001  0.0658  0.0520  0.5035
 7259SOL    HW133236   3.488   4.693   4.933  2.9788 -0.7425  0.1928
 7259SOL    HW233237   3.438   0.025   5.061 -0.8068 -0.1695 -0.6044
 7260SOL     OW33238   1.320   0.609  17.409 -0.3159 -0.7579 -0.2773
 7260SOL    HW133239   1.404   0.646  17.384 -0.1125 -0.5639  0.6917
 7260SOL    HW233240   1.287   0.577  17.324 -1.9256 -2.4224  0.9619
 7261SOL     OW33241   3.902   0.922   7.672  0.0512  0.1244  0.5704
 7261SOL    HW133242   3.944   1.006   7.687  1.4190 -0.6707  1.1878
 7261SOL    HW233243   3.977   0.885   7.624 -1.1899  0.0609 -1.3436
 7262SOL     OW33244   0.429   4.150   3.444  0.3844 -0.2867  0.3054
 7262SOL    HW133245   0.499   4.210   3.415  0.7435 -1.0223 -0.3645
 7262SOL    HW233246   0.492   4.078   3.447 -0.2600 -0.9213 -1.4353
 7263SOL     OW33247   1.227   0.781   3.021  0.7786 -0.1547  0.2234
 7263SOL    HW133248   1.216   0.693   3.057  0.4753  0.0997  0.7575
 7263SOL    HW233249   1.322   0.772   3.027  0.7761 -1.3462 -1.5245
 7264SOL     OW33250   1.338   4.216  12.200 -0.0901 -0.0396 -0.2647
 7264SOL    HW133251   1.410   4.156  12.218 -0.1095 -0.2321 -0.8374
 7264SOL    HW233252   1.265   4.164  12.233 -0.5104  0.6977 -0.0179
 7265SOL     OW33253   1.879   3.472  12.879 -0.0992  0.2573  0.0301
 7265SOL    HW133254   1.949   3.527  12.844 -1.8244  0.8709 -2.4580
 7265SOL    HW233255   1.855   3.528  12.953 -2.7186 -0.5785 -0.1930
 7266SOL     OW33256   3.273   3.776  16.675 -0.4519  0.1675  0.1761
 7266SOL    HW133257   3.183   3.743  16.680  0.1916 -1.5005  0.5088
 7266SOL    HW233258   3.315   3.700  16.636  1.3095 -0.1650  2.7222
 7267SOL     OW33259   3.365   1.388  10.629 -0.3420 -0.0920 -0.2473
 7267SOL    HW133260   3.326   1.472  10.603  0.0066 -0.2517 -1.2855
 7267SOL    HW233261   3.354   1.391  10.724  1.4342 -0.3777 -0.0228
 7268SOL     OW33262   4.120   0.931  17.379  0.1061  0.4376  0.2184
 7268SOL    HW133263   4.119   1.024  17.403  0.3158  0.2002  1.1582
 7268SOL    HW233264   4.147   0.939  17.287 -1.5814  0.1543 -0.2917
 7269SOL     OW33265   0.976   3.609   4.125  0.3154 -0.0130 -0.0205
 7269SOL    HW133266   0.898   3.656   4.096  0.5266 -0.4696 -1.3216
 7269SOL    HW233267   1.035   3.669   4.170 -0.4115 -0.6218  1.7490
 7270SOL     OW33268   3.700   2.704   0.665 -0.1799  0.0694 -0.3310
 7270SOL    HW133269   3.678   2.708   0.572 -2.9237 -0.8810  0.2586
 7270SOL    HW233270   3.651   2.623   0.681 -0.1439  0.2553  0.7229
 7271SOL     OW33271   3.398   1.636   6.081  0.4426 -0.5040  0.4091
 7271SOL    HW133272   3.487   1.600   6.082  0.6502 -0.0367 -2.0210
 7271SOL    HW233273   3.356   1.590   6.154  1.0978 -1.0795  0.4286
 7272SOL     OW33274   1.401   1.705  14.142 -0.3640  0.1437 -0.4613
 7272SOL    HW133275   1.335   1.637  14.151 -1.6389  1.5266  0.5433
 7272SOL    HW233276   1.366   1.730  14.057 -1.8246  1.0500  0.4038
 7273SOL     OW33277   0.469   1.731   1.671 -0.5440  0.0788 -0.1558
 7273SOL    HW133278   0.400   1.670   1.696 -0.3613 -0.3039 -0.5936
 7273SOL    HW233279   0.516   1.660   1.627  0.1473  0.5372 -0.1508
 7274SOL     OW33280   0.356   2.815   4.313  0.3316 -0.3670  0.8390
 7274SOL    HW133281   0.284   2.803   4.252 -1.4138 -2.0478  3.2241
 7274SOL    HW233282   0.392   2.727   4.304 -0.1823 -0.3144 -1.6586
 7275SOL     OW33283   1.315   1.467  11.440 -0.0461  0.2680 -0.2713
 7275SOL    HW133284   1.286   1.492  11.353 -4.1300  1.2261  1.3908
 7275SOL    HW233285   1.254   1.526  11.484  1.2533  1.1432  0.3537
 7276SOL     OW33286   2.802   3.931   3.626 -0.2103 -0.6040  0.0328
 7276SOL    HW133287   2.766   3.930   3.715  0.3217 -3.8620  0.2128
 7276SOL    HW233288   2.792   3.844   3.589 -0.4512 -0.4766 -0.1993
 7277SOL     OW33289   3.922   2.849   2.412  0.1021  0.0459 -0.3517
 7277SOL    HW133290   3.945   2.761   2.382  0.4930  1.7831 -5.1831
 7277SOL    HW233291   3.829   2.860   2.390  0.5504  0.5794 -1.9647
 7278SOL     OW33292   2.372   0.123  13.736 -0.1240 -0.2324 -0.4381
 7278SOL    HW133293   2.348   0.180  13.808  0.1266 -0.6569 -0.0129
 7278SOL    HW233294   2.452   0.164  13.702  0.8494 -1.3363  0.5058
 7279SOL     OW33295   2.995   0.082   2.218  0.3263  0.3430 -0.3842
 7279SOL    HW133296   3.059   0.082   2.290 -1.1818 -3.3406  0.9385
 7279SOL    HW233297   3.004   0.172   2.188 -0.7618  0.7904  0.6396
 7280SOL     OW33298   2.409   4.452  11.553  0.3021 -0.1919 -0.0802
 7280SOL    HW133299   2.400   4.381  11.617  0.0085  0.7225  0.8995
 7280SOL    HW233300   2.493   4.431  11.513 -0.2891 -0.7206 -1.0430
 7281SOL     OW33301   0.390   4.429  14.017 -0.4139 -0.6276  0.1802
 7281SOL    HW133302   0.404   4.359  13.954 -0.3277  1.2021 -1.8484
 7281SOL    HW233303   0.460   4.428  14.082 -1.0545 -2.4915  0.8425
 7282SOL     OW33304   4.247   0.121   3.774 -0.2390 -0.0931 -0.3242
 7282SOL    HW133305   4.236   0.035   3.814  1.1660 -0.7067 -1.2296
 7282SOL    HW233306   4.284   0.159   3.854  1.5844 -1.3613 -0.5548
 7283SOL     OW33307   1.231   2.756   8.275  0.3427 -0.5397  0.5430
 7283SOL    HW133308   1.144   2.746   8.237  0.9624 -0.2099 -0.9699
 7283SOL    HW233309   1.279   2.728   8.197 -0.2483  0.2143 -0.0887
 7284SOL     OW33310   0.337   0.782  12.792  0.2924  0.0141  0.2332
 7284SOL    HW133311   0.254   0.739  12.769 -0.0575  1.9280 -2.0921
 7284SOL    HW233312   0.352   0.741  12.877  0.9856  2.6715  1.4088
 7285SOL     OW33313   4.039   0.835  13.578 -0.5618 -0.0131  0.2764
 7285SOL    HW133314   4.021   0.928  13.588  1.2505  0.3228  0.4790
 7285SOL    HW233315   3.987   0.816  13.500  2.6923  0.4032 -2.0032
 7286SOL     OW33316   4.686   4.127  10.911  0.4596 -0.0758  0.4903
 7286SOL    HW133317   4.670   4.040  10.948  1.9070 -1.0941 -1.2741
 7286SOL    HW233318   4.718   4.180  10.983 -0.3092  0.2935  0.5611
 7287SOL     OW33319   3.226   2.106  14.104  0.7257 -0.1625 -0.1628
 7287SOL    HW133320   3.134   2.123  14.084  0.8129  2.7229  1.8345
 7287SOL    HW233321   3.245   2.038  14.040  1.8031  0.0263 -0.0455
 7288SOL     OW33322   0.709   2.502  11.342 -0.0374 -0.7048  0.4863
 7288SOL    HW133323   0.712   2.409  11.319 -0.1821 -0.2056 -1.5690
 7288SOL    HW233324   0.762   2.544  11.274 -1.3589  0.9041  0.4593
 7289SOL     OW33325   1.362   2.900   3.478 -0.1736  0.5415  0.2146
 7289SOL    HW133326   1.422   2.899   3.552  0.3208 -2.2034 -0.2351
 7289SOL    HW233327   1.299   2.832   3.501  0.9395 -2.0153 -4.2487
 7290SOL     OW33328   0.143   3.509   2.314  0.4167  0.3207  0.3550
 7290SOL    HW133329   0.223   3.530   2.265  0.7193 -0.8078  0.3640
 7290SOL    HW233330   0.079   3.550   2.256 -2.1801 -1.7096  1.8053
 7291SOL     OW33331   0.947   4.648  10.143  0.0989 -0.2524 -0.2748
 7291SOL    HW133332   1.042   4.645  10.152 -0.0109  0.3062  1.0821
 7291SOL    HW233333   0.925   4.584  10.076 -0.3604  0.3986 -0.7381
 7292SOL     OW33334   2.293   0.358   6.987  0.5234 -0.3284 -0.1544
 7292SOL    HW133335   2.334   0.395   7.065  0.1200  0.0729 -0.1369
 7292SOL    HW233336   2.343   0.396   6.915 -0.3094  0.4911 -0.2842
 7293SOL     OW33337   0.579   3.050   4.680 -0.4346  0.3756 -0.0422
 7293SOL    HW133338   0.564   2.959   4.708 -2.1946  0.1532 -1.7347
 7293SOL    HW233339   0.540   3.049   4.593  0.0340  1.0927 -0.2574
 7294SOL     OW33340   0.744   1.326   2.556  0.2983  0.1998  0.2584
 7294SOL    HW133341   0.810   1.270   2.597 -1.4737 -1.1355  1.3098
 7294SOL    HW233342   0.759   1.409   2.600 -0.2113 -0.3559  1.4895
 7295SOL     OW33343   0.734   2.306   7.402 -0.3473 -0.1118  0.4440
 7295SOL    HW133344   0.784   2.369   7.349 -0.3330 -0.0956  0.4765
 7295SOL    HW233345   0.804   2.288   7.465  0.0548  0.6458  0.2184
 7296SOL     OW33346   1.174   3.315  16.195 -0.1600  0.2500  0.3261
 7296SOL    HW133347   1.212   3.266  16.267 -2.2882 -0.9481  0.6288
 7296SOL    HW233348   1.255   3.355  16.163  1.4652 -3.9080 -0.6833
 7297SOL     OW33349   3.248   4.031   4.332 -0.1079 -0.2937 -0.4583
 7297SOL    HW133350   3.255   3.948   4.285 -1.4925  0.4954 -2.0516
 7297SOL    HW233351   3.295   4.090   4.273  2.3807 -4.4823 -2.6607
 7298SOL     OW33352   0.634   3.059   7.744  0.0857  0.5752 -0.1361
 7298SOL    HW133353   0.652   3.109   7.664 -0.7637  1.8074  0.4381
 7298SOL    HW233354   0.659   2.974   7.708 -0.1189  0.5853 -0.3022
 7299SOL     OW33355   0.361   0.107   7.395 -0.1990 -0.6194 -0.1429
 7299SOL    HW133356   0.272   0.094   7.363 -0.9944 -0.1996  1.8696
 7299SOL    HW233357   0.350   0.138   7.485  0.7082 -0.5192 -0.0663
 7300SOL     OW33358   4.205   2.941   3.857  0.1365  0.0651  0.3916
 7300SOL    HW133359   4.187   2.857   3.899 -1.9794 -0.6888 -2.0446
 7300SOL    HW233360   4.272   2.985   3.909  1.0819  0.8367 -1.4717
 7301SOL     OW33361   1.404   0.435   0.678  0.3020  0.0012  0.1101
 7301SOL    HW133362   1.318   0.474   0.691  1.0516  1.5472  0.3866
 7301SOL    HW233363   1.421   0.405   0.768  0.0647  1.6519  0.6999
 7302SOL     OW33364   3.197   0.481   8.257 -0.1397 -0.7554 -0.7917
 7302SOL    HW133365   3.216   0.489   8.164 -3.6378 -0.8116 -1.5092
 7302SOL    HW233366   3.204   0.575   8.274  0.5308 -0.7535 -1.0441
 7303SOL     OW33367   1.281   1.525   2.113 -0.1273 -0.0259 -0.2354
 7303SOL    HW133368   1.261   1.498   2.203  0.3526  2.5894  0.6344
 7303SOL    HW233369   1.242   1.612   2.112  0.1699  0.0556 -3.1955
 7304SOL     OW33370   1.763   3.319   2.539  0.4076  0.5577  0.2790
 7304SOL    HW133371   1.713   3.352   2.464 -0.3357  0.6574  0.8105
 7304SOL    HW233372   1.849   3.306   2.500  0.6223  1.7922  0.3466
 7305SOL     OW33373   0.113   3.731  15.299 -0.6960  0.1548  0.5159
 7305SOL    HW133374   0.059   3.782  15.239 -1.3403 -0.8133  0.2852
 7305SOL    HW233375   0.186   3.718  15.239  0.6065  0.3092  2.0424
 7306SOL     OW33376   3.451   3.416   5.235  0.1015 -0.0224 -0.0281
 7306SOL    HW133377   3.544   3.426   5.216 -0.4972  3.9956 -0.9433
 7306SOL    HW233378   3.421   3.409   5.144  1.0977 -1.3931 -0.2501
 7307SOL     OW33379   0.963   1.022   8.220 -0.3221  0.2478  0.2819
 7307SOL    HW133380   0.877   1.062   8.206 -0.3108  1.3775  3.3838
 7307SOL    HW233381   0.943   0.929   8.206  1.8484  0.0539 -1.5432
 7308SOL     OW33382   3.579   3.217   3.850  0.3476  0.0215  0.0528
 7308SOL    HW133383   3.594   3.190   3.940  2.3362 -1.8305 -0.8274
 7308SOL    HW233384   3.519   3.290   3.868 -1.6066 -1.4490 -0.4846
 7309SOL     OW33385   2.206   4.469   6.318 -0.2873  0.0954 -0.4494
 7309SOL    HW133386   2.249   4.520   6.388  0.9810 -2.9861  1.0506
 7309SOL    HW233387   2.247   4.505   6.240  0.9866 -1.1232 -0.3606
 7310SOL     OW33388   1.539   1.549   9.022 -0.6338  0.3996 -0.7505
 7310SOL    HW133389   1.598   1.485   9.062  0.0673  0.5110 -1.6082
 7310SOL    HW233390   1.529   1.529   8.929  1.2112 -1.8525 -0.4685
 7311SOL     OW33391   0.008   1.242   0.321 -0.4715 -0.6727  0.2616
 7311SOL    HW133392   4.710   1.257   0.413 -0.2705  0.5070  0.1105
 7311SOL    HW233393   4.646   1.207   0.292 -1.3859  2.0458 -0.3546
 7312SOL     OW33394   1.004   3.701   3.156  0.7320  0.2035 -0.1241
 7312SOL    HW133395   1.062   3.774   3.175 -0.5013  1.5038 -1.3463
 7312SOL    HW233396   1.016   3.685   3.062 -1.5134 -0.1124 -0.3706
 7313SOL     OW33397   4.299   3.952   5.137 -0.3498  0.4674  0.0922
 7313SOL    HW133398   4.217   3.919   5.101 -1.8564  2.4191  1.7514
 7313SOL    HW233399   4.354   3.928   5.063 -2.4623 -4.2572  0.0861
 7314SOL     OW33400   2.846   3.598  12.611 -0.0458  0.3179  0.8609
 7314SOL    HW133401   2.922   3.600  12.554 -1.7482  1.3044 -1.3679
 7314SOL    HW233402   2.791   3.660  12.563 -2.2035 -3.3026 -1.2874
 7315SOL     OW33403   3.813   2.758   3.720 -0.0146 -0.2306 -0.3134
 7315SOL    HW133404   3.839   2.832   3.775  0.5095  0.7591 -1.9109
 7315SOL    HW233405   3.782   2.701   3.791 -2.4879  3.0509  1.2947
 7316SOL     OW33406   3.099   2.099   4.993  0.6769  0.6731 -0.0373
 7316SOL    HW133407   3.191   2.106   5.019  0.5793  0.4350  0.3762
 7316SOL    HW233408   3.048   2.105   5.073  1.8919  0.7151  0.7417
 7317SOL     OW33409   1.362   1.381  14.943 -0.2709 -0.1653 -0.3121
 7317SOL    HW133410   1.415   1.384  15.022 -1.5360 -1.3657  0.5904
 7317SOL    HW233411   1.332   1.472  14.944  0.1562 -0.0157 -0.8124
 7318SOL     OW33412   0.917   3.711   2.314  0.5973 -0.4924  0.4054
 7318SOL    HW133413   0.824   3.715   2.336  0.8812  0.7070  1.4020
 7318SOL    HW233414   0.957   3.720   2.400  1.5344  1.0825 -0.1979
 7319SOL     OW33415   1.742   0.685   2.824 -0.2675  0.2155 -0.0980
 7319SOL    HW133416   1.723   0.593   2.846 -0.5734  0.0751 -0.9508
 7319SOL    HW233417   1.700   0.689   2.738 -2.5104  0.9791  1.0269
 7320SOL     OW33418   1.319   1.850  14.387  0.0470  0.3472 -0.2889
 7320SOL    HW133419   1.348   1.802  14.309 -0.8775  0.1412 -0.5073
 7320SOL    HW233420   1.388   1.916  14.398  1.1762 -0.9460  0.4275
 7321SOL     OW33421   0.714   1.692  10.715  0.1776 -0.8165  0.0570
 7321SOL    HW133422   0.707   1.615  10.771 -2.3532 -0.8940 -0.3602
 7321SOL    HW233423   0.741   1.760  10.777 -1.4157 -1.0647  1.0004
 7322SOL     OW33424   0.137   0.627   7.767 -0.4234  0.0469  0.2969
 7322SOL    HW133425   0.170   0.699   7.820  1.9080 -1.8896  1.4600
 7322SOL    HW233426   0.046   0.655   7.757 -0.5340  0.0510  1.3210
 7323SOL     OW33427   0.346   4.071   0.505  0.2869 -0.4593 -0.6979
 7323SOL    HW133428   0.259   4.076   0.546  1.7373  1.5966  2.1694
 7323SOL    HW233429   0.386   4.156   0.522  1.1819 -0.8764 -0.7480
 7324SOL     OW33430   4.556   2.804   3.554  0.7615  0.1225  0.2520
 7324SOL    HW133431   4.553   2.720   3.507 -1.3549  0.2595  0.1441
 7324SOL    HW233432   4.490   2.864   3.520  2.2929  1.6922  0.0133
 7325SOL     OW33433   1.926   0.817   6.450 -0.1744 -0.2868 -0.1870
 7325SOL    HW133434   1.969   0.827   6.535  3.0553 -2.2144 -1.5819
 7325SOL    HW233435   1.837   0.848   6.468 -0.1605  0.2669 -1.0650
 7326SOL     OW33436   3.489   2.041   9.634 -0.6264  0.1612 -0.3489
 7326SOL    HW133437   3.527   2.106   9.576  0.0905  0.2223  0.1970
 7326SOL    HW233438   3.563   1.985   9.658 -0.3214  1.1334  0.9921
 7327SOL     OW33439   1.402   1.065   8.995 -0.2468 -0.5748 -0.5857
 7327SOL    HW133440   1.425   0.983   9.037 -0.0029  0.4537  1.2912
 7327SOL    HW233441   1.486   1.110   9.002  0.0211 -0.7918 -2.4456
 7328SOL     OW33442   4.580   1.267  10.627 -0.1132  0.0504  0.0969
 7328SOL    HW133443   4.613   1.200  10.568 -1.8986 -0.4295 -0.3630
 7328SOL    HW233444   4.504   1.299  10.578 -0.3115 -0.1449  0.2777
 7329SOL     OW33445   3.817   3.365  12.551 -0.0776  0.4149 -0.3921
 7329SOL    HW133446   3.891   3.315  12.515  0.0983 -1.4094  2.5749
 7329SOL    HW233447   3.765   3.303  12.602 -0.9585  2.7562  1.5623
 7330SOL     OW33448   0.278   2.126   3.521  0.3083 -0.0444 -0.2454
 7330SOL    HW133449   0.300   2.153   3.432  3.4766  1.1591  0.9182
 7330SOL    HW233450   0.345   2.164   3.577  1.7509  0.5770 -2.4058
 7331SOL     OW33451   2.283   4.564   6.093 -0.4903  0.6520 -0.0955
 7331SOL    HW133452   2.372   4.597   6.106 -0.5867  0.6331  0.5831
 7331SOL    HW233453   2.239   4.639   6.053 -0.7320  0.7395  0.3315
 7332SOL     OW33454   2.073   4.634  12.837 -0.4465 -0.5983  0.0812
 7332SOL    HW133455   2.155   4.682  12.838  0.5859 -2.3608 -0.4802
 7332SOL    HW233456   2.078   4.571  12.910  0.4533  0.1353  0.6477
 7333SOL     OW33457   1.049   0.534   3.103  0.8193 -0.0438  0.6368
 7333SOL    HW133458   1.070   0.547   3.195  0.9276 -0.8401  0.7315
 7333SOL    HW233459   0.954   0.523   3.103  0.8236 -0.0676  3.2644
 7334SOL     OW33460   0.085   3.532   1.144 -0.7388 -0.2640 -0.2606
 7334SOL    HW133461   0.046   3.447   1.162 -2.3008  0.5103  0.0092
 7334SOL    HW233462   0.005   3.585   1.141  0.4069  1.4191 -1.5392
 7335SOL     OW33463   4.006   1.742   9.179  0.4161 -0.4503 -0.3343
 7335SOL    HW133464   4.064   1.676   9.217  0.0371  0.3635  1.6424
 7335SOL    HW233465   4.046   1.768   9.096 -2.5058  0.1434 -1.5714
 7336SOL     OW33466   2.593   3.038   7.105  0.4301 -0.2002  0.5917
 7336SOL    HW133467   2.559   3.080   7.026 -1.9167  2.3196  2.9249
 7336SOL    HW233468   2.573   2.945   7.099 -2.2674  0.2021  3.3488
 7337SOL     OW33469   3.616   4.585   6.956  0.3215 -0.1042 -0.3440
 7337SOL    HW133470   3.611   4.491   6.944 -3.4605 -0.1117  1.3260
 7337SOL    HW233471   3.582   4.607   7.043 -0.0005  1.0280 -0.7454
 7338SOL     OW33472   1.319   3.455   2.129  0.1090 -0.9414 -0.2582
 7338SOL    HW133473   1.237   3.458   2.177  0.3186  0.0787  0.0308
 7338SOL    HW233474   1.300   3.398   2.055 -1.4140 -0.0770 -0.5252
 7339SOL     OW33475   1.705   1.536   6.815 -0.6220  0.1965  0.3002
 7339SOL    HW133476   1.624   1.580   6.842  0.0228  1.8168 -0.4017
 7339SOL    HW233477   1.774   1.566   6.874 -1.1982  1.5223  0.3039
 7340SOL     OW33478   1.948   0.764   7.216  0.0984 -0.6776 -0.4901
 7340SOL    HW133479   1.862   0.772   7.258  1.1832  1.7191  1.2815
 7340SOL    HW233480   1.936   0.828   7.146 -0.0359 -0.0565  0.0987
 7341SOL     OW33481   1.767   0.334   2.030  0.4363  0.0420  0.5646
 7341SOL    HW133482   1.774   0.261   2.092 -2.5943  0.0810  0.9426
 7341SOL    HW233483   1.718   0.284   1.964  1.0834  0.1897 -0.0191
 7342SOL     OW33484   3.921   4.252   3.796  0.2004 -0.4685 -0.5385
 7342SOL    HW133485   3.997   4.206   3.759  1.3519  1.8313 -1.0597
 7342SOL    HW233486   3.927   4.244   3.891 -0.6970 -1.1474 -0.5353
 7343SOL     OW33487   3.186   1.912   6.348 -0.0754  0.0879 -0.3520
 7343SOL    HW133488   3.184   1.888   6.441 -2.6674  1.0096 -0.1710
 7343SOL    HW233489   3.240   1.988   6.365  0.7990 -0.5118 -0.4525
 7344SOL     OW33490   2.053   3.145   9.665 -0.3470 -0.2005 -0.6616
 7344SOL    HW133491   2.036   3.235   9.639  1.0270  0.2696  0.0781
 7344SOL    HW233492   1.968   3.101   9.667 -0.0331 -0.6840  3.2511
 7345SOL     OW33493   2.978   0.631   5.194  0.1278 -0.0141 -0.4089
 7345SOL    HW133494   2.996   0.657   5.284  3.9602 -1.4747 -0.7775
 7345SOL    HW233495   2.893   0.588   5.207 -1.9121  3.8903 -0.7679
 7346SOL     OW33496   0.355   3.007   8.853 -0.3328  0.9017 -0.4586
 7346SOL    HW133497   0.325   3.096   8.836  0.3518  1.0649 -0.8030
 7346SOL    HW233498   0.382   2.974   8.767 -2.3890  0.8728 -1.1009
 7347SOL     OW33499   0.731   4.691  13.977  0.8936  0.1028  0.5620
 7347SOL    HW133500   0.701   4.640  14.053 -0.5084  0.8680  0.5160
 7347SOL    HW233501   0.804   0.021  14.009  1.6264 -0.7937  0.3727
 7348SOL     OW33502   3.696   3.490  15.279  0.3806 -0.8062  0.2163
 7348SOL    HW133503   3.701   3.582  15.304  1.7594 -0.6313 -0.7202
 7348SOL    HW233504   3.790   3.473  15.275  0.4493 -0.6699  1.2872
 7349SOL     OW33505   0.973   3.297  12.310 -0.2043  0.3766  0.4751
 7349SOL    HW133506   0.984   3.264  12.399  3.3223 -0.4053 -0.2545
 7349SOL    HW233507   0.908   3.363  12.334 -1.6521  0.5619 -3.9851
 7350SOL     OW33508   3.665   1.024   6.950  0.1477  0.1759  0.1317
 7350SOL    HW133509   3.656   1.034   6.856 -0.2243  2.1269  0.3778
 7350SOL    HW233510   3.729   1.089   6.977  0.3923 -1.0717  2.5934
 7351SOL     OW33511   2.154   4.092   4.657  0.1046 -0.7799  0.1402
 7351SOL    HW133512   2.083   4.030   4.640 -0.1193  0.1234 -2.1681
 7351SOL    HW233513   2.223   4.042   4.615  0.4747  0.4850 -0.7387
 7352SOL     OW33514   1.963   0.982   0.115 -0.2269  0.6823  0.0429
 7352SOL    HW133515   1.932   0.919   0.180  0.3931  0.5386  0.1989
 7352SOL    HW233516   2.049   1.007   0.150 -0.5231 -0.9375  1.8970
 7353SOL     OW33517   4.149   3.278   5.581 -0.4524 -0.7141 -0.4616
 7353SOL    HW133518   4.208   3.249   5.651  2.0098  1.1540 -1.7638
 7353SOL    HW233519   4.191   3.338   5.519 -0.3934 -1.3912 -1.0691
 7354SOL     OW33520   0.376   4.249   5.095 -0.2284  0.2723  0.0197
 7354SOL    HW133521   0.414   4.163   5.114 -1.5715 -0.5981 -1.2285
 7354SOL    HW233522   0.420   4.267   5.012  1.0233 -1.2186  0.3628
 7355SOL     OW33523   3.131   4.578   1.347  0.3808  0.1120  0.2271
 7355SOL    HW133524   3.160   4.515   1.281 -0.4094 -1.5523  1.4705
 7355SOL    HW233525   3.070   4.526   1.400  0.2180  0.3749  0.3003
 7356SOL     OW33526   3.313   2.045   5.858 -0.0435 -0.7560  0.1601
 7356SOL    HW133527   3.284   2.107   5.926  0.0554 -2.2562  1.5752
 7356SOL    HW233528   3.316   1.964   5.910  1.1497 -2.0402 -1.9231
 7357SOL     OW33529   2.722   1.071   0.377  0.1771 -0.3602  0.7646
 7357SOL    HW133530   2.756   1.022   0.452 -0.9447  2.1982  2.9514
 7357SOL    HW233531   2.669   1.135   0.424 -1.3699 -1.8286  1.0108
 7358SOL     OW33532   1.387   0.938   0.492 -0.3245  0.3365  0.4087
 7358SOL    HW133533   1.375   0.847   0.464  1.6172 -0.0211  0.7763
 7358SOL    HW233534   1.346   0.987   0.421  2.5917  1.4257 -0.5260
 7359SOL     OW33535   0.566   1.203   1.416 -0.2069 -0.4738  0.2060
 7359SOL    HW133536   0.483   1.161   1.437 -1.4505  1.3475 -1.1725
 7359SOL    HW233537   0.618   1.151   1.478  1.0986  1.0254  0.3666
 7360SOL     OW33538   1.873   3.251  13.037 -0.2056 -0.0550 -0.0236
 7360SOL    HW133539   1.861   3.329  12.982 -0.8079  0.1250  0.3557
 7360SOL    HW233540   1.954   3.276  13.083 -0.0000 -1.8405  0.5609
 7361SOL     OW33541   0.025   4.411   4.731  0.0726  0.4322  0.1355
 7361SOL    HW133542   0.109   4.418   4.776 -0.4614  1.2778  1.0104
 7361SOL    HW233543   0.002   4.318   4.723  0.1025  0.1411  3.1826
 7362SOL     OW33544   2.270   2.927   8.552  0.1251  0.4805 -0.2632
 7362SOL    HW133545   2.360   2.895   8.541 -0.6505 -1.9025  0.1990
 7362SOL    HW233546   2.237   2.921   8.463 -5.7788  1.3815  1.9058
 7363SOL     OW33547   3.485   4.066   8.423  0.2030 -0.0511 -0.1913
 7363SOL    HW133548   3.431   4.145   8.414 -1.9613 -1.3526  1.3895
 7363SOL    HW233549   3.489   4.052   8.517  1.8330 -1.0219 -0.4144
 7364SOL     OW33550   4.116   0.014  17.424  0.1301  0.0569 -0.4325
 7364SOL    HW133551   4.028   4.712  17.452  0.0313  0.9206  0.0068
 7364SOL    HW233552   4.110   0.055  17.338 -1.0069  1.3230  0.2519
 7365SOL     OW33553   0.585   0.429  17.592  0.2801  0.2611  0.2613
 7365SOL    HW133554   0.583   0.485  17.670 -3.0032  0.6148 -0.0710
 7365SOL    HW233555   0.492   0.411  17.580  0.4202 -0.3409  0.1190
 7366SOL     OW33556   3.349   1.990   4.511 -0.8142  1.0085  0.1604
 7366SOL    HW133557   3.276   1.933   4.533 -1.2380  2.1565  1.7238
 7366SOL    HW233558   3.336   2.066   4.567 -0.6818  1.6589 -0.6776
 7367SOL     OW33559   1.108   0.438   5.630 -0.1726  0.1496  0.0511
 7367SOL    HW133560   1.202   0.453   5.624 -0.3939  0.8265 -1.6265
 7367SOL    HW233561   1.118   0.345   5.652  1.6420  0.6212  1.2087
 7368SOL     OW33562   4.630   1.866   3.738 -0.0282  0.3879  0.6773
 7368SOL    HW133563   4.546   1.840   3.700  1.4063  0.0429 -2.2385
 7368SOL    HW233564   4.697   1.822   3.685 -0.8275 -0.8549  0.7024
 7369SOL     OW33565   0.586   3.321   5.132  0.6248 -0.1658 -0.6972
 7369SOL    HW133566   0.676   3.349   5.150  0.8160 -0.2844 -1.4738
 7369SOL    HW233567   0.556   3.310   5.222  0.7338 -2.6241 -0.9568
 7370SOL     OW33568   1.314   3.946   8.859  0.2156 -0.2386 -0.1983
 7370SOL    HW133569   1.399   3.902   8.865 -0.6787 -1.8578  0.3925
 7370SOL    HW233570   1.314   4.008   8.932 -0.2472  0.3813 -0.7158
 7371SOL     OW33571   1.763   2.057  14.395 -0.2423  0.4443 -0.4576
 7371SOL    HW133572   1.736   2.148  14.408  2.3576  1.0291  0.6842
 7371SOL    HW233573   1.713   2.004  14.458  0.1284 -2.3100 -2.4795
 7372SOL     OW33574   2.985   2.545  16.064  0.2118  0.2080 -0.4506
 7372SOL    HW133575   3.076   2.569  16.082 -0.1258  2.0463 -1.2599
 7372SOL    HW233576   2.972   2.486  16.138  1.1937  0.2517 -0.2367
 7373SOL     OW33577   3.214   4.072   8.969  0.2367 -0.4853  0.0582
 7373SOL    HW133578   3.197   3.995   8.915  2.5430 -1.4757  0.7339
 7373SOL    HW233579   3.248   4.035   9.051 -0.2737 -0.6435  0.1994
 7374SOL     OW33580   0.027   4.526   0.749 -0.5350  0.3836  0.4669
 7374SOL    HW133581   4.667   4.515   0.795 -0.6724 -1.6848 -0.2749
 7374SOL    HW233582   0.029   4.620   0.735 -0.5286 -0.0333 -2.2110
 7375SOL     OW33583   1.090   3.139   5.790 -0.8003  0.4888  0.4931
 7375SOL    HW133584   1.143   3.075   5.838 -0.1422 -0.5088 -1.5615
 7375SOL    HW233585   1.153   3.211   5.793 -0.2509  0.0466 -0.4747
 7376SOL     OW33586   2.117   0.877  12.677 -0.3931 -0.1688  0.1086
 7376SOL    HW133587   2.135   0.848  12.766  0.5516 -0.9041 -0.3283
 7376SOL    HW233588   2.066   0.956  12.694 -2.3242 -1.5096  0.5871
 7377SOL     OW33589   4.524   1.639   2.745  0.0693  0.1987 -0.4583
 7377SOL    HW133590   4.545   1.672   2.657  0.4797  1.1418 -0.0029
 7377SOL    HW233591   4.428   1.631   2.744  0.0146  0.9482 -1.4694
 7378SOL     OW33592   1.601   1.073   1.858  0.1273 -0.2129  0.3890
 7378SOL    HW133593   1.520   1.087   1.809 -0.5848  0.4105  1.7502
 7378SOL    HW233594   1.624   0.987   1.822  0.4038 -0.5571  1.3788
 7379SOL     OW33595   4.628   3.514   3.256 -0.0342  0.1270  0.4272
 7379SOL    HW133596   4.632   3.439   3.197 -2.8307 -1.0019  1.7077
 7379SOL    HW233597   4.556   3.560   3.212  0.4193  1.0384  0.6382
 7380SOL     OW33598   1.862   0.140   5.698  0.4654 -0.1573  0.3146
 7380SOL    HW133599   1.934   0.090   5.658 -1.1293 -1.5898 -0.7460
 7380SOL    HW233600   1.869   0.097   5.783  3.2336 -1.2169 -0.4470
 7381SOL     OW33601   2.108   3.637   8.511  0.1705 -0.6411  0.0085
 7381SOL    HW133602   2.093   3.596   8.596 -0.3087 -1.0079 -0.2497
 7381SOL    HW233603   2.058   3.576   8.456  1.1068 -0.3764 -1.1451
 7382SOL     OW33604   0.105   4.512   2.230  0.2953 -0.1120 -0.3532
 7382SOL    HW133605   0.178   4.563   2.196  2.1102 -1.3311  1.7166
 7382SOL    HW233606   0.054   4.514   2.149  0.7338  0.9451 -0.6017
 7383SOL     OW33607   1.149   4.337   1.049  0.2842  0.1720  0.2642
 7383SOL    HW133608   1.117   4.250   1.074 -0.2793 -0.8212 -3.9166
 7383SOL    HW233609   1.243   4.327   1.035  0.4452  2.2542 -0.1254
 7384SOL     OW33610   1.789   2.998   9.039  0.0394  0.3909  0.1671
 7384SOL    HW133611   1.795   3.093   9.028 -0.0031  0.8060  3.5836
 7384SOL    HW233612   1.842   2.977   9.116 -0.1587 -1.2736 -0.1608
 7385SOL     OW33613   2.615   2.744   8.883  0.2119  0.1390 -0.4651
 7385SOL    HW133614   2.589   2.688   8.811  0.4187  1.7461 -1.7821
 7385SOL    HW233615   2.703   2.708   8.891  0.3046  0.1636 -1.4164
 7386SOL     OW33616   3.410   3.969  12.379 -0.1373 -0.2787  0.0153
 7386SOL    HW133617   3.367   4.011  12.304 -3.8431 -0.9120  1.8062
 7386SOL    HW233618   3.493   3.935  12.344 -0.3322  0.5345 -1.2547
 7387SOL     OW33619   4.478   0.593   6.291 -0.9339  0.3802  0.3167
 7387SOL    HW133620   4.530   0.651   6.346  0.1204 -1.5310  1.3174
 7387SOL    HW233621   4.493   0.504   6.323 -1.1651  0.3689  0.3932
 7388SOL     OW33622   1.076   4.353  15.474  0.2868  0.2785 -0.0564
 7388SOL    HW133623   1.074   4.269  15.429 -0.2509 -0.3182  1.1002
 7388SOL    HW233624   0.984   4.359  15.498  0.8370  0.3483  2.0266
 7389SOL     OW33625   2.925   4.035   7.400 -0.1352 -0.1481  0.3995
 7389SOL    HW133626   3.004   4.043   7.346  0.6657 -0.0816  1.5852
 7389SOL    HW233627   2.976   4.016   7.479 -1.6313 -0.5109  1.2795
 7390SOL     OW33628   4.533   4.192   6.361 -0.3348 -0.1315  0.0354
 7390SOL    HW133629   4.443   4.172   6.337 -1.0924  1.1331  1.9600
 7390SOL    HW233630   4.589   4.121   6.327  0.7276  1.2294 -1.0762
 7391SOL     OW33631   0.854   1.605   2.598 -0.3300  0.9785 -0.0842
 7391SOL    HW133632   0.935   1.651   2.619  1.8004 -0.5736 -4.8761
 7391SOL    HW233633   0.842   1.605   2.503 -1.9481  0.7884  0.1217
 7392SOL     OW33634   1.146   4.486   2.397 -0.0600  0.0377 -0.2595
 7392SOL    HW133635   1.165   4.526   2.481 -0.4099 -0.2635 -0.0361
 7392SOL    HW233636   1.054   4.470   2.418 -0.0222  3.3322  2.2453
 7393SOL     OW33637   0.439   3.458  15.330 -0.3455 -0.5744 -0.2899
 7393SOL    HW133638   0.458   3.372  15.367  1.0036 -0.9524 -1.8793
 7393SOL    HW233639   0.415   3.512  15.405  1.5135 -0.0990 -0.0298
 7394SOL     OW33640   4.473   3.509   4.009  0.3809 -0.2888  0.2199
 7394SOL    HW133641   4.452   3.577   3.945  0.6570  1.3812  1.8824
 7394SOL    HW233642   4.515   3.443   3.955  1.1019  0.5166 -0.1976
 7395SOL     OW33643   2.536   2.359   3.078  0.6129 -0.5710 -1.1951
 7395SOL    HW133644   2.596   2.363   3.004 -0.7146 -0.4293 -2.2670
 7395SOL    HW233645   2.448   2.362   3.040  0.3957 -1.4558 -0.7629
 7396SOL     OW33646   0.626   4.314   3.327  0.2946 -0.3480  0.1863
 7396SOL    HW133647   0.584   4.348   3.248 -0.6254 -2.5380 -0.2859
 7396SOL    HW233648   0.633   4.392   3.383  1.9958 -2.0181  2.3273
 7397SOL     OW33649   0.270   0.274  11.864  0.0082 -0.4637 -0.6016
 7397SOL    HW133650   0.179   0.252  11.845 -0.5037  0.3817  0.8190
 7397SOL    HW233651   0.248   0.312  11.949  1.2169  0.8306 -0.8866
 7398SOL     OW33652   0.483   2.919  15.841 -0.0939 -0.6346 -0.1656
 7398SOL    HW133653   0.533   2.844  15.873 -1.5994 -1.9395 -0.8445
 7398SOL    HW233654   0.393   2.887  15.829  0.1270 -1.1985 -0.3325
 7399SOL     OW33655   1.672   2.601   2.701  0.0761  0.5015 -0.1469
 7399SOL    HW133656   1.719   2.683   2.712  0.9037  0.0481 -0.3685
 7399SOL    HW233657   1.684   2.552   2.783  0.5222  0.8040 -0.0370
 7400SOL     OW33658   1.864   3.215   1.256  0.2432  0.4292 -0.2094
 7400SOL    HW133659   1.868   3.171   1.341 -1.2865  1.3958  0.3616
 7400SOL    HW233660   1.811   3.293   1.272  1.4255  1.0728  0.6414
 7401SOL     OW33661   2.722   1.073   3.048 -0.3013 -0.0228 -0.0035
 7401SOL    HW133662   2.700   1.006   2.983  1.5836 -0.9306  0.3326
 7401SOL    HW233663   2.637   1.068   3.091 -0.1153 -0.8436  0.2688
 7402SOL     OW33664   0.503   3.493   9.109 -0.4621  0.1423 -0.3113
 7402SOL    HW133665   0.476   3.486   9.201 -0.9333 -0.4811 -0.4931
 7402SOL    HW233666   0.593   3.461   9.103 -0.1512  0.6365  1.7470
 7403SOL     OW33667   3.765   2.346   0.956  0.6945 -0.0583 -0.9718
 7403SOL    HW133668   3.737   2.417   1.014 -1.3319 -2.2503  0.7795
 7403SOL    HW233669   3.681   2.302   0.938  0.9804 -1.2354  0.5871
 7404SOL     OW33670   0.675   4.238  13.894 -0.1537 -0.3044  0.3946
 7404SOL    HW133671   0.673   4.152  13.851 -0.2282  0.1607 -0.5486
 7404SOL    HW233672   0.700   4.292  13.819  1.6016 -1.4803  0.1415
 7405SOL     OW33673   0.547   3.306   8.523 -0.1181 -0.1769  0.0183
 7405SOL    HW133674   0.560   3.363   8.447  0.7373  0.5212  0.7056
 7405SOL    HW233675   0.607   3.239   8.489  1.5512  2.1103 -1.4904
 7406SOL     OW33676   3.638   0.731   7.085 -0.6956  0.1281  0.0636
 7406SOL    HW133677   3.661   0.651   7.037 -1.9044 -0.3065  0.2068
 7406SOL    HW233678   3.638   0.785   7.006 -0.2239  0.5999  0.3836
 7407SOL     OW33679   0.958   3.466   5.511 -0.8753 -0.3233 -0.2107
 7407SOL    HW133680   0.913   3.389   5.543  1.9028 -0.6605  2.8567
 7407SOL    HW233681   0.902   3.509   5.446 -2.0677  1.8560  2.2878
 7408SOL     OW33682   0.908   0.431   5.280 -0.3800 -0.4368  0.5268
 7408SOL    HW133683   0.902   0.339   5.307 -0.2240 -1.0762 -1.5609
 7408SOL    HW233684   0.836   0.463   5.333 -0.0951  0.4450  0.3767
 7409SOL     OW33685   2.811   4.213   1.835  0.1110 -0.4841  0.5208
 7409SOL    HW133686   2.852   4.298   1.851  0.6495 -0.2936 -1.8768
 7409SOL    HW233687   2.773   4.192   1.921 -1.7711  0.1398 -0.1715
 7410SOL     OW33688   2.434   0.479   4.089  0.3605 -0.5233  0.4267
 7410SOL    HW133689   2.398   0.391   4.077 -2.5517  0.8910 -1.1099
 7410SOL    HW233690   2.439   0.512   3.999  1.6377 -1.2926  0.2078
 7411SOL     OW33691   4.715   1.172   2.217 -0.6528 -0.2172  0.2624
 7411SOL    HW133692   4.627   1.161   2.254 -0.7832  0.7887  0.2592
 7411SOL    HW233693   4.712   1.104   2.150 -0.4838  1.0109 -0.9907
 7412SOL     OW33694   2.183   3.428   8.823 -0.1578  0.5696 -0.1015
 7412SOL    HW133695   2.221   3.394   8.903 -0.0354 -0.1856 -0.4818
 7412SOL    HW233696   2.194   3.522   8.834  1.5219  0.3190  0.3259
 7413SOL     OW33697   4.620   0.277  15.242 -0.1307  0.4272  0.1810
 7413SOL    HW133698   4.635   0.199  15.294 -1.6990  1.2747  1.8894
 7413SOL    HW233699   4.708   0.310  15.223  0.0576 -1.0354 -1.4393
 7414SOL     OW33700   3.590   4.489   7.969  0.3298  0.4273  0.2200
 7414SOL    HW133701   3.577   4.433   8.046  0.2100  1.5282  0.9924
 7414SOL    HW233702   3.599   4.576   8.008  0.4624  0.8811 -0.8278
 7415SOL     OW33703   4.116   3.279   4.914 -0.1223  0.4361  0.2802
 7415SOL    HW133704   4.025   3.249   4.925 -0.3797  0.1044 -2.6234
 7415SOL    HW233705   4.101   3.361   4.867 -0.5225 -0.5884 -1.3974
 7416SOL     OW33706   3.898   0.838   5.716  0.3111 -0.8971 -0.4418
 7416SOL    HW133707   3.853   0.792   5.786  1.8131  0.2408  1.2876
 7416SOL    HW233708   3.952   0.905   5.759 -0.0344 -0.0314 -1.3435
 7417SOL     OW33709   2.937   4.132  17.508 -0.6028 -0.3293 -0.3059
 7417SOL    HW133710   2.945   4.215  17.556 -1.6577 -0.3826 -0.0307
 7417SOL    HW233711   2.889   4.178  17.438 -1.6800  0.2329  0.7884
 7418SOL     OW33712   3.117   0.578   2.437  0.1128  0.7755 -0.1200
 7418SOL    HW133713   3.054   0.649   2.452 -0.8640  0.1910 -1.5345
 7418SOL    HW233714   3.188   0.630   2.397 -0.2754  0.9176 -0.6258
 7419SOL     OW33715   2.889   2.953   4.126 -0.1207  0.5178 -0.0414
 7419SOL    HW133716   2.825   2.941   4.196 -0.2665  1.8616  0.0545
 7419SOL    HW233717   2.947   2.878   4.140 -0.4327  0.1010 -1.0225
 7420SOL     OW33718   1.517   4.625   6.088 -0.2735 -0.6782 -0.0860
 7420SOL    HW133719   1.561   4.702   6.050  1.4369 -2.1477 -1.0749
 7420SOL    HW233720   1.600   4.584   6.113 -0.2064  0.0512  0.8853
 7421SOL     OW33721   2.339   3.814   9.544 -0.2130  0.5128  0.3757
 7421SOL    HW133722   2.393   3.806   9.466 -0.5707 -1.7408  0.3667
 7421SOL    HW233723   2.394   3.768   9.608 -0.8375 -0.9265 -0.1226
 7422SOL     OW33724   3.274   3.963   4.573 -0.2249  0.8231  0.7234
 7422SOL    HW133725   3.278   4.002   4.486  0.8176  1.5551  1.1071
 7422SOL    HW233726   3.187   3.995   4.598 -1.8425 -0.8468 -2.6076
 7423SOL     OW33727   1.943   3.945  11.583  0.2153 -0.7359  0.1624
 7423SOL    HW133728   1.974   3.899  11.505 -0.0250 -1.3694  0.4433
 7423SOL    HW233729   2.026   3.988  11.607 -0.0945 -0.5140  0.8317
 7424SOL     OW33730   1.092   3.523   7.331 -0.1403 -0.0828  0.5184
 7424SOL    HW133731   1.152   3.568   7.271  0.2281 -2.1442 -0.6297
 7424SOL    HW233732   1.143   3.455   7.376  1.2927 -0.3115 -1.4658
 7425SOL     OW33733   1.620   1.944   4.825 -0.3473  0.5445  0.0148
 7425SOL    HW133734   1.703   1.951   4.779 -0.3954 -0.7618 -0.2558
 7425SOL    HW233735   1.580   2.008   4.767 -0.1133  0.7322  0.0622
 7426SOL     OW33736   0.575   2.851   7.331 -0.3140  0.2488  0.3250
 7426SOL    HW133737   0.623   2.771   7.352 -0.5244  0.0735  0.1330
 7426SOL    HW233738   0.620   2.899   7.261  0.1597 -0.9096 -0.1631
 7427SOL     OW33739   2.792   3.421   3.917 -0.1933 -0.8555 -0.1200
 7427SOL    HW133740   2.729   3.364   3.961  0.0691  0.5789  2.1219
 7427SOL    HW233741   2.752   3.508   3.919  1.0268 -0.2817 -0.8063
 7428SOL     OW33742   3.362   0.051   5.430  0.1700 -0.2796  0.1651
 7428SOL    HW133743   3.352   0.067   5.524 -0.5637 -2.3361  0.4349
 7428SOL    HW233744   3.324   0.136   5.406  1.2249  0.3165  0.5891
 7429SOL     OW33745   3.951   1.402  15.713  0.5214 -0.4057  0.2005
 7429SOL    HW133746   3.911   1.346  15.779 -2.0344  0.4063 -0.6482
 7429SOL    HW233747   3.907   1.486  15.727  1.6749  0.6057 -2.1476
 7430SOL     OW33748   2.076   2.585   3.412 -0.7796  0.3341  0.0253
 7430SOL    HW133749   2.019   2.571   3.488 -0.6615 -0.4461 -0.0303
 7430SOL    HW233750   2.122   2.663   3.442  0.1657  0.4835 -1.8002
 7431SOL     OW33751   3.178   3.177   2.942 -0.0028  0.4968 -0.1250
 7431SOL    HW133752   3.172   3.093   2.897 -0.7220 -0.2988  1.4628
 7431SOL    HW233753   3.141   3.232   2.873 -1.7840 -0.3625  0.1691
 7432SOL     OW33754   0.319   4.493   3.449 -0.0481 -0.6238 -0.0141
 7432SOL    HW133755   0.359   4.455   3.370 -0.3012 -1.1722  0.1237
 7432SOL    HW233756   0.397   4.532   3.488 -0.8987 -0.7040  1.7635
 7433SOL     OW33757   1.574   0.615   1.810  0.2296 -0.5869 -0.3306
 7433SOL    HW133758   1.633   0.687   1.791 -0.6846  0.0653 -0.6993
 7433SOL    HW233759   1.504   0.668   1.848  1.3065  0.0724  0.7324
 7434SOL     OW33760   2.580   0.747   7.395 -0.0346 -0.0248 -0.6204
 7434SOL    HW133761   2.665   0.782   7.423  0.1297 -0.6406 -0.3584
 7434SOL    HW233762   2.550   0.837   7.380  0.3803  0.4418  1.2271
 7435SOL     OW33763   2.503   4.587  13.684  0.1376 -0.3751  0.2481
 7435SOL    HW133764   2.577   4.644  13.706  0.7296 -1.0340 -0.0566
 7435SOL    HW233765   2.426   4.644  13.693  0.5601 -0.0035  1.5104
 7436SOL     OW33766   0.037   4.083   9.986  0.6825 -0.0882 -0.2797
 7436SOL    HW133767   0.062   4.143  10.056  2.1014  0.3327 -1.1297
 7436SOL    HW233768   0.076   4.005  10.025  1.7275  1.1838  1.2455
 7437SOL     OW33769   3.554   3.617   2.456 -0.2007 -0.1633 -0.0236
 7437SOL    HW133770   3.637   3.611   2.410  0.9488  3.2663  1.5906
 7437SOL    HW233771   3.496   3.601   2.381  0.5363 -0.3730 -0.5442
 7438SOL     OW33772   1.109   4.689   0.392  0.1564  0.4668 -0.1554
 7438SOL    HW133773   1.057   0.001   0.320 -0.1204 -0.7857 -0.5601
 7438SOL    HW233774   1.144   4.608   0.354 -2.7655 -1.7004  1.8201
 7439SOL     OW33775   4.667   2.311   1.937  0.4125 -0.3852  0.9913
 7439SOL    HW133776   4.608   2.379   1.904  3.0358  1.3308 -0.1718
 7439SOL    HW233777   4.618   2.231   1.917 -2.0563  0.8041  2.3507
 7440SOL     OW33778   0.612   3.651  14.987  0.0702 -0.1611 -0.1628
 7440SOL    HW133779   0.576   3.672  14.901  2.1634  0.2467 -0.9289
 7440SOL    HW233780   0.673   3.724  14.999  1.2555 -1.4291  1.5395
 7441SOL     OW33781   0.974   3.825   3.480  0.3990 -0.4950 -0.2637
 7441SOL    HW133782   1.069   3.817   3.472  0.6965  1.8406  0.8504
 7441SOL    HW233783   0.968   3.905   3.428 -1.5356 -1.7268 -1.9468
 7442SOL     OW33784   1.843   2.823  11.470 -0.2787 -0.5752  0.1334
 7442SOL    HW133785   1.772   2.875  11.508  0.4590  0.3542  0.2466
 7442SOL    HW233786   1.848   2.740  11.518 -2.1633 -0.5445  0.3928
 7443SOL     OW33787   2.928   1.336   4.628  0.3831 -0.3957  0.2585
 7443SOL    HW133788   2.844   1.295   4.646  1.2471 -2.0256  0.5857
 7443SOL    HW233789   2.976   1.260   4.659 -0.3670 -0.5524  1.0210
 7444SOL     OW33790   3.368   1.083  12.837 -0.0928  0.2899 -0.1273
 7444SOL    HW133791   3.460   1.060  12.823 -0.4484 -0.6947 -0.8773
 7444SOL    HW233792   3.326   1.002  12.809  0.8417 -0.9894  2.2186
 7445SOL     OW33793   2.013   1.947   4.030 -0.1000 -0.1746  0.4881
 7445SOL    HW133794   2.035   1.983   3.944  2.5640 -0.8972  0.8543
 7445SOL    HW233795   1.957   2.017   4.064  1.6796  1.2356  0.5134
 7446SOL     OW33796   1.705   0.984   2.835  0.8779  0.2463  0.3169
 7446SOL    HW133797   1.724   0.927   2.760  0.7673  0.5226  0.0746
 7446SOL    HW233798   1.615   1.010   2.813 -0.0492 -3.0459  0.3144
 7447SOL     OW33799   2.611   0.129   8.188 -0.4753  0.0847 -0.5018
 7447SOL    HW133800   2.683   0.089   8.237 -0.0053 -0.3975 -1.5749
 7447SOL    HW233801   2.579   0.057   8.134 -1.2032 -0.4244  0.6087
 7448SOL     OW33802   0.605   1.491   5.021 -0.2529  0.8080  0.8438
 7448SOL    HW133803   0.595   1.397   5.004 -1.3497  1.4382 -1.9299
 7448SOL    HW233804   0.696   1.495   4.993  0.5781 -1.5008  3.1919
 7449SOL     OW33805   0.343   1.388   4.668 -0.3392  0.0146  0.4190
 7449SOL    HW133806   0.433   1.380   4.635 -0.0699 -1.2108  1.4368
 7449SOL    HW233807   0.323   1.301   4.702 -0.6206 -0.4244 -0.8525
 7450SOL     OW33808   0.041   0.917   7.502  0.0359  0.3535 -0.0001
 7450SOL    HW133809   0.117   0.974   7.512  0.7712 -0.8058  1.0266
 7450SOL    HW233810   4.718   0.916   7.587  0.9192  0.8562  0.4879
 7451SOL     OW33811   3.155   0.477   3.691 -0.3559 -0.2971 -0.3372
 7451SOL    HW133812   3.092   0.479   3.763 -1.5543  0.7765 -1.3935
 7451SOL    HW233813   3.131   0.396   3.646 -0.8327  0.5752 -1.6844
 7452SOL     OW33814   3.123   0.126   1.436  0.2840 -0.4155 -0.0935
 7452SOL    HW133815   3.111   0.217   1.408 -0.1569 -0.2395  0.6602
 7452SOL    HW233816   3.142   0.070   1.361 -1.0287 -0.6035 -0.2881
 7453SOL     OW33817   3.023   4.006   1.227  0.4615 -0.0239  0.2341
 7453SOL    HW133818   3.021   4.083   1.169  3.3454  0.8385  1.3318
 7453SOL    HW233819   2.941   4.019   1.275 -1.7424  0.3846 -3.5637
 7454SOL     OW33820   2.684   0.809   8.185  0.1303 -0.2531  0.4585
 7454SOL    HW133821   2.589   0.808   8.199 -0.1581 -1.1527 -1.5638
 7454SOL    HW233822   2.684   0.789   8.092  0.4650 -4.0315  1.2475
 7455SOL     OW33823   4.182   1.366   1.371 -0.8206  0.3159 -0.5412
 7455SOL    HW133824   4.255   1.317   1.334 -0.4686 -1.0717  1.9700
 7455SOL    HW233825   4.108   1.305   1.379 -0.4965 -0.3552 -2.6023
 7456SOL     OW33826   2.000   1.987  16.338 -0.1966 -0.0623 -0.1030
 7456SOL    HW133827   2.089   1.969  16.367  0.7987 -0.7344 -3.5600
 7456SOL    HW233828   1.991   1.948  16.251  2.4064 -0.6826 -0.0793
 7457SOL     OW33829   4.339   4.504  17.309 -0.9461 -0.4036  0.1987
 7457SOL    HW133830   4.409   4.549  17.356 -1.0421 -1.8219  1.7170
 7457SOL    HW233831   4.265   4.540  17.358 -0.1453  1.2829  0.1535
 7458SOL     OW33832   3.341   2.754  17.052 -0.0802  0.0744  0.0820
 7458SOL    HW133833   3.373   2.774  17.140  0.9609  1.2338 -0.5726
 7458SOL    HW233834   3.279   2.822  17.028  0.6570  0.9262  0.6107
 7459SOL     OW33835   1.939   1.774   5.940  0.3224 -0.3356 -0.0653
 7459SOL    HW133836   1.951   1.861   5.901 -3.7377  0.9659  1.5709
 7459SOL    HW233837   1.868   1.736   5.887 -1.8148  0.1494  2.4493
 7460SOL     OW33838   3.744   2.899   4.112 -0.0956  0.4209  0.4321
 7460SOL    HW133839   3.726   2.991   4.134 -0.5922  0.8195 -1.6818
 7460SOL    HW233840   3.730   2.903   4.018  0.6003 -3.6283  0.1618
 7461SOL     OW33841   1.671   4.714  11.230 -0.2011  0.3367  0.1014
 7461SOL    HW133842   1.635   4.626  11.218  0.3264  0.3248 -1.3532
 7461SOL    HW233843   1.599   0.050  11.209  1.8070  2.9581  0.5889
 7462SOL     OW33844   2.403   4.253   7.406 -0.3216 -0.3337  0.0742
 7462SOL    HW133845   2.369   4.298   7.483  0.9346 -0.2421  0.5757
 7462SOL    HW233846   2.485   4.299   7.391  0.9003 -2.0599  1.5170
 7463SOL     OW33847   3.019   0.802  13.972 -0.1367 -0.5110  0.4126
 7463SOL    HW133848   3.045   0.714  13.999 -2.4676 -1.5335 -0.7180
 7463SOL    HW233849   3.104   0.837  13.948 -0.2554  0.7247  1.7719
 7464SOL     OW33850   3.875   1.227   1.644  0.2153  0.1539  0.1499
 7464SOL    HW133851   3.876   1.135   1.668 -3.3250  0.3052  0.8991
 7464SOL    HW233852   3.918   1.221   1.559  0.6280  1.7209  0.2465
 7465SOL     OW33853   2.901   1.789   4.000 -0.2036  0.0275 -0.6017
 7465SOL    HW133854   2.848   1.722   4.042  0.2424  0.7054  1.0247
 7465SOL    HW233855   2.859   1.863   4.042 -0.3393 -0.7750  0.6684
 7466SOL     OW33856   4.359   4.336   9.946  0.6103  0.3000 -0.4090
 7466SOL    HW133857   4.290   4.272   9.932 -1.0651  1.7786  1.2290
 7466SOL    HW233858   4.313   4.417   9.923  0.6216  0.3018 -0.4254
 7467SOL     OW33859   0.783   0.502   1.826  0.0996 -0.0304 -0.3068
 7467SOL    HW133860   0.860   0.454   1.856  0.5475  0.7165 -0.2621
 7467SOL    HW233861   0.818   0.591   1.833 -1.7208  0.5635  1.1751
 7468SOL     OW33862   4.192   1.659   2.354 -0.0538 -0.1314 -0.5343
 7468SOL    HW133863   4.125   1.722   2.379  0.8748  1.7439 -2.6921
 7468SOL    HW233864   4.256   1.721   2.318  0.4191 -0.1462  0.2782
 7469SOL     OW33865   0.652   0.843   0.640  0.5026  0.2914  0.3911
 7469SOL    HW133866   0.678   0.896   0.715  0.1468  0.5467  0.3323
 7469SOL    HW233867   0.590   0.787   0.688 -0.5853 -2.0421 -3.7441
 7470SOL     OW33868   2.151   2.847   2.137  0.2653  0.1320  0.5860
 7470SOL    HW133869   2.108   2.805   2.062 -0.9681  1.7183  0.3944
 7470SOL    HW233870   2.226   2.889   2.095  1.1175  0.0404  2.0212
 7471SOL     OW33871   1.982   2.308   6.697  0.3230 -0.0064 -0.3565
 7471SOL    HW133872   1.918   2.374   6.670  2.1299  1.2789 -1.5107
 7471SOL    HW233873   1.981   2.239   6.630  1.8652  1.0215 -1.4570
 7472SOL     OW33874   0.055   1.905  16.521  0.1151 -0.5538  0.0595
 7472SOL    HW133875   0.052   1.929  16.613  1.1539  0.0222 -0.0538
 7472SOL    HW233876   0.030   1.814  16.535  0.9142 -0.6773  0.6964
 7473SOL     OW33877   0.862   0.506   6.301  0.0177 -0.0469  0.0417
 7473SOL    HW133878   0.862   0.533   6.393 -2.8343 -2.4477  0.7370
 7473SOL    HW233879   0.916   0.427   6.304  0.4063  0.1786 -1.3355
 7474SOL     OW33880   2.201   3.506  17.143  0.6278 -0.4854 -0.1139
 7474SOL    HW133881   2.226   3.578  17.201  0.0115 -0.6325  0.3307
 7474SOL    HW233882   2.160   3.441  17.200 -0.3785  0.3207  0.0967
 7475SOL     OW33883   1.503   4.602   3.344  0.1251  0.6466  0.4792
 7475SOL    HW133884   1.586   4.610   3.295 -0.2712  0.5647 -0.2039
 7475SOL    HW233885   1.504   4.689   3.383 -0.1548  0.6229  0.5365
 7476SOL     OW33886   3.791   4.083   7.116 -0.1912  0.3225  0.2594
 7476SOL    HW133887   3.700   4.067   7.091  0.2274 -0.1710 -0.9671
 7476SOL    HW233888   3.784   4.067   7.210  1.2259 -0.3168  0.2629
 7477SOL     OW33889   1.113   0.165   7.794  0.2701  0.1480  0.2551
 7477SOL    HW133890   1.041   0.166   7.857  0.1438  1.2554  0.0871
 7477SOL    HW233891   1.077   0.111   7.723  1.1404 -0.7010  0.4493
 7478SOL     OW33892   4.694   0.585   8.424  0.0536  0.2924 -0.1751
 7478SOL    HW133893   4.662   0.496   8.430  0.9170  0.0035  0.1708
 7478SOL    HW233894   4.631   0.630   8.368 -2.2327 -0.3373  1.8715
 7479SOL     OW33895   4.489   3.834   2.797  0.0201  0.5326 -0.2646
 7479SOL    HW133896   4.443   3.805   2.876  1.6441  0.1558  0.5404
 7479SOL    HW233897   4.436   3.799   2.726  0.9759  2.4283 -1.9358
 7480SOL     OW33898   3.245   3.683   2.368 -0.2241  0.0224 -0.3580
 7480SOL    HW133899   3.324   3.669   2.315  0.3975  1.7177  0.1044
 7480SOL    HW233900   3.198   3.601   2.376  1.4640 -0.8797  0.2565
 7481SOL     OW33901   0.548   3.506   4.093  0.0162  0.4020  0.5976
 7481SOL    HW133902   0.485   3.540   4.029  0.5349  1.2954  0.5629
 7481SOL    HW233903   0.608   3.466   4.030  2.3105 -1.5878  4.0622
 7482SOL     OW33904   0.014   2.211   6.838  0.9034 -0.0046  0.5686
 7482SOL    HW133905   0.074   2.221   6.764 -0.9206  1.4420 -0.7314
 7482SOL    HW233906   4.702   2.121   6.838  1.3703 -0.1845  0.6817
 7483SOL     OW33907   2.043   0.215   1.534  0.2741 -0.2890 -0.4020
 7483SOL    HW133908   1.997   0.140   1.497  0.7654 -1.4541  1.3726
 7483SOL    HW233909   1.991   0.287   1.497 -0.8249  0.0933  1.8607
 7484SOL     OW33910   1.067   1.518   8.419 -0.3229  0.1815  0.1929
 7484SOL    HW133911   1.020   1.571   8.354 -0.6988 -0.5287 -0.1060
 7484SOL    HW233912   1.145   1.480   8.380  0.3554  0.8651  0.8663
 7485SOL     OW33913   1.689   4.474   9.447 -0.0294  0.4906 -0.6800
 7485SOL    HW133914   1.606   4.519   9.463 -0.9428 -2.3427  2.4862
 7485SOL    HW233915   1.724   4.540   9.386  1.3287 -0.1777 -0.6381
 7486SOL     OW33916   4.444   0.826  10.615  0.1482  0.0510  0.0807
 7486SOL    HW133917   4.439   0.793  10.704 -2.2433 -0.6980 -0.3379
 7486SOL    HW233918   4.462   0.746  10.567  1.0548  1.3723 -1.8019
 7487SOL     OW33919   1.920   0.537   4.800  0.6597  0.2174 -0.6142
 7487SOL    HW133920   1.880   0.622   4.817  2.7021  0.5143  2.8271
 7487SOL    HW233921   1.854   0.487   4.753 -0.1655  1.9073 -1.2160
 7488SOL     OW33922   2.630   2.541   5.712 -0.1568 -0.4334 -0.8191
 7488SOL    HW133923   2.624   2.495   5.795  0.8469 -0.0885 -0.5629
 7488SOL    HW233924   2.624   2.633   5.740 -1.5192 -0.1940 -1.8476
 7489SOL     OW33925   3.553   2.814   2.757 -0.1914 -0.2475 -0.6838
 7489SOL    HW133926   3.560   2.901   2.717  1.0472  0.2644  0.6186
 7489SOL    HW233927   3.612   2.762   2.702  1.8689  0.4365  0.8694
 7490SOL     OW33928   0.632   1.225  11.303  0.0427  0.0346 -0.0820
 7490SOL    HW133929   0.719   1.237  11.265  0.9144 -0.9170  1.6059
 7490SOL    HW233930   0.609   1.315  11.325  0.7125  0.1064  0.3232
 7491SOL     OW33931   0.694   4.017   7.185 -0.2110 -0.1897 -0.1232
 7491SOL    HW133932   0.627   4.025   7.117 -1.2295 -0.4895  0.8351
 7491SOL    HW233933   0.667   3.939   7.234 -0.6853 -1.0440 -1.7620
 7492SOL     OW33934   4.119   1.759  13.102  0.6016 -0.1091 -1.2773
 7492SOL    HW133935   4.082   1.722  13.182 -3.0552 -0.1973 -3.0310
 7492SOL    HW233936   4.182   1.817  13.147  1.1259 -1.2360 -0.5697
 7493SOL     OW33937   0.680   3.008  14.817 -0.4765 -0.2906 -0.0532
 7493SOL    HW133938   0.752   3.070  14.829 -1.6487  0.6746  1.8705
 7493SOL    HW233939   0.723   2.930  14.851  0.2846 -0.0400 -0.4524
 7494SOL     OW33940   2.339   3.278   9.754 -0.0742  0.6548 -0.1378
 7494SOL    HW133941   2.426   3.297   9.718  1.2008 -1.5279  1.7906
 7494SOL    HW233942   2.359   3.207   9.814  3.8130  1.3185 -0.6337
 7495SOL     OW33943   4.479   0.941  17.405  0.5749  0.2741  0.5508
 7495SOL    HW133944   4.573   0.943  17.393  0.6437 -2.9409  0.3155
 7495SOL    HW233945   4.447   0.973  17.321 -0.7019 -0.1888  0.8429
 7496SOL     OW33946   1.618   1.803   4.462  0.0736 -0.0672  0.1332
 7496SOL    HW133947   1.605   1.736   4.395  1.6207 -1.5921  1.3510
 7496SOL    HW233948   1.701   1.844   4.437  0.0446 -0.0688  0.0344
 7497SOL     OW33949   0.864   0.432  14.108  0.1550  0.3967  0.2985
 7497SOL    HW133950   0.814   0.403  14.184  1.3601  1.0831  1.3466
 7497SOL    HW233951   0.880   0.523  14.135 -0.3317  0.4090  0.5448
 7498SOL     OW33952   3.838   0.016   8.672 -0.4197  0.2868  0.1190
 7498SOL    HW133953   3.767   0.055   8.723  0.5544  2.1307  0.0757
 7498SOL    HW233954   3.809   0.033   8.583  0.1672 -1.7835 -0.4548
 7499SOL     OW33955   4.605   2.373  11.424 -0.1574  0.0115 -0.4034
 7499SOL    HW133956   4.677   2.422  11.465 -1.3033  1.2290  0.1710
 7499SOL    HW233957   4.606   2.312  11.498 -0.8112 -0.1963 -0.5671
 7500SOL     OW33958   1.388   0.272   1.349  0.6152  0.0209 -0.0631
 7500SOL    HW133959   1.470   0.289   1.396 -0.5772 -0.6068  2.2581
 7500SOL    HW233960   1.325   0.337   1.379  1.6056  1.3075 -0.7466
 7501SOL     OW33961   4.302   4.498   1.657  0.5080  0.2215  0.5896
 7501SOL    HW133962   4.317   4.533   1.744 -0.4404  0.7803  0.5349
 7501SOL    HW233963   4.241   4.556   1.611 -0.0213 -0.2960  0.6440
 7502SOL     OW33964   0.101   2.676   4.227  0.3362 -0.5837 -0.3515
 7502SOL    HW133965   0.139   2.663   4.140  1.8024 -0.1654  0.2206
 7502SOL    HW233966   0.055   2.757   4.204 -0.2775 -0.6667  0.5852
 7503SOL     OW33967   3.797   3.323  14.594  0.0666 -0.3086 -0.0807
 7503SOL    HW133968   3.738   3.359  14.528  0.2628  1.2703  0.5789
 7503SOL    HW233969   3.874   3.381  14.592  0.2969 -0.6111 -0.0467
 7504SOL     OW33970   3.183   2.393   8.873 -0.4985 -0.4926 -0.3734
 7504SOL    HW133971   3.206   2.441   8.953  1.3984  1.0394 -1.8274
 7504SOL    HW233972   3.209   2.456   8.806  0.4134  1.6325  1.9204
 7505SOL     OW33973   2.487   4.372   1.789 -0.5296 -0.3925 -0.3092
 7505SOL    HW133974   2.507   4.315   1.714 -1.0278 -1.5726  0.4621
 7505SOL    HW233975   2.394   4.393   1.778 -0.1860  1.2414  0.0132
 7506SOL     OW33976   0.227   2.809   1.997 -0.2021 -0.2708 -0.5224
 7506SOL    HW133977   0.254   2.826   2.087 -0.3322 -1.0813 -0.3358
 7506SOL    HW233978   0.265   2.888   1.957 -1.0189  0.8315  0.8798
 7507SOL     OW33979   0.982   2.340   6.442  0.0689  0.8019  0.3511
 7507SOL    HW133980   1.031   2.319   6.522 -2.3494  0.5503  1.7782
 7507SOL    HW233981   1.042   2.300   6.379  1.0575  1.6734  0.7442
 7508SOL     OW33982   3.552   1.814   4.861  0.4134 -0.7731 -0.1101
 7508SOL    HW133983   3.565   1.906   4.837 -0.3336 -0.4673  0.6839
 7508SOL    HW233984   3.634   1.774   4.831  2.4327  2.4724  1.1087
 7509SOL     OW33985   2.299   2.525   6.693  0.3610  0.8909  0.1442
 7509SOL    HW133986   2.272   2.435   6.713  0.1891  0.8760 -0.1567
 7509SOL    HW233987   2.240   2.548   6.621  2.7391  1.8398 -1.4957
 7510SOL     OW33988   2.074   3.467  13.164  0.2400 -0.0750 -0.0485
 7510SOL    HW133989   2.075   3.543  13.107 -1.1315 -0.2569 -0.2959
 7510SOL    HW233990   2.120   3.402  13.111 -0.8773 -0.4280 -0.5781
 7511SOL     OW33991   2.294   2.152   4.931 -0.3217  0.2600  0.2346
 7511SOL    HW133992   2.252   2.143   5.017 -0.2218 -1.8811  0.0651
 7511SOL    HW233993   2.305   2.062   4.900 -2.2628 -0.1526  0.7113
 7512SOL     OW33994   2.187   2.007  14.218  0.1496 -0.0421 -0.3995
 7512SOL    HW133995   2.181   1.970  14.130  0.0158 -2.6192  0.6991
 7512SOL    HW233996   2.261   2.067  14.216 -0.7105  0.9432 -2.3810
 7513SOL     OW33997   0.776   0.470   5.795  0.1352  0.2133  0.3841
 7513SOL    HW133998   0.711   0.523   5.841 -1.4409 -2.1789  0.8695
 7513SOL    HW233999   0.848   0.475   5.859  0.0288  1.5548  0.4024
 7514SOL     OW34000   4.502   0.328  14.290 -0.2093  0.2214 -0.2368
 7514SOL    HW134001   4.410   0.348  14.303 -0.1908  0.4625 -0.4844
 7514SOL    HW234002   4.547   0.391  14.346 -1.8908 -0.2115  1.6022
 7515SOL     OW34003   1.895   0.968   5.748 -0.1147 -0.1744  0.5085
 7515SOL    HW134004   1.834   0.897   5.726  0.2773 -1.1608  2.6213
 7515SOL    HW234005   1.937   0.917   5.817  1.2821  1.6166  0.9791
 7516SOL     OW34006   2.594   0.802   5.629  0.0161  0.4320  0.0666
 7516SOL    HW134007   2.523   0.863   5.610  0.8165  1.5935  0.7799
 7516SOL    HW234008   2.654   0.823   5.558  1.9144  0.8262  1.7848
 7517SOL     OW34009   0.595   2.568   4.134 -0.9454  0.2675 -0.1102
 7517SOL    HW134010   0.589   2.518   4.052 -0.4184 -0.9854  0.6235
 7517SOL    HW234011   0.529   2.529   4.192 -0.0378 -0.7777  0.2074
 7518SOL     OW34012   0.261   0.364   7.071 -0.2632 -0.2904 -0.8307
 7518SOL    HW134013   0.306   0.386   7.152 -0.7652 -0.1457 -0.5943
 7518SOL    HW234014   0.170   0.385   7.093 -0.3010  1.3916 -2.5674
 7519SOL     OW34015   3.331   3.070  17.179  0.2842  0.0041  0.2957
 7519SOL    HW134016   3.411   3.020  17.197 -0.4293 -0.6601  1.6430
 7519SOL    HW234017   3.332   3.114  17.264 -1.3580 -0.8123  0.7366
 7520SOL     OW34018   1.157   0.141   5.690  0.6103 -0.9406  0.2537
 7520SOL    HW134019   1.091   0.086   5.733  0.1501  1.4722  2.6884
 7520SOL    HW234020   1.233   0.139   5.749  1.3626 -3.3868 -0.8113
 7521SOL     OW34021   2.409   1.272   5.817  0.3574 -1.0193 -0.6355
 7521SOL    HW134022   2.322   1.252   5.782 -0.3182  2.2515 -0.7709
 7521SOL    HW234023   2.386   1.288   5.908  1.0370 -1.6093 -0.3578
 7522SOL     OW34024   2.360   0.392   5.410 -0.2493  0.4517  0.7453
 7522SOL    HW134025   2.271   0.394   5.444 -0.2985 -2.4921  0.7894
 7522SOL    HW234026   2.410   0.434   5.480  0.3444 -0.7909  1.0711
 7523SOL     OW34027   1.860   1.746  12.240 -1.1777  0.5047 -0.4565
 7523SOL    HW134028   1.884   1.746  12.333 -1.1149 -1.9364 -0.4741
 7523SOL    HW234029   1.857   1.651  12.226 -0.2886  0.1705  1.6531
 7524SOL     OW34030   1.822   0.276   4.246 -0.2022  0.0377 -0.9364
 7524SOL    HW134031   1.739   0.311   4.277 -0.1958  1.9069 -3.0561
 7524SOL    HW234032   1.879   0.314   4.312 -0.5610  1.8011 -1.6406
 7525SOL     OW34033   0.787   2.593  14.005 -0.0365  0.0757 -0.2638
 7525SOL    HW134034   0.760   2.510  13.965 -0.2186 -1.1984  2.4546
 7525SOL    HW234035   0.882   2.588  14.000 -0.0278 -1.2838  1.0841
 7526SOL     OW34036   2.386   1.642  11.363 -0.5174 -0.4745 -0.1397
 7526SOL    HW134037   2.444   1.700  11.412 -1.8905 -0.0962  1.0373
 7526SOL    HW234038   2.434   1.560  11.361 -0.2446 -0.3245  0.2977
 7527SOL     OW34039   2.393   0.810  13.813 -0.4032  0.3638  0.1130
 7527SOL    HW134040   2.318   0.786  13.867  0.1944  0.2328  0.8932
 7527SOL    HW234041   2.347   0.860  13.745 -2.1453 -0.5760  0.6211
 7528SOL     OW34042   2.706   1.799   6.760 -0.1715  0.4336  0.0126
 7528SOL    HW134043   2.775   1.777   6.698 -1.1744 -1.3239 -0.4601
 7528SOL    HW234044   2.634   1.838   6.711 -0.4375  1.2254  1.0309
 7529SOL     OW34045   4.320   0.137   8.578  0.5079 -0.1496 -0.0800
 7529SOL    HW134046   4.407   0.167   8.604  1.3079 -0.5487 -2.2961
 7529SOL    HW234047   4.271   0.119   8.658 -0.6681  1.4860 -0.4329
 7530SOL     OW34048   4.589   0.421  17.096  0.0653  0.2690  0.0310
 7530SOL    HW134049   4.569   0.512  17.070 -0.2662 -0.0563 -0.8576
 7530SOL    HW234050   4.612   0.437  17.187 -0.2743  2.1625 -0.1933
 7531SOL     OW34051   1.693   1.384   9.238  0.2871  0.1937 -0.0499
 7531SOL    HW134052   1.780   1.418   9.214  0.2785  1.7154  2.0770
 7531SOL    HW234053   1.677   1.447   9.308 -2.2701  1.2887 -1.6427
 7532SOL     OW34054   2.847   1.609  11.049  0.2848  0.3356  0.2523
 7532SOL    HW134055   2.852   1.616  11.144 -0.5987  0.1435  0.3043
 7532SOL    HW234056   2.867   1.701  11.031 -2.0393  0.6968 -0.4423
 7533SOL     OW34057   3.354   3.941  11.287 -0.2682 -0.0470  0.0040
 7533SOL    HW134058   3.368   4.028  11.324 -3.9251  0.4080  0.3396
 7533SOL    HW234059   3.375   3.959  11.196  1.5844 -0.9130  0.2767
 7534SOL     OW34060   2.451   0.945   2.174  0.3049 -0.1358 -0.7014
 7534SOL    HW134061   2.414   0.881   2.113 -0.1943  0.4197 -0.9840
 7534SOL    HW234062   2.411   1.024   2.138  1.0118  1.0974  1.1908
 7535SOL     OW34063   2.457   4.659   3.624 -0.4849 -0.5202  0.1881
 7535SOL    HW134064   2.528   4.694   3.570 -1.6630  1.0659 -0.3262
 7535SOL    HW234065   2.393   0.006   3.639 -1.0707 -1.7652  3.3566
 7536SOL     OW34066   4.473   2.944   6.290  0.2608 -0.7289  0.2354
 7536SOL    HW134067   4.436   3.028   6.260  1.2044  0.1231  1.4475
 7536SOL    HW234068   4.405   2.886   6.257 -1.0357 -0.2201  2.0021
 7537SOL     OW34069   2.668   2.533   0.885  0.2417  0.1498 -0.0721
 7537SOL    HW134070   2.698   2.556   0.797 -0.5785 -0.7664 -0.5901
 7537SOL    HW234071   2.745   2.489   0.920 -0.9510 -2.0791 -0.2677
 7538SOL     OW34072   0.134   0.485   1.680 -0.0768 -0.4777  1.0107
 7538SOL    HW134073   0.221   0.445   1.684  1.7094  3.1712 -0.7957
 7538SOL    HW234074   0.151   0.577   1.660 -2.7492  0.2684  2.2025
 7539SOL     OW34075   0.929   1.538   3.606 -0.1714  0.4072  0.4963
 7539SOL    HW134076   0.969   1.479   3.543 -1.2216  1.9673 -1.6113
 7539SOL    HW234077   0.851   1.487   3.628  0.0935 -0.0349  0.4067
 7540SOL     OW34078   3.858   1.310   5.984  0.4216 -0.0909 -0.5935
 7540SOL    HW134079   3.939   1.347   6.019  1.1092 -1.6064 -0.5545
 7540SOL    HW234080   3.843   1.232   6.038 -0.6746  0.7938  0.3712
 7541SOL     OW34081   1.041   1.718  14.459  0.0546  0.4148 -0.2357
 7541SOL    HW134082   0.982   1.687  14.527  1.4761 -2.5997 -0.3617
 7541SOL    HW234083   1.098   1.642  14.449  2.4954  2.1460  0.6288
 7542SOL     OW34084   1.988   2.746   2.433 -0.5064 -1.1075  0.0090
 7542SOL    HW134085   1.982   2.806   2.359 -0.1072 -2.3354 -1.0183
 7542SOL    HW234086   2.008   2.787   2.517 -0.0813 -0.2344 -0.5237
 7543SOL     OW34087   2.398   3.791   3.807 -0.0817  0.2606 -0.6765
 7543SOL    HW134088   2.308   3.799   3.774  0.3016  0.3892 -1.7082
 7543SOL    HW234089   2.407   3.855   3.878  0.6689 -1.1407  0.4962
 7544SOL     OW34090   2.553   2.982  10.331  0.3058  0.3742  0.1013
 7544SOL    HW134091   2.567   2.902  10.383 -2.3340 -0.2900 -0.2039
 7544SOL    HW234092   2.548   2.941  10.245 -2.9526 -1.1474  1.0075
 7545SOL     OW34093   1.516   2.037  14.266  0.3517  0.4033 -0.2563
 7545SOL    HW134094   1.511   1.977  14.191  0.0709  0.4645 -0.2859
 7545SOL    HW234095   1.608   2.032  14.292  0.0958  1.4374  0.8019
 7546SOL     OW34096   1.341   1.211   5.312  0.5402 -0.0567 -0.4243
 7546SOL    HW134097   1.381   1.298   5.314  2.0510 -0.7968  0.7356
 7546SOL    HW234098   1.389   1.174   5.238 -0.9129  1.4073 -2.0927
 7547SOL     OW34099   2.649   2.836   5.477 -0.0461 -0.0214  0.6893
 7547SOL    HW134100   2.710   2.847   5.549 -0.3227  2.7040  0.4979
 7547SOL    HW234101   2.691   2.792   5.403 -2.5451  0.1516 -0.8200
 7548SOL     OW34102   1.820   2.358   7.966  0.5349  0.1577  0.6281
 7548SOL    HW134103   1.863   2.341   8.050  0.3974 -3.8805 -0.1178
 7548SOL    HW234104   1.843   2.448   7.945  3.5578 -0.4780  1.2545
 7549SOL     OW34105   0.338   3.491   8.634 -0.2781 -0.2744 -0.0772
 7549SOL    HW134106   0.411   3.435   8.610  1.2874  0.9897  1.6896
 7549SOL    HW234107   0.339   3.488   8.730 -0.7412 -0.5454 -0.0773
 7550SOL     OW34108   3.794   0.021   5.055 -0.0745 -0.2014 -0.6415
 7550SOL    HW134109   3.706   4.708   5.043 -0.3644  0.4578 -0.4392
 7550SOL    HW234110   3.848   4.700   4.989  1.0927  0.9531 -0.4448
 7551SOL     OW34111   1.093   4.283   4.279 -0.2266 -0.1583 -0.2114
 7551SOL    HW134112   1.184   4.276   4.309 -1.0379 -2.8446  1.6275
 7551SOL    HW234113   1.069   4.191   4.282  0.6479 -0.3389  1.1699
 7552SOL     OW34114   3.486   1.079   5.251  0.1010 -0.1768 -0.0763
 7552SOL    HW134115   3.539   1.011   5.292 -1.3279 -0.7492  0.8355
 7552SOL    HW234116   3.536   1.112   5.177  2.0020  0.8260  1.6807
 7553SOL     OW34117   2.961   2.323  12.796 -0.4162 -0.8223 -0.1817
 7553SOL    HW134118   2.985   2.356  12.883 -0.2845  1.5358 -1.1075
 7553SOL    HW234119   2.952   2.229  12.810  0.1331 -0.9596 -0.7116
 7554SOL     OW34120   0.494   0.284   3.902 -0.4619 -0.1536  0.1112
 7554SOL    HW134121   0.421   0.329   3.945  0.7001  0.8904  0.9802
 7554SOL    HW234122   0.555   0.350   3.870 -0.3081  0.2342  1.1996
 7555SOL     OW34123   3.111   4.721  15.858  0.1676  0.0171  0.0833
 7555SOL    HW134124   3.177   4.658  15.889  0.4097  0.4750  0.4974
 7555SOL    HW234125   3.028   4.674  15.861 -0.4196  0.9936 -0.8952
 7556SOL     OW34126   0.810   2.966  15.797  0.0040 -0.4270  0.4424
 7556SOL    HW134127   0.891   3.003  15.832  0.0880 -0.3073  0.1234
 7556SOL    HW234128   0.817   2.871  15.807  0.7115 -0.3986  0.2138
 7557SOL     OW34129   2.247   3.220  10.040  0.8061 -0.3179  0.1771
 7557SOL    HW134130   2.338   3.201  10.017  0.0260 -2.7663 -0.8854
 7557SOL    HW234131   2.254   3.243  10.133 -1.7802 -3.5946  1.1530
 7558SOL     OW34132   3.004   2.685   4.720 -0.0199  0.5005  0.4755
 7558SOL    HW134133   3.000   2.665   4.814 -1.7467  3.2357  0.9873
 7558SOL    HW234134   2.940   2.623   4.686 -0.4911  0.7999  0.8022
 7559SOL     OW34135   3.390   1.646   8.553 -0.3762  0.5141 -0.2688
 7559SOL    HW134136   3.423   1.653   8.642  0.6981 -0.2495 -0.6108
 7559SOL    HW234137   3.467   1.615   8.505  0.3960  0.8329  0.7832
 7560SOL     OW34138   0.036   4.224   2.082  0.0968 -0.2344  0.0035
 7560SOL    HW134139   4.690   4.165   2.111 -1.4599  0.9969 -1.1590
 7560SOL    HW234140   0.031   4.290   2.151 -2.6324 -0.2662 -0.1596
 7561SOL     OW34141   3.844   4.317   0.168  0.0209  0.4342 -0.7339
 7561SOL    HW134142   3.883   4.370   0.237 -2.0891  0.5363  0.3623
 7561SOL    HW234143   3.886   4.232   0.183  2.4853  1.5678 -1.1268
 7562SOL     OW34144   2.316   3.883   2.696  0.1673 -0.0299 -0.0537
 7562SOL    HW134145   2.328   3.877   2.601  0.7573  1.2166 -0.0497
 7562SOL    HW234146   2.371   3.810   2.725 -1.0745 -0.7607  0.4593
 7563SOL     OW34147   4.390   2.563   5.653 -0.5464  0.1453 -0.5268
 7563SOL    HW134148   4.427   2.642   5.692 -1.0286 -0.1373  0.4883
 7563SOL    HW234149   4.470   2.512   5.664  0.0455  0.9041 -1.2914
 7564SOL     OW34150   1.813   3.995   3.584  0.4879  0.4295  0.2376
 7564SOL    HW134151   1.729   4.033   3.558  0.7913  0.1294 -1.1527
 7564SOL    HW234152   1.798   3.988   3.679  0.5243  0.7356  0.2666
 7565SOL     OW34153   1.679   1.879   2.031 -0.3415  0.1541  0.2442
 7565SOL    HW134154   1.692   1.946   1.964  0.4440 -0.2336  0.0089
 7565SOL    HW234155   1.769   1.881   2.064 -0.2461  0.1725 -0.0138
 7566SOL     OW34156   3.127   4.162  16.675  0.5959  0.1147  0.0743
 7566SOL    HW134157   3.142   4.123  16.761 -0.4923 -1.7285 -0.5835
 7566SOL    HW234158   3.218   4.190  16.660  0.6075 -1.2116 -2.3067
 7567SOL     OW34159   1.808   4.434  10.859 -0.4591 -0.5716 -0.3761
 7567SOL    HW134160   1.865   4.502  10.896 -3.4066  1.0264  1.2144
 7567SOL    HW234161   1.811   4.371  10.930  2.7648  0.3098  0.2450
 7568SOL     OW34162   3.355   1.000   5.608  0.0621  0.4696  0.2897
 7568SOL    HW134163   3.358   0.934   5.539 -1.8575 -0.7401  1.3707
 7568SOL    HW234164   3.448   1.019   5.617 -0.0830 -0.3138  3.4088
 7569SOL     OW34165   3.285   4.066  17.371  0.3086  0.2197  0.7425
 7569SOL    HW134166   3.219   4.042  17.306  0.5885  0.0615  0.5143
 7569SOL    HW234167   3.264   4.158  17.388 -1.5576 -0.1410  0.3854
 7570SOL     OW34168   0.024   0.548   1.922 -0.0980  0.0429  0.3062
 7570SOL    HW134169   0.046   0.529   1.831 -0.6822  0.4632  0.0831
 7570SOL    HW234170   0.105   0.589   1.953  0.5522 -2.2847  1.7336
 7571SOL     OW34171   0.024   2.232  13.524  0.1700  0.2907 -0.0082
 7571SOL    HW134172   0.103   2.193  13.487 -1.2643 -1.2487 -1.3957
 7571SOL    HW234173   0.055   2.323  13.520  0.4753  0.1032 -2.0788
 7572SOL     OW34174   3.064   0.431   7.026  0.2705 -0.0598 -0.5900
 7572SOL    HW134175   3.106   0.458   7.107 -0.5950 -1.5431  0.3679
 7572SOL    HW234176   3.132   0.389   6.974  0.9956  2.3411 -1.5473
 7573SOL     OW34177   0.384   0.078   7.888 -0.0672  0.5432 -0.4476
 7573SOL    HW134178   0.354   4.716   7.921 -0.2367  0.3761 -1.0467
 7573SOL    HW234179   0.479   0.067   7.891 -0.0082  1.1170 -0.2576
 7574SOL     OW34180   3.091   1.705   3.003  0.0481  0.1719 -0.4171
 7574SOL    HW134181   3.165   1.742   2.955  1.7454 -2.2540  0.3122
 7574SOL    HW234182   3.116   1.613   3.011  0.3980  0.2081 -1.1196
 7575SOL     OW34183   3.735   2.623   8.686 -0.1459 -0.6495  0.3163
 7575SOL    HW134184   3.822   2.662   8.692 -0.8483  0.6488  1.8808
 7575SOL    HW234185   3.727   2.580   8.771 -2.4635  1.4758  1.1640
 7576SOL     OW34186   0.648   0.760   3.749  0.3669 -0.0534  0.0578
 7576SOL    HW134187   0.604   0.692   3.698  1.1913 -2.0039  1.9356
 7576SOL    HW234188   0.711   0.788   3.682  0.1432  0.6397  0.1394
 7577SOL     OW34189   0.184   0.981   4.350 -0.4825 -0.1805 -0.1029
 7577SOL    HW134190   0.273   0.970   4.317 -0.1171  0.0220  0.8329
 7577SOL    HW234191   0.135   0.906   4.315 -0.5407 -0.7286  1.1599
 7578SOL     OW34192   1.290   3.467   8.994  0.0278  0.1127  0.5799
 7578SOL    HW134193   1.234   3.531   9.038  2.5959  1.8931  1.2254
 7578SOL    HW234194   1.373   3.515   8.997  1.0840 -1.7007  0.9615
 7579SOL     OW34195   0.793   2.124  17.387  0.3393  0.2855 -0.2545
 7579SOL    HW134196   0.768   2.082  17.304  3.0627 -2.4171  0.2828
 7579SOL    HW234197   0.718   2.126  17.445  0.3530 -0.4708 -0.2114
 7580SOL     OW34198   4.060   1.340   3.208  0.2789 -0.0018  0.1889
 7580SOL    HW134199   4.135   1.319   3.263 -0.0735 -0.5983  0.4510
 7580SOL    HW234200   4.029   1.418   3.254 -2.7822 -0.5128 -1.0427
 7581SOL     OW34201   3.462   3.691   5.347  0.2496  0.0048  0.6450
 7581SOL    HW134202   3.485   3.759   5.283 -3.6197  1.3810  0.7390
 7581SOL    HW234203   3.493   3.614   5.300 -0.0815 -1.1279  2.2835
 7582SOL     OW34204   0.120   3.607   0.133  0.3999  0.1525  0.9296
 7582SOL    HW134205   0.102   3.564   0.216 -0.6157  0.3612  0.8123
 7582SOL    HW234206   0.030   3.634   0.116  0.3144  0.0053  1.1574
 7583SOL     OW34207   0.572   0.254   5.222  0.5695  0.0788  0.1990
 7583SOL    HW134208   0.483   0.274   5.191  0.2206  1.0833  1.8515
 7583SOL    HW234209   0.552   0.181   5.281  0.5041 -2.2284 -2.6315
 7584SOL     OW34210   0.795   4.077  10.863 -0.2430  0.5338 -0.1609
 7584SOL    HW134211   0.709   4.058  10.826 -0.2083  0.7102 -0.3324
 7584SOL    HW234212   0.778   4.133  10.939 -1.1751  2.5610 -1.8761
 7585SOL     OW34213   4.245   4.597   5.487 -0.1123 -0.4902  0.5015
 7585SOL    HW134214   4.267   4.517   5.535  0.9736 -0.3130  0.2804
 7585SOL    HW234215   4.323   4.652   5.491 -1.9091  2.1730 -0.3456
 7586SOL     OW34216   0.326   0.906  16.388  0.0263  0.2406  0.1523
 7586SOL    HW134217   0.300   0.820  16.421 -1.0817  0.2389 -0.7204
 7586SOL    HW234218   0.264   0.921  16.316 -0.2025  0.7753  0.4586
 7587SOL     OW34219   2.419   3.188   5.884 -0.2467 -0.2911 -0.4393
 7587SOL    HW134220   2.383   3.265   5.838  1.9517  1.7938  1.3243
 7587SOL    HW234221   2.497   3.191   5.829  0.3244  1.0362  0.4373
 7588SOL     OW34222   2.471   3.344   5.184 -0.0496 -0.8012 -0.0437
 7588SOL    HW134223   2.406   3.374   5.248  0.9023 -0.4141  0.7613
 7588SOL    HW234224   2.554   3.373   5.224 -0.4629 -0.9942  0.9611
 7589SOL     OW34225   3.203   4.551  15.602 -0.2012  0.3986 -0.1360
 7589SOL    HW134226   3.241   4.494  15.536 -0.3747 -1.0192  0.9674
 7589SOL    HW234227   3.276   4.608  15.624 -0.7711  1.6849 -1.5706
 7590SOL     OW34228   2.269   1.058  12.312 -0.1083  0.2902  0.1156
 7590SOL    HW134229   2.278   0.999  12.237  1.6702 -1.0179  1.3439
 7590SOL    HW234230   2.276   0.991  12.381  0.0909 -0.4701 -0.6366
 7591SOL     OW34231   4.269   2.179   7.506  0.4904 -0.3374 -0.0199
 7591SOL    HW134232   4.309   2.240   7.568  0.9691 -0.9208  0.2405
 7591SOL    HW234233   4.177   2.165   7.531  1.5227 -3.2938  2.1413
 7592SOL     OW34234   1.045   4.099  12.198  0.0402  0.0626  0.2138
 7592SOL    HW134235   1.009   4.013  12.221  0.3406 -0.6653 -2.0261
 7592SOL    HW234236   1.017   4.103  12.106  0.9304 -1.4486 -0.1277
 7593SOL     OW34237   2.718   2.886   3.715  0.1394  0.2683 -0.7541
 7593SOL    HW134238   2.809   2.861   3.730  0.3873  0.7594 -1.4123
 7593SOL    HW234239   2.719   2.905   3.621  1.5867 -1.1847 -1.0211
 7594SOL     OW34240   2.947   1.646   7.847  0.4340  0.1354 -0.0814
 7594SOL    HW134241   3.012   1.658   7.917  2.1145  0.0791 -1.6332
 7594SOL    HW234242   2.885   1.588   7.891 -0.2072 -1.1630 -2.7374
 7595SOL     OW34243   0.102   1.859   2.111 -0.1342  0.2011 -0.0839
 7595SOL    HW134244   0.069   1.832   2.025 -0.5513  0.2065  0.0757
 7595SOL    HW234245   0.192   1.827   2.098  0.1845  1.0303  0.0567
 7596SOL     OW34246   1.924   4.034   4.084  0.0372 -0.0573  0.0967
 7596SOL    HW134247   1.933   4.110   4.026 -0.3294  0.0410  0.1645
 7596SOL    HW234248   1.831   4.016   4.068  0.1199  1.0032 -1.6245
 7597SOL     OW34249   1.924   1.158   6.596  0.0958 -0.2235  0.2955
 7597SOL    HW134250   1.988   1.217   6.556 -1.4365  1.3039  0.1078
 7597SOL    HW234251   1.844   1.209   6.604  1.1051  1.4627 -0.4507
 7598SOL     OW34252   1.143   2.781  17.398  0.2841  0.2311  0.3679
 7598SOL    HW134253   1.054   2.764  17.366  0.6703 -2.2398  0.6273
 7598SOL    HW234254   1.156   2.873  17.374 -0.8188  0.5624  1.0144
 7599SOL     OW34255   2.079   0.956   8.588 -0.1654 -0.0345  0.2059
 7599SOL    HW134256   2.086   0.926   8.679  0.1096 -0.0672  0.1718
 7599SOL    HW234257   2.169   0.941   8.562  0.2175  1.6592  0.5363
 7600SOL     OW34258   0.417   3.016   7.518 -0.1716 -0.0053 -0.7340
 7600SOL    HW134259   0.477   3.025   7.443  1.2848 -1.2332  0.2803
 7600SOL    HW234260   0.405   2.921   7.516  2.3406 -0.2959 -2.5650
 7601SOL     OW34261   0.513   2.834  14.551  0.3726 -0.4685  0.1590
 7601SOL    HW134262   0.607   2.824  14.537  0.5807  0.7734  0.6694
 7601SOL    HW234263   0.519   2.903  14.617 -2.7956 -0.2623  0.2661
 7602SOL     OW34264   0.059   0.350   5.454  0.2836  0.0012  0.8597
 7602SOL    HW134265   0.043   0.305   5.537 -0.4444 -2.9646 -0.8723
 7602SOL    HW234266   4.707   0.312   5.407 -0.0411  0.2505  1.1802
 7603SOL     OW34267   1.333   3.021   2.618 -0.1891  0.1096 -0.0902
 7603SOL    HW134268   1.391   2.946   2.611 -0.4494 -0.0957 -0.0396
 7603SOL    HW234269   1.261   2.992   2.562  0.4114 -2.9268  0.7406
 7604SOL     OW34270   3.043   2.838   3.004 -0.3171  0.1521  0.0791
 7604SOL    HW134271   3.004   2.912   3.050 -0.8120 -0.6396  0.9242
 7604SOL    HW234272   3.115   2.889   2.967 -0.3208 -1.3745 -2.0167
 7605SOL     OW34273   0.738   1.972   3.830 -0.0895  0.4249 -0.6182
 7605SOL    HW134274   0.773   1.883   3.823 -1.1593 -0.1196  0.8923
 7605SOL    HW234275   0.787   1.996   3.909  0.3714  0.7655 -1.0094
 7606SOL     OW34276   0.218   0.281   4.695 -0.0385 -0.5116  0.5104
 7606SOL    HW134277   0.235   0.198   4.650  1.7067  0.7837 -1.2190
 7606SOL    HW234278   0.124   0.276   4.709 -0.1931  0.9444 -0.0341
 7607SOL     OW34279   3.408   2.467   3.052 -0.6418 -0.7315 -0.3673
 7607SOL    HW134280   3.502   2.484   3.059 -0.2589 -2.9128 -0.0049
 7607SOL    HW234281   3.391   2.420   3.134  1.3668 -1.0205 -0.0961
 7608SOL     OW34282   1.037   2.745   2.646  0.0961 -0.2682 -0.0141
 7608SOL    HW134283   1.068   2.800   2.718  1.4081  0.3252 -1.0282
 7608SOL    HW234284   0.943   2.739   2.660 -0.0254  4.4595  1.0763
 7609SOL     OW34285   2.040   2.809   6.336  0.0863 -0.0594  0.2422
 7609SOL    HW134286   1.985   2.871   6.383 -1.5310  0.3024 -2.1065
 7609SOL    HW234287   2.107   2.864   6.296  1.3407 -1.9051 -0.1959
 7610SOL     OW34288   1.019   1.032   9.252  0.7277  0.2299 -0.4974
 7610SOL    HW134289   1.049   1.119   9.278 -1.3851  0.4976  1.0934
 7610SOL    HW234290   1.085   0.978   9.295  1.0143  1.0374  0.0831
 7611SOL     OW34291   1.794   1.360   6.168 -0.2007  0.4569  0.4727
 7611SOL    HW134292   1.811   1.425   6.237  3.1673  1.6169 -1.4508
 7611SOL    HW234293   1.717   1.404   6.134 -0.6803 -0.5706  0.2371
 7612SOL     OW34294   1.375   3.588  12.002  0.0393 -0.1086  1.0302
 7612SOL    HW134295   1.444   3.522  11.992 -0.1734 -0.3273  1.0115
 7612SOL    HW234296   1.434   3.664  11.998  0.8465 -0.6277  3.1665
 7613SOL     OW34297   3.468   1.969   2.788 -0.0825  0.2273  0.8346
 7613SOL    HW134298   3.513   1.917   2.722  0.4847  0.7748  0.7936
 7613SOL    HW234299   3.396   1.909   2.809 -0.2857 -0.8652 -2.9232
 7614SOL     OW34300   0.890   4.701   8.986 -0.1634 -0.6467  0.0737
 7614SOL    HW134301   0.809   4.668   9.025  0.0115 -2.3088 -0.9603
 7614SOL    HW234302   0.898   4.632   8.920  2.4599 -0.1293 -0.1630
 7615SOL     OW34303   3.657   0.178   3.761 -0.1681  0.1230  0.6249
 7615SOL    HW134304   3.749   0.167   3.781  0.0933  2.0627  0.5190
 7615SOL    HW234305   3.624   0.165   3.850 -3.4195 -2.6399 -0.9716
 7616SOL     OW34306   3.787   4.498   1.240 -0.4604  0.2464  0.3718
 7616SOL    HW134307   3.737   4.442   1.300 -2.5850  1.6307 -0.1084
 7616SOL    HW234308   3.846   4.548   1.297  0.8321 -0.1483 -0.6066
 7617SOL     OW34309   0.379   3.421   7.425 -0.5467 -0.0427 -0.1708
 7617SOL    HW134310   0.337   3.500   7.391 -0.1454 -0.6293 -2.0193
 7617SOL    HW234311   0.443   3.456   7.486 -1.1670  2.2667 -0.8278
 7618SOL     OW34312   0.481   1.700   6.730 -0.0634 -0.2000  0.2113
 7618SOL    HW134313   0.550   1.635   6.720  1.1666  1.1814 -0.2268
 7618SOL    HW234314   0.440   1.659   6.807 -0.0914 -0.3083  0.1389
 7619SOL     OW34315   4.535   1.370   5.482 -0.5962 -0.3896  0.2167
 7619SOL    HW134316   4.512   1.291   5.431  2.7113  0.1188 -2.0473
 7619SOL    HW234317   4.612   1.344   5.532  1.6933  1.0121 -2.5695
 7620SOL     OW34318   4.687   1.024  16.039 -0.0671  0.1917 -0.1512
 7620SOL    HW134319   0.039   1.077  16.011 -1.0824  0.7281 -1.7985
 7620SOL    HW234320   4.632   1.089  16.082 -2.4882 -1.0115 -1.4384
 7621SOL     OW34321   2.784   2.456   5.484  0.1932 -0.5281 -0.7231
 7621SOL    HW134322   2.858   2.500   5.443  1.4783 -0.8743  1.2217
 7621SOL    HW234323   2.781   2.493   5.572  3.2169 -0.4290 -0.6692
 7622SOL     OW34324   4.146   1.024   9.529 -0.6678 -0.1511  0.3107
 7622SOL    HW134325   4.119   0.951   9.585 -3.7911  1.4145  0.8997
 7622SOL    HW234326   4.234   1.002   9.501 -0.9344  0.2254 -0.8100
 7623SOL     OW34327   1.280   3.095   7.553 -0.5974  0.1048 -0.5528
 7623SOL    HW134328   1.247   3.185   7.545  0.3258  0.5986  1.1732
 7623SOL    HW234329   1.319   3.100   7.640 -2.9994  1.2986  0.4584
 7624SOL     OW34330   4.218   0.035   2.742  0.0614  0.4992 -0.1254
 7624SOL    HW134331   4.255   0.013   2.656  0.6700  1.7848 -0.2060
 7624SOL    HW234332   4.153   4.689   2.752  2.2469 -1.5946 -0.5015
 7625SOL     OW34333   4.507   4.294   2.406 -0.2641  0.1132 -0.3802
 7625SOL    HW134334   4.460   4.232   2.462  0.4984  1.1091  1.3561
 7625SOL    HW234335   4.584   4.314   2.458 -2.0156 -0.2238  2.3322
 7626SOL     OW34336   2.083   3.835   3.789  0.6332  0.2027 -0.7143
 7626SOL    HW134337   2.110   3.759   3.840 -0.9851 -0.5826 -1.0172
 7626SOL    HW234338   1.992   3.846   3.817  1.4693 -0.6301  2.3340
 7627SOL     OW34339   1.754   0.271   3.274 -0.4308 -0.2401 -0.1728
 7627SOL    HW134340   1.793   0.237   3.193  2.0312 -0.0961  0.9617
 7627SOL    HW234341   1.788   0.205   3.335 -1.8104 -1.2960 -0.5392
 7628SOL     OW34342   0.596   1.447  11.501 -0.4693  0.5181  0.2843
 7628SOL    HW134343   0.607   1.539  11.476 -3.6792  1.2271  1.5203
 7628SOL    HW234344   0.673   1.439  11.557  0.2062 -0.8857 -0.8345
 7629SOL     OW34345   4.414   0.355   2.086 -0.4791 -0.2229 -0.2176
 7629SOL    HW134346   4.487   0.313   2.040 -2.2229 -1.2509 -2.0314
 7629SOL    HW234347   4.425   0.314   2.172 -2.0264  0.8395  0.5019
 7630SOL     OW34348   2.258   2.707  13.333  0.0615  0.7502 -0.1096
 7630SOL    HW134349   2.210   2.641  13.283 -0.2219  1.9350 -1.3968
 7630SOL    HW234350   2.192   2.756  13.382 -0.7158  0.3484 -0.7461
 7631SOL     OW34351   1.736   2.163   5.430 -0.5382 -0.0273  0.0678
 7631SOL    HW134352   1.717   2.115   5.510  0.0809 -1.9149 -0.9126
 7631SOL    HW234353   1.820   2.203   5.453 -1.4803  1.2292  1.2714
 7632SOL     OW34354   1.501   0.889  16.753 -0.2119  0.1059  0.3279
 7632SOL    HW134355   1.514   0.979  16.783  0.3179 -0.0036  0.4334
 7632SOL    HW234356   1.594   0.869  16.745 -0.4790 -2.1756  2.8916
 7633SOL     OW34357   1.036   2.328   4.324  0.1628  0.4469 -0.0033
 7633SOL    HW134358   1.093   2.307   4.250 -1.5407 -1.6089 -0.7436
 7633SOL    HW234359   1.099   2.345   4.395 -0.2403 -0.9796  0.6970
 7634SOL     OW34360   1.012   3.799  11.796 -0.4528 -0.2668 -0.2794
 7634SOL    HW134361   1.062   3.806  11.715 -0.0416  0.5818  0.0424
 7634SOL    HW234362   1.013   3.887  11.833 -0.7591  0.2790 -1.5740
 7635SOL     OW34363   0.712   1.304   7.277 -0.9841  0.2251 -0.1183
 7635SOL    HW134364   0.654   1.234   7.307 -0.5330  0.6573  1.7443
 7635SOL    HW234365   0.687   1.379   7.331  0.9940  1.6616 -1.1810
 7636SOL     OW34366   0.853   1.430   4.943  0.3743  0.4218 -0.3936
 7636SOL    HW134367   0.939   1.400   4.974  0.8382  0.5689 -1.5081
 7636SOL    HW234368   0.884   1.514   4.907 -0.6343 -0.2212 -2.7885
 7637SOL     OW34369   0.779   3.078   1.329  0.1059 -0.1758 -0.6330
 7637SOL    HW134370   0.780   3.169   1.357  1.1610 -1.1517  2.4921
 7637SOL    HW234371   0.746   3.035   1.408 -1.1492 -0.2641 -1.2080
 7638SOL     OW34372   0.664   0.242   1.827 -0.0808  0.0899  0.1394
 7638SOL    HW134373   0.706   0.328   1.822 -1.0883  0.5332 -0.7907
 7638SOL    HW234374   0.705   0.200   1.751  0.1878 -1.6028  1.2321
 7639SOL     OW34375   3.776   3.592   2.305 -0.5256  0.2480 -0.1821
 7639SOL    HW134376   3.870   3.611   2.301 -0.8584  1.8959 -0.2337
 7639SOL    HW234377   3.778   3.513   2.252 -3.4629 -0.6295  0.9753
 7640SOL     OW34378   3.165   0.037   4.738  0.5473 -0.1418 -0.1800
 7640SOL    HW134379   3.211   4.713   4.808 -0.2767  0.0093  0.4742
 7640SOL    HW234380   3.085   4.708   4.725  0.2910 -0.1003  1.1713
 7641SOL     OW34381   4.646   1.028  17.075 -0.5167 -0.1867 -0.1552
 7641SOL    HW134382   4.638   1.101  17.136  0.9151 -0.6538  0.6023
 7641SOL    HW234383   0.014   1.042  17.047 -1.0145  0.1012 -1.6111
 7642SOL     OW34384   1.329   2.372   5.670  0.4084  0.3324  0.2197
 7642SOL    HW134385   1.422   2.391   5.656  0.1797  0.5239 -1.1069
 7642SOL    HW234386   1.303   2.286   5.637 -3.2248  1.4923  0.0197
 7643SOL     OW34387   3.755   1.339   6.356  0.0975 -0.0755 -0.3761
 7643SOL    HW134388   3.668   1.340   6.395  0.5673 -0.1670  0.6809
 7643SOL    HW234389   3.765   1.257   6.307 -0.5214 -0.7481  0.6174
 7644SOL     OW34390   1.138   1.125   4.188 -0.1821 -0.4024 -0.0377
 7644SOL    HW134391   1.200   1.062   4.152 -0.2104 -0.7637  0.5391
 7644SOL    HW234392   1.165   1.122   4.280 -0.6374 -0.4581  0.0921
 7645SOL     OW34393   3.524   3.451   0.360  0.1544  0.1736 -0.0604
 7645SOL    HW134394   3.485   3.506   0.292 -0.5038  0.6751  0.7374
 7645SOL    HW234395   3.598   3.400   0.325  1.0157  0.9955  0.5454
 7646SOL     OW34396   3.478   1.655   6.489 -0.2919  1.1629 -0.3968
 7646SOL    HW134397   3.431   1.668   6.572 -0.0096  0.2245 -0.0894
 7646SOL    HW234398   3.568   1.644   6.519 -0.2561 -0.7036 -1.1726
 7647SOL     OW34399   1.047   4.214   9.858  0.8100 -0.0310  0.1588
 7647SOL    HW134400   1.050   4.208   9.954 -1.0076  1.7536  0.3173
 7647SOL    HW234401   1.120   4.153   9.845 -1.1725 -2.2200 -0.8737
 7648SOL     OW34402   0.852   3.089  14.491 -0.9669  0.1327 -0.7279
 7648SOL    HW134403   0.902   3.047  14.561 -2.0924 -1.1273 -0.6821
 7648SOL    HW234404   0.810   3.012  14.453 -0.4532 -0.5685  0.1459
 7649SOL     OW34405   0.395   2.947   5.944 -0.3644  0.1963  0.0971
 7649SOL    HW134406   0.428   2.903   6.022  0.2910  0.9328  0.2325
 7649SOL    HW234407   0.454   2.900   5.886 -4.2047 -3.0453 -1.2164
 7650SOL     OW34408   0.100   0.989  14.681  0.1667  0.2291 -0.6481
 7650SOL    HW134409   0.123   1.000  14.773 -0.9872  1.0331 -0.4553
 7650SOL    HW234410   0.072   1.079  14.665 -0.9214  0.1114  0.6675
 7651SOL     OW34411   0.951   3.655   8.826  0.1609 -0.0401 -0.0430
 7651SOL    HW134412   0.898   3.643   8.747 -0.7190 -3.0719  1.0076
 7651SOL    HW234413   1.009   3.723   8.793  2.2570 -1.8412 -0.0883
 7652SOL     OW34414   3.606   1.113   3.584  0.7184 -0.2649 -0.7291
 7652SOL    HW134415   3.590   1.106   3.679  1.3661 -0.8689 -0.6658
 7652SOL    HW234416   3.572   1.202   3.574 -0.1785 -0.7896 -2.2848
 7653SOL     OW34417   3.983   4.066  13.220 -0.2297 -0.5573  0.4024
 7653SOL    HW134418   4.059   4.030  13.174  2.0928  3.2624  1.3374
 7653SOL    HW234419   4.031   4.115  13.286 -1.3625 -0.3606  1.0839
 7654SOL     OW34420   3.486   2.778   8.650  0.3182 -0.3897  0.1174
 7654SOL    HW134421   3.507   2.803   8.560  0.3809  1.3484  0.6159
 7654SOL    HW234422   3.568   2.731   8.668  0.0849 -0.1272  1.8398
 7655SOL     OW34423   2.441   2.529  10.894 -0.4030 -1.2171  0.5382
 7655SOL    HW134424   2.490   2.530  10.976  2.2752 -2.2001 -1.0707
 7655SOL    HW234425   2.381   2.457  10.914  1.9478 -3.2315  0.3466
 7656SOL     OW34426   4.696   3.069  11.136 -0.3486 -0.0440  0.3680
 7656SOL    HW134427   4.707   3.162  11.152 -1.8212 -0.0037  1.1112
 7656SOL    HW234428   0.042   3.036  11.195  1.2987 -0.3843 -1.7360
 7657SOL     OW34429   0.325   0.923  10.855 -0.0675 -0.1657 -0.8507
 7657SOL    HW134430   0.306   0.970  10.936 -0.0889  2.3446 -2.3191
 7657SOL    HW234431   0.245   0.872  10.848  0.4260 -1.0350 -0.1104
 7658SOL     OW34432   1.073   4.438   5.842  0.1643 -0.6665  0.3173
 7658SOL    HW134433   1.029   4.495   5.904  0.3730  0.0935 -0.2415
 7658SOL    HW234434   1.161   4.456   5.875  1.3323 -0.3620 -2.9706
 7659SOL     OW34435   0.881   2.910   0.429 -0.1702 -0.4076  0.0477
 7659SOL    HW134436   0.845   2.990   0.391 -2.2528 -0.6183  1.5717
 7659SOL    HW234437   0.941   2.885   0.359 -1.1097 -0.4158 -0.7576
 7660SOL     OW34438   4.354   0.383   4.731 -0.1772  0.2955 -0.1137
 7660SOL    HW134439   4.430   0.423   4.772 -0.1686  1.0286 -0.8519
 7660SOL    HW234440   4.345   0.445   4.658 -4.0071  1.7353  1.6074
 7661SOL     OW34441   1.515   2.931  14.928 -0.6014  0.1124 -0.0801
 7661SOL    HW134442   1.582   2.936  14.996 -0.6201  1.2723 -0.1393
 7661SOL    HW234443   1.564   2.962  14.851  0.4213 -0.3207  0.4010
 7662SOL     OW34444   3.240   3.420   0.618 -0.6138 -0.0715  0.0586
 7662SOL    HW134445   3.309   3.482   0.641 -0.5030  0.9647 -3.0353
 7662SOL    HW234446   3.287   3.349   0.573 -0.5098 -0.8330  1.3803
 7663SOL     OW34447   4.097   3.565   3.489  0.3824 -0.6000  0.1351
 7663SOL    HW134448   4.083   3.478   3.452 -1.3521 -1.1112  1.9653
 7663SOL    HW234449   4.046   3.619   3.430 -0.4895  0.0509  1.4905
 7664SOL     OW34450   0.038   3.696   8.602 -0.3987  0.5644 -0.4890
 7664SOL    HW134451   0.052   3.604   8.623 -0.4651  0.3843 -1.2479
 7664SOL    HW234452   4.669   3.694   8.577 -1.0120 -1.5864  1.9114
 7665SOL     OW34453   4.386   1.227   6.643  0.6009  0.3798  0.2707
 7665SOL    HW134454   4.299   1.251   6.672  0.3828 -1.2960  1.0150
 7665SOL    HW234455   4.380   1.288   6.569 -1.7389 -0.9196 -0.6003
 7666SOL     OW34456   4.411   1.753   0.552 -0.1656 -0.0523  0.3665
 7666SOL    HW134457   4.461   1.785   0.477  1.9005  0.0620  1.7834
 7666SOL    HW234458   4.436   1.819   0.617  0.4588  0.9183 -0.8698
 7667SOL     OW34459   2.538   0.000   8.841 -0.5181 -0.6598 -0.2686
 7667SOL    HW134460   2.559   4.632   8.863  0.2597 -0.2057  0.8735
 7667SOL    HW234461   2.559   4.718   8.748 -0.9852 -1.1263 -0.3476
 7668SOL     OW34462   0.500   0.931   5.811 -0.0594  0.1130  0.8047
 7668SOL    HW134463   0.512   1.024   5.828 -1.3673  0.6968 -1.5653
 7668SOL    HW234464   0.591   0.907   5.797  0.4434  0.9573  2.5990
 7669SOL     OW34465   4.305   4.282   1.998 -0.4017 -0.1362  0.0504
 7669SOL    HW134466   4.383   4.310   1.950 -0.5311  1.2203  0.6296
 7669SOL    HW234467   4.324   4.339   2.073  1.3597  0.3754 -0.7815
 7670SOL     OW34468   1.878   2.206   7.639  0.2663  0.2194 -0.1391
 7670SOL    HW134469   1.850   2.143   7.705 -3.1480  1.9521  0.0329
 7670SOL    HW234470   1.856   2.165   7.556 -2.0534 -0.9877  1.0943
 7671SOL     OW34471   4.512   4.723  17.188 -0.2279 -0.2034 -0.6145
 7671SOL    HW134472   4.472   0.079  17.225  2.0064  2.1111 -3.1868
 7671SOL    HW234473   4.477   4.647  17.235  1.0866  0.2944  1.1531
 7672SOL     OW34474   2.281   4.343   5.935  0.5231 -0.2551  0.0854
 7672SOL    HW134475   2.289   4.277   6.004 -1.3214  2.9452  3.3757
 7672SOL    HW234476   2.279   4.417   5.996 -2.4494  0.1605 -0.5303
 7673SOL     OW34477   4.703   3.273   8.355 -0.6642  0.6563 -0.2032
 7673SOL    HW134478   0.058   3.302   8.403  0.6032  1.1484 -2.5279
 7673SOL    HW234479   4.671   3.215   8.424 -0.0040 -0.5620 -0.9020
 7674SOL     OW34480   4.446   0.154   9.881  0.1224 -0.0946 -0.2193
 7674SOL    HW134481   4.364   0.196   9.906  0.1428 -0.6174  0.7178
 7674SOL    HW234482   4.497   0.230   9.853 -0.5137  0.8834  1.2567
 7675SOL     OW34483   1.660   2.705   5.065  0.0215 -1.1358  0.3420
 7675SOL    HW134484   1.726   2.637   5.083  1.3613  0.4898  1.5692
 7675SOL    HW234485   1.709   2.760   5.004 -1.4807  0.1235  0.2760
 7676SOL     OW34486   0.616   1.714   8.879 -0.3268 -0.0089  0.3982
 7676SOL    HW134487   0.596   1.752   8.964  2.7774  2.0087  0.2035
 7676SOL    HW234488   0.660   1.634   8.905 -2.0177 -1.3711 -0.8774
 7677SOL     OW34489   1.001   0.807   6.490  0.4073  0.4550  0.8005
 7677SOL    HW134490   0.919   0.777   6.529  0.1582 -0.5761 -0.5139
 7677SOL    HW234491   1.069   0.747   6.521 -0.3079 -0.3909  0.7282
 7678SOL     OW34492   3.180   3.038  14.838 -0.1309  0.6970 -0.1688
 7678SOL    HW134493   3.182   3.106  14.904  0.8177  2.4709 -2.0135
 7678SOL    HW234494   3.270   3.029  14.804 -0.4797 -1.4407 -0.5340
 7679SOL     OW34495   0.235   2.596   8.851  0.1789 -0.4395 -0.1520
 7679SOL    HW134496   0.159   2.543   8.873  0.1983 -0.3897  0.0373
 7679SOL    HW234497   0.309   2.555   8.896  0.1370  0.5507  0.8396
 7680SOL     OW34498   3.474   2.759   6.644 -0.3521  0.2516  0.0315
 7680SOL    HW134499   3.415   2.834   6.633 -1.0559 -0.5274 -1.3761
 7680SOL    HW234500   3.537   2.779   6.575  0.0336  0.9061  0.5679
 7681SOL     OW34501   1.995   3.400   5.466  0.1544 -0.0256 -0.3416
 7681SOL    HW134502   2.036   3.393   5.553 -1.2121  0.0071  0.3018
 7681SOL    HW234503   1.906   3.400   5.501  0.1197 -3.0771 -0.3612
 7682SOL     OW34504   2.240   2.808  12.276  0.2880  0.1307  0.3218
 7682SOL    HW134505   2.199   2.891  12.300 -1.5194  0.0469 -2.4260
 7682SOL    HW234506   2.331   2.826  12.301 -0.1968 -0.0189  2.1825
 7683SOL     OW34507   1.767   0.899   3.087 -0.8007 -0.2795 -0.7301
 7683SOL    HW134508   1.679   0.917   3.118 -0.3419  3.8159 -1.8354
 7683SOL    HW234509   1.758   0.922   2.995 -0.1735  2.6020 -0.0848
 7684SOL     OW34510   0.417   2.438   5.432 -0.2869  0.1957 -0.4024
 7684SOL    HW134511   0.435   2.352   5.393 -1.3689 -0.1204 -0.2017
 7684SOL    HW234512   0.502   2.441   5.477 -1.2610 -5.6467  1.7625
 7685SOL     OW34513   3.717   0.772   3.213 -1.1874  0.1481 -0.1373
 7685SOL    HW134514   3.737   0.865   3.225 -2.0619  0.4784 -1.1652
 7685SOL    HW234515   3.636   0.772   3.265 -1.7612  1.0452 -1.0206
 7686SOL     OW34516   0.736   2.796   6.763  0.0994 -0.3454  0.3728
 7686SOL    HW134517   0.719   2.890   6.759 -0.2370 -0.4840 -1.4578
 7686SOL    HW234518   0.739   2.781   6.858 -0.0948  1.7070  0.6965
 7687SOL     OW34519   0.927   1.905   4.496 -0.3208  0.1136 -0.5682
 7687SOL    HW134520   0.896   1.830   4.445 -0.4823  0.5271 -1.0851
 7687SOL    HW234521   0.895   1.984   4.452 -1.5909 -1.5319 -2.5918
 7688SOL     OW34522   1.768   3.080   4.402 -0.6444  0.7346  0.0871
 7688SOL    HW134523   1.679   3.052   4.424 -0.3805 -0.1432  0.0220
 7688SOL    HW234524   1.789   3.143   4.471  1.5261 -0.8931  0.9240
 7689SOL     OW34525   4.010   2.047   1.944  0.2165  0.5597 -0.3118
 7689SOL    HW134526   3.971   1.966   1.977 -1.3515  1.0445 -0.9793
 7689SOL    HW234527   4.088   2.019   1.896  1.3904  0.9821  1.3289
 7690SOL     OW34528   0.351   3.659  15.151  0.4690 -0.6402 -0.2710
 7690SOL    HW134529   0.415   3.651  15.080 -1.4122  0.1743 -2.0505
 7690SOL    HW234530   0.370   3.580  15.202  0.7971 -1.2043 -1.2670
 7691SOL     OW34531   0.312   4.242   6.738 -0.0901  0.0282  0.3627
 7691SOL    HW134532   0.241   4.178   6.738  0.8713 -1.0476 -0.7141
 7691SOL    HW234533   0.262   4.304   6.686 -0.4674 -0.6576 -0.0891
 7692SOL     OW34534   0.313   2.392   7.872  0.1260 -0.6047  0.6404
 7692SOL    HW134535   0.399   2.381   7.832  0.0481 -2.5132  1.0017
 7692SOL    HW234536   0.281   2.302   7.878 -2.2888  0.2034 -0.2740
 7693SOL     OW34537   2.548   4.092  16.640  0.0528 -0.1968 -0.2479
 7693SOL    HW134538   2.595   4.123  16.563 -0.8403 -1.1258 -1.1745
 7693SOL    HW234539   2.627   4.059  16.683  0.3147 -0.3638 -0.8602
 7694SOL     OW34540   0.842   0.655   1.224  0.1529 -0.4072  0.7549
 7694SOL    HW134541   0.905   0.595   1.183  0.6297  0.0309  0.8413
 7694SOL    HW234542   0.764   0.638   1.170  0.2608 -0.8472  0.7444
 7695SOL     OW34543   1.704   3.999  16.057 -0.2657  0.0549  0.1452
 7695SOL    HW134544   1.694   3.982  16.151  2.3224  1.6647  0.7272
 7695SOL    HW234545   1.706   4.094  16.062  0.4496  0.2281 -3.1310
 7696SOL     OW34546   0.219   3.055  17.522  0.2903  0.4343  0.1542
 7696SOL    HW134547   0.236   2.974  17.570  0.4440 -0.6934 -1.7867
 7696SOL    HW234548   0.126   3.039  17.504  0.2635  0.3204  0.3921
 7697SOL     OW34549   1.453   0.129  10.724  0.1751  0.0768 -0.0455
 7697SOL    HW134550   1.517   0.067  10.759 -0.0102 -1.4752 -2.4010
 7697SOL    HW234551   1.521   0.189  10.693 -0.4039  0.9514  0.3724
 7698SOL     OW34552   1.349   4.558   3.053 -0.2168  0.2768  0.5970
 7698SOL    HW134553   1.269   4.565   3.106  0.2513  1.7388  1.1170
 7698SOL    HW234554   1.396   4.528   3.131 -1.0588 -0.5574  0.7854
 7699SOL     OW34555   0.265   1.860   7.151 -0.1508 -0.2416  0.8542
 7699SOL    HW134556   0.312   1.925   7.202 -0.4740 -0.0033  0.8441
 7699SOL    HW234557   0.334   1.793   7.153 -1.3452 -1.4803  0.2992
 7700SOL     OW34558   3.573   4.672  11.163  1.0258 -0.2075 -0.3917
 7700SOL    HW134559   3.588   4.620  11.084  0.1819  0.3282 -0.9151
 7700SOL    HW234560   3.633   0.024  11.164  2.2019 -1.1984  0.9040
 7701SOL     OW34561   0.878   1.026   4.445  0.0817 -0.5358 -0.1543
 7701SOL    HW134562   0.929   1.107   4.440 -0.0857 -0.2633  2.5138
 7701SOL    HW234563   0.895   0.997   4.534  1.0242  2.0688  0.5198
 7702SOL     OW34564   2.673   2.937   3.458  0.3777  0.3742 -0.3631
 7702SOL    HW134565   2.723   3.005   3.414  1.3070 -1.3922 -2.0260
 7702SOL    HW234566   2.587   2.972   3.434 -0.2790 -1.8313 -1.2192
 7703SOL     OW34567   2.727   0.267   1.791  0.3555  0.2008 -0.3794
 7703SOL    HW134568   2.717   0.362   1.781 -0.2343  0.2958  1.0209
 7703SOL    HW234569   2.689   0.228   1.712  1.3268 -1.7623  0.1324
 7704SOL     OW34570   0.612   0.102  15.777 -1.3385 -0.4755 -0.8585
 7704SOL    HW134571   0.566   0.185  15.765  1.3903  0.9756 -1.4125
 7704SOL    HW234572   0.595   0.075  15.867  2.7966  1.4096  0.4633
 7705SOL     OW34573   2.601   2.597   3.225 -0.2848  0.4509  0.7736
 7705SOL    HW134574   2.601   2.522   3.166 -1.2308  0.4982  0.7160
 7705SOL    HW234575   2.662   2.561   3.291  1.7012  1.6767 -0.3956
 7706SOL     OW34576   2.530   3.605   2.323 -0.1747 -0.1449 -0.5358
 7706SOL    HW134577   2.585   3.538   2.283 -0.8754 -0.4764 -0.9213
 7706SOL    HW234578   2.468   3.550   2.370 -2.7849  1.2449 -2.3536
 7707SOL     OW34579   0.829   2.150   9.332 -0.2083  0.4850 -0.5463
 7707SOL    HW134580   0.749   2.156   9.279  2.0396  1.6901 -3.7562
 7707SOL    HW234581   0.886   2.213   9.288 -0.1091  0.2471 -0.7592
 7708SOL     OW34582   2.081   4.629   1.657  0.1921  0.5967  0.1534
 7708SOL    HW134583   2.121   4.555   1.610 -0.9817  0.2426 -0.2857
 7708SOL    HW234584   2.029   4.674   1.590 -0.4956  0.6102  0.6989
 7709SOL     OW34585   1.654   4.355   1.818  0.3380 -0.0203  0.6472
 7709SOL    HW134586   1.686   4.335   1.906  0.4113 -0.7273  0.4598
 7709SOL    HW234587   1.660   4.450   1.810  0.1373 -0.0443  0.2310
 7710SOL     OW34588   2.633   3.088   8.885 -0.8098  0.3433 -0.2389
 7710SOL    HW134589   2.598   3.142   8.814  0.0161  1.2238  0.0179
 7710SOL    HW234590   2.560   3.094   8.948 -1.7942  0.0799 -1.3586
 7711SOL     OW34591   0.255   1.144   7.086 -0.1994  0.7698 -0.1644
 7711SOL    HW134592   0.322   1.082   7.114 -1.9171  0.0251  2.3276
 7711SOL    HW234593   0.276   1.132   6.993  1.6238 -0.2336  0.3820
 7712SOL     OW34594   0.369   3.144   7.879 -0.8917  0.0451  0.3078
 7712SOL    HW134595   0.337   3.189   7.801 -0.5336 -1.6034 -0.7904
 7712SOL    HW234596   0.444   3.092   7.852 -0.4175  1.5199 -1.2327
 7713SOL     OW34597   1.281   0.192   2.579 -0.3578 -0.5113 -0.1601
 7713SOL    HW134598   1.365   0.181   2.623 -0.3868 -2.7568 -0.6549
 7713SOL    HW234599   1.220   0.139   2.630  1.2911 -1.5387  0.7648
 7714SOL     OW34600   3.267   2.822   3.147 -0.0559 -0.2498  0.5629
 7714SOL    HW134601   3.186   2.774   3.129  0.7798 -1.4350 -0.0296
 7714SOL    HW234602   3.308   2.752   3.198 -1.2532 -2.0751 -0.9733
 7715SOL     OW34603   4.601   1.405   8.755  0.1412 -0.2236  0.0337
 7715SOL    HW134604   4.607   1.409   8.660 -1.7283 -0.0699 -0.0744
 7715SOL    HW234605   4.639   1.488   8.786 -1.4488  0.0010  1.3922
 7716SOL     OW34606   2.733   3.070  14.546 -0.3737  0.8029 -0.1072
 7716SOL    HW134607   2.769   3.156  14.524  0.2209  0.5676 -0.0363
 7716SOL    HW234608   2.775   3.049  14.630 -1.2442  2.8072  0.8418
 7717SOL     OW34609   3.734   0.515   4.854  0.2335 -0.7100  0.3304
 7717SOL    HW134610   3.776   0.458   4.918 -2.8397 -1.0220  2.0516
 7717SOL    HW234611   3.803   0.518   4.787 -0.9908  1.1471 -0.8448
 7718SOL     OW34612   4.378   2.062   8.644 -0.2102  0.5072 -0.1760
 7718SOL    HW134613   4.328   2.039   8.566  1.1157  0.8807 -1.1324
 7718SOL    HW234614   4.450   2.000   8.642  1.6415  2.6436  0.5451
 7719SOL     OW34615   2.764   3.920   4.240  0.0334  0.2371 -0.2920
 7719SOL    HW134616   2.832   3.950   4.301 -1.2565  2.1080  0.2322
 7719SOL    HW234617   2.750   4.000   4.188  0.1491  0.7742  0.5042
 7720SOL     OW34618   3.642   3.414  10.181  0.3349 -0.3155 -0.1442
 7720SOL    HW134619   3.623   3.385  10.092 -0.1113 -1.9238  0.4800
 7720SOL    HW234620   3.557   3.397  10.223  0.1411 -0.0102 -0.4159
 7721SOL     OW34621   0.531   1.710   7.813 -0.1865  0.0335  0.6957
 7721SOL    HW134622   0.623   1.689   7.823 -0.4695 -1.1995  0.6550
 7721SOL    HW234623   0.541   1.805   7.818  1.0820 -0.0723  0.2118
 7722SOL     OW34624   1.407   0.646  16.762 -0.1745 -0.0021  0.1051
 7722SOL    HW134625   1.411   0.739  16.742  0.0197 -0.7796 -3.4804
 7722SOL    HW234626   1.314   0.629  16.778 -0.3163  0.9959  0.3255
 7723SOL     OW34627   4.219   4.043   8.029 -0.2738 -0.2147 -0.9931
 7723SOL    HW134628   4.308   4.064   8.001  0.9000  0.0662  3.0123
 7723SOL    HW234629   4.165   4.118   8.006  0.7889  1.3166  1.4698
 7724SOL     OW34630   0.147   2.433  15.442 -0.2676  0.1531  0.0516
 7724SOL    HW134631   0.097   2.352  15.449 -0.2654  0.1670  0.2374
 7724SOL    HW234632   0.178   2.422  15.352 -1.4577 -1.1197 -0.2029
 7725SOL     OW34633   3.958   1.207   7.677 -0.6250  1.1396 -0.0585
 7725SOL    HW134634   3.870   1.220   7.712 -1.3246  1.4925 -1.9899
 7725SOL    HW234635   3.929   1.178   7.591 -3.6080  1.0339  0.9841
 7726SOL     OW34636   4.493   2.707   3.862  0.1901  0.0071  0.1397
 7726SOL    HW134637   4.512   2.765   3.935 -0.2836 -1.7140  1.6305
 7726SOL    HW234638   4.458   2.770   3.799  0.2575 -0.7949 -0.7014
 7727SOL     OW34639   1.932   3.803  11.037  0.6255  0.0700  0.2337
 7727SOL    HW134640   1.891   3.836  10.957 -0.2605  1.3928  1.2334
 7727SOL    HW234641   1.978   3.723  11.011 -2.2477 -1.0970 -1.3059
 7728SOL     OW34642   1.569   4.626  13.995 -0.6877 -0.4431 -0.7973
 7728SOL    HW134643   1.657   4.654  14.018 -1.9741  0.4717  3.1318
 7728SOL    HW234644   1.529   4.634  14.082 -1.5791 -0.3429 -1.2179
 7729SOL     OW34645   2.889   3.482   6.316 -0.2175 -0.5668 -0.1043
 7729SOL    HW134646   2.797   3.503   6.334  0.2602 -0.3853  2.1584
 7729SOL    HW234647   2.887   3.420   6.244  0.8896 -1.2313  0.4344
 7730SOL     OW34648   2.496   0.167   3.853  0.7193  0.1116  0.6818
 7730SOL    HW134649   2.469   0.223   3.780  0.9383 -1.6784 -0.7675
 7730SOL    HW234650   2.427   0.182   3.918 -1.4468  0.3343 -1.6646
 7731SOL     OW34651   3.863   0.486  10.092 -0.8942  0.0578  0.1777
 7731SOL    HW134652   3.862   0.465   9.998 -0.6139  0.8126  0.0091
 7731SOL    HW234653   3.781   0.446  10.118 -0.6675 -0.7859 -0.3845
 7732SOL     OW34654   3.357   3.025   8.206 -0.4694 -0.3256  0.0314
 7732SOL    HW134655   3.451   3.043   8.196 -0.7455 -0.2264 -2.3933
 7732SOL    HW234656   3.354   2.978   8.289  0.1168  1.2021  0.9020
 7733SOL     OW34657   0.765   4.354  13.658  0.0730 -1.2454  0.2011
 7733SOL    HW134658   0.856   4.325  13.661  0.5978  0.3642 -0.0929
 7733SOL    HW234659   0.729   4.294  13.592  2.5146 -2.2530 -0.2521
 7734SOL     OW34660   0.444   2.904   8.629 -0.3767 -0.4097  0.2790
 7734SOL    HW134661   0.534   2.883   8.654 -0.6373 -0.0658  1.5013
 7734SOL    HW234662   0.462   2.926   8.537 -1.8178 -0.3445  0.0145
 7735SOL     OW34663   0.930   3.662   7.056 -0.1335 -0.1519  0.1135
 7735SOL    HW134664   0.963   3.660   7.146  2.5561 -0.3993 -0.8818
 7735SOL    HW234665   0.928   3.757   7.052 -1.0190 -0.1587  0.3737
 7736SOL     OW34666   0.186   3.923   7.492  0.9020  0.2680 -0.3317
 7736SOL    HW134667   0.128   3.853   7.463 -0.2920  1.3128 -0.4430
 7736SOL    HW234668   0.218   3.892   7.577 -0.9040 -0.2726  0.1324
 7737SOL     OW34669   0.464   3.782   6.928  0.6381  0.4747 -0.2045
 7737SOL    HW134670   0.378   3.775   6.887  0.3702 -0.3600  0.5114
 7737SOL    HW234671   0.514   3.830   6.862  0.5496  2.2386  0.9897
 7738SOL     OW34672   1.161   0.096   2.960 -0.6832  0.2076 -0.4172
 7738SOL    HW134673   1.079   0.091   3.009  1.2354  0.9367  2.8112
 7738SOL    HW234674   1.143   0.086   2.866  1.8903 -0.2648 -0.8480
 7739SOL     OW34675   4.421   1.935   4.981 -0.3632 -0.5156 -0.4509
 7739SOL    HW134676   4.402   1.945   5.074 -2.2340 -2.1312 -0.6715
 7739SOL    HW234677   4.454   2.022   4.958  0.4317 -1.7636 -4.1339
 7740SOL     OW34678   0.300   2.145   3.120  0.1441 -0.0467  0.3884
 7740SOL    HW134679   0.211   2.178   3.134 -0.4603 -0.8583 -1.5864
 7740SOL    HW234680   0.279   2.089   3.045 -1.1146 -0.1163  0.7994
 7741SOL     OW34681   0.285   3.911  15.174 -0.5197 -0.3254  0.1233
 7741SOL    HW134682   0.326   3.954  15.100  1.4830 -1.9924  0.2669
 7741SOL    HW234683   0.320   3.824  15.155 -0.4259 -0.3055  0.2070
 7742SOL     OW34684   4.395   0.467  16.524 -0.2124 -0.0996  0.0533
 7742SOL    HW134685   4.430   0.450  16.437 -0.9460 -1.1980 -0.0267
 7742SOL    HW234686   4.303   0.491  16.513 -0.3003 -0.5937 -0.2884
 7743SOL     OW34687   0.370   0.998   5.580 -0.2774 -0.1240  0.2739
 7743SOL    HW134688   0.363   1.081   5.626  0.4347  0.5328 -0.7822
 7743SOL    HW234689   0.424   0.945   5.640  1.6155  0.0193 -1.2861
 7744SOL     OW34690   0.643   4.701  17.653 -0.5190  0.0020  0.0931
 7744SOL    HW134691   0.697   4.623  17.654 -2.9657 -1.7009 -0.2567
 7744SOL    HW234692   0.557   4.669  17.680 -0.5668 -0.7302 -0.9316
 7745SOL     OW34693   4.113   0.907   5.300 -0.1169 -0.0412 -0.1838
 7745SOL    HW134694   4.141   0.980   5.355 -0.7758  0.1163 -0.0450
 7745SOL    HW234695   4.088   0.953   5.220  0.5524 -0.4402 -0.6193
 7746SOL     OW34696   2.519   2.176   7.067  0.4001 -0.4239 -0.0019
 7746SOL    HW134697   2.452   2.192   7.001 -0.6612 -0.3110  1.1112
 7746SOL    HW234698   2.589   2.146   7.008 -0.0644 -0.6863 -0.4207
 7747SOL     OW34699   0.683   1.000   6.478 -0.2893  0.2913  0.9572
 7747SOL    HW134700   0.707   1.082   6.436 -1.8323 -0.4109 -1.2890
 7747SOL    HW234701   0.649   0.965   6.396 -1.8757  2.2253  0.7871
 7748SOL     OW34702   3.209   0.564   2.138  0.1758  0.4291 -0.2279
 7748SOL    HW134703   3.269   0.622   2.186 -0.8829  1.0138  0.3840
 7748SOL    HW234704   3.154   0.628   2.094 -1.5024 -1.9883 -1.5835
 7749SOL     OW34705   0.696   0.558  16.732 -0.7575  0.3041 -0.6672
 7749SOL    HW134706   0.774   0.552  16.787 -1.4036 -0.1469  0.2093
 7749SOL    HW234707   0.622   0.558  16.793 -0.4830 -1.6751 -0.3532
 7750SOL     OW34708   2.882   4.341   2.710  0.4216  0.2519 -0.1784
 7750SOL    HW134709   2.890   4.417   2.768  3.1134  0.8410 -1.3631
 7750SOL    HW234710   2.934   4.284   2.766  0.8004  0.6690 -0.1097
 7751SOL     OW34711   2.165   1.101   4.395  0.2698 -0.1207  0.3617
 7751SOL    HW134712   2.171   1.148   4.312 -0.1551 -2.0828 -0.7747
 7751SOL    HW234713   2.070   1.113   4.400  0.2475  0.2613 -0.9283
 7752SOL     OW34714   1.706   1.151   7.026  0.2753  0.2048 -0.2776
 7752SOL    HW134715   1.689   1.116   7.114  1.5707  3.3502  1.2709
 7752SOL    HW234716   1.788   1.108   7.002 -0.4899 -0.2368 -2.0910
 7753SOL     OW34717   1.722   4.345   0.486  0.0717  0.2509 -0.0093
 7753SOL    HW134718   1.800   4.399   0.472  1.1750 -1.2890  0.1058
 7753SOL    HW234719   1.750   4.274   0.427  1.4037 -1.4667  2.7092
 7754SOL     OW34720   2.430   0.382   4.503 -0.3409 -0.4285 -0.7779
 7754SOL    HW134721   2.412   0.453   4.440  0.1726 -0.7971 -1.3350
 7754SOL    HW234722   2.355   0.322   4.501 -0.2451 -0.6093  1.5284
 7755SOL     OW34723   0.056   4.373   8.123  0.2211 -0.2325  0.1820
 7755SOL    HW134724   0.099   4.289   8.105 -2.6871 -2.0154  1.4721
 7755SOL    HW234725   4.689   4.351   8.100  0.3121 -0.7211  0.2866
 7756SOL     OW34726   4.611   3.136   9.795 -0.6351 -0.3928 -0.0269
 7756SOL    HW134727   4.556   3.130   9.873 -0.9615 -1.8247 -0.3518
 7756SOL    HW234728   4.560   3.090   9.728  0.1625 -1.7259  0.2719
 7757SOL     OW34729   3.109   2.567   2.687 -0.0350 -0.1584  0.0696
 7757SOL    HW134730   3.184   2.598   2.738  0.0289 -1.5887  0.8632
 7757SOL    HW234731   3.131   2.474   2.695 -0.4976 -0.1843  1.0564
 7758SOL     OW34732   4.330   0.723   7.149 -0.3992 -0.3054  0.2661
 7758SOL    HW134733   4.335   0.633   7.181 -1.9597 -0.7512 -0.7638
 7758SOL    HW234734   4.348   0.720   7.055  0.0786 -0.4688  0.3608
 7759SOL     OW34735   2.977   4.480  16.065 -0.2762  0.4023 -0.0900
 7759SOL    HW134736   2.997   4.402  16.116  1.5662  0.0596 -1.3156
 7759SOL    HW234737   3.007   4.446  15.980  0.9632  1.4549 -0.0779
 7760SOL     OW34738   2.630   2.689   4.738  0.8335  0.0433  0.5735
 7760SOL    HW134739   2.566   2.729   4.798  0.7779 -0.9820  1.2134
 7760SOL    HW234740   2.699   2.701   4.803  0.5693  1.1200  0.6602
 7761SOL     OW34741   2.642   4.541   6.912  0.5827 -0.6649 -0.2180
 7761SOL    HW134742   2.689   4.623   6.930 -2.4476  0.7822  1.0679
 7761SOL    HW234743   2.607   4.566   6.827  1.9720 -1.2406 -0.9607
 7762SOL     OW34744   1.653   3.708   0.868  0.1063 -0.7265 -0.3047
 7762SOL    HW134745   1.586   3.776   0.857 -1.2287 -1.7333  1.6415
 7762SOL    HW234746   1.670   3.718   0.961 -0.6461 -0.5875 -0.1835
 7763SOL     OW34747   4.263   3.871   3.476  0.2326 -0.1912  0.3943
 7763SOL    HW134748   4.284   3.909   3.561 -0.5483 -1.8735  1.3413
 7763SOL    HW234749   4.283   3.944   3.417 -0.4588  0.5526  1.0815
 7764SOL     OW34750   3.048   0.035  11.858  0.3177  0.4471 -0.2677
 7764SOL    HW134751   2.957   0.035  11.829  0.2038 -2.1664  0.1151
 7764SOL    HW234752   3.070   0.128  11.845  0.9036  0.4553  0.7716
 7765SOL     OW34753   0.086   2.111  12.414  0.2708  0.2552 -0.7395
 7765SOL    HW134754   0.108   2.104  12.507 -1.9550  0.1467 -0.2320
 7765SOL    HW234755   0.007   2.058  12.414 -0.8119  1.8750 -1.5462
 7766SOL     OW34756   0.789   0.201   2.763  0.3356  0.6794  0.0841
 7766SOL    HW134757   0.841   0.147   2.823 -0.1031  0.5969  0.3879
 7766SOL    HW234758   0.729   0.247   2.822 -0.4882  0.4869 -0.6176
 7767SOL     OW34759   1.901   3.065   9.388  0.3009  0.8376 -0.3222
 7767SOL    HW134760   1.880   3.067   9.482  1.3126 -1.2421 -0.0574
 7767SOL    HW234761   1.812   3.088   9.361 -1.1147 -0.9813  2.6958
 7768SOL     OW34762   4.366   2.816   8.069  0.0487 -0.0010  0.2902
 7768SOL    HW134763   4.309   2.845   8.140 -0.7800  1.8327 -1.1182
 7768SOL    HW234764   4.398   2.904   8.046  3.0964 -1.0311  0.5454
 7769SOL     OW34765   1.664   0.481  16.708  0.2834 -0.2484  0.1658
 7769SOL    HW134766   1.620   0.431  16.640  1.0644 -1.6718  0.6973
 7769SOL    HW234767   1.757   0.468  16.688  0.7226  3.3920 -0.2653
 7770SOL     OW34768   0.803   1.421   8.173  0.1915 -0.0606 -0.0273
 7770SOL    HW134769   0.795   1.346   8.232 -1.3042  0.1182 -0.0005
 7770SOL    HW234770   0.734   1.397   8.112 -0.5504  0.8812  0.4511
 7771SOL     OW34771   1.198   2.731   7.298 -0.1132  0.5343  0.3032
 7771SOL    HW134772   1.182   2.780   7.378 -1.6303  0.8114 -0.1554
 7771SOL    HW234773   1.106   2.745   7.272 -0.7795 -2.7248  0.8820
 7772SOL     OW34774   0.373   0.513   3.295 -0.0044 -0.4732 -0.4216
 7772SOL    HW134775   0.335   0.533   3.209  0.4388 -0.5797 -0.6438
 7772SOL    HW234776   0.449   0.572   3.298  0.2907 -0.9125  0.7759
 7773SOL     OW34777   1.470   1.732   3.612 -0.8746 -0.1386 -0.4527
 7773SOL    HW134778   1.552   1.717   3.566  0.0809 -0.3028  1.2919
 7773SOL    HW234779   1.452   1.658   3.670 -0.2806  0.5969  0.6729
 7774SOL     OW34780   2.149   2.010   3.792  0.3180  0.1419 -0.4347
 7774SOL    HW134781   2.241   2.037   3.784  0.2149  0.4595 -0.5765
 7774SOL    HW234782   2.114   2.003   3.704 -1.7432  0.9862  0.3115
 7775SOL     OW34783   1.174   2.201   3.681 -0.1547 -0.1375  0.4228
 7775SOL    HW134784   1.185   2.108   3.660  2.8136  0.3469 -0.1990
 7775SOL    HW234785   1.136   2.187   3.767 -0.7237  1.7806  0.4765
 7776SOL     OW34786   2.817   1.364   7.391 -0.4260  0.2581  0.1178
 7776SOL    HW134787   2.780   1.450   7.408 -0.3695  0.6590 -1.7917
 7776SOL    HW234788   2.811   1.336   7.483  1.1387 -1.3923 -0.2823
 7777SOL     OW34789   2.921   2.180   4.153  0.3342 -0.0785 -0.1868
 7777SOL    HW134790   3.004   2.135   4.171 -0.7655 -1.2919  1.9005
 7777SOL    HW234791   2.943   2.212   4.066  2.8009  0.0628  0.4907
 7778SOL     OW34792   2.148   1.049   2.680  0.2064 -0.5167  0.0055
 7778SOL    HW134793   2.163   1.103   2.603  0.1225 -1.1192 -0.4285
 7778SOL    HW234794   2.233   1.053   2.725 -0.4326 -1.8734  1.3644
 7779SOL     OW34795   1.929   3.211   8.293 -0.0333 -0.2817  0.2745
 7779SOL    HW134796   1.861   3.195   8.228 -1.6507 -1.2912  2.2200
 7779SOL    HW234797   2.011   3.226   8.245 -1.4370  2.8967 -1.1097
 7780SOL     OW34798   2.469   2.403  10.507  0.7348 -0.6936  0.0553
 7780SOL    HW134799   2.468   2.482  10.561 -0.3156 -0.4971 -0.2450
 7780SOL    HW234800   2.559   2.404  10.474  1.3674 -0.1300  1.8443
 7781SOL     OW34801   2.640   2.575   8.524  0.4574 -0.0450 -0.2809
 7781SOL    HW134802   2.621   2.661   8.561  0.9240  0.5071 -1.3534
 7781SOL    HW234803   2.709   2.554   8.587  1.4663  2.3577 -0.6063
 7782SOL     OW34804   2.156   2.008   2.885 -0.2037  0.1334  0.1462
 7782SOL    HW134805   2.063   1.986   2.898 -0.3824 -1.1238 -3.1005
 7782SOL    HW234806   2.147   2.103   2.889  2.8326  0.4397 -0.3767
 7783SOL     OW34807   2.874   3.154   8.533 -0.2709  0.4232 -0.3721
 7783SOL    HW134808   2.881   3.150   8.438  3.2639 -2.1223 -0.0252
 7783SOL    HW234809   2.885   3.061   8.555 -0.7513  0.3255 -0.5597
 7784SOL     OW34810   3.114   2.323   7.868  0.0770 -0.3975  0.0409
 7784SOL    HW134811   3.174   2.371   7.811  0.7662 -1.2134  0.0744
 7784SOL    HW234812   3.113   2.375   7.948  0.4994  2.7807 -2.0357
 7785SOL     OW34813   0.298   3.089  14.487 -0.4563 -0.1871  0.7422
 7785SOL    HW134814   0.225   3.034  14.458 -0.3565  1.8685 -3.2896
 7785SOL    HW234815   0.281   3.179  14.461  0.3473 -0.2733 -0.0577
 7786SOL     OW34816   3.775   0.890   2.003  0.2427  0.0139 -0.3031
 7786SOL    HW134817   3.723   0.814   2.028  1.5623 -1.7966 -3.0292
 7786SOL    HW234818   3.860   0.867   2.040  0.3325 -1.0037 -1.1331
 7787SOL     OW34819   4.578   2.131   3.011  0.2259  1.0062  0.3197
 7787SOL    HW134820   4.508   2.156   2.951 -0.9625  0.2864  1.4109
 7787SOL    HW234821   4.653   2.146   2.953 -0.2739 -1.0483 -0.8601
 7788SOL     OW34822   3.285   2.656  10.329  0.1947 -0.2559 -0.2750
 7788SOL    HW134823   3.339   2.634  10.405 -2.0462 -0.9621  1.1088
 7788SOL    HW234824   3.219   2.586  10.332  0.4950 -0.4642  1.1521
 7789SOL     OW34825   4.442   0.318   6.761 -0.1375  0.0336  0.3687
 7789SOL    HW134826   4.367   0.345   6.708  1.0135 -1.3463 -1.9069
 7789SOL    HW234827   4.507   0.300   6.694  0.3270 -0.8520  1.0523
 7790SOL     OW34828   0.735   2.027  14.102  0.3330  0.1631 -0.3811
 7790SOL    HW134829   0.641   2.016  14.084 -0.0034 -3.0478  3.4419
 7790SOL    HW234830   0.775   1.969  14.037 -3.7360 -2.5198 -0.5216
 7791SOL     OW34831   4.421   3.333   8.533 -0.1643 -0.2073  0.1780
 7791SOL    HW134832   4.485   3.289   8.588  0.5667  0.9067  0.2192
 7791SOL    HW234833   4.363   3.257   8.529  1.3953 -1.5206  2.2783
 7792SOL     OW34834   0.053   2.775   5.511 -0.0361  0.1830  0.2451
 7792SOL    HW134835   0.094   2.796   5.596 -1.6203 -1.5808  1.4423
 7792SOL    HW234836   0.066   2.680   5.508 -2.3772 -0.0769 -1.3680
 7793SOL     OW34837   0.252   3.419  17.096 -0.5303  0.5648  0.1771
 7793SOL    HW134838   0.326   3.358  17.108 -0.8992 -0.1585 -1.2624
 7793SOL    HW234839   0.286   3.502  17.129  0.1488  0.7636 -1.0361
 7794SOL     OW34840   3.215   1.937   6.828 -0.1552 -0.1482 -0.0534
 7794SOL    HW134841   3.188   2.028   6.829 -0.6799 -0.3264  2.3878
 7794SOL    HW234842   3.309   1.944   6.845 -0.5143  0.5267  1.6283
 7795SOL     OW34843   4.630   3.826   1.809  0.2362 -0.2257  0.1285
 7795SOL    HW134844   4.683   3.867   1.877 -0.0850  2.3883 -1.2382
 7795SOL    HW234845   4.559   3.787   1.861 -0.2394  1.1362  0.4946
 7796SOL     OW34846   3.251   1.879  14.902  0.1392  0.1592 -0.4019
 7796SOL    HW134847   3.193   1.807  14.880  3.9116 -2.7761 -0.6426
 7796SOL    HW234848   3.200   1.916  14.975 -0.7622  0.2508 -1.0798
 7797SOL     OW34849   0.020   1.670  10.461  0.1015 -0.2442 -0.1874
 7797SOL    HW134850   4.686   1.644  10.388  0.6142  2.1736 -1.4626
 7797SOL    HW234851   4.698   1.622  10.531 -0.0760 -1.7986 -1.3509
 7798SOL     OW34852   2.293   1.449   4.884  0.7787 -0.0770  0.3157
 7798SOL    HW134853   2.344   1.500   4.947 -0.2852 -1.8289  2.5806
 7798SOL    HW234854   2.210   1.497   4.885 -0.1031 -1.6173  0.7199
 7799SOL     OW34855   4.366   2.996  15.308  0.0564  0.0346 -0.4446
 7799SOL    HW134856   4.284   3.044  15.319 -0.5368 -0.5565 -2.3696
 7799SOL    HW234857   4.360   2.956  15.222  0.2794 -2.1556  0.5663
 7800SOL     OW34858   4.560   3.257   9.445  0.3558 -0.1251 -0.2613
 7800SOL    HW134859   4.468   3.265   9.468 -0.3264  0.7154 -3.3699
 7800SOL    HW234860   4.561   3.173   9.399 -0.6907 -0.1645 -0.2110
 7801SOL     OW34861   2.268   3.490   8.263 -0.4507 -0.0855  0.3295
 7801SOL    HW134862   2.201   3.430   8.230 -1.6525  1.6261 -0.3919
 7801SOL    HW234863   2.225   3.575   8.252 -0.7758 -0.3851 -0.6742
 7802SOL     OW34864   0.700   2.585   4.605  0.3968  0.1681 -0.3806
 7802SOL    HW134865   0.750   2.623   4.678  0.6662  0.1144 -0.5373
 7802SOL    HW234866   0.758   2.570   4.531  1.8245 -0.6476  0.9036
 7803SOL     OW34867   1.467   4.064   1.385  0.7571  0.1095 -0.6632
 7803SOL    HW134868   1.476   4.104   1.472  2.2710  0.1597 -0.8365
 7803SOL    HW234869   1.512   3.982   1.407 -0.1817 -0.2812 -0.2051
 7804SOL     OW34870   2.658   0.142   4.251  0.5444  0.4791 -0.7651
 7804SOL    HW134871   2.679   0.201   4.178  1.4447  1.8439  0.6149
 7804SOL    HW234872   2.657   0.055   4.209  2.2845  0.5500 -0.9900
 7805SOL     OW34873   0.732   0.362   5.024  0.3213  0.0720  0.1043
 7805SOL    HW134874   0.690   0.296   5.079 -0.4755  0.5002  0.0259
 7805SOL    HW234875   0.807   0.386   5.077  1.3451 -1.4516 -0.6695
 7806SOL     OW34876   0.389   2.152   7.456  0.0552 -0.1641  0.2115
 7806SOL    HW134877   0.396   2.242   7.425  1.8435 -0.9299 -1.5673
 7806SOL    HW234878   0.295   2.158   7.474 -0.0081  1.3766 -0.6488
 7807SOL     OW34879   3.971   1.638  15.482  0.0299 -0.3816 -0.1413
 7807SOL    HW134880   3.949   1.730  15.487  1.6560  0.0511 -0.8142
 7807SOL    HW234881   4.061   1.634  15.449 -0.2048 -1.6352 -0.6449
 7808SOL     OW34882   4.566   0.656   8.020 -0.2523  0.1952  0.5894
 7808SOL    HW134883   4.525   0.581   7.977  1.4367  0.5288 -1.5867
 7808SOL    HW234884   4.541   0.727   7.961  3.0506 -0.5044 -1.6300
 7809SOL     OW34885   2.800   2.432   6.847  0.0477 -0.4622 -0.1252
 7809SOL    HW134886   2.804   2.478   6.763 -1.1236  1.7391  1.0340
 7809SOL    HW234887   2.867   2.366   6.828  1.5799  0.6464  1.3813
 7810SOL     OW34888   2.934   2.039   3.579  0.0741 -0.0950 -0.5975
 7810SOL    HW134889   2.977   1.985   3.645  0.0257  0.0125 -0.4757
 7810SOL    HW234890   2.875   2.099   3.626 -0.6037 -0.9580 -0.3425
 7811SOL     OW34891   0.703   4.162   8.052 -0.3917 -1.1336 -0.5233
 7811SOL    HW134892   0.721   4.168   7.958  2.5468  0.6989  0.1799
 7811SOL    HW234893   0.607   4.156   8.056 -0.3775 -2.4844 -1.9541
 7812SOL     OW34894   1.753   4.117   6.056 -0.0030 -0.0647  0.4301
 7812SOL    HW134895   1.790   4.121   6.144 -1.4155 -0.4878  1.0437
 7812SOL    HW234896   1.747   4.025   6.033 -0.0176  0.8913 -3.4798
 7813SOL     OW34897   3.495   1.935   6.904 -0.6611  0.2797  0.1987
 7813SOL    HW134898   3.563   1.871   6.883 -0.6440  0.6156 -0.7636
 7813SOL    HW234899   3.551   2.012   6.915  0.3077 -0.6617  1.8493
 7814SOL     OW34900   2.008   4.690   5.526 -0.2408 -0.5682 -0.4304
 7814SOL    HW134901   1.954   4.615   5.550  1.1662 -1.6910 -0.7516
 7814SOL    HW234902   1.980   4.705   5.436  0.3776  0.4841 -0.4417
 7815SOL     OW34903   2.343   1.527   6.487  0.1140 -0.0509 -0.4746
 7815SOL    HW134904   2.311   1.438   6.498 -0.3627  0.2613  0.7005
 7815SOL    HW234905   2.426   1.518   6.440  0.3624 -2.8327  0.5207
 7816SOL     OW34906   0.535   0.689   7.288 -0.0544  0.4924 -0.0261
 7816SOL    HW134907   0.462   0.629   7.300  1.5129 -1.1758  1.1493
 7816SOL    HW234908   0.524   0.705   7.194  1.1822 -2.0628 -0.6096
 7817SOL     OW34909   2.669   4.097   8.165  0.1423  0.0118  0.4108
 7817SOL    HW134910   2.623   4.136   8.091  3.1498 -0.1414 -1.5414
 7817SOL    HW234911   2.625   4.140   8.238  0.3954 -1.0339  1.1862
 7818SOL     OW34912   3.381   0.771   1.885 -0.3379 -0.6942 -0.0506
 7818SOL    HW134913   3.318   0.820   1.938  1.0228  0.6168  0.3870
 7818SOL    HW234914   3.320   0.729   1.825  0.2245 -1.7855  0.1504
 7819SOL     OW34915   3.279   1.206  17.452 -0.0735 -0.2971 -0.4329
 7819SOL    HW134916   3.252   1.298  17.457  0.5956 -0.1860  1.0116
 7819SOL    HW234917   3.350   1.221  17.389  0.2072  2.1816  0.4888
 7820SOL     OW34918   1.356   1.365  10.993 -0.2217 -0.6003  0.3554
 7820SOL    HW134919   1.349   1.434  11.058  1.8845 -1.3927  1.3899
 7820SOL    HW234920   1.443   1.326  10.995 -0.7719 -1.8132  0.7390
 7821SOL     OW34921   4.492   1.127   0.214  0.8132 -0.1190  0.1729
 7821SOL    HW134922   4.399   1.153   0.217  1.2078  1.4478 -0.8028
 7821SOL    HW234923   4.479   1.080   0.132  1.1824 -0.9625  0.6042
 7822SOL     OW34924   4.035   4.685   9.076 -0.3545  0.1931  0.2320
 7822SOL    HW134925   4.089   4.644   9.144 -1.0426  0.0545  0.7032
 7822SOL    HW234926   3.954   4.683   9.128 -0.2357 -0.7458  0.3862
 7823SOL     OW34927   2.961   3.557   3.623 -0.1395 -0.8365  0.2905
 7823SOL    HW134928   2.875   3.595   3.605 -0.7220 -2.2222  0.1756
 7823SOL    HW234929   2.968   3.482   3.565  0.9926 -0.0485 -0.5957
 7824SOL     OW34930   4.393   3.434   1.512 -0.3742  0.0838  0.5080
 7824SOL    HW134931   4.323   3.491   1.544 -1.5277 -1.3512  0.5483
 7824SOL    HW234932   4.451   3.436   1.589  0.5164  3.0558 -0.2651
 7825SOL     OW34933   1.339   2.310  15.108 -0.2312  0.7795  0.1220
 7825SOL    HW134934   1.284   2.388  15.112 -1.3623 -0.0615  0.8383
 7825SOL    HW234935   1.429   2.338  15.092  0.4831 -0.5839  1.7677
 7826SOL     OW34936   0.242   3.572   4.392  0.1682 -0.5303  0.3214
 7826SOL    HW134937   0.261   3.483   4.361  1.4335  0.2775 -1.2360
 7826SOL    HW234938   0.309   3.633   4.363  0.0632 -0.2779  0.6117
 7827SOL     OW34939   1.245   3.818   0.450  0.1382  0.1730  0.5025
 7827SOL    HW134940   1.241   3.849   0.359  0.1769  2.6116  1.3280
 7827SOL    HW234941   1.213   3.728   0.444  2.2078 -0.5124 -0.1303
 7828SOL     OW34942   1.369   4.307  15.452  0.2453  0.5236  0.2420
 7828SOL    HW134943   1.283   4.337  15.422  0.0028 -0.8369 -0.4587
 7828SOL    HW234944   1.362   4.213  15.433  1.4943  0.8341 -1.7271
 7829SOL     OW34945   3.987   0.808  17.581 -0.2430  0.4902 -0.7244
 7829SOL    HW134946   4.012   0.851  17.500  2.0351  2.9321  1.2478
 7829SOL    HW234947   4.015   0.721  17.554  0.8902 -0.3201  3.0680
 7830SOL     OW34948   3.915   0.297   7.515 -0.1950  0.7639  0.5073
 7830SOL    HW134949   3.966   0.378   7.522 -0.3838  0.9814 -0.7042
 7830SOL    HW234950   3.828   0.334   7.496 -0.8762 -2.9224 -3.5658
 7831SOL     OW34951   0.795   4.522   6.224  0.3336  0.2971 -0.6704
 7831SOL    HW134952   0.768   4.484   6.307  2.6720 -0.9582 -0.4908
 7831SOL    HW234953   0.721   4.495   6.169  0.3948  0.0121 -0.6149
 7832SOL     OW34954   3.230   2.625  16.143 -0.1211 -0.3529 -0.3333
 7832SOL    HW134955   3.317   2.663  16.133  1.0447 -2.7582  0.5028
 7832SOL    HW234956   3.223   2.598  16.235 -0.0825 -0.7098 -0.4354
 7833SOL     OW34957   3.065   1.011   5.382  0.4574  0.0983  0.0427
 7833SOL    HW134958   2.996   1.025   5.447  0.3696  0.5856 -0.1503
 7833SOL    HW234959   3.096   0.922   5.393  2.0323  0.7406  0.8403
 7834SOL     OW34960   2.107   2.183   2.616 -0.2816  0.2756 -0.7027
 7834SOL    HW134961   2.077   2.093   2.622  3.2497 -0.7702  0.7271
 7834SOL    HW234962   2.043   2.215   2.552 -1.5015  0.0259  0.3690
 7835SOL     OW34963   1.882   4.360   9.812  0.6160 -0.2115 -0.0241
 7835SOL    HW134964   1.956   4.383   9.869  1.2387 -0.7739 -0.6144
 7835SOL    HW234965   1.910   4.282   9.765 -3.1647 -0.7137 -1.4174
 7836SOL     OW34966   2.342   1.742   7.568 -0.2436 -0.2798  0.3549
 7836SOL    HW134967   2.374   1.827   7.539  0.5035 -0.4784  0.6034
 7836SOL    HW234968   2.387   1.691   7.501 -1.3203  0.8431 -1.2284
 7837SOL     OW34969   2.909   4.468   1.917  0.1925 -0.1721  0.1758
 7837SOL    HW134970   2.846   4.517   1.969 -0.0435 -0.1355 -0.1502
 7837SOL    HW234971   2.981   4.531   1.912  1.3075 -1.4054  0.7397
 7838SOL     OW34972   0.097   0.733  15.197 -0.2722 -0.2601  0.0490
 7838SOL    HW134973   0.187   0.702  15.205 -0.8347 -1.9393 -0.0314
 7838SOL    HW234974   0.079   0.687  15.115  0.2750 -1.8623  0.8209
 7839SOL     OW34975   3.041   4.574  10.059  0.0726 -0.2943  0.1704
 7839SOL    HW134976   3.136   4.573  10.067  0.2616 -0.0035 -2.0134
 7839SOL    HW234977   3.016   4.658  10.020  0.2184 -0.4462 -0.2618
 7840SOL     OW34978   3.119   1.623   8.070  0.5493  0.2598 -0.1835
 7840SOL    HW134979   3.191   1.577   8.113 -0.0270 -0.3536  0.1126
 7840SOL    HW234980   3.053   1.610   8.137  1.4392 -0.4073  0.5592
 7841SOL     OW34981   2.305   3.633  16.924  0.0583 -0.2823 -0.2088
 7841SOL    HW134982   2.244   3.706  16.922  1.2460  0.6755 -1.7463
 7841SOL    HW234983   2.284   3.584  17.003 -0.7101 -0.7890 -0.7317
 7842SOL     OW34984   3.293   3.201   8.646  0.1410  0.7213  0.0535
 7842SOL    HW134985   3.384   3.231   8.652 -0.0729  0.9535  2.2536
 7842SOL    HW234986   3.257   3.261   8.580 -1.3849 -1.0131 -0.6806
 7843SOL     OW34987   2.844   3.888   7.753 -0.4265  0.0042 -1.0409
 7843SOL    HW134988   2.920   3.916   7.703 -1.1148  2.4472 -0.7356
 7843SOL    HW234989   2.872   3.931   7.834 -1.3054 -2.3742  0.5180
 7844SOL     OW34990   1.615   2.929   4.161  0.0177  0.7634 -0.1895
 7844SOL    HW134991   1.609   3.023   4.178 -2.5268  0.4020  1.0132
 7844SOL    HW234992   1.710   2.917   4.167 -0.3609 -1.1456  1.9867
 7845SOL     OW34993   4.686   3.585  15.450 -0.2786  0.1732  0.0100
 7845SOL    HW134994   0.027   3.633  15.396 -1.8521  0.4609 -1.6046
 7845SOL    HW234995   4.692   3.501  15.405  1.3643  0.1154  0.3077
 7846SOL     OW34996   0.280   0.129  17.614 -0.4426  0.4869  0.4187
 7846SOL    HW134997   0.226   0.052  17.598  0.3349 -0.1526  0.8180
 7846SOL    HW234998   0.329   0.072  17.673 -2.9439  0.5802  2.5754
 7847SOL     OW34999   2.578   4.268   7.703 -0.4481 -0.5922  0.6940
 7847SOL    HW135000   2.591   4.174   7.710  0.4450 -0.4657  0.7308
 7847SOL    HW235001   2.663   4.297   7.670 -0.2750 -0.5162  1.2183
 7848SOL     OW35002   1.318   1.483   6.178 -0.0156  0.6717 -0.3487
 7848SOL    HW135003   1.355   1.444   6.258  1.2433 -0.4824 -1.4879
 7848SOL    HW235004   1.234   1.439   6.169 -1.0239  2.3808  0.6877
 7849SOL     OW35005   3.174   1.155  12.044  0.0485  0.6481 -0.0199
 7849SOL    HW135006   3.157   1.064  12.068 -2.2164  0.7661 -1.1982
 7849SOL    HW235007   3.235   1.170  12.117 -0.9618  2.0310  0.5487
 7850SOL     OW35008   1.979   4.257   5.772  0.2424  0.1333  0.0111
 7850SOL    HW135009   1.951   4.166   5.768  0.7391 -0.0037 -0.3378
 7850SOL    HW235010   2.071   4.243   5.747 -0.4829 -2.6416 -1.0301
 7851SOL     OW35011   3.145   0.944   0.575  0.4619  0.2222 -0.4700
 7851SOL    HW135012   3.156   0.856   0.539 -0.4836 -0.4644  0.9312
 7851SOL    HW235013   3.115   0.996   0.500  0.1854  2.2020  0.9975
 7852SOL     OW35014   3.701   3.947   3.213  0.3750  0.5597 -0.3335
 7852SOL    HW135015   3.697   3.853   3.226  0.6687  0.8459  1.8670
 7852SOL    HW235016   3.611   3.971   3.191  0.1027 -1.8024 -1.7233
 7853SOL     OW35017   1.308   0.362   9.567  0.3147 -0.1085 -0.4766
 7853SOL    HW135018   1.325   0.454   9.588 -0.9883  0.2616 -1.0348
 7853SOL    HW235019   1.225   0.342   9.611  1.1042 -1.0183  0.5916
 7854SOL     OW35020   1.676   2.133   5.131  0.8548  0.2299 -0.1215
 7854SOL    HW135021   1.584   2.129   5.107  1.0630  0.2411 -0.8998
 7854SOL    HW235022   1.668   2.138   5.227  2.8575  1.6645 -0.0134
 7855SOL     OW35023   1.329   3.295   5.003 -0.1137 -0.0727 -0.0124
 7855SOL    HW135024   1.265   3.349   5.048 -1.3566  0.5904 -2.5759
 7855SOL    HW235025   1.288   3.211   5.022 -0.5447  0.5624  1.8615
 7856SOL     OW35026   2.328   3.410   6.804 -0.7315  0.0440 -0.5594
 7856SOL    HW135027   2.405   3.467   6.807  1.0110 -2.3354  0.0793
 7856SOL    HW235028   2.286   3.436   6.722 -3.3353 -0.1789  0.7084
 7857SOL     OW35029   0.341   2.581   1.065  0.0285 -0.6777  0.5265
 7857SOL    HW135030   0.330   2.524   1.142 -1.7684 -0.1967  0.6395
 7857SOL    HW235031   0.380   2.514   1.009 -0.0815 -1.3492  1.2589
 7858SOL     OW35032   0.334   0.631  13.007  0.2835 -0.3715 -0.5974
 7858SOL    HW135033   0.305   0.544  13.035  0.3170 -1.3116 -3.4302
 7858SOL    HW235034   0.413   0.637  13.061  0.5000 -2.2101 -0.7236
 7859SOL     OW35035   2.113   1.415  13.160  0.0009 -0.0782  0.1694
 7859SOL    HW135036   2.095   1.424  13.066  2.0980  0.2455 -0.2165
 7859SOL    HW235037   2.100   1.321  13.172 -0.0209 -0.1817 -0.6572
 7860SOL     OW35038   3.742   1.476   4.022 -0.2426 -0.0154  0.3325
 7860SOL    HW135039   3.749   1.428   3.940  1.3125  2.2864 -0.8811
 7860SOL    HW235040   3.657   1.518   4.010 -0.6516 -0.5323  1.4390
 7861SOL     OW35041   0.810   1.143   1.192  0.2994 -0.0203 -0.1011
 7861SOL    HW135042   0.743   1.158   1.259  2.2881  0.0445  1.8700
 7861SOL    HW235043   0.885   1.128   1.250  0.6553 -3.7702 -1.5061
 7862SOL     OW35044   0.615   1.730   5.243  0.1959 -0.1393  0.2484
 7862SOL    HW135045   0.595   1.643   5.279 -0.9494  0.4090  0.9323
 7862SOL    HW235046   0.699   1.720   5.198 -0.5766  0.5301 -1.3344
 7863SOL     OW35047   0.124   4.044   6.752 -0.2726 -0.6210 -0.1975
 7863SOL    HW135048   0.086   3.989   6.821  2.0259 -1.4596  0.3683
 7863SOL    HW235049   0.040   4.075   6.716 -0.4003 -1.6814 -0.7893
 7864SOL     OW35050   3.108   0.798   2.055 -0.4140 -0.4359  0.0303
 7864SOL    HW135051   3.136   0.871   1.999 -0.5383  0.8894  1.6876
 7864SOL    HW235052   3.047   0.834   2.120  1.8568 -1.4534  2.7209
 7865SOL     OW35053   2.590   0.344   6.500  0.2703 -0.0601 -0.0514
 7865SOL    HW135054   2.657   0.299   6.551  0.0488  2.5685  2.5347
 7865SOL    HW235055   2.631   0.426   6.477  0.2532  0.3234  1.2903
 7866SOL     OW35056   4.476   3.113   7.550  0.0763  0.1082 -0.2843
 7866SOL    HW135057   4.459   3.064   7.631 -0.3988 -0.2103 -0.5748
 7866SOL    HW235058   4.572   3.118   7.547  0.2675 -2.6911  0.4913
 7867SOL     OW35059   0.383   3.362   4.295 -0.0394 -0.0406 -0.2395
 7867SOL    HW135060   0.440   3.399   4.228  0.9287  0.7504  1.0216
 7867SOL    HW235061   0.453   3.312   4.338  0.5375  3.1823  2.5876
 7868SOL     OW35062   0.447   1.591   3.507  0.4689 -0.0377  0.7148
 7868SOL    HW135063   0.478   1.639   3.429 -0.0599 -0.5090  0.2113
 7868SOL    HW235064   0.359   1.569   3.476  1.1997  2.8985 -3.5067
 7869SOL     OW35065   0.650   3.939   3.338 -0.0449  0.0054  0.1756
 7869SOL    HW135066   0.615   3.939   3.427 -0.2471 -0.8935  0.0956
 7869SOL    HW235067   0.692   3.853   3.330  1.4183  0.7973 -0.7201
 7870SOL     OW35068   1.141   0.693  14.934  0.2492 -0.0821 -0.6091
 7870SOL    HW135069   1.216   0.664  14.882 -1.1762 -1.5208 -1.8323
 7870SOL    HW235070   1.101   0.606  14.944  2.1427 -0.7973  0.8826
 7871SOL     OW35071   2.767   2.032  14.466 -0.4550 -0.3045  0.3997
 7871SOL    HW135072   2.843   2.006  14.517 -1.8391 -5.8050 -0.3816
 7871SOL    HW235073   2.793   2.012  14.376 -0.5113  2.4371 -0.2217
 7872SOL     OW35074   1.694   4.410   4.807  0.0031  0.6160 -0.4489
 7872SOL    HW135075   1.784   4.441   4.815  0.2402 -0.8071  2.2340
 7872SOL    HW235076   1.648   4.462   4.872  1.0781 -0.4689  1.1849
 7873SOL     OW35077   4.271   2.057   3.572 -0.5250 -0.1523  0.3353
 7873SOL    HW135078   4.316   1.987   3.526 -1.5877  2.1097 -4.1284
 7873SOL    HW235079   4.347   2.108   3.599 -1.2948  1.5387 -0.6881
 7874SOL     OW35080   2.989   3.184  14.409 -0.3703  0.1265 -0.2637
 7874SOL    HW135081   2.957   3.222  14.491 -1.2212  0.9180 -0.9501
 7874SOL    HW235082   2.920   3.205  14.346 -1.5948 -3.5086 -0.1417
 7875SOL     OW35083   4.046   3.201  12.837  0.0990 -0.2942 -0.1821
 7875SOL    HW135084   4.017   3.283  12.877  1.5107  0.4947 -0.7754
 7875SOL    HW235085   4.129   3.228  12.798 -0.6071 -0.0189 -1.4896
 7876SOL     OW35086   0.241   2.564   1.903  0.2255  0.1055  0.2279
 7876SOL    HW135087   0.335   2.567   1.886 -0.1179 -2.9508 -2.0883
 7876SOL    HW235088   0.230   2.658   1.920 -0.0058  0.3503 -1.2002
 7877SOL     OW35089   4.454   0.432   4.094 -0.6161  0.4579  0.0583
 7877SOL    HW135090   4.390   0.491   4.053  1.0792  0.5510 -2.4749
 7877SOL    HW235091   4.425   0.425   4.185 -0.6977 -1.4650 -0.1069
 7878SOL     OW35092   3.714   1.890   5.482  0.1487  0.3149  0.1633
 7878SOL    HW135093   3.691   1.901   5.389  2.8152 -0.5563 -0.6225
 7878SOL    HW235094   3.801   1.930   5.472 -0.7547  2.4069  0.5406
 7879SOL     OW35095   0.605   0.791  16.466  0.3087  0.3060  0.3148
 7879SOL    HW135096   0.523   0.821  16.429  0.6027 -0.5268 -1.0009
 7879SOL    HW235097   0.592   0.696  16.462  2.2825  0.0884 -1.1075
 7880SOL     OW35098   2.341   2.980   7.404  0.5687  0.0759  0.0599
 7880SOL    HW135099   2.397   3.055   7.381  0.9203 -0.9940 -2.5702
 7880SOL    HW235100   2.401   2.909   7.425 -1.3344 -1.3343  0.7142
 7881SOL     OW35101   2.676   0.102  13.232 -0.4846 -0.4449 -0.0170
 7881SOL    HW135102   2.770   0.115  13.222 -0.6611  2.0860  1.6960
 7881SOL    HW235103   2.659   0.070  13.143  1.0118 -0.3112 -0.3535
 7882SOL     OW35104   0.233   4.450   1.833  0.1400  0.0604  0.1988
 7882SOL    HW135105   0.200   4.492   1.913 -2.4048 -0.5491 -0.5334
 7882SOL    HW235106   0.163   4.476   1.774  0.3083  0.5669  0.2219
 7883SOL     OW35107   3.679   2.745   7.118 -0.1626 -0.3532  0.3689
 7883SOL    HW135108   3.612   2.694   7.073  1.3374  0.0117 -2.2939
 7883SOL    HW235109   3.666   2.707   7.204  1.4099 -0.9427  0.3522
 7884SOL     OW35110   1.237   0.807  13.097 -0.3703  0.6383 -0.2086
 7884SOL    HW135111   1.323   0.822  13.137 -0.9030  1.4262  0.6602
 7884SOL    HW235112   1.180   0.849  13.161 -0.3835  2.2672 -1.2878
 7885SOL     OW35113   3.351   2.477  12.737  0.2400 -0.0459  0.6732
 7885SOL    HW135114   3.339   2.453  12.829 -0.7788 -1.9668  0.0417
 7885SOL    HW235115   3.384   2.395  12.701 -0.1376  0.4139 -0.6990
 7886SOL     OW35116   0.310   2.707  10.275 -0.6728  0.3625 -0.1208
 7886SOL    HW135117   0.231   2.753  10.304 -0.4791  0.4342  0.2892
 7886SOL    HW235118   0.273   2.631  10.231 -1.2455  2.5160 -3.3237
 7887SOL     OW35119   3.388   3.243   1.144  0.0684 -0.1207  1.2400
 7887SOL    HW135120   3.353   3.198   1.067  1.1256  1.8792 -0.3842
 7887SOL    HW235121   3.376   3.168   1.203 -2.4543 -1.0178 -0.3931
 7888SOL     OW35122   3.430   3.477   1.464 -0.1182  0.7753  0.0489
 7888SOL    HW135123   3.336   3.474   1.447 -0.0186  0.9067 -0.5496
 7888SOL    HW235124   3.444   3.570   1.447  1.0574  0.5490 -0.2101
 7889SOL     OW35125   2.396   0.777   2.636 -0.2433 -1.1549  0.1254
 7889SOL    HW135126   2.345   0.799   2.558 -1.6522 -0.8252  1.1241
 7889SOL    HW235127   2.327   0.806   2.695 -1.7647 -1.4651 -1.5011
 7890SOL     OW35128   0.630   1.208   1.990  0.1266  0.1813  0.2663
 7890SOL    HW135129   0.615   1.291   1.946 -0.2732 -1.0376 -1.8887
 7890SOL    HW235130   0.712   1.177   1.950  0.5644  0.5443  0.8731
 7891SOL     OW35131   1.509   3.286   7.159 -0.1452 -0.3495 -0.2038
 7891SOL    HW135132   1.469   3.240   7.232 -1.2773 -0.9420 -1.2013
 7891SOL    HW235133   1.593   3.240   7.152  0.7283  1.1973  0.1992
 7892SOL     OW35134   0.576   0.098   8.403 -0.4819  0.2196  0.1768
 7892SOL    HW135135   0.624   0.171   8.443  1.2205  0.5885 -2.5323
 7892SOL    HW235136   0.585   0.115   8.309  2.4344  2.0408  0.7518
 7893SOL     OW35137   1.811   0.299  16.521  0.0124 -0.6489 -0.2124
 7893SOL    HW135138   1.784   0.231  16.582  0.7521 -0.5322  0.2396
 7893SOL    HW235139   1.852   0.361  16.582  0.7827 -2.1612  0.7888
 7894SOL     OW35140   3.668   4.480   4.536  0.1738 -0.1220  0.5675
 7894SOL    HW135141   3.663   4.559   4.482 -1.8239 -0.3254  0.4499
 7894SOL    HW235142   3.576   4.466   4.561  0.2596  0.7447  1.3778
 7895SOL     OW35143   0.883   1.953   3.600  0.5346  0.7949  0.5178
 7895SOL    HW135144   0.794   1.917   3.604  0.3180  1.1813 -1.0453
 7895SOL    HW235145   0.864   2.028   3.656  1.3940  0.5784  1.0947
 7896SOL     OW35146   2.718   1.460  13.119 -0.0057 -0.0443  0.0225
 7896SOL    HW135147   2.624   1.444  13.123 -0.2130  0.5972 -1.9535
 7896SOL    HW235148   2.725   1.507  13.202 -2.1319  0.8348 -0.3017
 7897SOL     OW35149   1.129   2.544  17.026 -0.2864  0.0842  0.3882
 7897SOL    HW135150   1.098   2.556  16.937  1.1894  1.5275  0.0617
 7897SOL    HW235151   1.087   2.460  17.046 -0.8694 -0.2719 -2.4428
 7898SOL     OW35152   0.352   2.567   4.974  0.2059  0.6038  0.1194
 7898SOL    HW135153   0.407   2.520   4.911  0.8114  1.6159 -0.1221
 7898SOL    HW235154   0.407   2.644   4.991  2.5534 -0.6130 -1.9759
 7899SOL     OW35155   0.222   3.051  11.284 -0.1940 -0.2895 -0.7225
 7899SOL    HW135156   0.203   3.046  11.378  1.7669  2.1681 -0.1792
 7899SOL    HW235157   0.261   2.964  11.278  0.5586  0.0218 -0.4542
 7900SOL     OW35158   1.600   4.293   8.965 -0.3015 -0.0285  0.3587
 7900SOL    HW135159   1.629   4.236   9.037  1.0295  1.5064  1.0150
 7900SOL    HW235160   1.594   4.379   9.005  2.3516 -0.6463  2.0866
 7901SOL     OW35161   4.593   2.143   9.728  0.2334 -0.6162  0.3688
 7901SOL    HW135162   4.580   2.185   9.813 -0.8913  0.8455 -0.5277
 7901SOL    HW235163   4.503   2.140   9.696  0.4387  0.3661 -0.2940
 7902SOL     OW35164   0.100   1.494   5.577  0.5511  0.4409 -0.1219
 7902SOL    HW135165   0.177   1.552   5.575  0.4212  0.5904 -0.7792
 7902SOL    HW235166   0.050   1.538   5.646 -1.8530 -0.1900 -1.4731
 7903SOL     OW35167   4.098   0.380   0.533  0.1360 -0.2347  0.6484
 7903SOL    HW135168   4.189   0.370   0.503  0.0626  0.9564 -0.0081
 7903SOL    HW235169   4.119   0.398   0.624  2.5551 -1.4714  0.3287
 7904SOL     OW35170   0.708   0.162   6.102 -0.1415  0.0982 -0.1618
 7904SOL    HW135171   0.766   0.184   6.030  1.3309  3.9521  2.2016
 7904SOL    HW235172   0.659   0.240   6.130  0.6336  0.2758  0.6866
 7905SOL     OW35173   3.781   0.106  12.491  0.1737 -0.0318 -0.5125
 7905SOL    HW135174   3.703   0.159  12.506  0.1140 -0.8946  2.2224
 7905SOL    HW235175   3.840   0.173  12.457  1.2969 -0.7908 -0.0560
 7906SOL     OW35176   3.674   1.503   1.431  0.0493  0.0146 -0.5680
 7906SOL    HW135177   3.671   1.446   1.508  1.6319 -1.2196 -1.4300
 7906SOL    HW235178   3.749   1.560   1.446  0.9685 -1.2230 -0.5231
 7907SOL     OW35179   4.366   2.024   7.316  0.5653  0.2641  0.2690
 7907SOL    HW135180   4.333   2.064   7.396 -2.7926  0.6482 -1.2917
 7907SOL    HW235181   4.458   2.030   7.341  0.6743 -0.2423 -0.0075
 7908SOL     OW35182   4.463   3.026   3.959  0.4601  0.1538  0.3817
 7908SOL    HW135183   4.539   3.013   3.901  0.6199 -0.4285  0.7271
 7908SOL    HW235184   4.497   3.034   4.048  1.4111 -0.0727  0.0448
 7909SOL     OW35185   2.728   3.063   7.508 -0.8306  0.0940  0.2160
 7909SOL    HW135186   2.721   3.140   7.564 -2.3670 -0.7289  1.1745
 7909SOL    HW235187   2.719   2.988   7.566 -0.8749 -0.9131 -1.0758
 7910SOL     OW35188   3.172   3.216   0.793 -0.4840  0.0094  0.1041
 7910SOL    HW135189   3.201   3.300   0.756  0.4829 -0.0120  0.8042
 7910SOL    HW235190   3.132   3.171   0.719 -0.8198 -0.7643  0.7615
 7911SOL     OW35191   3.373   1.999   0.989 -0.1135 -0.2780 -0.5777
 7911SOL    HW135192   3.462   2.022   1.018 -0.3421  0.1864 -0.2501
 7911SOL    HW235193   3.324   2.069   1.033  0.6598  0.4294 -0.8355
 7912SOL     OW35194   0.532   4.463   6.145  0.9468  0.5277 -0.4717
 7912SOL    HW135195   0.537   4.410   6.066  0.4592 -0.2972  0.0469
 7912SOL    HW235196   0.517   4.395   6.211 -1.1490  0.5684 -0.8863
 7913SOL     OW35197   3.093   3.565   6.829 -0.3757 -0.2305  0.1990
 7913SOL    HW135198   3.009   3.529   6.859 -0.6812  1.5057  1.4154
 7913SOL    HW235199   3.143   3.483   6.827  0.3951  0.2465  0.1107
 7914SOL     OW35200   2.234   0.924  11.775  0.8568  0.2839  0.4233
 7914SOL    HW135201   2.203   0.976  11.700  1.9652  1.9795  1.1372
 7914SOL    HW235202   2.230   0.840  11.730 -1.5429  0.3290  0.5629
 7915SOL     OW35203   1.888   1.487   8.858  0.5383  0.7382 -0.2070
 7915SOL    HW135204   1.923   1.414   8.806 -2.2285 -1.4224  0.9683
 7915SOL    HW235205   1.972   1.529   8.876  1.0408  0.2732 -1.4293
 7916SOL     OW35206   3.428   3.961   9.279  0.2933  0.0670 -0.5529
 7916SOL    HW135207   3.333   3.962   9.290  0.5830 -0.3392  2.0157
 7916SOL    HW235208   3.441   4.047   9.318 -1.4446  0.1717 -0.1944
 7917SOL     OW35209   0.900   0.993  13.934  0.5771 -0.4764  0.5747
 7917SOL    HW135210   0.828   0.933  13.954 -0.3678  0.6439  0.4908
 7917SOL    HW235211   0.973   0.951  13.978 -0.3346  0.3903  2.8857
 7918SOL     OW35212   3.536   1.602   2.125 -0.3140 -0.4959 -0.3696
 7918SOL    HW135213   3.510   1.587   2.034  0.3822  0.1976 -0.6846
 7918SOL    HW235214   3.606   1.664   2.106 -0.2761 -0.6737 -0.8050
 7919SOL     OW35215   0.607   1.900  17.595 -0.3628 -0.1567 -0.3890
 7919SOL    HW135216   0.543   1.866  17.532 -0.5850  1.8472 -1.2433
 7919SOL    HW235217   0.590   1.994  17.589 -0.5247 -0.2199 -0.9574
 7920SOL     OW35218   0.578   3.832   2.037  0.0515  0.4641  0.7226
 7920SOL    HW135219   0.576   3.864   1.947  2.3848 -0.7157  0.2384
 7920SOL    HW235220   0.628   3.750   2.027  0.8776  1.0443  0.0322
 7921SOL     OW35221   1.183   0.453   2.500 -0.8477 -0.3603  0.5306
 7921SOL    HW135222   1.094   0.421   2.514 -1.2322  0.6521  0.4192
 7921SOL    HW235223   1.248   0.386   2.523  1.5977  1.1673 -1.9479
 7922SOL     OW35224   1.433   3.920   4.310 -0.3304  0.2239 -0.0852
 7922SOL    HW135225   1.423   3.886   4.221  1.5081 -1.5646  0.3996
 7922SOL    HW235226   1.503   3.867   4.346 -2.3417 -0.7844  2.2923
 7923SOL     OW35227   4.317   3.031  12.507 -0.4538 -0.7826  0.2478
 7923SOL    HW135228   4.295   3.112  12.460 -1.0205 -0.0969  1.6831
 7923SOL    HW235229   4.255   3.024  12.580 -1.3333 -3.6916 -0.8242
 7924SOL     OW35230   1.563   4.035   3.471  0.2214 -0.8922  0.2089
 7924SOL    HW135231   1.532   3.945   3.484 -2.6279  0.0790  0.1131
 7924SOL    HW235232   1.613   4.019   3.390 -2.0061 -1.3128 -1.0942
 7925SOL     OW35233   4.659   3.042   4.458  0.3535 -0.4130  0.3523
 7925SOL    HW135234   0.028   3.016   4.459  0.6501  0.6310  0.7337
 7925SOL    HW235235   4.680   3.134   4.475  0.5574 -1.0990  3.7165
 7926SOL     OW35236   1.200   2.276   4.089  0.8754  0.7564 -0.0109
 7926SOL    HW135237   1.196   2.199   4.032  1.0044  0.7665 -0.0337
 7926SOL    HW235238   1.291   2.262   4.113  0.3360  0.6392  1.9220
 7927SOL     OW35239   2.252   1.407   8.244 -0.0178 -0.7414  0.0573
 7927SOL    HW135240   2.262   1.462   8.167  1.8312 -0.7366  0.2888
 7927SOL    HW235241   2.249   1.320   8.205 -1.2427  0.5276 -2.6048
 7928SOL     OW35242   2.793   3.254  14.885  0.2283 -0.5869  0.0439
 7928SOL    HW135243   2.715   3.248  14.830 -0.0419 -1.9799  0.5704
 7928SOL    HW235244   2.787   3.185  14.951 -0.2400 -1.8502 -1.3193
 7929SOL     OW35245   0.915   2.295   2.345  0.2469 -0.4362  0.0713
 7929SOL    HW135246   0.950   2.384   2.339  2.7660 -1.3522  1.2228
 7929SOL    HW235247   0.927   2.275   2.438  0.4338  2.9658  0.7618
 7930SOL     OW35248   1.217   1.561  13.025  0.4315  0.5820 -0.1327
 7930SOL    HW135249   1.228   1.588  12.934  0.8088  2.4188  0.4552
 7930SOL    HW235250   1.186   1.472  13.012  2.3405 -0.0528 -0.3547
 7931SOL     OW35251   1.099   2.825  14.393 -0.1876 -0.9126 -0.6069
 7931SOL    HW135252   1.055   2.801  14.310  0.7803 -3.2117 -0.4608
 7931SOL    HW235253   1.167   2.758  14.389  1.2623  0.7094 -3.2761
 7932SOL     OW35254   4.142   1.243   4.471  0.3284  0.1674  0.4723
 7932SOL    HW135255   4.148   1.211   4.561  0.8507 -2.4424 -0.4854
 7932SOL    HW235256   4.081   1.316   4.470  0.8530  0.5644 -2.1598
 7933SOL     OW35257   0.017   2.949   8.776 -0.1756 -0.0984 -0.1351
 7933SOL    HW135258   0.048   2.933   8.865 -0.7775  0.8591  0.2376
 7933SOL    HW235259   0.060   2.876   8.731 -0.5843 -0.0110 -0.6622
 7934SOL     OW35260   0.084   0.383  12.851  0.3331 -0.2938 -0.2770
 7934SOL    HW135261   0.005   0.342  12.813 -0.5182  0.8355  0.2958
 7934SOL    HW235262   0.124   0.312  12.902  0.8467  0.0090 -0.2612
 7935SOL     OW35263   0.107   4.124   8.037  0.1859 -0.4092 -0.6351
 7935SOL    HW135264   0.066   4.077   8.110 -0.7476 -1.1954 -1.6580
 7935SOL    HW235265   0.052   4.091   7.965 -0.0586 -0.2444 -0.5233
 7936SOL     OW35266   3.395   2.783  13.859 -0.2747 -0.3301 -0.3002
 7936SOL    HW135267   3.323   2.839  13.886 -1.3810 -2.2238  0.6894
 7936SOL    HW235268   3.449   2.772  13.938 -0.6750 -0.1944 -0.0120
 7937SOL     OW35269   2.276   2.303   8.315  0.5060  0.2954  0.1585
 7937SOL    HW135270   2.321   2.337   8.392 -1.1707  0.4784  1.0369
 7937SOL    HW235271   2.199   2.358   8.305  0.5582  0.3835  0.2415
 7938SOL     OW35272   0.732   3.197   5.839  0.1599  0.3366 -0.6124
 7938SOL    HW135273   0.796   3.170   5.905  0.1870  0.9569 -0.3858
 7938SOL    HW235274   0.692   3.261   5.899 -1.3504  0.6212 -1.9339
 7939SOL     OW35275   1.177   4.000  15.097  0.4138  0.4591 -0.2803
 7939SOL    HW135276   1.167   4.031  15.187  1.4221  0.0171 -0.0219
 7939SOL    HW235277   1.270   4.010  15.077  0.1249  0.1334 -1.7480
 7940SOL     OW35278   4.352   3.333   6.624  0.0147 -0.2686  0.4500
 7940SOL    HW135279   4.421   3.315   6.689  0.4164  1.1138  0.4057
 7940SOL    HW235280   4.402   3.385   6.561  0.8686 -1.1927  0.3644
 7941SOL     OW35281   4.492   4.473  11.793  0.3245 -1.0160  0.0651
 7941SOL    HW135282   4.412   4.434  11.759  0.7672  0.0952 -2.2674
 7941SOL    HW235283   4.547   4.403  11.758 -0.2366 -1.7237  0.6002
 7942SOL     OW35284   2.404   0.788   8.291 -0.2761  0.4491 -0.4130
 7942SOL    HW135285   2.425   0.721   8.356 -0.5393  0.2216 -0.5626
 7942SOL    HW235286   2.318   0.757   8.262 -0.4475  1.1404 -0.6479
 7943SOL     OW35287   2.729   2.461  12.777  0.0103  0.1573  0.3890
 7943SOL    HW135288   2.817   2.423  12.773  0.2033  0.8108 -1.5977
 7943SOL    HW235289   2.730   2.533  12.713 -0.4477 -2.2834 -2.3670
 7944SOL     OW35290   4.211   4.180   8.419 -0.0837 -0.0760  0.0920
 7944SOL    HW135291   4.122   4.161   8.388 -0.6476  2.2271  0.3310
 7944SOL    HW235292   4.207   4.187   8.514  0.9977  3.4602 -0.1192
 7945SOL     OW35293   2.292   4.541   9.087 -0.0990  0.4053 -0.0868
 7945SOL    HW135294   2.308   4.448   9.079  1.1279  0.8180 -2.2636
 7945SOL    HW235295   2.274   4.541   9.182  0.6986 -1.2213  0.0593
 7946SOL     OW35296   0.551   1.955   4.446 -0.1846 -0.4503 -0.2027
 7946SOL    HW135297   0.512   1.877   4.486  1.0259 -0.6518  0.5845
 7946SOL    HW235298   0.568   2.012   4.521  0.0985 -0.6846 -0.0916
 7947SOL     OW35299   3.760   4.453  17.064  0.1272  0.1701  0.1033
 7947SOL    HW135300   3.740   4.371  17.109  1.1079 -0.8435 -1.2896
 7947SOL    HW235301   3.854   4.438  17.056  0.1820 -0.2113  1.4243
 7948SOL     OW35302   0.804   2.558  13.258  0.3771  0.0659 -0.3307
 7948SOL    HW135303   0.886   2.573  13.210  1.7156  0.2208  1.9817
 7948SOL    HW235304   0.809   2.643  13.301  1.2480 -0.8025  1.2899
 7949SOL     OW35305   2.892   0.989  11.223 -0.0073  0.6964  0.0404
 7949SOL    HW135306   2.936   1.049  11.164  1.3877  0.6800  1.0809
 7949SOL    HW235307   2.961   0.967  11.285 -0.5500  1.5825  0.9621
 7950SOL     OW35308   1.432   2.953  10.165 -0.1621 -1.0167 -0.0726
 7950SOL    HW135309   1.475   2.872  10.191  1.7011 -0.8722 -2.6898
 7950SOL    HW235310   1.348   2.928  10.125  0.3583  0.8896 -2.3933
 7951SOL     OW35311   0.545   1.012   7.316 -0.4215  0.0845 -0.7628
 7951SOL    HW135312   0.453   1.017   7.290 -0.2799  0.2076 -1.2420
 7951SOL    HW235313   0.558   0.918   7.309 -2.8218 -0.1857 -1.5745
 7952SOL     OW35314   2.367   3.637   4.336 -0.5175 -0.0380 -0.4548
 7952SOL    HW135315   2.451   3.639   4.291 -0.3948  0.2270 -0.2168
 7952SOL    HW235316   2.398   3.642   4.427  2.3316 -1.2066 -1.3603
 7953SOL     OW35317   3.215   4.551   5.500 -0.8058  0.2870 -0.1426
 7953SOL    HW135318   3.249   4.640   5.487  0.9589 -0.3619  0.1839
 7953SOL    HW235319   3.276   4.495   5.452  0.0969  0.1707  1.1529
 7954SOL     OW35320   3.718   4.290   5.624  0.1076 -0.3034 -0.0820
 7954SOL    HW135321   3.792   4.350   5.633  0.0631 -0.0374 -1.5157
 7954SOL    HW235322   3.649   4.348   5.591 -1.1612 -1.9025 -0.2508
 7955SOL     OW35323   0.045   3.874   3.849  0.4414  0.1388 -0.0269
 7955SOL    HW135324   0.020   3.880   3.942  1.5542 -0.7294  0.3337
 7955SOL    HW235325   4.700   3.931   3.814 -0.5742 -0.8716  0.2781
 7956SOL     OW35326   0.593   4.647   0.692  0.5666  0.2797  0.4665
 7956SOL    HW135327   0.638   4.577   0.643 -2.6507  0.3568 -2.5676
 7956SOL    HW235328   0.573   4.705   0.620 -1.0301 -0.5649  0.2142
 7957SOL     OW35329   0.600   0.027   5.007  0.6636 -0.4862  0.4456
 7957SOL    HW135330   0.599   0.098   4.943 -0.4138 -1.7942 -1.0018
 7957SOL    HW235331   0.511   4.713   5.002  0.2802  0.5062 -0.1125
 7958SOL     OW35332   2.314   3.737   6.861  0.1219  0.5706  0.2959
 7958SOL    HW135333   2.311   3.824   6.822  0.8783  0.7629  0.6634
 7958SOL    HW235334   2.242   3.735   6.923 -1.2768 -2.2645 -1.4039
 7959SOL     OW35335   4.287   1.063  16.566 -0.0626  0.3654  0.3610
 7959SOL    HW135336   4.213   1.053  16.627  0.0239  0.0887  0.4205
 7959SOL    HW235337   4.359   1.084  16.626  1.7785 -0.7032 -1.4625
 7960SOL     OW35338   2.914   2.624  13.200  0.3546 -0.2321  0.7988
 7960SOL    HW135339   2.846   2.556  13.197  0.2296 -0.0119 -1.3183
 7960SOL    HW235340   2.864   2.705  13.195  2.7783  1.2544  0.8839
 7961SOL     OW35341   1.516   1.994   3.475  0.0695 -0.0514 -0.0771
 7961SOL    HW135342   1.456   2.068   3.465 -1.8888 -1.5016  0.8282
 7961SOL    HW235343   1.569   2.025   3.549 -0.2206  1.9760 -0.7273
 7962SOL     OW35344   1.990   3.345   1.975 -0.6853  0.0207  0.3179
 7962SOL    HW135345   2.034   3.294   1.908  2.0382  1.2861  1.1434
 7962SOL    HW235346   1.947   3.274   2.022 -1.2251 -0.8786 -1.5436
 7963SOL     OW35347   2.080   1.135   7.843 -0.6322  0.0291 -0.6427
 7963SOL    HW135348   2.047   1.224   7.830 -1.3975 -0.0872  0.5135
 7963SOL    HW235349   2.026   1.077   7.790 -2.0847 -1.3979  2.4652
 7964SOL     OW35350   3.077   1.527   4.514 -0.1566  0.3430  0.1563
 7964SOL    HW135351   3.018   1.465   4.557  0.2275  0.2674  0.5689
 7964SOL    HW235352   3.049   1.521   4.423 -0.2910 -0.0518  0.2246
 7965SOL     OW35353   3.849   1.414   1.850 -0.2022 -0.1615 -0.0918
 7965SOL    HW135354   3.854   1.349   1.780 -0.6448 -0.6207  0.2983
 7965SOL    HW235355   3.864   1.498   1.807  1.7799  0.9699  2.8284
 7966SOL     OW35356   2.223   3.331   3.893  0.3038  0.1110 -0.1491
 7966SOL    HW135357   2.253   3.244   3.919 -1.2847  0.0692  1.5820
 7966SOL    HW235358   2.195   3.310   3.804  1.8278 -1.4695 -0.2642
 7967SOL     OW35359   2.651   3.332   3.232 -0.6375  0.4702  0.4112
 7967SOL    HW135360   2.646   3.385   3.311 -1.9883  0.4961  0.3010
 7967SOL    HW235361   2.616   3.250   3.268 -0.1183 -0.7276 -1.7892
 7968SOL     OW35362   4.648   1.431  12.054  0.2674  1.4838 -0.2158
 7968SOL    HW135363   4.559   1.432  12.090  0.3525  0.6572  0.0066
 7968SOL    HW235364   4.654   1.341  12.023  0.5658  1.3649  0.1929
 7969SOL     OW35365   4.475   2.586  12.053  1.1401  0.2386 -0.0560
 7969SOL    HW135366   4.426   2.586  11.971  1.2430  1.2685 -0.1181
 7969SOL    HW235367   4.479   2.680  12.073  1.1673  0.1702  0.2575
 7970SOL     OW35368   3.577   1.781   2.607  0.3437 -0.3289  0.1078
 7970SOL    HW135369   3.561   1.754   2.516 -0.8552  2.7093 -0.5893
 7970SOL    HW235370   3.663   1.743   2.625  1.4786  2.0447 -0.1601
 7971SOL     OW35371   2.999   3.938   6.233  0.1520  0.5365 -0.4351
 7971SOL    HW135372   3.002   3.956   6.327  1.0996  0.5542 -0.4688
 7971SOL    HW235373   3.018   3.844   6.242  1.3514  0.6135 -2.2252
 7972SOL     OW35374   0.642   4.133   7.786 -0.1770 -0.1471 -0.2398
 7972SOL    HW135375   0.552   4.123   7.755  0.0395  0.1984 -0.9658
 7972SOL    HW235376   0.687   4.125   7.702  2.2196 -0.8483  1.0952
 7973SOL     OW35377   4.214   0.569   6.189  0.1770  0.1019  0.2512
 7973SOL    HW135378   4.302   0.601   6.210 -0.8534  2.4828  0.9223
 7973SOL    HW235379   4.171   0.654   6.181  2.3326  1.2039  0.3008
 7974SOL     OW35380   3.141   3.784   1.993  0.0966  0.0911 -0.3494
 7974SOL    HW135381   3.128   3.704   2.044 -0.9424 -0.6352 -1.7754
 7974SOL    HW235382   3.156   3.756   1.903  0.8533  0.8785 -0.4759
 7975SOL     OW35383   2.541   4.678   6.057  0.1631  0.0704 -0.0525
 7975SOL    HW135384   2.608   4.722   6.110 -1.5395  1.7019  0.7394
 7975SOL    HW235385   2.558   4.710   5.968  1.5887 -0.2654  0.0953
 7976SOL     OW35386   2.818   3.513  12.324  0.0119  0.0968 -0.2500
 7976SOL    HW135387   2.898   3.507  12.375  0.5854  1.9177 -0.9038
 7976SOL    HW235388   2.844   3.586  12.267 -0.3222  1.9420  1.9537
 7977SOL     OW35389   1.358   3.444  11.667  0.3111  0.2936 -0.1832
 7977SOL    HW135390   1.401   3.529  11.670  0.3439  0.3242 -1.2994
 7977SOL    HW235391   1.431   3.386  11.689 -0.3869 -1.1804 -1.7127
 7978SOL     OW35392   1.945   2.050   5.816 -0.0993 -0.0948  0.0486
 7978SOL    HW135393   1.934   2.088   5.903  1.6074 -3.5234  1.7970
 7978SOL    HW235394   1.996   2.124   5.783  1.6672 -2.0162 -1.5577
 7979SOL     OW35395   4.480   4.569   4.477  0.1683  0.1568 -0.9877
 7979SOL    HW135396   4.524   4.651   4.458 -0.6927  0.9154  0.3011
 7979SOL    HW235397   4.546   4.507   4.444  1.3358  1.1833 -0.5813
 7980SOL     OW35398   3.143   4.150   2.934 -0.4849  0.0503 -0.0793
 7980SOL    HW135399   3.109   4.090   2.868  0.4937  0.1840 -0.7039
 7980SOL    HW235400   3.122   4.108   3.018 -1.1017 -0.0124 -0.2663
 7981SOL     OW35401   0.480   3.920   3.112  0.1182  0.0565 -0.3071
 7981SOL    HW135402   0.412   3.986   3.124 -1.1303 -1.8017  2.7788
 7981SOL    HW235403   0.531   3.937   3.191  0.7568 -0.7343 -0.5476
 7982SOL     OW35404   0.726   4.109   0.329 -0.0327  0.2890 -0.0897
 7982SOL    HW135405   0.761   4.031   0.288  0.6691  1.7962 -2.3643
 7982SOL    HW235406   0.739   4.182   0.268  0.0221 -0.5500 -1.0860
 7983SOL     OW35407   2.453   1.875   6.601  0.0334 -0.0714  0.3532
 7983SOL    HW135408   2.409   1.960   6.601  0.1171 -0.0266  1.1287
 7983SOL    HW235409   2.375   1.821   6.606  0.4778 -0.8504 -1.1618
 7984SOL     OW35410   2.030   4.463  10.053 -0.2540 -0.1542 -0.3392
 7984SOL    HW135411   2.008   4.546  10.095 -0.7245 -1.0291  1.1199
 7984SOL    HW235412   2.026   4.396  10.121  2.0148 -0.8153 -0.8513
 7985SOL     OW35413   2.639   1.506   4.466 -0.6851  0.0658 -0.5108
 7985SOL    HW135414   2.595   1.426   4.439 -0.8354 -0.0539  0.0988
 7985SOL    HW235415   2.626   1.516   4.560  0.4360  0.4653 -0.3972
 7986SOL     OW35416   4.716   1.508  10.925 -0.5744  0.4594  0.2910
 7986SOL    HW135417   0.084   1.508  10.956 -0.2516  0.2437 -0.6315
 7986SOL    HW235418   4.677   1.466  11.001 -0.6807 -1.2056 -0.6713
 7987SOL     OW35419   3.718   1.408  11.732  0.2224 -0.1867 -0.0619
 7987SOL    HW135420   3.731   1.502  11.720 -0.6211 -0.0735 -0.1013
 7987SOL    HW235421   3.692   1.379  11.645 -0.4256 -0.0088  0.0735
 7988SOL     OW35422   1.735   0.438   4.653 -0.4745  0.1317 -0.5274
 7988SOL    HW135423   1.778   0.364   4.612 -1.3312 -0.7027  0.0626
 7988SOL    HW235424   1.664   0.396   4.702 -0.4104 -0.4846 -0.9639
 7989SOL     OW35425   3.426   3.288  16.714  0.4093  0.3047 -0.0810
 7989SOL    HW135426   3.370   3.276  16.791  1.6583  2.3451  1.1333
 7989SOL    HW235427   3.393   3.213  16.664  0.3499  0.1333  0.2112
 7990SOL     OW35428   2.967   2.272   0.074 -0.5945 -0.0018  0.5254
 7990SOL    HW135429   3.017   2.353   0.083 -2.3633  1.3044 -1.3289
 7990SOL    HW235430   3.035   2.220   0.033 -0.7506 -0.2888  0.6327
 7991SOL     OW35431   1.654   0.813  10.069  0.0918 -0.1762  0.1110
 7991SOL    HW135432   1.636   0.889  10.013 -1.5657 -0.4005  0.3258
 7991SOL    HW235433   1.632   0.743  10.008  0.9274 -2.1266  2.0488
 7992SOL     OW35434   3.392   2.567   7.767 -0.9858 -0.0673  0.2200
 7992SOL    HW135435   3.333   2.530   7.702 -3.5791  1.0383  1.9392
 7992SOL    HW235436   3.452   2.492   7.771 -0.2380  0.5461  0.6061
 7993SOL     OW35437   4.324   1.937   7.804 -0.1479  0.3766  0.3976
 7993SOL    HW135438   4.327   1.997   7.879  1.0546  2.4742 -1.3068
 7993SOL    HW235439   4.417   1.931   7.783 -0.5610 -3.3306 -0.2003
 7994SOL     OW35440   1.846   4.157   6.292  0.1554  0.0280  0.4830
 7994SOL    HW135441   1.879   4.074   6.328 -0.5301 -0.9420 -1.1414
 7994SOL    HW235442   1.928   4.189   6.256  0.1994 -1.4187 -0.7251
 7995SOL     OW35443   0.094   2.635   4.880  0.0195 -0.2254  0.2520
 7995SOL    HW135444   0.168   2.588   4.919  0.3308 -1.8724 -2.3620
 7995SOL    HW235445   0.125   2.725   4.892  0.1519 -0.2765  0.3011
 7996SOL     OW35446   4.550   0.668  10.823 -0.2449 -0.1567 -0.6118
 7996SOL    HW135447   4.522   0.680  10.914 -1.1468  2.5393 -1.2288
 7996SOL    HW235448   4.508   0.586  10.798 -1.1862  0.0456  0.3179
 7997SOL     OW35449   3.558   2.339   6.474 -0.6016 -0.3532 -0.1944
 7997SOL    HW135450   3.468   2.362   6.451 -1.1125  0.0747  2.2393
 7997SOL    HW235451   3.537   2.285   6.549 -2.0567 -1.4414 -1.3998
 7998SOL     OW35452   1.023   3.870   4.027 -0.1669  0.0249 -0.1727
 7998SOL    HW135453   0.935   3.838   4.013 -0.8850  0.6974  2.7933
 7998SOL    HW235454   1.062   3.834   3.947 -0.1939  1.3759 -0.7964
 7999SOL     OW35455   1.082   0.359   6.230 -0.6683 -0.7473 -0.4071
 7999SOL    HW135456   1.107   0.322   6.314  3.5987 -0.5884 -1.6100
 7999SOL    HW235457   1.136   0.438   6.222 -0.8727 -0.4965  0.6421
 8000SOL     OW35458   4.665   3.924   4.106  0.0121  0.5997  0.2128
 8000SOL    HW135459   4.584   3.960   4.071 -0.7199 -1.1000  0.1411
 8000SOL    HW235460   4.640   3.879   4.187 -0.6687  1.9664  0.7511
 8001SOL     OW35461   0.144   3.042   9.808 -0.0388 -0.0070 -0.8035
 8001SOL    HW135462   0.198   3.092   9.869  0.7405 -0.4972 -1.0977
 8001SOL    HW235463   0.056   3.077   9.821  0.2268  0.4375 -0.1930
 8002SOL     OW35464   4.317   3.277  12.385  0.3341 -0.0136 -0.7985
 8002SOL    HW135465   4.378   3.317  12.323 -2.0104  0.7151 -2.6031
 8002SOL    HW235466   4.291   3.348  12.444  0.8200 -0.3653 -0.1555
 8003SOL     OW35467   3.885   2.221   3.618  0.5064 -0.0975  0.2048
 8003SOL    HW135468   3.796   2.251   3.599  1.0080  1.3327  0.1490
 8003SOL    HW235469   3.875   2.228   3.713  1.6648 -1.6390  0.4423
 8004SOL     OW35470   3.982   1.466   4.447  0.5850  0.1053 -1.1784
 8004SOL    HW135471   4.037   1.533   4.406  0.7754 -0.0295 -1.1429
 8004SOL    HW235472   3.904   1.517   4.472  1.8434  1.3518  0.2731
 8005SOL     OW35473   1.697   0.857   5.341  0.3905  0.4268  0.2073
 8005SOL    HW135474   1.786   0.873   5.310 -0.0046 -1.5017 -1.9380
 8005SOL    HW235475   1.649   0.844   5.259 -0.7556 -0.2764  0.9859
 8006SOL     OW35476   2.099   3.861  15.920  0.1401 -0.0879  0.5427
 8006SOL    HW135477   2.158   3.786  15.910  1.4715  0.8360  1.3980
 8006SOL    HW235478   2.035   3.839  15.853  0.8302  1.9521 -0.8034
 8007SOL     OW35479   0.116   2.312   5.868 -0.5055  0.1261  0.0081
 8007SOL    HW135480   0.175   2.372   5.823 -0.3521 -0.4110 -0.5042
 8007SOL    HW235481   0.167   2.305   5.949 -1.3328 -0.6442  0.4660
 8008SOL     OW35482   1.346   3.933   9.372 -0.4278 -0.1875  0.6741
 8008SOL    HW135483   1.387   3.863   9.423  1.5965  0.7219  0.3014
 8008SOL    HW235484   1.327   3.997   9.441  1.2082  0.8355  0.1632
 8009SOL     OW35485   4.081   0.748   1.465 -0.0750  0.0253 -0.3221
 8009SOL    HW135486   4.034   0.830   1.455  0.6941  0.3828 -0.9591
 8009SOL    HW235487   4.083   0.717   1.375  1.6460  0.3894 -0.4086
 8010SOL     OW35488   3.513   0.593  15.821  0.1635  0.0650  0.4831
 8010SOL    HW135489   3.461   0.655  15.872  2.1555 -0.1276  2.7818
 8010SOL    HW235490   3.602   0.610  15.853  1.1723 -0.1659 -2.2125
 8011SOL     OW35491   3.486   2.856   7.748  0.2402  0.0421  0.6529
 8011SOL    HW135492   3.439   2.773   7.762  0.2830 -0.2806 -1.1765
 8011SOL    HW235493   3.534   2.854   7.831  0.4472  0.3910  0.5385
 8012SOL     OW35494   3.525   3.129   9.084 -0.4423 -0.0670 -0.0788
 8012SOL    HW135495   3.551   3.100   9.172 -0.1040 -0.1321 -0.1993
 8012SOL    HW235496   3.538   3.224   9.087  3.1740 -0.5620  0.5523
 8013SOL     OW35497   0.135   3.682   3.149  0.1613  0.2985  0.0650
 8013SOL    HW135498   0.082   3.742   3.097 -2.2349  0.1165  2.3001
 8013SOL    HW235499   0.065   3.638   3.197  0.3094  0.0314  0.0351
 8014SOL     OW35500   4.009   2.552   2.891  0.5072  0.3377 -0.4307
 8014SOL    HW135501   4.056   2.474   2.920  0.4080  0.4161 -0.0512
 8014SOL    HW235502   3.917   2.530   2.907  0.5980  0.0898 -0.2541
 8015SOL     OW35503   2.416   3.037   5.131  0.4068 -0.3118  0.2023
 8015SOL    HW135504   2.431   3.132   5.130 -0.4746 -0.1675  0.0303
 8015SOL    HW235505   2.406   3.028   5.225 -2.0123 -0.3704 -0.0578
 8016SOL     OW35506   3.521   0.881  16.312  0.3375  0.1622 -0.0082
 8016SOL    HW135507   3.553   0.858  16.225  2.8199 -1.6949  1.3891
 8016SOL    HW235508   3.518   0.791  16.344  0.8705  0.6348  1.3845
 8017SOL     OW35509   0.987   3.665  17.281 -0.0757  0.1307 -0.1436
 8017SOL    HW135510   0.986   3.627  17.369  1.9028  0.0502 -0.1483
 8017SOL    HW235511   0.923   3.615  17.231  0.9522 -0.0772 -1.2624
 8018SOL     OW35512   2.568   4.518   2.598  0.1896 -0.2157  0.6068
 8018SOL    HW135513   2.491   4.558   2.637  0.5830  1.4372 -0.2951
 8018SOL    HW235514   2.574   4.434   2.643 -0.1483 -0.6387 -0.1409
 8019SOL     OW35515   2.484   4.523  12.889  0.3761 -0.6030  0.1554
 8019SOL    HW135516   2.418   4.461  12.922  0.3651  0.0759  1.4237
 8019SOL    HW235517   2.426   4.588  12.849  2.0574  0.1578 -1.0118
 8020SOL     OW35518   0.782   0.161   7.364  0.5027  0.4189  0.4069
 8020SOL    HW135519   0.848   0.159   7.295  0.5178  1.8426  0.3800
 8020SOL    HW235520   0.768   0.068   7.378 -1.3231  0.4201 -1.2964
 8021SOL     OW35521   3.521   2.635   6.904 -0.5676  0.0628  0.0059
 8021SOL    HW135522   3.550   2.661   6.816  1.6709 -0.9746  0.4561
 8021SOL    HW235523   3.456   2.704   6.919 -1.8140 -0.9335 -0.7244
 8022SOL     OW35524   0.437   1.903  10.830 -0.0206  0.2125  0.1206
 8022SOL    HW135525   0.434   1.897  10.735  1.7170  1.3087 -0.0130
 8022SOL    HW235526   0.444   1.810  10.852  0.4438  0.6309  1.7610
 8023SOL     OW35527   3.451   1.266   2.388 -0.2717 -0.1626 -0.7892
 8023SOL    HW135528   3.450   1.362   2.392  3.5604 -0.1131 -0.9252
 8023SOL    HW235529   3.445   1.246   2.295 -2.4891  0.4314 -0.7768
 8024SOL     OW35530   3.362   4.272   3.111 -0.1981  0.1391  0.1445
 8024SOL    HW135531   3.358   4.360   3.074  0.7021 -0.2004 -0.7646
 8024SOL    HW235532   3.273   4.244   3.092  0.3130 -0.8087 -0.8171
 8025SOL     OW35533   0.792   2.252   3.825  0.5764 -0.6237  0.1213
 8025SOL    HW135534   0.823   2.261   3.915  3.9920 -1.1685 -1.0320
 8025SOL    HW235535   0.732   2.179   3.838 -0.0451  0.0031  0.8228
 8026SOL     OW35536   1.854   3.762   7.997 -0.1357 -0.3670 -0.0084
 8026SOL    HW135537   1.856   3.857   7.989 -0.0003 -0.2234  1.7386
 8026SOL    HW235538   1.880   3.725   7.913  1.1239  1.6452 -0.4933
 8027SOL     OW35539   3.591   1.361   1.652  0.2331  0.5683  0.2274
 8027SOL    HW135540   3.653   1.294   1.678 -1.5469 -2.1036 -2.3947
 8027SOL    HW235541   3.510   1.330   1.692 -1.3502  0.2469 -3.2167
 8028SOL     OW35542   1.145   0.772   5.158 -0.4494 -0.4896 -0.4258
 8028SOL    HW135543   1.151   0.700   5.221 -0.6249  0.5124  0.7633
 8028SOL    HW235544   1.049   0.779   5.156 -0.2565  2.7525  0.5060
 8029SOL     OW35545   2.172   4.217  16.929  0.6269  0.1512 -0.2431
 8029SOL    HW135546   2.262   4.211  16.896  1.1648 -2.5060  1.6771
 8029SOL    HW235547   2.170   4.176  17.015  0.1773 -0.6726 -0.6418
 8030SOL     OW35548   1.640   3.033   4.707  0.0957 -0.3955 -0.0023
 8030SOL    HW135549   1.590   3.044   4.626 -0.6082  1.1003  0.6352
 8030SOL    HW235550   1.636   3.118   4.750 -0.9894 -0.1462 -0.5978
 8031SOL     OW35551   4.159   1.261   6.284  0.0216 -0.5293 -0.5617
 8031SOL    HW135552   4.246   1.228   6.306 -0.6843 -1.6220  0.5285
 8031SOL    HW235553   4.118   1.186   6.325 -3.3885  1.4531 -0.3251
 8032SOL     OW35554   3.038   4.605   7.406 -0.3691  0.1047 -0.1272
 8032SOL    HW135555   2.957   4.649   7.432 -0.9092 -1.6168  1.0935
 8032SOL    HW235556   3.047   4.548   7.483 -3.7793 -1.4497 -0.8822
 8033SOL     OW35557   1.513   1.174  16.896 -0.0528  0.5089 -0.9339
 8033SOL    HW135558   1.419   1.180  16.913  0.1965  0.8766  0.3272
 8033SOL    HW235559   1.527   1.247  16.836  3.1875  0.9654  0.3727
 8034SOL     OW35560   2.722   0.154   7.824  0.5012  0.4005  0.1275
 8034SOL    HW135561   2.752   0.189   7.908  0.2465  3.4073 -1.0594
 8034SOL    HW235562   2.773   0.212   7.768 -0.5414  1.4038  0.2085
 8035SOL     OW35563   0.531   4.525   2.897 -0.5324 -0.4615  0.5065
 8035SOL    HW135564   0.491   4.524   2.810  2.0959  1.3476 -0.7243
 8035SOL    HW235565   0.490   4.601   2.936  0.3442  0.9153 -1.2434
 8036SOL     OW35566   3.090   3.675   6.331  0.3410 -0.0341  0.1335
 8036SOL    HW135567   3.040   3.593   6.326 -0.6395  0.5508  0.3773
 8036SOL    HW235568   3.117   3.672   6.423  3.1845  0.3134 -0.7043
 8037SOL     OW35569   1.860   1.006   4.354  0.0866 -0.4240  0.1401
 8037SOL    HW135570   1.844   1.080   4.413  1.0381 -0.6519  0.6899
 8037SOL    HW235571   1.773   0.974   4.331 -0.2585  0.8443 -0.2928
 8038SOL     OW35572   1.371   0.183   3.108  0.7384  0.2881  0.3925
 8038SOL    HW135573   1.431   0.133   3.052  0.8436 -0.0201  0.7785
 8038SOL    HW235574   1.294   0.159   3.056  1.5526  1.4570 -1.3273
 8039SOL     OW35575   1.540   1.826   6.003  0.1058  0.1314  0.6280
 8039SOL    HW135576   1.571   1.909   5.967 -3.0054  0.3905 -1.4977
 8039SOL    HW235577   1.487   1.796   5.929 -3.1937  1.6760  2.3240
 8040SOL     OW35578   1.521   2.959   5.920 -0.3658 -0.3141  0.3436
 8040SOL    HW135579   1.568   3.007   5.852 -1.2783  0.3428  0.1767
 8040SOL    HW235580   1.588   2.945   5.988  1.8942 -0.8382 -1.9844
 8041SOL     OW35581   2.188   0.306  13.873 -0.5430  0.1458 -0.0773
 8041SOL    HW135582   2.171   0.321  13.966 -1.9179 -0.3147 -0.2470
 8041SOL    HW235583   2.139   0.376  13.832  0.9331  0.2411 -1.6490
 8042SOL     OW35584   3.321   3.971   8.706 -0.1285 -0.3669 -0.1060
 8042SOL    HW135585   3.326   4.061   8.738 -0.5210 -0.1340 -0.6958
 8042SOL    HW235586   3.378   3.922   8.765 -0.3405 -0.2981  0.1600
 8043SOL     OW35587   3.478   2.255   6.722 -0.1706  0.4661  0.3569
 8043SOL    HW135588   3.542   2.289   6.785 -0.3520  0.5566  0.4915
 8043SOL    HW235589   3.404   2.238   6.781 -0.9480  1.7300 -0.2634
 8044SOL     OW35590   3.765   1.398   3.766  0.2629  0.3291  0.1475
 8044SOL    HW135591   3.805   1.359   3.688 -2.3910  1.1747 -1.6345
 8044SOL    HW235592   3.677   1.372   3.741  1.6235 -3.3880 -0.7542
 8045SOL     OW35593   2.211   4.694   1.360  0.7730  0.1736 -0.4739
 8045SOL    HW135594   2.119   4.704   1.386  1.3023 -0.5367  1.6514
 8045SOL    HW235595   2.244   4.621   1.412 -0.5472 -1.1072 -1.4378
 8046SOL     OW35596   0.584   1.553   2.744  0.3045 -0.1373  0.5367
 8046SOL    HW135597   0.655   1.596   2.696  0.5885 -1.2046  0.0105
 8046SOL    HW235598   0.573   1.617   2.815 -2.7341  0.8106 -0.7715
 8047SOL     OW35599   2.599   1.117   1.211  0.7196  0.5010  0.3041
 8047SOL    HW135600   2.590   1.145   1.120 -2.7192  0.4726  0.6510
 8047SOL    HW235601   2.599   1.194   1.268  3.8240 -0.2477  1.3239
 8048SOL     OW35602   0.044   2.843  16.412  0.1528 -0.2595  0.1822
 8048SOL    HW135603   0.020   2.830  16.320 -1.1834  0.1778  0.4692
 8048SOL    HW235604   4.684   2.871  16.450 -1.0830 -0.0207 -2.7147
 8049SOL     OW35605   2.442   2.517   9.686  0.2714  0.7733 -0.1092
 8049SOL    HW135606   2.492   2.537   9.607  1.0987  0.5381  0.3601
 8049SOL    HW235607   2.407   2.605   9.700  0.4001  0.4219  2.3043
 8050SOL     OW35608   3.135   2.480   0.091 -0.5991  0.0722 -0.4126
 8050SOL    HW135609   3.156   2.458   0.181  0.7470 -1.5367 -1.1165
 8050SOL    HW235610   3.108   2.571   0.101 -2.5858 -0.5878  0.1272
 8051SOL     OW35611   1.624   4.419  14.556 -0.5352 -0.0738  0.3600
 8051SOL    HW135612   1.606   4.369  14.476 -1.5835  1.1052 -0.1483
 8051SOL    HW235613   1.720   4.414  14.556 -0.5069  0.5582  2.2044
 8052SOL     OW35614   0.476   2.362   8.860  0.0588 -0.1843 -0.0269
 8052SOL    HW135615   0.458   2.365   8.954 -1.3472  0.4915 -0.3161
 8052SOL    HW235616   0.442   2.274   8.841 -0.7446 -0.2167  1.5384
 8053SOL     OW35617   0.901   2.090  15.148 -0.5876 -0.4111  0.1071
 8053SOL    HW135618   0.859   2.149  15.085  1.9083  2.3467  1.0480
 8053SOL    HW235619   0.953   2.029  15.095  1.4773  0.6839  0.8897
 8054SOL     OW35620   2.576   0.797  11.020 -0.0928  0.0351 -0.2322
 8054SOL    HW135621   2.581   0.786  11.115 -0.3913  1.6504 -0.0268
 8054SOL    HW235622   2.493   0.845  11.014  0.1467  0.2140 -1.9658
 8055SOL     OW35623   2.182   2.600   7.396  0.2931  0.0063 -0.0680
 8055SOL    HW135624   2.115   2.665   7.374  0.4345 -0.1946 -1.1050
 8055SOL    HW235625   2.225   2.606   7.311  1.8307 -1.0439  0.6281
 8056SOL     OW35626   2.667   3.418   5.864 -0.3318  0.2623 -0.0466
 8056SOL    HW135627   2.755   3.457   5.866 -0.9085  1.6278 -1.2933
 8056SOL    HW235628   2.657   3.396   5.772  2.2684 -0.0751 -0.2445
 8057SOL     OW35629   4.682   2.752  15.730 -0.3251 -0.0016  0.1293
 8057SOL    HW135630   4.635   2.835  15.731 -0.0966  0.1117  1.3676
 8057SOL    HW235631   0.008   2.770  15.649 -2.2497  0.4787 -0.9181
 8058SOL     OW35632   3.664   2.597   1.107  0.2374 -0.4250 -0.3661
 8058SOL    HW135633   3.728   2.666   1.090 -1.6154  0.8376 -2.3651
 8058SOL    HW235634   3.671   2.590   1.202  1.4823  0.9018 -0.3583
 8059SOL     OW35635   2.000   2.885   9.211  0.1854  0.6623  0.3456
 8059SOL    HW135636   2.089   2.905   9.239  0.0648 -1.0064  1.9384
 8059SOL    HW235637   1.954   2.926   9.284  0.2562  1.8306 -0.2723
 8060SOL     OW35638   2.157   2.886   2.638  0.0297 -0.1061  0.6268
 8060SOL    HW135639   2.226   2.847   2.691  1.1534  2.2154  0.8543
 8060SOL    HW235640   2.202   2.888   2.554 -1.5332  2.0059 -0.1692
 8061SOL     OW35641   3.593   1.730   3.050 -0.3998  0.0246  0.2639
 8061SOL    HW135642   3.664   1.793   3.059  1.7146 -2.3634  0.1789
 8061SOL    HW235643   3.634   1.667   2.990 -0.1697  0.9393 -0.5279
 8062SOL     OW35644   4.155   0.659  10.496  0.0554  0.3112 -0.2817
 8062SOL    HW135645   4.115   0.720  10.434  0.7369 -0.1036 -1.1276
 8062SOL    HW235646   4.083   0.598  10.513  0.1426  0.1370 -0.5419
 8063SOL     OW35647   4.194   1.230   7.365  0.2667 -0.5812 -0.1646
 8063SOL    HW135648   4.237   1.262   7.285  0.7619 -2.9414 -0.8383
 8063SOL    HW235649   4.245   1.269   7.436 -1.4352  0.5962  0.4117
 8064SOL     OW35650   3.980   2.577   2.403 -0.1125 -0.6194  0.2831
 8064SOL    HW135651   3.903   2.526   2.380 -0.3326  0.7171 -1.8839
 8064SOL    HW235652   4.061   2.534   2.377  1.0632  0.8386  1.5165
 8065SOL     OW35653   4.502   4.446   7.468 -0.0889 -1.1622 -0.2886
 8065SOL    HW135654   4.469   4.360   7.493 -4.1390 -0.0306 -1.7080
 8065SOL    HW235655   4.531   4.432   7.378 -0.5359  2.1567 -0.9662
 8066SOL     OW35656   0.744   3.656   7.666 -0.1916 -0.2202 -0.3188
 8066SOL    HW135657   0.745   3.729   7.728  2.0025 -0.9656  0.5106
 8066SOL    HW235658   0.837   3.641   7.652 -0.1242  0.6337 -0.7261
 8067SOL     OW35659   1.836   1.033   6.208 -0.0969 -0.0118  0.6112
 8067SOL    HW135660   1.754   1.030   6.159 -0.5026 -1.0235  1.3437
 8067SOL    HW235661   1.818   0.948   6.248 -2.2172  0.0662 -0.1895
 8068SOL     OW35662   1.828   1.718   8.701 -0.3378 -0.9455  0.2846
 8068SOL    HW135663   1.813   1.644   8.760 -1.0427  0.3533  1.7231
 8068SOL    HW235664   1.895   1.770   8.747  0.3770  0.5460 -2.4248
 8069SOL     OW35665   4.613   0.444   3.385 -0.4448 -0.9734 -0.0075
 8069SOL    HW135666   4.636   0.537   3.392 -2.6401 -0.4210 -0.3077
 8069SOL    HW235667   4.642   0.420   3.297 -0.3230  1.9555 -0.7583
 8070SOL     OW35668   1.530   1.510  15.134  0.4771  0.8408 -0.1858
 8070SOL    HW135669   1.593   1.576  15.104  1.9990 -0.1710  0.8145
 8070SOL    HW235670   1.524   1.539  15.225  0.9533  0.1272  0.0705
 8071SOL     OW35671   1.428   0.492   4.357 -0.1590 -0.2505 -1.2051
 8071SOL    HW135672   1.334   0.493   4.370  0.0971  3.0506  0.6716
 8071SOL    HW235673   1.462   0.404   4.369  0.5455  0.1810 -0.0340
 8072SOL     OW35674   2.290   0.333   8.126  0.1999 -0.1532  0.0634
 8072SOL    HW135675   2.302   0.243   8.156 -0.0591 -0.8083 -1.7824
 8072SOL    HW235676   2.222   0.314   8.060 -0.4760 -1.0536  1.0210
 8073SOL     OW35677   1.041   3.628  12.754  0.0607  0.5515 -0.2535
 8073SOL    HW135678   1.100   3.681  12.701 -0.7433  0.6694 -1.0282
 8073SOL    HW235679   0.981   3.590  12.689  0.6219  0.2860 -0.6124
 8074SOL     OW35680   4.244   2.175   4.047 -0.8256  0.5983 -0.1185
 8074SOL    HW135681   4.234   2.169   3.952 -0.1917  3.7484 -0.3843
 8074SOL    HW235682   4.307   2.246   4.060 -0.3323 -0.1242  1.4230
 8075SOL     OW35683   2.117   0.840  14.745 -0.4599  0.6317 -0.4797
 8075SOL    HW135684   2.127   0.819  14.838  0.0833  2.4116 -0.1417
 8075SOL    HW235685   2.110   0.752  14.708 -1.3048  0.6420 -0.3323
 8076SOL     OW35686   1.514   1.698   2.573 -0.4364 -0.2409 -0.0658
 8076SOL    HW135687   1.501   1.789   2.546 -1.6319 -0.0757  1.0378
 8076SOL    HW235688   1.446   1.691   2.640 -0.3517  0.6010  0.1153
 8077SOL     OW35689   3.606   4.242  13.532 -0.1254 -0.1160 -0.0046
 8077SOL    HW135690   3.638   4.332  13.526  1.3355 -0.7195 -1.0575
 8077SOL    HW235691   3.664   4.205  13.466  1.2109  0.1289  1.0383
 8078SOL     OW35692   1.592   2.946  16.697  0.0380  0.0632  0.0031
 8078SOL    HW135693   1.563   3.026  16.742 -0.5040 -1.8337  2.9831
 8078SOL    HW235694   1.511   2.929  16.650  0.1238 -0.9421  0.2233
 8079SOL     OW35695   2.776   0.794   1.869  0.0389  0.3155  0.3543
 8079SOL    HW135696   2.788   0.881   1.830  1.0502  0.2231  0.4529
 8079SOL    HW235697   2.747   0.823   1.955 -0.7699  1.4277 -0.2832
 8080SOL     OW35698   0.920   0.006  15.918  0.5656  0.0208  0.1582
 8080SOL    HW135699   0.910   0.077  15.981  0.4498 -1.5156  1.8868
 8080SOL    HW235700   0.837   0.010  15.870  0.2244  1.8699  0.9239
 8081SOL     OW35701   2.295   4.516   4.787  0.0849 -0.2137 -0.1298
 8081SOL    HW135702   2.383   4.550   4.798 -0.5605  0.8153  2.0027
 8081SOL    HW235703   2.275   4.517   4.694  0.0788 -2.8672 -0.1539
 8082SOL     OW35704   1.033   0.454  16.478  0.0376  0.4573  1.2614
 8082SOL    HW135705   0.946   0.469  16.515 -1.3145  1.7869 -2.4171
 8082SOL    HW235706   1.013   0.460  16.384  0.0729 -2.0815  1.0858
 8083SOL     OW35707   2.977   4.002   4.397 -0.0795 -0.0199 -0.2124
 8083SOL    HW135708   2.976   3.972   4.488  0.5671 -0.6086 -0.3954
 8083SOL    HW235709   3.070   4.022   4.386  0.1087 -0.9252 -0.3015
 8084SOL     OW35710   1.661   1.415  16.813  0.3478  0.2886 -0.1888
 8084SOL    HW135711   1.745   1.428  16.858  0.0651 -0.7954  0.6480
 8084SOL    HW235712   1.674   1.464  16.732 -1.5470  1.4228  0.1892
 8085SOL     OW35713   1.516   0.677   7.300 -0.5571  0.4468 -0.1169
 8085SOL    HW135714   1.534   0.600   7.353 -2.4339 -0.4003 -0.7267
 8085SOL    HW235715   1.576   0.747   7.327  1.0292 -0.2254 -1.9206
 8086SOL     OW35716   0.916   3.621  16.815 -0.1187 -0.3278  0.5182
 8086SOL    HW135717   0.953   3.676  16.745  0.9142  0.9055  2.0287
 8086SOL    HW235718   0.988   3.613  16.877 -0.0554  2.7735  0.8858
 8087SOL     OW35719   4.306   1.182   9.076  0.0419  0.4314  0.2221
 8087SOL    HW135720   4.319   1.249   9.144  1.2806  1.3457 -0.9251
 8087SOL    HW235721   4.255   1.117   9.124 -0.4465 -0.0035 -0.8868
 8088SOL     OW35722   2.763   2.462   0.167  0.1829  0.2122  0.1712
 8088SOL    HW135723   2.829   2.521   0.130  0.3961  0.2127  0.5539
 8088SOL    HW235724   2.791   2.377   0.133 -2.2174 -0.7719  0.6227
 8089SOL     OW35725   3.914   3.569   0.049  0.6337 -0.2729  0.6198
 8089SOL    HW135726   4.007   3.547   0.055  0.5847 -0.6507  0.0324
 8089SOL    HW235727   3.918   3.662   0.070 -3.0990  0.1367 -0.5630
 8090SOL     OW35728   1.253   0.587   6.329 -0.4122  0.3785 -0.3215
 8090SOL    HW135729   1.243   0.617   6.419  0.2634  0.0710 -0.1382
 8090SOL    HW235730   1.296   0.657   6.280  1.7628  0.7858  2.1864
 8091SOL     OW35731   1.279   4.586   4.902 -0.0213 -0.0834  0.0011
 8091SOL    HW135732   1.283   4.544   4.815 -0.2531 -0.2631  0.0754
 8091SOL    HW235733   1.298   4.674   4.870 -0.0838 -0.4532 -1.0544
 8092SOL     OW35734   2.564   0.866   2.896 -0.5301  0.0186  0.7480
 8092SOL    HW135735   2.564   0.804   2.969  0.0716 -0.9903 -0.1148
 8092SOL    HW235736   2.543   0.806   2.824 -0.1079  0.6974  0.0652
 8093SOL     OW35737   2.549   1.717  12.557  0.0813  0.3449  0.0180
 8093SOL    HW135738   2.487   1.788  12.573 -2.2389 -1.6486 -0.1145
 8093SOL    HW235739   2.497   1.658  12.503  0.1861  0.9554 -0.7510
 8094SOL     OW35740   4.541   0.772   2.804 -0.2880  0.5971 -0.3211
 8094SOL    HW135741   4.518   0.717   2.730 -2.2012  0.2310  0.5418
 8094SOL    HW235742   4.474   0.756   2.870  1.2086  0.4174  1.1473
 8095SOL     OW35743   4.102   0.146   3.554  0.2155 -0.0706 -0.6673
 8095SOL    HW135744   4.053   0.217   3.594  0.4541 -0.0443 -0.4266
 8095SOL    HW235745   4.171   0.139   3.619 -1.5589 -2.2899  0.9757
 8096SOL     OW35746   3.120   1.857  12.427  0.0136 -0.0270  0.1273
 8096SOL    HW135747   3.081   1.780  12.387  0.8907 -1.2226  1.5654
 8096SOL    HW235748   3.039   1.906  12.442 -0.3550 -1.1360  1.8230
 8097SOL     OW35749   2.904   1.640   5.309 -0.1940  0.8069  0.1888
 8097SOL    HW135750   2.867   1.553   5.290 -1.8217  2.2785 -3.3903
 8097SOL    HW235751   2.996   1.634   5.283  0.0881 -0.6312  1.4662
 8098SOL     OW35752   4.029   2.337  16.788 -0.0258  0.2752 -0.5660
 8098SOL    HW135753   4.077   2.365  16.711 -0.1169 -2.1804 -1.5126
 8098SOL    HW235754   3.945   2.364  16.751  1.2138  1.3120 -2.6078
 8099SOL     OW35755   4.194   0.598   5.063 -0.1000  0.3445  0.0881
 8099SOL    HW135756   4.263   0.549   5.019 -0.5537 -0.5481  0.3599
 8099SOL    HW235757   4.195   0.677   5.010  0.6507 -0.0761 -0.5179
 8100SOL     OW35758   4.623   4.299  14.700  0.4429 -0.0187 -0.6295
 8100SOL    HW135759   4.628   4.380  14.751  1.8313 -0.8923  0.6245
 8100SOL    HW235760   4.621   4.228  14.764  0.7808 -0.1869 -0.8067
 8101SOL     OW35761   2.680   1.667   9.556 -0.2129 -0.3391  0.3598
 8101SOL    HW135762   2.595   1.692   9.592 -0.9351 -1.0824 -0.8074
 8101SOL    HW235763   2.699   1.730   9.487 -2.3332  0.1904  0.2669
 8102SOL     OW35764   1.734   4.417  10.114  0.2264 -0.2526  0.3196
 8102SOL    HW135765   1.763   4.345  10.170 -2.1830 -0.4661  1.3079
 8102SOL    HW235766   1.798   4.415  10.043  0.4133 -1.3910  0.5254
 8103SOL     OW35767   0.644   0.177   5.542 -0.2044 -0.1238 -0.3948
 8103SOL    HW135768   0.619   0.124   5.467  2.6701 -3.4804  0.9863
 8103SOL    HW235769   0.736   0.151   5.552 -0.4206 -0.3295  1.0451
 8104SOL     OW35770   2.708   2.416   7.103  0.5412 -0.2181  0.0403
 8104SOL    HW135771   2.775   2.368   7.152 -1.0587 -2.0011  0.4886
 8104SOL    HW235772   2.731   2.396   7.012 -0.0813 -1.0487  0.0682
 8105SOL     OW35773   4.324   4.171   9.371  0.1665  0.4628 -0.1945
 8105SOL    HW135774   4.314   4.228   9.294  2.9845 -0.3311 -1.1604
 8105SOL    HW235775   4.361   4.242   9.423  2.2001 -0.4717 -0.3467
 8106SOL     OW35776   1.153   4.702   8.142  0.3412 -0.0620  0.5250
 8106SOL    HW135777   1.141   0.045   8.211 -1.2138 -2.8025  2.9039
 8106SOL    HW235778   1.174   4.628   8.199 -3.6183 -0.6783  1.1822
 8107SOL     OW35779   1.647   1.352   3.424 -0.5414  0.1054  0.0240
 8107SOL    HW135780   1.668   1.261   3.405  1.1134  0.5665 -0.3291
 8107SOL    HW235781   1.676   1.368   3.514 -1.0801  0.4551  0.1381
 8108SOL     OW35782   1.229   0.378  17.173 -0.5635 -0.0858 -0.4073
 8108SOL    HW135783   1.211   0.317  17.102  0.1525  1.0530 -1.5751
 8108SOL    HW235784   1.299   0.330  17.216 -0.6207 -0.0508 -0.2750
 8109SOL     OW35785   0.987   0.186   7.187 -0.1431  0.1879  0.4639
 8109SOL    HW135786   1.061   0.192   7.248  0.1493 -2.4639  0.3303
 8109SOL    HW235787   1.027   0.179   7.100 -0.7263 -0.8881  0.2921
 8110SOL     OW35788   2.926   2.256   8.695 -0.5362  0.1570 -0.4446
 8110SOL    HW135789   3.005   2.225   8.740 -0.8812  0.9065  0.6796
 8110SOL    HW235790   2.970   2.308   8.628 -1.1932  0.4557 -0.6461
 8111SOL     OW35791   4.475   4.257   8.836 -0.0761 -0.2438  0.3884
 8111SOL    HW135792   4.562   4.221   8.857  1.3065  1.9121 -1.6632
 8111SOL    HW235793   4.451   4.299   8.919 -1.2026  1.1139 -0.6314
 8112SOL     OW35794   2.247   2.425   1.837  0.2619  0.0256  0.1718
 8112SOL    HW135795   2.283   2.398   1.922 -0.3275  0.8258  0.6766
 8112SOL    HW235796   2.202   2.345   1.811 -0.1987  0.7038 -1.1213
 8113SOL     OW35797   2.555   1.526   6.322 -0.4131  0.8793 -0.7980
 8113SOL    HW135798   2.648   1.528   6.302 -0.2098 -0.4911 -0.0021
 8113SOL    HW235799   2.522   1.455   6.268  0.1790 -2.9149  3.8199
 8114SOL     OW35800   4.254   3.367   6.986  0.1729  0.1361  0.1953
 8114SOL    HW135801   4.323   3.305   6.964  0.8810  1.6033 -1.7846
 8114SOL    HW235802   4.235   3.326   7.070 -0.2736  0.4872  0.2703
 8115SOL     OW35803   3.158   1.199   4.127  0.0886 -0.2417  0.5697
 8115SOL    HW135804   3.076   1.215   4.174 -0.7459 -3.2352  0.1439
 8115SOL    HW235805   3.216   1.184   4.201 -1.2669 -0.8733  1.4933
 8116SOL     OW35806   1.286   1.103   4.693 -0.0444 -0.1216 -0.1488
 8116SOL    HW135807   1.366   1.154   4.704  1.0492 -1.6871 -0.9392
 8116SOL    HW235808   1.259   1.123   4.783  1.4155  1.6089 -0.0902
 8117SOL     OW35809   2.906   4.538   5.268  0.7106 -0.9424 -0.1913
 8117SOL    HW135810   2.886   4.597   5.340  1.3211 -1.0452  0.0570
 8117SOL    HW235811   2.824   4.555   5.222 -0.0947  3.3781  2.8973
 8118SOL     OW35812   4.683   1.492   4.788  0.1570  0.5894  0.0590
 8118SOL    HW135813   0.031   1.539   4.833  0.4402  0.2283 -0.0067
 8118SOL    HW235814   4.603   1.534   4.820 -0.5058 -0.7077  0.1028
 8119SOL     OW35815   0.524   2.899   2.859 -0.5119  0.5883 -0.0162
 8119SOL    HW135816   0.615   2.928   2.855 -0.0170 -0.9046  0.6446
 8119SOL    HW235817   0.471   2.975   2.835 -1.7407 -0.5400 -0.8839
 8120SOL     OW35818   1.218   2.715   5.390 -0.0245 -1.0175 -0.2971
 8120SOL    HW135819   1.267   2.673   5.461  1.7179  0.3103 -0.7162
 8120SOL    HW235820   1.293   2.738   5.335  0.1551  1.0730  0.8489
 8121SOL     OW35821   4.227   3.438   4.080 -0.5458 -0.1687 -0.3687
 8121SOL    HW135822   4.189   3.375   4.018  0.1805 -2.2597  1.3372
 8121SOL    HW235823   4.315   3.457   4.047 -1.1729  3.2753 -0.0998
 8122SOL     OW35824   0.610   0.358  11.168 -0.4844 -0.0702 -0.1767
 8122SOL    HW135825   0.644   0.273  11.141  0.1031  0.0791  0.0918
 8122SOL    HW235826   0.548   0.385  11.101  0.5227 -1.3949 -1.6350
 8123SOL     OW35827   4.404   2.313   8.548 -0.4448  0.0397 -0.2368
 8123SOL    HW135828   4.367   2.254   8.614 -1.8917  1.2892  0.0781
 8123SOL    HW235829   4.493   2.332   8.579 -0.4774 -3.0059  1.7164
 8124SOL     OW35830   0.940   3.043   3.069 -0.3212 -0.4736 -0.1614
 8124SOL    HW135831   0.915   3.125   3.110  0.1954  0.2492 -1.2822
 8124SOL    HW235832   0.897   3.046   2.983 -1.6545 -0.9703  0.4810
 8125SOL     OW35833   0.448   1.007   5.174  0.8606 -0.5177 -0.1792
 8125SOL    HW135834   0.372   0.967   5.217 -2.0068  1.0363 -3.8737
 8125SOL    HW235835   0.471   1.069   5.243 -1.4646  1.1423 -0.9188
 8126SOL     OW35836   2.473   0.587   3.834 -0.9465  0.1255  0.1064
 8126SOL    HW135837   2.397   0.645   3.823  1.1687  2.7816 -0.3214
 8126SOL    HW235838   2.492   0.577   3.741 -0.4201  2.2352 -0.0047
 8127SOL     OW35839   1.583   2.600   7.833 -0.1899  0.1819 -0.2059
 8127SOL    HW135840   1.532   2.525   7.863 -1.1112  0.8457 -0.1078
 8127SOL    HW235841   1.651   2.549   7.789 -0.4787 -1.2278  0.9904
 8128SOL     OW35842   2.122   0.808  12.944 -0.2612  0.0018 -0.3482
 8128SOL    HW135843   2.179   0.845  13.011  1.9640 -2.1882 -1.0027
 8128SOL    HW235844   2.125   0.715  12.966  0.1411  0.0726 -0.1089
 8129SOL     OW35845   3.584   4.369   8.953 -0.4452  0.4696  0.0948
 8129SOL    HW135846   3.604   4.417   9.034  0.2689  0.9385 -0.3615
 8129SOL    HW235847   3.671   4.376   8.912  0.1139 -2.2652  0.7661
 8130SOL     OW35848   1.048   0.587   0.224 -0.3396  0.5641  0.0809
 8130SOL    HW135849   1.041   0.629   0.310 -1.7368  2.4755 -0.9574
 8130SOL    HW235850   0.969   0.612   0.175  1.1950  1.2628 -2.0593
 8131SOL     OW35851   3.655   3.957   8.748 -0.5347  0.3794  0.4657
 8131SOL    HW135852   3.626   3.973   8.838 -1.2954 -0.1812  0.3242
 8131SOL    HW235853   3.681   4.046   8.727 -2.1030 -0.3146 -4.3680
 8132SOL     OW35854   3.360   1.146  15.856  0.2881  0.1932  0.0191
 8132SOL    HW135855   3.312   1.186  15.784 -1.8833  0.0035  1.3711
 8132SOL    HW235856   3.314   1.062  15.861 -1.9134  1.4034  0.1025
 8133SOL     OW35857   3.326   3.204   7.844 -0.7013  0.1265 -0.2682
 8133SOL    HW135858   3.291   3.131   7.896 -2.1269  1.3611  0.4898
 8133SOL    HW235859   3.265   3.216   7.772 -0.9000 -2.4540 -0.5189
 8134SOL     OW35860   1.569   0.241   4.373 -0.7246 -0.0409  0.1665
 8134SOL    HW135861   1.494   0.219   4.429  0.7571  0.0841  2.2363
 8134SOL    HW235862   1.619   0.159   4.372 -0.8153 -0.1065  0.7368
 8135SOL     OW35863   4.086   1.330   5.417  0.3504 -0.6539 -0.3522
 8135SOL    HW135864   4.096   1.422   5.441 -0.2941 -1.0722  1.5508
 8135SOL    HW235865   4.056   1.339   5.326  0.3887  1.6179 -0.1287
 8136SOL     OW35866   0.814   1.442   8.907 -0.5167 -0.0375  0.3674
 8136SOL    HW135867   0.900   1.485   8.915 -1.3301  1.5728  0.5489
 8136SOL    HW235868   0.846   1.352   8.913 -1.0967 -0.1837  1.4285
 8137SOL     OW35869   3.452   3.959   7.375 -0.4277 -0.0513 -0.9039
 8137SOL    HW135870   3.515   3.936   7.306  0.1073 -1.6006  0.1095
 8137SOL    HW235871   3.486   4.044   7.401 -0.7830  0.0118 -0.6431
 8138SOL     OW35872   3.064   4.677   9.496  0.3905  0.1151  0.7654
 8138SOL    HW135873   3.068   0.049   9.481  0.4587 -0.2944 -1.8092
 8138SOL    HW235874   2.969   4.666   9.503  0.5300 -0.4031  1.7911
 8139SOL     OW35875   1.061   0.400   1.937  0.5324 -0.2133 -0.3161
 8139SOL    HW135876   1.069   0.430   2.028  1.2253 -0.8177 -0.1762
 8139SOL    HW235877   1.077   0.306   1.942  1.6136 -0.1040 -1.7891
 8140SOL     OW35878   1.660   0.115   5.982  0.9940  0.0894  0.2676
 8140SOL    HW135879   1.741   0.077   5.947 -0.3948 -1.5910 -1.1499
 8140SOL    HW235880   1.699   0.181   6.038 -0.9384  1.6355 -0.2194
 8141SOL     OW35881   2.778   2.165  16.867 -0.7369 -0.3632 -0.1871
 8141SOL    HW135882   2.749   2.223  16.938  1.2420 -0.6256  0.8430
 8141SOL    HW235883   2.845   2.223  16.831  1.2830 -0.5178  3.2384
 8142SOL     OW35884   4.246   2.499   3.525 -0.2383 -0.5589  0.2376
 8142SOL    HW135885   4.194   2.433   3.480  0.5055 -0.3618 -0.9136
 8142SOL    HW235886   4.200   2.503   3.609  1.1237  3.5265  0.7894
 8143SOL     OW35887   2.961   1.176   1.238  0.0427 -0.1162 -0.8028
 8143SOL    HW135888   3.046   1.216   1.222  1.8535 -2.6854  2.3205
 8143SOL    HW235889   2.945   1.150   1.148  0.9074  0.5498 -1.1501
 8144SOL     OW35890   1.421   2.217   2.840 -0.2354  0.1509  0.1719
 8144SOL    HW135891   1.329   2.196   2.827  0.0978  0.1118 -2.0581
 8144SOL    HW235892   1.425   2.212   2.936  1.5054 -0.7990  0.0489
 8145SOL     OW35893   0.838   3.743   8.363  0.0591  0.2377 -0.8242
 8145SOL    HW135894   0.802   3.762   8.450  1.2597 -0.8412 -0.0847
 8145SOL    HW235895   0.930   3.741   8.390 -0.0491  0.9389 -0.4083
 8146SOL     OW35896   3.145   2.716  10.676 -0.2177 -0.2866  0.1362
 8146SOL    HW135897   3.070   2.751  10.628  0.6090  1.0976 -0.1279
 8146SOL    HW235898   3.185   2.685  10.595  1.5273  0.9506  0.5379
 8147SOL     OW35899   3.329   4.298   9.084  0.1200  0.1649  0.5941
 8147SOL    HW135900   3.272   4.228   9.052  0.1678  0.6052 -0.4668
 8147SOL    HW235901   3.407   4.305   9.029 -0.1758  1.5185  0.3309
 8148SOL     OW35902   4.328   2.916   3.475  0.0302 -0.4008  0.1537
 8148SOL    HW135903   4.310   2.892   3.384 -0.1805  0.9051 -0.1408
 8148SOL    HW235904   4.251   2.880   3.520 -0.4578  1.7448  1.0498
 8149SOL     OW35905   2.524   0.780  16.057  0.5872  0.0286  0.0629
 8149SOL    HW135906   2.596   0.821  16.105 -0.1466  2.5725 -0.9886
 8149SOL    HW235907   2.560   0.770  15.969 -1.8246  3.1349 -1.2468
 8150SOL     OW35908   4.713   0.342   7.107 -0.3164  0.4038 -0.0030
 8150SOL    HW135909   4.684   0.257   7.073 -0.7982  1.7129 -2.8328
 8150SOL    HW235910   4.637   0.397   7.090  0.2288  1.1942  0.1069
 8151SOL     OW35911   1.928   4.338   0.297  0.5528  0.2062 -0.3659
 8151SOL    HW135912   1.858   4.359   0.235 -0.1621  0.7272  0.5990
 8151SOL    HW235913   1.945   4.245   0.283  0.2235 -0.1424  1.4471
 8152SOL     OW35914   0.397   2.574   6.035 -0.3463  0.2711  0.3758
 8152SOL    HW135915   0.315   2.606   6.073 -0.3103 -0.4823  1.0721
 8152SOL    HW235916   0.381   2.481   6.053 -0.5521 -0.0302 -1.3561
 8153SOL     OW35917   1.670   4.226   7.523  0.1187  0.3912 -0.4334
 8153SOL    HW135918   1.590   4.277   7.541 -0.4927 -0.8390  0.3048
 8153SOL    HW235919   1.736   4.296   7.522  0.1536  0.3801  1.1591
 8154SOL     OW35920   0.314   1.354   5.354 -0.3608  0.0140  0.2648
 8154SOL    HW135921   0.245   1.420   5.363  1.1107  1.1923  2.8075
 8154SOL    HW235922   0.303   1.330   5.262 -1.8716 -2.6180  1.1240
 8155SOL     OW35923   3.149   3.263   3.189 -0.1356  0.2293 -0.1271
 8155SOL    HW135924   3.096   3.184   3.188  0.1540  0.0112  1.1665
 8155SOL    HW235925   3.195   3.237   3.109  0.9009 -1.3285  0.9717
 8156SOL     OW35926   1.820   4.318   7.100 -0.3195  0.0822 -0.1596
 8156SOL    HW135927   1.730   4.348   7.088  0.2457  2.0665  0.6266
 8156SOL    HW235928   1.805   4.238   7.151  1.8054 -0.3471 -0.2154
 8157SOL     OW35929   3.557   2.934   5.075 -0.1467 -0.5289 -0.0523
 8157SOL    HW135930   3.621   2.863   5.083  0.6756  0.3954  1.5070
 8157SOL    HW235931   3.603   3.002   5.126  3.0282 -1.1332 -2.0521
 8158SOL     OW35932   2.234   0.955   4.781  0.4978  0.7625  0.6282
 8158SOL    HW135933   2.155   0.944   4.727 -0.1042  0.1423  1.6423
 8158SOL    HW235934   2.252   0.872   4.824 -0.4310  1.1511  1.7623
 8159SOL     OW35935   1.764   1.883   1.349 -0.5318 -0.1080  0.3368
 8159SOL    HW135936   1.669   1.882   1.343 -0.6078 -1.7355  1.6399
 8159SOL    HW235937   1.802   1.864   1.263 -0.8811  1.5449 -0.1825
 8160SOL     OW35938   1.834   0.463   3.975 -0.2951 -0.0217  0.1640
 8160SOL    HW135939   1.908   0.517   4.000  1.0370 -1.4718 -0.6165
 8160SOL    HW235940   1.763   0.507   4.022 -2.1462 -0.1237 -2.5037
 8161SOL     OW35941   1.340   2.732   7.759 -0.2046 -0.0470  0.0692
 8161SOL    HW135942   1.375   2.820   7.771 -1.5778 -0.1059  4.2759
 8161SOL    HW235943   1.416   2.679   7.783 -1.2845  0.0309  3.5344
 8162SOL     OW35944   0.638   0.599   2.792 -0.5134 -0.4228  0.2848
 8162SOL    HW135945   0.577   0.571   2.861 -0.1730 -1.4668  0.1623
 8162SOL    HW235946   0.632   0.694   2.801  2.0214 -0.0506 -1.9553
 8163SOL     OW35947   4.436   3.676   9.113 -0.2580  0.2915  0.1381
 8163SOL    HW135948   4.491   3.635   9.180  0.7541  1.7286  0.1871
 8163SOL    HW235949   4.353   3.676   9.161 -0.1498  2.6601  0.3206
 8164SOL     OW35950   2.772   2.806   5.789  0.3518  0.4107  0.3367
 8164SOL    HW135951   2.866   2.805   5.771 -0.4245 -0.0280 -3.6517
 8164SOL    HW235952   2.767   2.746   5.863  3.3034  0.7647  0.8205
 8165SOL     OW35953   1.959   1.901   2.099 -0.0202  0.5196 -0.3782
 8165SOL    HW135954   1.994   1.984   2.067 -1.0224  0.9113 -0.4527
 8165SOL    HW235955   2.002   1.842   2.037 -2.6699 -0.3321 -1.4024
 8166SOL     OW35956   2.398   0.163   8.457 -0.0622 -0.0278  0.6040
 8166SOL    HW135957   2.321   0.123   8.496 -0.7731  0.5326 -0.2087
 8166SOL    HW235958   2.394   0.136   8.365 -0.2567  0.4407  0.4727
 8167SOL     OW35959   0.468   2.386   8.189 -0.3346  0.0185 -0.4024
 8167SOL    HW135960   0.436   2.353   8.105  4.2700 -1.2772 -1.6656
 8167SOL    HW235961   0.488   2.479   8.183  0.9740 -0.2612 -0.2764
 8168SOL     OW35962   3.824   3.309   1.502  0.5691  0.2242 -0.1587
 8168SOL    HW135963   3.858   3.351   1.581 -3.4091  1.8069  0.7218
 8168SOL    HW235964   3.886   3.236   1.505  1.0604  0.6930  0.9651
 8169SOL     OW35965   3.214   1.485   1.879  0.1806 -0.1515 -0.7114
 8169SOL    HW135966   3.209   1.539   1.799  1.2927  0.1924 -0.5409
 8169SOL    HW235967   3.296   1.518   1.915  0.3265 -1.7008  0.3495
 8170SOL     OW35968   3.935   0.239   6.590 -0.1915 -0.2543  0.2391
 8170SOL    HW135969   3.973   0.152   6.577  0.2534  0.3289 -2.4794
 8170SOL    HW235970   3.845   0.227   6.559 -0.1929  0.1005  0.1102
 8171SOL     OW35971   2.392   0.869  13.404 -0.4337  0.2842 -0.0869
 8171SOL    HW135972   2.478   0.897  13.435 -0.6568 -0.6007  1.3287
 8171SOL    HW235973   2.333   0.891  13.476  2.1288  2.6382  1.3036
 8172SOL     OW35974   1.113   1.259   8.149 -0.1558  0.2948  0.1750
 8172SOL    HW135975   1.191   1.295   8.190 -0.4762 -0.3584  1.3726
 8172SOL    HW235976   1.083   1.191   8.209  0.7480  0.2596  0.5736
 8173SOL     OW35977   4.326   0.084   6.854 -0.5864 -0.1534 -0.5206
 8173SOL    HW135978   4.325   0.041   6.769  3.1301  0.9232 -1.0834
 8173SOL    HW235979   4.366   0.170   6.842 -1.9239  0.6833  0.9873
 8174SOL     OW35980   3.993   0.408   5.410  0.1412  0.0436 -0.0263
 8174SOL    HW135981   3.935   0.422   5.335 -0.5627 -1.7794  0.1745
 8174SOL    HW235982   4.010   0.498   5.439  0.1409 -0.3531  1.2385
 8175SOL     OW35983   4.696   0.557   0.146 -0.0260  0.2052 -0.5958
 8175SOL    HW135984   0.061   0.595   0.152 -0.0769  0.2100  0.0539
 8175SOL    HW235985   4.682   0.529   0.236 -0.2563  2.8830  0.1969
 8176SOL     OW35986   3.773   2.014   3.335  0.7630  0.4620  0.0685
 8176SOL    HW135987   3.706   2.006   3.266 -1.3935 -0.9391  2.3224
 8176SOL    HW235988   3.844   2.048   3.281 -0.3037 -1.0369 -2.2687
 8177SOL     OW35989   1.452   1.682   6.577  0.0192 -0.2152 -0.5556
 8177SOL    HW135990   1.451   1.711   6.668  2.3816  3.6678 -1.7983
 8177SOL    HW235991   1.366   1.707   6.543 -1.3554 -1.8424  1.7557
 8178SOL     OW35992   2.264   3.040   3.975  0.6034 -0.3374  0.0811
 8178SOL    HW135993   2.278   2.945   3.976  3.7483  0.1360 -1.1048
 8178SOL    HW235994   2.282   3.043   3.882  2.8770 -2.4845  0.4585
 8179SOL     OW35995   3.153   1.358   2.616  0.9322  0.0730  0.0261
 8179SOL    HW135996   3.172   1.272   2.579  2.6635  0.6742 -0.4822
 8179SOL    HW235997   3.232   1.408   2.596  1.0006 -0.9603 -2.2855
 8180SOL     OW35998   4.136   0.316   4.904 -0.4369 -0.0384  0.0950
 8180SOL    HW135999   4.213   0.338   4.852 -0.9804  2.8109  0.4690
 8180SOL    HW236000   4.075   0.291   4.835  0.8060  3.2943 -2.2560
 8181SOL     OW36001   2.651   1.805  10.920  0.3577  0.3243  0.3938
 8181SOL    HW136002   2.599   1.767  10.990 -0.0347 -1.0528 -0.6592
 8181SOL    HW236003   2.720   1.740  10.905 -0.6591 -1.1648  2.2307
 8182SOL     OW36004   0.608   1.950  11.310 -0.8765 -0.0359 -0.1252
 8182SOL    HW136005   0.668   1.957  11.237  0.8240  0.1042  1.2837
 8182SOL    HW236006   0.527   1.980  11.269 -0.9508  0.3806  0.3203
 8183SOL     OW36007   4.262   4.430   6.590 -0.0716 -0.5094  0.1486
 8183SOL    HW136008   4.212   4.412   6.670 -1.1727 -0.4007 -0.5188
 8183SOL    HW236009   4.341   4.382   6.615 -0.0642 -0.7865 -0.3904
 8184SOL     OW36010   4.180   2.229   3.130  0.0675  0.1572  0.5209
 8184SOL    HW136011   4.259   2.274   3.162 -0.2439 -0.8229  2.6715
 8184SOL    HW236012   4.176   2.259   3.039 -1.4324  0.7082  0.7637
 8185SOL     OW36013   0.257   1.885   7.859 -0.2021 -0.3463 -0.0717
 8185SOL    HW136014   0.339   1.888   7.810  0.0118  0.8854  0.3561
 8185SOL    HW236015   0.227   1.795   7.853  1.6496 -0.9791  0.2325
 8186SOL     OW36016   1.342   4.060   6.440 -0.1558  0.1316  0.7370
 8186SOL    HW136017   1.395   4.126   6.485  1.1112 -1.2368  1.2525
 8186SOL    HW236018   1.259   4.104   6.459 -2.0634 -3.0372 -0.1878
 8187SOL     OW36019   0.683   4.598  14.269  0.5104  0.0915 -0.1936
 8187SOL    HW136020   0.769   4.596  14.312  0.7716 -0.5166 -0.7497
 8187SOL    HW236021   0.668   4.509  14.239  1.3107 -1.1353  3.0220
 8188SOL     OW36022   2.601   1.887   0.248 -0.1329  0.1510 -0.0845
 8188SOL    HW136023   2.668   1.855   0.188  0.9557  0.9420  0.7018
 8188SOL    HW236024   2.629   1.978   0.236  1.3229  0.0553  2.6471
 8189SOL     OW36025   3.112   0.105   2.950 -0.1534 -0.2552 -0.2269
 8189SOL    HW136026   3.131   0.199   2.942 -1.0532 -0.0351  0.2809
 8189SOL    HW236027   3.037   0.108   3.010 -0.5310 -1.1675 -0.6488
 8190SOL     OW36028   3.289   3.069   4.772  0.1564 -0.1543  0.6671
 8190SOL    HW136029   3.338   3.099   4.695  0.0842 -0.7574  0.3842
 8190SOL    HW236030   3.204   3.055   4.731  1.0649  2.6790 -2.2503
 8191SOL     OW36031   2.365   4.077   9.667 -1.0976 -0.0124 -0.2480
 8191SOL    HW136032   2.344   3.994   9.624 -1.8985 -0.1035  0.3151
 8191SOL    HW236033   2.417   4.063   9.746 -1.8622 -3.1841 -0.3119
 8192SOL     OW36034   0.198   0.493  10.969  0.0016 -0.1982  0.0504
 8192SOL    HW136035   0.287   0.466  10.950 -0.5844 -1.0247 -1.5424
 8192SOL    HW236036   0.212   0.522  11.059  1.0148 -0.5823  0.0173
 8193SOL     OW36037   2.790   2.369  15.971 -0.3429  0.1902  0.0865
 8193SOL    HW136038   2.834   2.290  16.002 -1.2936 -0.2035  0.4224
 8193SOL    HW236039   2.851   2.441  15.989  0.6442 -0.6532  0.1496
 8194SOL     OW36040   2.016   3.559   5.235 -0.4874  0.0969 -0.4461
 8194SOL    HW136041   1.982   3.484   5.285  1.7119 -0.6473 -0.0687
 8194SOL    HW236042   1.978   3.636   5.276 -2.1174 -1.0861  0.2886
 8195SOL     OW36043   0.064   4.552   2.842 -0.0289  0.0142  0.6356
 8195SOL    HW136044   0.039   4.472   2.888  4.4338 -1.6040  0.2276
 8195SOL    HW236045   0.146   4.525   2.799  0.7836  1.3442  1.3493
 8196SOL     OW36046   2.619   3.299   9.158  0.1908 -0.4114 -0.0918
 8196SOL    HW136047   2.525   3.300   9.143 -0.4770 -0.0981  4.1806
 8196SOL    HW236048   2.653   3.363   9.095 -3.3048  1.3878 -0.1232
 8197SOL     OW36049   3.045   0.992   0.336 -0.6255 -0.2771  0.0553
 8197SOL    HW136050   3.101   1.061   0.301 -1.6544 -0.1769 -1.3749
 8197SOL    HW236051   2.969   1.004   0.279 -1.6542  0.8106  1.6600
 8198SOL     OW36052   2.054   0.063  16.304 -0.5236  0.0376  0.1863
 8198SOL    HW136053   2.091   0.085  16.389 -1.2620 -0.5448  0.6646
 8198SOL    HW236054   2.043   4.691  16.310  3.1623 -0.3093  0.9869
 8199SOL     OW36055   4.101   4.570   8.202  0.8014 -0.0354 -0.9343
 8199SOL    HW136056   4.118   4.653   8.246  1.3805 -0.8568  0.3793
 8199SOL    HW236057   4.045   4.527   8.266  1.9192 -1.6030 -1.0181
 8200SOL     OW36058   4.156   3.998   4.107 -0.0630  0.3273 -0.5069
 8200SOL    HW136059   4.079   4.029   4.059  0.9676  0.5328 -2.0329
 8200SOL    HW236060   4.147   4.059   4.180 -0.9431 -0.5490  0.1334
 8201SOL     OW36061   2.052   2.435   2.172 -0.0311  0.0072  0.1996
 8201SOL    HW136062   2.014   2.491   2.105 -1.0709  1.1778  1.7649
 8201SOL    HW236063   2.144   2.461   2.177 -0.1736  0.3974  0.7794
 8202SOL     OW36064   3.013   1.253   1.501 -0.4922  0.2206  0.4218
 8202SOL    HW136065   3.103   1.285   1.515  0.2083 -1.4100 -0.2998
 8202SOL    HW236066   2.997   1.262   1.407  3.7633  1.4324 -0.2311
 8203SOL     OW36067   0.535   1.869  10.568 -0.1212 -0.1037 -0.2014
 8203SOL    HW136068   0.595   1.805  10.606 -2.3176 -1.5215  0.8299
 8203SOL    HW236069   0.587   1.909  10.498 -1.8874  1.8816 -0.3507
 8204SOL     OW36070   1.486   3.694   5.486 -0.0940  0.2528 -0.4934
 8204SOL    HW136071   1.483   3.745   5.567 -0.7826  0.9969 -0.9934
 8204SOL    HW236072   1.392   3.675   5.490  0.0579 -0.3409  0.2878
 8205SOL     OW36073   4.522   1.317  11.748 -0.4534  0.1713  0.3483
 8205SOL    HW136074   4.437   1.343  11.783  0.6469  2.8228  1.0254
 8205SOL    HW236075   4.564   1.276  11.823 -0.3344 -1.3858 -0.5654
 8206SOL     OW36076   0.644   2.325   4.384 -0.2116 -0.1483 -0.2617
 8206SOL    HW136077   0.689   2.410   4.383 -0.7588  0.1464  0.4275
 8206SOL    HW236078   0.578   2.344   4.317  0.5191  2.2364 -0.3108
 8207SOL     OW36079   4.086   3.234  16.802  0.3589  0.6635 -0.4632
 8207SOL    HW136080   4.096   3.167  16.735  0.1680  0.1129  0.0653
 8207SOL    HW236081   4.016   3.202  16.858 -0.6011 -1.1801 -2.7564
 8208SOL     OW36082   4.506   2.042  10.896  1.4043  0.1237 -0.0423
 8208SOL    HW136083   4.543   2.059  10.809  1.1712  0.5446 -0.0584
 8208SOL    HW236084   4.507   1.947  10.894 -0.7764  0.0880  1.2012
 8209SOL     OW36085   2.628   4.215   2.670  0.2841  0.0430 -0.5605
 8209SOL    HW136086   2.722   4.227   2.681  0.3569 -0.5921 -0.4956
 8209SOL    HW236087   2.642   4.134   2.622 -0.1746 -0.1801 -0.3190
 8210SOL     OW36088   3.844   2.767   1.012  0.1303  0.2868  0.1024
 8210SOL    HW136089   3.879   2.809   1.091 -0.7306  1.1709  0.0071
 8210SOL    HW236090   3.920   2.723   0.974  0.3211 -0.0761  0.9117
 8211SOL     OW36091   0.101   1.699   2.329  0.0974  0.3401 -0.1302
 8211SOL    HW136092   0.072   1.614   2.297 -1.2867  0.7421  0.0246
 8211SOL    HW236093   0.092   1.761   2.256 -0.5467 -0.4687 -0.7433
 8212SOL     OW36094   2.652   3.677   4.229 -0.6992  0.2309 -0.3513
 8212SOL    HW136095   2.692   3.762   4.247  0.7513 -0.1456 -1.8467
 8212SOL    HW236096   2.655   3.670   4.134  0.6576  1.5604 -0.4000
 8213SOL     OW36097   1.375   1.609   5.300 -0.0294 -0.0980  0.4646
 8213SOL    HW136098   1.464   1.643   5.310  0.0343 -0.4741  1.1471
 8213SOL    HW236099   1.394   1.545   5.232  0.3731  1.5372 -0.9467
 8214SOL     OW36100   0.257   0.469   7.588 -0.1651 -0.4625 -0.1474
 8214SOL    HW136101   0.268   0.376   7.607  0.3732 -0.4644 -0.4621
 8214SOL    HW236102   0.215   0.516   7.660 -0.1796  1.0301 -1.1252
 8215SOL     OW36103   2.281   3.159   5.448  0.0130 -0.5676 -0.5230
 8215SOL    HW136104   2.371   3.139   5.422  0.7892  2.1069  0.1667
 8215SOL    HW236105   2.287   3.252   5.467  4.2563 -0.6256 -1.4926
 8216SOL     OW36106   3.715   2.559   6.448 -0.1156  0.0604  0.1747
 8216SOL    HW136107   3.663   2.479   6.456  1.0846 -1.0665 -3.2115
 8216SOL    HW236108   3.646   2.623   6.432 -2.6840 -3.0997 -1.1967
 8217SOL     OW36109   2.541   1.016   2.423  0.1011  0.3249  0.4252
 8217SOL    HW136110   2.596   1.085   2.385 -2.6379  2.1781 -0.1724
 8217SOL    HW236111   2.485   1.020   2.346  1.3988  0.8078 -0.5011
 8218SOL     OW36112   2.562   2.127   1.881  0.3008 -0.2484  0.3499
 8218SOL    HW136113   2.635   2.066   1.872  2.1782  2.2119 -0.9577
 8218SOL    HW236114   2.546   2.139   1.975 -1.0774  0.3615  0.0366
 8219SOL     OW36115   2.821   4.012  11.442  0.7130 -0.1517  0.3371
 8219SOL    HW136116   2.882   3.968  11.383 -0.9950  0.3560 -1.7841
 8219SOL    HW236117   2.834   4.104  11.418  1.1810 -0.3638 -0.2220
 8220SOL     OW36118   4.149   0.934   9.944 -0.3420 -0.2189 -0.5208
 8220SOL    HW136119   4.061   0.969   9.959 -0.0859 -0.5377  1.7513
 8220SOL    HW236120   4.200   1.009   9.913 -0.5152 -0.8631 -2.3606
 8221SOL     OW36121   4.409   2.252  11.053 -0.1169 -0.2853  0.4083
 8221SOL    HW136122   4.324   2.242  11.009  1.4497 -4.2167 -1.7226
 8221SOL    HW236123   4.451   2.172  11.023  0.9404  0.9465 -1.4098
 8222SOL     OW36124   1.648   0.518   9.573 -0.1026  0.7383  0.1399
 8222SOL    HW136125   1.738   0.488   9.562 -0.4123 -0.2394  0.2738
 8222SOL    HW236126   1.630   0.470   9.654 -0.9865 -2.3828 -1.9067
 8223SOL     OW36127   3.168   3.861   0.842 -0.2888 -0.6659 -0.1751
 8223SOL    HW136128   3.126   3.943   0.817  0.9823 -0.1604 -0.6395
 8223SOL    HW236129   3.126   3.854   0.927 -1.8905  0.9076 -0.8341
 8224SOL     OW36130   1.427   1.129  17.178 -0.5352  0.0527 -0.5731
 8224SOL    HW136131   1.485   1.099  17.108  0.7239  1.1131  0.0083
 8224SOL    HW236132   1.466   1.215  17.192  3.5846 -1.8809 -0.1501
 8225SOL     OW36133   3.994   4.198   1.299 -0.0873 -0.6110  0.5834
 8225SOL    HW136134   3.935   4.140   1.348  0.5164 -0.1180  1.8849
 8225SOL    HW236135   4.016   4.258   1.370 -2.7034  1.9436 -0.7486
 8226SOL     OW36136   3.725   0.448  10.879 -0.4367 -0.1111  0.5907
 8226SOL    HW136137   3.763   0.465  10.965  0.9705  0.0977 -0.0751
 8226SOL    HW236138   3.800   0.443  10.820 -0.5209 -0.7120  0.5370
 8227SOL     OW36139   3.806   0.566   3.695  0.3191  0.1136  0.6841
 8227SOL    HW136140   3.715   0.559   3.667  0.0824  0.5143  1.3529
 8227SOL    HW236141   3.815   0.639   3.757  1.8984  0.6782 -0.2113
 8228SOL     OW36142   1.743   4.437   3.709  0.2817  0.3867 -0.1105
 8228SOL    HW136143   1.748   4.343   3.693 -2.6217  0.3826 -1.0765
 8228SOL    HW236144   1.773   4.469   3.624 -1.5907 -0.9358 -1.2685
 8229SOL     OW36145   1.473   3.641   5.890 -0.3244 -0.3018  0.3523
 8229SOL    HW136146   1.514   3.570   5.839 -0.0823  0.1493 -0.0772
 8229SOL    HW236147   1.414   3.684   5.828  2.2298  0.9552 -1.2351
 8230SOL     OW36148   3.082   3.992   7.610 -0.3388  0.3066 -0.1872
 8230SOL    HW136149   3.129   3.917   7.573  1.1421  0.8054  0.6886
 8230SOL    HW236150   3.137   4.032   7.676  2.3121  0.1203 -2.2888
 8231SOL     OW36151   2.056   0.667   0.456  0.2096  0.4555 -0.4391
 8231SOL    HW136152   2.000   0.621   0.518  1.2492  1.6554  1.3980
 8231SOL    HW236153   2.007   0.748   0.439 -0.6404  0.1871  0.7204
 8232SOL     OW36154   1.432   0.388  12.119 -0.4034 -0.1236 -0.0880
 8232SOL    HW136155   1.448   0.452  12.188 -2.0343 -0.8970  1.0159
 8232SOL    HW236156   1.336   0.391  12.119 -0.4085 -0.3155 -0.8715
 8233SOL     OW36157   2.878   3.009  17.362 -0.9959 -0.2346 -0.2047
 8233SOL    HW136158   2.858   3.085  17.417  2.3777  0.5791 -0.1075
 8233SOL    HW236159   2.798   2.957  17.356 -1.9217  1.6122 -3.9409
 8234SOL     OW36160   2.554   0.116   7.550  0.1521  0.4575 -0.4378
 8234SOL    HW136161   2.492   0.128   7.478 -0.5939  2.7124  0.5883
 8234SOL    HW236162   2.539   0.197   7.599 -1.1231  0.5227 -0.9568
 8235SOL     OW36163   2.133   2.059   7.471  0.3613 -0.0054 -0.1378
 8235SOL    HW136164   2.202   2.025   7.413 -0.2595  1.9711 -2.0289
 8235SOL    HW236165   2.179   2.140   7.493  0.4940  0.1825 -1.1201
 8236SOL     OW36166   4.007   0.360  15.153  0.3343 -0.1951 -0.1344
 8236SOL    HW136167   4.079   0.331  15.209  2.9136  0.0713 -3.2783
 8236SOL    HW236168   3.935   0.299  15.173 -1.3211  2.0856  0.8191
 8237SOL     OW36169   2.619   0.125   9.068  0.1337  0.9251 -0.1278
 8237SOL    HW136170   2.580   0.082   8.992 -1.2940  1.5837  0.2324
 8237SOL    HW236171   2.582   0.079   9.143  0.5760  0.9538  0.1105
 8238SOL     OW36172   2.887   1.686   9.076  0.8766 -0.1205  0.3338
 8238SOL    HW136173   2.805   1.684   9.125  0.7372 -0.2900  0.0967
 8238SOL    HW236174   2.953   1.668   9.143  0.7599  1.5925  0.9084
 8239SOL     OW36175   4.112   3.231   8.001 -0.5572 -0.6613  0.1260
 8239SOL    HW136176   4.116   3.325   7.984 -0.7346 -0.7989 -0.6726
 8239SOL    HW236177   4.058   3.225   8.080 -1.3327  2.3294 -0.1860
 8240SOL     OW36178   2.854   4.568   3.636  0.1124 -0.5339 -0.0704
 8240SOL    HW136179   2.785   4.625   3.601 -0.1076 -1.6345 -1.4514
 8240SOL    HW236180   2.841   4.567   3.731  1.7443  0.4014  0.1534
 8241SOL     OW36181   3.717   1.683   6.613 -0.5130  0.0376 -0.0823
 8241SOL    HW136182   3.697   1.715   6.701  0.0009  0.8293 -0.2540
 8241SOL    HW236183   3.810   1.706   6.609  0.1386 -2.6411 -0.3785
 8242SOL     OW36184   2.823   0.577   4.143 -0.0247 -0.1890  0.1347
 8242SOL    HW136185   2.825   0.482   4.135  0.8895 -0.0598 -1.1614
 8242SOL    HW236186   2.828   0.589   4.238 -1.9454 -0.0072  0.2155
 8243SOL     OW36187   2.132   0.840  10.880 -0.4354  0.2643 -0.2460
 8243SOL    HW136188   2.131   0.917  10.937 -1.3298  0.0946 -0.0340
 8243SOL    HW236189   2.088   0.774  10.933 -1.4385  1.0480 -0.1048
 8244SOL     OW36190   2.538   4.368   5.857  0.1951  0.3246 -0.1359
 8244SOL    HW136191   2.461   4.390   5.909  0.0485  0.0361 -0.2306
 8244SOL    HW236192   2.505   4.286   5.821 -0.7334 -0.1576  1.7936
 8245SOL     OW36193   2.075   4.655   6.580 -0.2277  0.1192  0.0337
 8245SOL    HW136194   2.080   4.665   6.675 -3.7631  0.1232  0.1929
 8245SOL    HW236195   1.990   4.613   6.572 -0.5803  0.1508  3.5124
 8246SOL     OW36196   2.885   0.700   1.254 -0.0260 -0.0279  0.1923
 8246SOL    HW136197   2.822   0.654   1.310 -1.2228  1.4282  0.0364
 8246SOL    HW236198   2.887   0.789   1.289 -1.1459 -1.0774  2.9076
 8247SOL     OW36199   3.566   3.662   3.914 -0.5207 -0.2450  0.3164
 8247SOL    HW136200   3.650   3.693   3.947  0.6158  0.2049 -2.9718
 8247SOL    HW236201   3.523   3.741   3.881 -0.9938  0.3795  2.4480
 8248SOL     OW36202   3.256   1.132   3.634 -0.2544 -0.2217 -0.6468
 8248SOL    HW136203   3.287   1.060   3.689 -0.6105 -0.2229 -0.4478
 8248SOL    HW236204   3.252   1.079   3.555 -1.6874 -0.9201 -0.0940
 8249SOL     OW36205   1.677   4.558  12.869 -0.1504 -0.2178  0.5997
 8249SOL    HW136206   1.746   4.610  12.828  0.5772 -0.7622  1.1350
 8249SOL    HW236207   1.687   4.595  12.956  0.8799  0.1669  0.3131
 8250SOL     OW36208   1.453   0.446   9.173  0.3812  0.4440 -0.1462
 8250SOL    HW136209   1.370   0.403   9.154 -0.2237  0.9354  1.3894
 8250SOL    HW236210   1.520   0.398   9.124 -0.0259 -0.0307 -0.2416
 8251SOL     OW36211   1.659   1.252   3.117 -0.3083  0.5749 -0.2543
 8251SOL    HW136212   1.744   1.241   3.159 -0.1900  2.9662  0.0881
 8251SOL    HW236213   1.692   1.274   3.030 -1.2208  0.8224 -0.5363
 8252SOL     OW36214   0.743   4.404   0.261  0.0053 -0.0624  0.4044
 8252SOL    HW136215   0.707   4.406   0.172  0.9266 -0.0955  0.0282
 8252SOL    HW236216   0.835   4.380   0.248  0.0252  0.7673 -1.0027
 8253SOL     OW36217   1.198   0.851   9.340 -0.3048 -0.1474  0.1097
 8253SOL    HW136218   1.284   0.874   9.375  0.6709  1.6585 -3.4766
 8253SOL    HW236219   1.164   0.834   9.428 -1.4725 -1.1348 -0.5358
 8254SOL     OW36220   3.408   0.519   3.549 -0.6109 -0.4162 -0.3519
 8254SOL    HW136221   3.467   0.572   3.602 -2.3979  0.6365  0.5584
 8254SOL    HW236222   3.342   0.504   3.616 -2.0956  0.3780 -1.6479
 8255SOL     OW36223   1.540   3.671  14.010  0.2503 -0.8724  0.2245
 8255SOL    HW136224   1.611   3.725  13.976 -0.4158  0.2624  0.6113
 8255SOL    HW236225   1.580   3.594  14.050  0.4842 -0.7573  0.2123
 8256SOL     OW36226   0.853   3.057   8.868  0.4991  0.6253  0.5857
 8256SOL    HW136227   0.776   3.030   8.920 -0.6052 -0.6587 -1.6988
 8256SOL    HW236228   0.907   2.978   8.866 -1.8357 -1.0384  2.2160
 8257SOL     OW36229   2.068   4.005   5.627  0.6939  0.0701 -0.5285
 8257SOL    HW136230   2.005   4.013   5.555 -0.6467  0.1184  0.6361
 8257SOL    HW236231   2.073   3.911   5.646  2.2514 -0.2615 -2.6452
 8258SOL     OW36232   1.997   3.989  16.128 -0.2531 -0.0749 -0.3232
 8258SOL    HW136233   1.908   4.001  16.095 -0.3454 -1.5346 -0.6236
 8258SOL    HW236234   2.045   3.941  16.060 -0.3081 -0.0460 -0.3827
 8259SOL     OW36235   2.898   3.044   7.962  0.2465  0.3965  0.1695
 8259SOL    HW136236   2.895   2.962   7.914  0.7644  1.1315 -1.1436
 8259SOL    HW236237   2.974   3.022   8.016 -0.7818 -3.2189  0.0744
 8260SOL     OW36238   0.936   4.220   6.164  0.4492 -0.4731 -0.2152
 8260SOL    HW136239   0.903   4.169   6.238  1.2436  1.5087  1.4945
 8260SOL    HW236240   0.998   4.163   6.120  2.3791  0.8217  0.8208
 8261SOL     OW36241   1.354   3.301  16.619  0.5430  0.1205 -0.0507
 8261SOL    HW136242   1.406   3.231  16.579  1.1479  0.6370 -0.1762
 8261SOL    HW236243   1.369   3.369  16.554  0.2134  0.1029 -0.1406
 8262SOL     OW36244   0.216   3.631   0.409  0.2208 -0.5738 -0.0907
 8262SOL    HW136245   0.147   3.644   0.474  0.5772  0.2627  0.1162
 8262SOL    HW236246   0.278   3.690   0.451 -0.7870  0.6135 -0.2535
 8263SOL     OW36247   1.292   1.401   4.303 -0.5899  0.0264  0.0281
 8263SOL    HW136248   1.258   1.383   4.391  0.5649 -0.2617  0.4208
 8263SOL    HW236249   1.297   1.311   4.273  0.6700  0.9387 -2.5273
 8264SOL     OW36250   1.438   4.471  12.143  0.5865  0.5719  0.6901
 8264SOL    HW136251   1.479   4.511  12.219 -1.4675 -0.0724  2.1367
 8264SOL    HW236252   1.397   4.393  12.181  1.3101 -0.8209 -1.3565
 8265SOL     OW36253   1.234   0.847   8.507  0.2521 -0.7210  0.3625
 8265SOL    HW136254   1.177   0.924   8.508 -0.5919 -1.3394  0.1690
 8265SOL    HW236255   1.187   0.800   8.575 -2.5264  3.6740  1.4604
 8266SOL     OW36256   4.209   4.390  12.827  0.0281 -0.3954  0.2812
 8266SOL    HW136257   4.177   4.351  12.746  0.0061  0.2526 -0.0278
 8266SOL    HW236258   4.297   4.352  12.830  0.3993  0.1131 -4.0320
 8267SOL     OW36259   2.131   2.734  12.888 -0.4066  0.3282 -0.0244
 8267SOL    HW136260   2.113   2.806  12.827  0.7333 -1.7551 -2.8283
 8267SOL    HW236261   2.169   2.782  12.961 -0.5429 -1.6164  1.3396
 8268SOL     OW36262   2.375   2.066   2.598 -0.0685  0.3595  0.4033
 8268SOL    HW136263   2.399   2.063   2.506 -0.1888 -0.8721  0.3999
 8268SOL    HW236264   2.282   2.090   2.595 -0.7758 -2.3345  0.0325
 8269SOL     OW36265   2.169   1.074   0.230  0.7340 -0.1570  0.0961
 8269SOL    HW136266   2.226   1.091   0.305 -0.0051  0.8435  0.4235
 8269SOL    HW236267   2.196   1.142   0.169  0.8828  0.2563  0.6228
 8270SOL     OW36268   3.372   2.977   0.653  0.8954  0.7722 -0.1473
 8270SOL    HW136269   3.454   2.962   0.699  1.4418  1.7209 -0.8212
 8270SOL    HW236270   3.391   3.059   0.608 -0.3186  1.0579 -0.1497
 8271SOL     OW36271   1.411   0.777  15.723  0.3474  0.2170 -0.2489
 8271SOL    HW136272   1.405   0.735  15.637  2.3748  0.1414 -0.3581
 8271SOL    HW236273   1.321   0.800  15.744 -0.3297 -1.8720 -0.8197
 8272SOL     OW36274   0.629   3.682   0.801 -0.3877  0.0826 -0.1303
 8272SOL    HW136275   0.549   3.717   0.841 -1.1920  0.4455 -2.0220
 8272SOL    HW236276   0.632   3.596   0.841  0.4544  0.7908  1.3004
 8273SOL     OW36277   2.036   2.653   4.630  0.3106 -0.5547  0.3372
 8273SOL    HW136278   1.970   2.721   4.633  0.3717 -0.4733 -0.1977
 8273SOL    HW236279   2.096   2.654   4.705  0.3876 -1.0711  0.2881
 8274SOL     OW36280   3.645   2.447   6.089  0.4330  0.1718 -0.0545
 8274SOL    HW136281   3.550   2.441   6.100  0.7812 -2.2137  1.7642
 8274SOL    HW236282   3.667   2.367   6.137 -2.2231 -0.1013  0.6973
 8275SOL     OW36283   2.558   2.214   5.184  0.0896  0.0234  0.0432
 8275SOL    HW136284   2.623   2.204   5.253 -0.3976 -1.2089  0.3402
 8275SOL    HW236285   2.548   2.119   5.171 -0.8973  0.0144  0.9182
 8276SOL     OW36286   4.238   3.602   5.739  0.2291 -0.4881  0.1723
 8276SOL    HW136287   4.169   3.535   5.734  0.6500 -1.0611  2.0812
 8276SOL    HW236288   4.182   3.673   5.708  0.0259 -1.1882 -1.0614
 8277SOL     OW36289   3.741   1.599   2.831  0.2354  0.6503 -0.1936
 8277SOL    HW136290   3.804   1.533   2.804 -0.6886 -0.0093 -0.7448
 8277SOL    HW236291   3.665   1.554   2.794 -0.0896  0.8582  0.2119
 8278SOL     OW36292   0.345   3.333  10.728 -0.1945  0.1776 -0.3382
 8278SOL    HW136293   0.332   3.240  10.711  0.4219 -0.1536  1.0635
 8278SOL    HW236294   0.368   3.374  10.644  0.9152 -1.5964 -0.8901
 8279SOL     OW36295   4.276   0.458   9.518 -0.1059  0.1199 -0.3614
 8279SOL    HW136296   4.286   0.400   9.593 -0.7465 -0.0291 -0.3948
 8279SOL    HW236297   4.240   0.403   9.449 -3.1901 -1.0554  2.2345
 8280SOL     OW36298   4.420   1.421  16.233  0.5870 -0.0777  0.8240
 8280SOL    HW136299   4.406   1.509  16.269 -1.1481  0.4702 -1.1718
 8280SOL    HW236300   4.378   1.367  16.300  1.9807 -2.0319  0.1133
 8281SOL     OW36301   4.545   0.945  13.498  0.3049 -0.2684  0.5342
 8281SOL    HW136302   4.453   0.951  13.524  0.0772 -0.5110 -0.2130
 8281SOL    HW236303   4.537   0.909  13.410  0.2181  1.7012 -0.2657
 8282SOL     OW36304   2.456   3.076  13.916 -0.1254 -0.6874  0.1925
 8282SOL    HW136305   2.500   3.010  13.862  2.6587  0.9977  0.4000
 8282SOL    HW236306   2.420   3.011  13.977 -1.7836 -0.6168 -0.6923
 8283SOL     OW36307   4.124   1.007   6.402  0.3493 -0.0031  0.1299
 8283SOL    HW136308   4.146   0.922   6.362  0.1418 -1.2596  2.7040
 8283SOL    HW236309   4.162   0.987   6.488 -2.0030  1.2543  1.4577
 8284SOL     OW36310   1.264   2.436   2.757  0.7554  0.5392 -0.3023
 8284SOL    HW136311   1.266   2.489   2.837  2.4552  0.9176 -0.5948
 8284SOL    HW236312   1.315   2.360   2.784 -0.6199 -0.8741 -1.7019
 8285SOL     OW36313   1.320   0.550   4.759 -0.1206 -0.2474  0.1379
 8285SOL    HW136314   1.340   0.627   4.812 -3.0096 -0.2502  1.2572
 8285SOL    HW236315   1.225   0.559   4.750 -0.1442 -0.9339 -0.3347
 8286SOL     OW36316   2.463   4.107   5.426  0.4577  0.2866  0.0723
 8286SOL    HW136317   2.375   4.128   5.394  0.4931 -0.5905 -0.6063
 8286SOL    HW236318   2.517   4.160   5.367  2.2158 -0.6540  0.8385
 8287SOL     OW36319   2.929   0.982   6.735 -0.0799  0.0282  0.0008
 8287SOL    HW136320   2.943   1.057   6.793  0.4272 -0.3405  0.3613
 8287SOL    HW236321   3.008   0.934   6.760 -0.1865 -0.1138  0.0629
 8288SOL     OW36322   2.644   1.827   5.514  0.1817  0.2109 -0.8335
 8288SOL    HW136323   2.662   1.869   5.598 -0.9474  0.7397 -0.8642
 8288SOL    HW236324   2.737   1.813   5.496  0.1386 -1.1170  0.0083
 8289SOL     OW36325   2.818   4.666   6.141  0.4408  0.2020 -0.5499
 8289SOL    HW136326   2.796   4.601   6.075  1.9554 -1.4394  0.5614
 8289SOL    HW236327   2.900   4.689   6.097  1.2401 -1.4799  0.0743
 8290SOL     OW36328   3.539   0.677   2.074 -0.0952 -0.6186  0.0232
 8290SOL    HW136329   3.470   0.634   2.125 -1.3291 -0.9465 -1.9194
 8290SOL    HW236330   3.477   0.722   2.017  0.0785 -2.3682 -1.5259
 8291SOL     OW36331   0.716   0.137  14.526 -0.5155 -1.1812  0.0143
 8291SOL    HW136332   0.694   0.160  14.616  1.7954 -0.6239  0.4183
 8291SOL    HW236333   0.661   0.060  14.508 -0.3425 -1.4292  0.5581
 8292SOL     OW36334   2.325   0.693   5.349  0.3135 -0.6236  0.6342
 8292SOL    HW136335   2.242   0.706   5.395  0.5731  1.8964  0.3869
 8292SOL    HW236336   2.338   0.786   5.328 -0.2801 -1.3844 -2.9761
 8293SOL     OW36337   1.072   1.112  14.586 -0.3582 -0.7472 -0.0568
 8293SOL    HW136338   1.119   1.175  14.641  1.2148 -0.8131 -1.3234
 8293SOL    HW236339   1.096   1.034  14.636  1.0778 -0.5539 -0.4563
 8294SOL     OW36340   2.475   4.646   8.026  0.7818  0.1723 -0.1036
 8294SOL    HW136341   2.482   4.659   7.931 -2.0644 -0.6387 -0.4206
 8294SOL    HW236342   2.527   4.566   8.033  1.7675  0.8538  0.2917
 8295SOL     OW36343   1.691   4.530   2.957  0.2949 -0.1077  0.1560
 8295SOL    HW136344   1.616   4.538   2.899 -0.7924 -2.6034  1.2246
 8295SOL    HW236345   1.757   4.502   2.893  3.2223  4.7444  0.9900
 8296SOL     OW36346   0.502   0.405  11.850  0.2830 -0.1764 -0.2111
 8296SOL    HW136347   0.426   0.349  11.836  1.1352 -1.2128 -0.7193
 8296SOL    HW236348   0.459   0.486  11.879  0.8359  0.0968 -0.1467
 8297SOL     OW36349   0.893   1.339  14.302 -0.4859 -0.2705 -0.6166
 8297SOL    HW136350   0.984   1.350  14.329 -1.2741  0.4386  1.7967
 8297SOL    HW236351   0.858   1.308  14.386  0.1121  1.4057  0.2539
 8298SOL     OW36352   0.099   3.117  12.978  0.1307 -0.7993  0.0411
 8298SOL    HW136353   0.105   3.140  12.885 -0.9918 -1.8624 -0.2938
 8298SOL    HW236354   0.047   3.038  12.964 -0.9995  0.0369 -0.5132
 8299SOL     OW36355   0.562   1.460  11.095  0.1218  0.5104 -0.4683
 8299SOL    HW136356   0.492   1.450  11.031  0.1041 -1.3835 -0.1713
 8299SOL    HW236357   0.639   1.503  11.058 -0.0525 -1.0923 -2.6818
 8300SOL     OW36358   3.352   0.913   8.590  0.0584 -0.5568  0.4424
 8300SOL    HW136359   3.332   0.945   8.678 -0.1251  5.6958 -1.9019
 8300SOL    HW236360   3.400   0.987   8.553  2.1649 -1.4047  1.4944
 8301SOL     OW36361   1.930   0.554   1.999  0.5368 -0.0666 -0.2823
 8301SOL    HW136362   1.995   0.569   2.067 -1.3471  1.8705  1.0913
 8301SOL    HW236363   1.902   0.463   2.012  0.2056  0.4500  2.6107
 8302SOL     OW36364   4.618   3.602   5.861  0.2514 -0.7040 -0.9621
 8302SOL    HW136365   4.707   3.617   5.828  0.5286 -1.6948 -0.6710
 8302SOL    HW236366   4.565   3.614   5.782 -0.3730 -1.7883 -0.7130
 8303SOL     OW36367   3.284   2.115  11.615  0.1013 -0.2698 -0.5263
 8303SOL    HW136368   3.287   2.089  11.708 -0.0597  1.8005  0.0422
 8303SOL    HW236369   3.220   2.185  11.620  0.3045  0.2311 -4.9296
 8304SOL     OW36370   0.903   3.686   4.412 -0.5249 -0.0942  0.4206
 8304SOL    HW136371   0.942   3.600   4.405  0.2825  0.2908  0.1812
 8304SOL    HW236372   0.819   3.679   4.366 -0.5188 -1.3366  0.6123
 8305SOL     OW36373   0.650   2.418  17.551 -0.0861  0.0069 -0.1895
 8305SOL    HW136374   0.718   2.404  17.486  0.7286 -1.8720  1.0357
 8305SOL    HW236375   0.687   2.480  17.614  2.4224  0.8835 -2.5735
 8306SOL     OW36376   1.328   1.143   9.372 -0.3153  0.2596 -0.9861
 8306SOL    HW136377   1.410   1.192   9.376 -0.3607  0.2884 -0.3941
 8306SOL    HW236378   1.359   1.064   9.417  1.0594  2.3485  1.7694
 8307SOL     OW36379   2.258   3.900   4.470  0.5323 -0.3489 -0.2654
 8307SOL    HW136380   2.242   3.869   4.380  0.0775 -1.4444  0.1848
 8307SOL    HW236381   2.353   3.911   4.465  0.3069 -0.6526 -5.3462
 8308SOL     OW36382   0.172   0.779   1.690  0.2368 -0.1845 -0.3291
 8308SOL    HW136383   0.149   0.806   1.779  1.0883 -4.6704  1.2564
 8308SOL    HW236384   0.268   0.775   1.697  0.2216  0.9776  0.7050
 8309SOL     OW36385   4.667   2.846   7.162 -0.2953  0.4209 -0.6849
 8309SOL    HW136386   4.705   2.847   7.250 -1.8919 -0.9305  0.0235
 8309SOL    HW236387   0.024   2.868   7.114 -0.0477  1.2391  0.1077
 8310SOL     OW36388   0.817   3.904  12.275  0.1865 -0.3343  0.1903
 8310SOL    HW136389   0.812   3.919  12.369  0.6358 -0.1369  0.1820
 8310SOL    HW236390   0.726   3.926  12.254 -0.3526 -0.4426  2.4259
 8311SOL     OW36391   4.484   2.469   1.803 -0.1424 -0.1899 -0.2037
 8311SOL    HW136392   4.391   2.445   1.807 -0.0284 -0.9374 -1.6843
 8311SOL    HW236393   4.476   2.538   1.738 -0.2301 -0.2342 -0.2398
 8312SOL     OW36394   4.497   3.707   4.241 -0.5068  0.1564  0.6238
 8312SOL    HW136395   4.571   3.675   4.291 -1.1133 -0.1031  1.3554
 8312SOL    HW236396   4.483   3.628   4.188 -2.1925  0.4669  0.5894
 8313SOL     OW36397   0.599   3.210   0.510 -0.0499  0.2952 -0.2144
 8313SOL    HW136398   0.556   3.223   0.425  0.9021  1.6219 -0.4928
 8313SOL    HW236399   0.679   3.167   0.482  0.6972  0.0220  2.3182
 8314SOL     OW36400   1.750   2.558   2.168  0.4369 -0.1445 -0.2571
 8314SOL    HW136401   1.719   2.546   2.258  0.4491 -1.5464 -0.4427
 8314SOL    HW236402   1.683   2.511   2.119 -0.3837  0.4854  0.2603
 8315SOL     OW36403   0.830   3.719   2.052  0.2246  0.5543  0.3440
 8315SOL    HW136404   0.909   3.674   2.022  1.0232  1.6104  0.8484
 8315SOL    HW236405   0.852   3.731   2.145  0.3245 -0.3909  0.4458
 8316SOL     OW36406   2.263   0.400   4.996  0.2206 -0.0842  0.2975
 8316SOL    HW136407   2.242   0.476   5.050  0.0939  0.4870 -0.5648
 8316SOL    HW236408   2.327   0.352   5.049  0.1396 -1.6832 -1.0482
 8317SOL     OW36409   3.519   1.597   3.889 -0.1220  0.5601  0.2625
 8317SOL    HW136410   3.523   1.610   3.795 -0.4559 -3.0463 -0.2280
 8317SOL    HW236411   3.461   1.667   3.921  0.3960  0.4309  1.4908
 8318SOL     OW36412   2.883   3.660  13.416  0.9299  0.5720 -0.5927
 8318SOL    HW136413   2.806   3.683  13.467  2.0299 -0.9790  1.7540
 8318SOL    HW236414   2.932   3.742  13.414  0.7461  0.6755 -0.8133
 8319SOL     OW36415   4.483   2.256  13.615 -0.5044 -0.4030 -0.5177
 8319SOL    HW136416   4.561   2.230  13.567 -0.1082 -0.2926  0.0567
 8319SOL    HW236417   4.528   2.328  13.660 -3.1783  0.3373  1.0068
 8320SOL     OW36418   1.479   0.443   4.015 -0.3948  0.5545 -0.2788
 8320SOL    HW136419   1.437   0.447   4.100  0.4339 -0.0387  0.1609
 8320SOL    HW236420   1.508   0.352   4.011  0.0335  0.6460  0.9914
 8321SOL     OW36421   1.795   4.498   3.461  0.4290 -0.3254 -0.9540
 8321SOL    HW136422   1.762   4.429   3.403  1.0845 -1.7349  0.3578
 8321SOL    HW236423   1.886   4.472   3.475 -0.1092 -1.3468  0.7171
 8322SOL     OW36424   2.510   2.475   4.626  0.6493 -0.0246 -1.1191
 8322SOL    HW136425   2.562   2.439   4.697 -0.5467  2.1479  0.8543
 8322SOL    HW236426   2.534   2.566   4.643  0.8228 -0.1131 -0.8990
 8323SOL     OW36427   3.320   4.296   6.000  0.0277 -0.9613 -0.0546
 8323SOL    HW136428   3.278   4.250   5.927  1.4596 -2.3106 -0.0188
 8323SOL    HW236429   3.342   4.224   6.058 -0.7733 -2.0483 -1.0920
 8324SOL     OW36430   3.566   1.136   4.641  0.3414 -0.0125 -0.0553
 8324SOL    HW136431   3.545   1.078   4.569 -0.0776  0.4870 -0.3331
 8324SOL    HW236432   3.660   1.148   4.624  0.1103  0.0143 -1.2802
 8325SOL     OW36433   2.131   3.821  13.254 -0.0184  0.3754 -0.5016
 8325SOL    HW136434   2.057   3.794  13.307  0.9212 -1.3328 -0.0710
 8325SOL    HW236435   2.109   3.792  13.165  0.1062  2.7933 -1.3378
 8326SOL     OW36436   1.549   3.015   2.234 -0.5380 -0.1861 -0.1925
 8326SOL    HW136437   1.483   3.077   2.266  1.4373  1.2968  1.0522
 8326SOL    HW236438   1.484   2.950   2.209  0.9044 -1.2638 -1.0940
 8327SOL     OW36439   2.774   0.765   5.375 -0.3579 -0.0142 -0.2670
 8327SOL    HW136440   2.853   0.735   5.421  0.1824  0.0491 -1.1602
 8327SOL    HW236441   2.788   0.855   5.346  2.1248 -0.6920 -1.1934
 8328SOL     OW36442   1.943   1.499   9.191  0.5728  0.2481 -0.1002
 8328SOL    HW136443   2.034   1.473   9.174  0.9155  2.8437 -2.1589
 8328SOL    HW236444   1.944   1.592   9.168  1.9307 -0.6917 -3.8516
 8329SOL     OW36445   1.490   0.650   5.418  0.7344 -0.3469  0.4565
 8329SOL    HW136446   1.442   0.624   5.339  1.1694 -3.9630  1.4078
 8329SOL    HW236447   1.519   0.740   5.401 -1.6523 -0.0672 -2.1559
 8330SOL     OW36448   2.607   3.291   9.690 -0.3723 -0.7501  0.7162
 8330SOL    HW136449   2.591   3.220   9.628 -0.2836 -0.6857  0.6203
 8330SOL    HW236450   2.643   3.354   9.628 -1.6613 -1.2090 -0.5060
 8331SOL     OW36451   3.356   0.365   8.648  0.0347  0.4574  0.3406
 8331SOL    HW136452   3.305   0.435   8.608  0.1691 -0.2806 -1.1345
 8331SOL    HW236453   3.313   0.373   8.734 -1.1887  1.2856 -0.3513
 8332SOL     OW36454   0.179   0.775  11.361  0.0319 -0.1086 -0.5001
 8332SOL    HW136455   0.177   0.869  11.345 -0.9946  0.6357  3.7778
 8332SOL    HW236456   0.162   0.777  11.456 -0.1567 -0.1905 -0.5323
 8333SOL     OW36457   0.738   0.349  16.572 -0.1579 -0.4535  0.1058
 8333SOL    HW136458   0.740   0.289  16.647  3.2119  0.8611  1.0724
 8333SOL    HW236459   0.724   0.433  16.616  1.3550 -0.4830  0.6290
 8334SOL     OW36460   4.497   0.364   9.267 -0.0509  0.5446 -0.5666
 8334SOL    HW136461   4.574   0.363   9.210  1.8337  0.2731  2.0152
 8334SOL    HW236462   4.506   0.454   9.299  1.6791  0.3105 -0.3640
 8335SOL     OW36463   1.712   0.317   8.470 -0.8739  0.4385 -0.4567
 8335SOL    HW136464   1.635   0.345   8.420 -0.5627  0.0380 -1.1639
 8335SOL    HW236465   1.776   0.280   8.409 -0.4137 -0.4772  0.5953
 8336SOL     OW36466   2.509   3.751   6.630 -0.0458 -0.2725 -0.2790
 8336SOL    HW136467   2.463   3.831   6.603  0.3208 -0.3011 -0.9977
 8336SOL    HW236468   2.438   3.700   6.670  1.5463 -1.3059  1.1964
 8337SOL     OW36469   2.860   0.538   6.533 -0.2790  0.0916 -0.2457
 8337SOL    HW136470   2.932   0.506   6.480  0.1143 -1.1465  1.0303
 8337SOL    HW236471   2.881   0.535   6.626  0.8251  2.9798 -0.3886
 8338SOL     OW36472   2.527   2.220   2.761 -0.2714  0.4882  0.1946
 8338SOL    HW136473   2.598   2.168   2.800 -0.4319  0.8397  0.9497
 8338SOL    HW236474   2.497   2.147   2.707 -1.2928  1.6702 -0.8113
 8339SOL     OW36475   1.958   0.774   2.321  0.1878  0.5819 -0.5651
 8339SOL    HW136476   1.960   0.829   2.399 -1.7860 -0.8610  0.5084
 8339SOL    HW236477   1.891   0.713   2.353  0.9719  0.2402  0.4218
 8340SOL     OW36478   0.874   0.530   6.584 -0.2139 -0.6020  0.5439
 8340SOL    HW136479   0.931   0.556   6.657 -0.1195  1.0760 -0.1120
 8340SOL    HW236480   0.802   0.588   6.609  1.3734  0.8543  1.8440
 8341SOL     OW36481   0.378   0.724   2.693 -0.4384 -0.0703  0.0847
 8341SOL    HW136482   0.417   0.736   2.779 -0.4658  0.9850 -0.0389
 8341SOL    HW236483   0.410   0.804   2.650 -0.1168  0.3553  1.1202
 8342SOL     OW36484   0.078   1.138   7.284 -0.3246 -0.2470 -0.6237
 8342SOL    HW136485   0.129   1.142   7.203 -0.2328 -1.8935 -0.6447
 8342SOL    HW236486   0.129   1.075   7.334 -0.8373 -0.2108 -0.0582
 8343SOL     OW36487   1.239   4.100  13.497  0.5023 -0.6413 -0.2146
 8343SOL    HW136488   1.260   4.022  13.446 -1.3312 -0.3368 -1.4400
 8343SOL    HW236489   1.204   4.152  13.424 -1.0761 -0.8498  0.3986
 8344SOL     OW36490   2.337   4.654   2.637  0.4455  0.0460  0.0937
 8344SOL    HW136491   2.341   0.026   2.650 -1.3237  0.3289 -1.3177
 8344SOL    HW236492   2.261   4.626   2.688  0.6622  0.6688  0.7579
 8345SOL     OW36493   3.739   3.499   4.222  0.6304 -0.1886 -0.3375
 8345SOL    HW136494   3.793   3.420   4.227  0.4110 -0.2034  1.6621
 8345SOL    HW236495   3.651   3.468   4.203  0.6128 -0.2173 -0.2117
 8346SOL     OW36496   2.430   1.294  13.511  0.2310  0.4185 -0.3330
 8346SOL    HW136497   2.505   1.353  13.503 -0.1720  0.7322 -1.8270
 8346SOL    HW236498   2.466   1.205  13.517  0.2595  0.4805  0.4073
 8347SOL     OW36499   1.123   4.368  12.345  0.6719  0.6099 -0.3835
 8347SOL    HW136500   1.189   4.322  12.293 -0.2031 -1.0408 -0.0385
 8347SOL    HW236501   1.150   4.459  12.330 -1.3071  1.0048 -1.5088
 8348SOL     OW36502   2.777   1.000  10.408 -0.5551  0.1815  0.0220
 8348SOL    HW136503   2.832   1.076  10.429 -0.8865  0.1627  0.9614
 8348SOL    HW236504   2.702   1.011  10.466  0.0197 -0.0560  0.8076
 8349SOL     OW36505   4.092   3.170   1.327 -0.6078 -0.4112  0.2685
 8349SOL    HW136506   4.024   3.226   1.289 -0.5453  1.2726  2.6469
 8349SOL    HW236507   4.156   3.185   1.257  0.9739 -0.7710  1.6202
 8350SOL     OW36508   3.416   3.794  12.731 -0.3269 -0.2617 -0.2708
 8350SOL    HW136509   3.493   3.782  12.676  0.9157 -0.2845  1.4972
 8350SOL    HW236510   3.430   3.883  12.763 -2.0317  1.1109 -3.3816
 8351SOL     OW36511   1.197   1.246  11.860  0.2437 -0.2508 -0.0651
 8351SOL    HW136512   1.253   1.276  11.788  1.5051  0.3730  1.1697
 8351SOL    HW236513   1.127   1.214  11.804  3.2556 -1.9271 -2.8500
 8352SOL     OW36514   4.038   0.345  17.380  0.1833 -0.4486 -0.1973
 8352SOL    HW136515   4.054   0.398  17.302  1.3775  0.2689  0.5465
 8352SOL    HW236516   3.984   0.271  17.350 -1.8379  2.0794 -2.7955
 8353SOL     OW36517   2.354   3.397   4.895 -0.3208  0.1396  0.4165
 8353SOL    HW136518   2.339   3.476   4.947 -2.3542 -0.1244  0.2190
 8353SOL    HW236519   2.285   3.409   4.830 -0.2954  0.1430  0.3900
 8354SOL     OW36520   1.594   0.360  17.063 -0.1398 -0.2844  0.0744
 8354SOL    HW136521   1.553   0.328  17.143 -1.7271  1.2204 -0.1140
 8354SOL    HW236522   1.662   0.299  17.035  0.9143 -0.3753  2.8309
 8355SOL     OW36523   1.435   1.799   5.728 -0.5796  0.1579  0.0065
 8355SOL    HW136524   1.373   1.867   5.702 -2.5002 -0.6472  2.4382
 8355SOL    HW236525   1.454   1.755   5.644 -0.3089 -0.2282  0.2685
 8356SOL     OW36526   2.469   4.192   8.347  0.0980  0.3486 -0.1531
 8356SOL    HW136527   2.410   4.244   8.402  1.2974  0.5098  1.0057
 8356SOL    HW236528   2.450   4.103   8.376 -0.7378  0.7845  0.6502
 8357SOL     OW36529   0.967   1.595  11.733  0.2043 -0.1527  0.1220
 8357SOL    HW136530   0.940   1.506  11.710  3.0298 -1.4802  1.9007
 8357SOL    HW236531   0.929   1.605  11.821 -1.2254  2.1476 -0.7495
 8358SOL     OW36532   3.490   3.726  13.003  0.4882 -0.4684 -0.5663
 8358SOL    HW136533   3.402   3.751  13.033  1.3141 -0.5124  1.8623
 8358SOL    HW236534   3.493   3.784  12.926 -1.9793 -0.7911 -0.9367
 8359SOL     OW36535   2.037   0.824   5.465  0.1422  0.3480 -0.2565
 8359SOL    HW136536   1.995   0.821   5.379 -0.6943  0.7414  0.1416
 8359SOL    HW236537   2.030   0.919   5.471 -0.3803  0.1998  1.3515
 8360SOL     OW36538   3.503   4.094   5.262  0.6326  0.4193  0.1841
 8360SOL    HW136539   3.413   4.075   5.290  0.2118  1.9829 -0.1361
 8360SOL    HW236540   3.534   4.155   5.328  1.9736 -2.2212  1.9668
 8361SOL     OW36541   3.595   4.494   5.511 -0.3830 -0.2281 -0.1574
 8361SOL    HW136542   3.660   4.470   5.445  2.6648  2.2734  1.9704
 8361SOL    HW236543   3.601   4.589   5.507 -2.5123 -0.0566  0.5884
 8362SOL     OW36544   0.634   3.240   4.367 -0.3715 -0.3844 -0.1089
 8362SOL    HW136545   0.612   3.151   4.393  0.6832 -0.2259  1.2971
 8362SOL    HW236546   0.665   3.221   4.279 -1.2846  1.0661 -0.7506
 8363SOL     OW36547   4.211   1.391   0.112  0.0254  0.0803 -0.3452
 8363SOL    HW136548   4.235   1.327   0.179 -0.4837 -2.0344 -2.1708
 8363SOL    HW236549   4.151   1.446   0.162 -0.5123  1.6710 -2.7479
 8364SOL     OW36550   1.823   3.179   0.103  0.0038 -0.2450  0.0239
 8364SOL    HW136551   1.749   3.141   0.056 -1.6168 -0.3934  2.7095
 8364SOL    HW236552   1.892   3.114   0.085  0.6854  1.0791 -2.2016
 8365SOL     OW36553   0.781   0.574  10.873  0.0154 -0.2804  0.1425
 8365SOL    HW136554   0.752   0.630  10.801  1.5161  1.8892  1.2028
 8365SOL    HW236555   0.764   0.484  10.846 -2.1938  0.2654 -0.2774
 8366SOL     OW36556   3.634   1.320   5.833 -0.2315 -0.0141  0.1528
 8366SOL    HW136557   3.713   1.308   5.886 -0.0556 -0.6750 -0.2595
 8366SOL    HW236558   3.662   1.399   5.786  0.5146  0.4149  1.3156
 8367SOL     OW36559   3.270   3.700   3.869 -0.2249 -0.1248  0.1585
 8367SOL    HW136560   3.343   3.751   3.905 -0.3673 -0.4472  0.9099
 8367SOL    HW236561   3.309   3.622   3.831 -2.7068 -0.3042 -1.9874
 8368SOL     OW36562   0.167   0.727   8.155 -0.0744 -0.3400  0.2649
 8368SOL    HW136563   0.203   0.639   8.144  1.4699  0.4978 -1.4121
 8368SOL    HW236564   0.207   0.753   8.238  1.0184  0.1420 -0.4174
 8369SOL     OW36565   2.218   3.583   6.560 -0.3217  0.7502 -0.1565
 8369SOL    HW136566   2.148   3.590   6.624  0.3753  0.4626  0.6458
 8369SOL    HW236567   2.222   3.675   6.534 -1.4564  0.0918 -2.6202
 8370SOL     OW36568   1.313   1.096   5.865  0.0921 -0.5801  0.7998
 8370SOL    HW136569   1.392   1.127   5.910  1.4028 -2.1953 -0.3878
 8370SOL    HW236570   1.273   1.179   5.840  0.6712 -0.2214  1.0516
 8371SOL     OW36571   0.063   2.190   7.133  0.2089 -0.2068 -0.5444
 8371SOL    HW136572   0.140   2.240   7.160  1.0727 -0.6677 -2.1589
 8371SOL    HW236573   0.069   2.177   7.039 -0.7199  0.4793 -0.6934
 8372SOL     OW36574   0.634   0.641   5.955  0.6019  0.4406 -0.3943
 8372SOL    HW136575   0.559   0.684   5.913  0.4065 -1.8573 -2.3788
 8372SOL    HW236576   0.688   0.711   5.993  3.2638 -2.8328  1.7946
 8373SOL     OW36577   2.383   3.731   7.375 -0.8524 -0.0508 -0.1989
 8373SOL    HW136578   2.375   3.694   7.463  0.7283  2.5667  1.0299
 8373SOL    HW236579   2.418   3.653   7.332  1.2302 -0.5303  2.3737
 8374SOL     OW36580   3.678   3.045   3.605  0.2464  0.3611  0.1446
 8374SOL    HW136581   3.678   3.139   3.623  3.0876  0.2774  0.5924
 8374SOL    HW236582   3.694   3.011   3.693  2.6576 -1.2183 -0.9036
 8375SOL     OW36583   4.035   1.275   8.430 -0.2572 -0.9734 -0.6094
 8375SOL    HW136584   4.119   1.266   8.474  0.8280 -1.6426 -2.8428
 8375SOL    HW236585   4.040   1.215   8.356 -1.3829  0.5274 -1.9133
 8376SOL     OW36586   2.352   3.114  12.984  0.4646 -0.2766  0.5603
 8376SOL    HW136587   2.436   3.076  13.010  0.7596  0.5810  0.8606
 8376SOL    HW236588   2.284   3.051  13.007 -0.1056  0.1831  0.1254
 8377SOL     OW36589   3.589   0.817   2.856 -0.4834  0.3097  0.4847
 8377SOL    HW136590   3.526   0.822   2.785  1.5306 -0.1499 -1.3245
 8377SOL    HW236591   3.538   0.778   2.928 -0.6018 -1.0560 -0.3455
 8378SOL     OW36592   2.188   2.661  17.402 -0.6363  0.0243 -0.6413
 8378SOL    HW136593   2.280   2.685  17.397 -0.2717 -1.2568 -0.1247
 8378SOL    HW236594   2.194   2.579  17.353 -0.2286  0.2513 -0.9695
 8379SOL     OW36595   4.163   1.131  15.089  0.4912 -0.9339 -0.4547
 8379SOL    HW136596   4.085   1.077  15.078  0.4128 -0.1690 -3.4852
 8379SOL    HW236597   4.141   1.214  15.132 -2.4125 -1.0225 -1.8212
 8380SOL     OW36598   4.325   3.986   3.143 -0.0379 -0.4278  0.6424
 8380SOL    HW136599   4.313   4.061   3.200  2.7641  0.6686 -0.2485
 8380SOL    HW236600   4.356   4.041   3.071 -2.3335  1.0329  0.7671
 8381SOL     OW36601   0.456   0.369   8.933 -0.2363 -0.3178 -0.7083
 8381SOL    HW136602   0.441   0.462   8.954 -0.7054 -0.1139 -1.9943
 8381SOL    HW236603   0.437   0.331   9.019  2.1254 -2.4907 -1.1620
 8382SOL     OW36604   4.661   1.704  15.800  0.4370 -0.0516  0.2706
 8382SOL    HW136605   4.619   1.666  15.877 -2.6265  1.0168 -0.8709
 8382SOL    HW236606   4.609   1.785  15.800 -0.8028 -0.8458 -0.2790
 8383SOL     OW36607   1.805   2.037   1.856  0.3888  0.2688 -0.8066
 8383SOL    HW136608   1.813   2.123   1.814  1.5435 -0.0182 -1.1581
 8383SOL    HW236609   1.795   1.984   1.777  0.9875  1.1958 -1.4985
 8384SOL     OW36610   1.342   0.356  10.163  0.1656 -0.7881 -0.4733
 8384SOL    HW136611   1.260   0.316  10.190 -0.9657  1.6724 -0.2673
 8384SOL    HW236612   1.331   0.429  10.223  0.3781 -0.9647 -0.2227
 8385SOL     OW36613   4.626   0.708   3.313 -0.3262  0.4652  0.0373
 8385SOL    HW136614   4.538   0.731   3.284 -0.9407 -2.1893 -0.1491
 8385SOL    HW236615   4.683   0.750   3.248  0.5662 -2.7110 -1.2465
 8386SOL     OW36616   4.378   1.144   1.899  0.5079 -0.1360 -0.0994
 8386SOL    HW136617   4.355   1.188   1.981  0.5967 -1.3057  0.5431
 8386SOL    HW236618   4.299   1.104   1.864 -0.5025  0.7266  1.1747
 8387SOL     OW36619   3.876   3.462   3.810  0.1423 -0.0632  0.7070
 8387SOL    HW136620   3.854   3.517   3.885  1.6054  0.9766  0.3948
 8387SOL    HW236621   3.832   3.513   3.742 -0.2887 -0.7735  0.4611
 8388SOL     OW36622   1.496   2.798   2.603  0.2367 -0.1426  0.3018
 8388SOL    HW136623   1.512   2.705   2.615 -1.6774 -0.3665  1.1578
 8388SOL    HW236624   1.572   2.827   2.553  0.2626  1.6315  1.3545
 8389SOL     OW36625   0.382   1.934  15.816  0.1203  0.3074 -0.1985
 8389SOL    HW136626   0.306   1.881  15.842 -0.1364  1.4704  1.4176
 8389SOL    HW236627   0.452   1.887  15.860 -0.7188  0.6698  1.5196
 8390SOL     OW36628   4.494   3.429   7.930  0.1675 -0.0141  0.0286
 8390SOL    HW136629   4.565   3.492   7.944 -0.7455  1.0100  0.0965
 8390SOL    HW236630   4.489   3.393   8.018 -1.0756  1.5428  0.6072
 8391SOL     OW36631   2.159   1.978   8.945  0.6144 -0.5958 -0.4926
 8391SOL    HW136632   2.196   1.926   9.016 -0.0747 -0.9938 -0.4295
 8391SOL    HW236633   2.199   2.064   8.957  1.0353 -0.7965 -0.4222
 8392SOL     OW36634   0.330   3.526  17.609 -0.5789 -0.2657 -0.0737
 8392SOL    HW136635   0.306   3.479  17.529 -1.8292 -0.1566  0.2468
 8392SOL    HW236636   0.327   3.456  17.674 -1.7458 -0.1777 -0.0374
 8393SOL     OW36637   1.563   4.148   4.117 -0.3855  0.0882  0.2938
 8393SOL    HW136638   1.542   4.129   4.026  0.2471 -0.7960  0.3349
 8393SOL    HW236639   1.599   4.236   4.110 -0.9363  0.2746 -0.2289
 8394SOL     OW36640   4.399   0.853   2.128 -0.8229 -0.1278 -0.2291
 8394SOL    HW136641   4.439   0.781   2.080 -1.6660 -0.5298 -0.3261
 8394SOL    HW236642   4.344   0.806   2.190  0.4580 -2.9051 -1.2033
 8395SOL     OW36643   3.587   4.582   0.735 -0.3287 -0.0317  0.0859
 8395SOL    HW136644   3.671   4.601   0.776  0.6066 -2.2965 -0.8079
 8395SOL    HW236645   3.560   4.674   0.725 -0.7452 -0.1608  0.0175
 8396SOL     OW36646   3.911   1.543  16.544 -0.2736 -0.5489 -0.3886
 8396SOL    HW136647   3.991   1.578  16.583 -0.0579 -0.8139 -0.5946
 8396SOL    HW236648   3.887   1.594  16.467 -0.9466 -0.6795 -0.2632
 8397SOL     OW36649   0.581   0.081   8.865 -0.2789  0.5077  0.3137
 8397SOL    HW136650   0.597   0.001   8.915  0.8450 -0.6712 -1.9418
 8397SOL    HW236651   0.491   0.077   8.834 -0.9365 -0.1974  2.3066
 8398SOL     OW36652   2.215   1.004  15.064  0.5708 -0.2429 -0.3072
 8398SOL    HW136653   2.132   1.023  15.107 -0.8824  1.1889 -3.6752
 8398SOL    HW236654   2.192   0.917  15.032 -0.6151 -0.6703  1.7262
 8399SOL     OW36655   2.085   0.357  16.002  0.3851 -0.1119  0.4365
 8399SOL    HW136656   2.073   0.447  16.033 -0.9474 -0.1286 -0.0759
 8399SOL    HW236657   2.178   0.368  15.980  0.1131  0.0062 -0.6448
 8400SOL     OW36658   0.918   0.237  16.115  0.2714  0.0314 -0.2599
 8400SOL    HW136659   0.901   0.207  16.205 -1.0007 -0.6727 -0.7245
 8400SOL    HW236660   0.968   0.316  16.135  0.6968 -0.4385  0.5258
 8401SOL     OW36661   4.077   4.339   2.550 -0.2492  1.0939 -0.4623
 8401SOL    HW136662   4.111   4.350   2.462  1.0495  1.1186  0.0396
 8401SOL    HW236663   3.983   4.354   2.537 -0.4666 -1.0754 -1.3099
 8402SOL     OW36664   3.726   1.374   7.194  0.2514  0.0657 -0.4443
 8402SOL    HW136665   3.821   1.377   7.202 -0.0971  2.3136  2.9133
 8402SOL    HW236666   3.720   1.303   7.258 -1.3560 -0.0817 -0.7603
 8403SOL     OW36667   4.644   2.954   7.967  0.4148 -0.0015  0.1600
 8403SOL    HW136668   4.657   2.926   8.058 -1.9494  0.5806  0.6967
 8403SOL    HW236669   4.673   3.045   7.978 -0.4506  0.0117  2.4844
 8404SOL     OW36670   4.515   3.462   6.451 -0.2955 -0.1895  0.3449
 8404SOL    HW136671   4.511   3.556   6.468  0.5882 -0.0805 -0.0404
 8404SOL    HW236672   4.506   3.467   6.356 -0.6204 -1.1435  0.3322
 8405SOL     OW36673   1.663   4.092   9.177 -0.0609  0.4510 -0.2512
 8405SOL    HW136674   1.664   3.999   9.203 -0.9589  0.6878  0.6283
 8405SOL    HW236675   1.679   4.135   9.261  2.1757  0.9486 -0.9462
 8406SOL     OW36676   3.436   1.332   4.410  0.0120 -0.0470  1.2532
 8406SOL    HW136677   3.468   1.415   4.376 -1.6474 -0.5998 -1.6354
 8406SOL    HW236678   3.388   1.367   4.485  0.2923  0.1501  1.3424
 8407SOL     OW36679   0.093   3.686   1.644 -0.1642  0.0500  0.3572
 8407SOL    HW136680   0.161   3.752   1.634 -0.4031  0.2143 -0.1971
 8407SOL    HW236681   0.024   3.737   1.687  0.7440 -1.1988  3.2869
 8408SOL     OW36682   1.988   2.485   3.123 -0.3570 -0.1685 -0.4954
 8408SOL    HW136683   1.934   2.541   3.179  2.0377  1.7484 -0.0824
 8408SOL    HW236684   1.970   2.525   3.038 -1.9473 -3.1052 -1.5429
 8409SOL     OW36685   3.556   1.406   0.814 -0.1636  0.1782 -0.3401
 8409SOL    HW136686   3.648   1.410   0.841 -0.8101  1.6374  1.6306
 8409SOL    HW236687   3.530   1.319   0.845  1.7004 -0.4663 -0.5393
 8410SOL     OW36688   1.607   3.922   9.520  0.1543  0.0907  0.1075
 8410SOL    HW136689   1.599   4.017   9.528 -1.3609  0.0521 -0.9064
 8410SOL    HW236690   1.702   3.919   9.507  0.1030  1.4623 -0.5082
 8411SOL     OW36691   3.925   0.354   2.089 -0.0027 -0.2154 -0.1826
 8411SOL    HW136692   3.973   0.271   2.093  0.3425  0.0431  1.0231
 8411SOL    HW236693   3.865   0.341   2.016  0.1358 -0.2438 -0.2906
 8412SOL     OW36694   2.626   2.911   4.560  0.3656  0.2367 -0.2336
 8412SOL    HW136695   2.639   2.853   4.635  2.0007  1.5472  0.4953
 8412SOL    HW236696   2.531   2.917   4.557  0.1908 -3.3730 -1.4929
 8413SOL     OW36697   4.090   3.125  14.814 -0.6962  0.0048 -0.3597
 8413SOL    HW136698   4.022   3.191  14.829  0.6020  1.3406 -0.4084
 8413SOL    HW236699   4.162   3.176  14.780  0.0220 -1.2549 -0.7236
 8414SOL     OW36700   1.894   4.369   8.394 -0.1388 -0.0723  0.2315
 8414SOL    HW136701   1.830   4.438   8.410  0.8747  1.3094 -1.5670
 8414SOL    HW236702   1.923   4.356   8.484  0.3556 -2.1246 -0.2251
 8415SOL     OW36703   3.606   4.331   2.193  0.2348  0.0797  0.4436
 8415SOL    HW136704   3.516   4.316   2.165  0.6701 -1.0254 -0.3308
 8415SOL    HW236705   3.650   4.317   2.109 -0.0355 -0.0994  0.3316
 8416SOL     OW36706   0.074   2.882   5.259  0.6045  1.2432 -0.0434
 8416SOL    HW136707   0.042   2.861   5.347  0.3285 -1.2717 -0.7629
 8416SOL    HW236708   0.168   2.890   5.273  0.6080  1.7456 -0.3597
 8417SOL     OW36709   2.269   2.421   4.914  0.2658  0.0366 -0.0164
 8417SOL    HW136710   2.282   2.329   4.893 -0.0015  0.1251 -0.5865
 8417SOL    HW236711   2.336   2.438   4.980  0.5714  1.3202 -0.6342
 8418SOL     OW36712   0.732   0.336  15.450  1.0927  0.2995 -0.1614
 8418SOL    HW136713   0.675   0.410  15.470  0.3073 -0.7335  1.3649
 8418SOL    HW236714   0.696   0.298  15.369  0.0213 -0.0544  0.4864
 8419SOL     OW36715   2.882   1.049   3.282  0.1674 -0.0102 -0.5740
 8419SOL    HW136716   2.851   1.028   3.194 -1.4053  0.9856 -0.2654
 8419SOL    HW236717   2.837   0.977   3.327 -1.8137  2.0504  0.7647
 8420SOL     OW36718   0.809   3.319   8.159  0.0269 -0.1675 -0.2679
 8420SOL    HW136719   0.812   3.414   8.153  1.5545 -0.2502 -1.0028
 8420SOL    HW236720   0.888   3.298   8.108 -1.8888 -1.5568 -2.6726
 8421SOL     OW36721   2.622   0.894   5.056  0.5140 -0.3421 -0.0766
 8421SOL    HW136722   2.582   0.879   4.970  2.9668  2.0944 -1.6453
 8421SOL    HW236723   2.609   0.813   5.104 -0.5540 -0.1087  0.0298
 8422SOL     OW36724   0.008   0.502   1.276  0.6522 -0.0810  0.6258
 8422SOL    HW136725   0.102   0.510   1.294  0.2254  0.4008  2.5823
 8422SOL    HW236726   4.717   0.412   1.304 -1.4909 -0.1996 -0.7716
 8423SOL     OW36727   3.578   4.494  12.638  0.2490 -0.8314  0.6301
 8423SOL    HW136728   3.494   4.459  12.610  0.2973 -0.8414  0.5017
 8423SOL    HW236729   3.556   4.580  12.604  1.5930 -0.0232  1.8124
 8424SOL     OW36730   0.718   4.232  12.192  0.0876  0.0140 -0.4990
 8424SOL    HW136731   0.665   4.163  12.153 -0.2856  0.5205 -0.8923
 8424SOL    HW236732   0.649   4.293  12.218 -0.7940 -0.6028 -1.3635
 8425SOL     OW36733   1.316   3.018  16.315  0.0696  0.1215  0.2174
 8425SOL    HW136734   1.324   2.963  16.392  0.3406 -0.4493 -0.2190
 8425SOL    HW236735   1.245   3.072  16.351 -1.6836 -2.0965  0.0514
 8426SOL     OW36736   2.275   2.342  14.270 -0.1214  0.3151 -0.3739
 8426SOL    HW136737   2.317   2.267  14.229  0.4631 -0.4745  1.6619
 8426SOL    HW236738   2.334   2.417  14.271 -1.2470  1.2286 -2.0926
 8427SOL     OW36739   1.382   3.435   2.546  0.1874  0.1293 -0.1025
 8427SOL    HW136740   1.390   3.369   2.616 -0.7380  1.2994  1.1048
 8427SOL    HW236741   1.461   3.433   2.492 -0.7767  0.7265 -1.5249
 8428SOL     OW36742   0.068   2.482  11.572 -0.5192  0.5728  0.0427
 8428SOL    HW136743   0.148   2.533  11.556 -1.2540  1.7235  0.0318
 8428SOL    HW236744   0.099   2.405  11.621 -0.7349  1.1422  1.0744
 8429SOL     OW36745   1.129   0.828   7.564  0.1157  0.5018  0.4911
 8429SOL    HW136746   1.148   0.736   7.546 -1.3033  0.3919 -0.4622
 8429SOL    HW236747   1.174   0.879   7.496  3.3257 -1.5679  1.0515
 8430SOL     OW36748   4.089   0.876   3.038 -0.4114  0.2787  0.2443
 8430SOL    HW136749   4.047   0.790   3.041  1.0562 -0.3794  2.0911
 8430SOL    HW236750   4.105   0.889   3.132  2.2616 -0.3919 -0.1152
 8431SOL     OW36751   4.566   2.548   2.382  0.3949  0.3415 -0.1801
 8431SOL    HW136752   4.549   2.641   2.373 -1.9537 -0.0144  0.7648
 8431SOL    HW236753   4.575   2.526   2.289  1.2888 -0.7176  0.1533
 8432SOL     OW36754   3.565   3.168   7.611 -0.0499 -0.2281  0.2188
 8432SOL    HW136755   3.538   3.144   7.700  0.9278  0.3569  0.6637
 8432SOL    HW236756   3.660   3.162   7.621  0.4139  2.8023 -2.3914
 8433SOL     OW36757   4.560   4.331   5.718  0.1236 -0.0803  0.3331
 8433SOL    HW136758   4.583   4.375   5.800  0.0809  0.9162 -0.1804
 8433SOL    HW236759   4.640   4.281   5.705  0.4499  0.9354 -1.5260
 8434SOL     OW36760   3.773   3.601   3.610  0.0594  0.0462  0.2284
 8434SOL    HW136761   3.715   3.674   3.586  0.0290 -0.0987 -0.1430
 8434SOL    HW236762   3.800   3.568   3.524  0.3960 -1.6447  0.9909
 8435SOL     OW36763   4.621   0.186   7.943  0.3839 -0.1508  0.0031
 8435SOL    HW136764   4.593   0.156   7.856  0.0021 -1.4821  0.5856
 8435SOL    HW236765   4.639   0.105   7.990  0.6833  0.1734  0.4492
 8436SOL     OW36766   2.058   2.565   6.192 -0.5241  0.1905  0.5657
 8436SOL    HW136767   2.041   2.652   6.228 -0.5853 -0.2467  1.5693
 8436SOL    HW236768   2.151   2.578   6.176 -0.9213  0.6944 -1.4424
 8437SOL     OW36769   3.928   3.811   7.301 -0.2404  0.2833  0.5244
 8437SOL    HW136770   3.973   3.877   7.354 -2.3027 -0.2186  2.9162
 8437SOL    HW236771   3.962   3.812   7.212 -0.9114 -0.1764  0.2689
 8438SOL     OW36772   4.411   1.013  17.665  0.0502  0.1387 -0.1182
 8438SOL    HW136773   4.393   0.923   0.000  1.8607  0.8696  3.3745
 8438SOL    HW236774   4.412   1.002  17.570 -1.9390  0.7714 -0.2020
 8439SOL     OW36775   0.572   3.246   1.147 -0.0313  0.5085 -0.2019
 8439SOL    HW136776   0.489   3.200   1.163  1.0098 -0.6553  1.8517
 8439SOL    HW236777   0.641   3.201   1.196  0.6518 -0.7093 -2.2904
 8440SOL     OW36778   2.191   2.545   7.120  0.4005  0.2515  0.7059
 8440SOL    HW136779   2.261   2.480   7.128  0.8209  0.7642  1.1359
 8440SOL    HW236780   2.118   2.498   7.079  0.2309  0.6192  0.5831
 8441SOL     OW36781   3.917   0.651  12.512 -0.2040 -0.1760 -0.2177
 8441SOL    HW136782   3.860   0.621  12.441  1.0962 -2.5602 -0.2674
 8441SOL    HW236783   3.991   0.684  12.461  0.9020 -0.0128  1.4934
 8442SOL     OW36784   0.447   0.142  10.425  0.4182 -0.3194 -0.4407
 8442SOL    HW136785   0.497   0.220  10.449  1.0714 -1.3567  1.5803
 8442SOL    HW236786   0.358   0.174  10.408  0.2110 -0.6587 -0.0098
 8443SOL     OW36787   1.917   4.701   8.428  0.2020 -0.1921  0.0310
 8443SOL    HW136788   1.840   4.657   8.392 -1.3237  1.6868  0.9656
 8443SOL    HW236789   1.918   0.067   8.393  2.1334 -0.1847  0.1172
 8444SOL     OW36790   2.084   0.521   8.563  0.4033  0.0163  0.4219
 8444SOL    HW136791   2.147   0.485   8.499 -0.4741  0.0113 -0.4371
 8444SOL    HW236792   2.010   0.541   8.506  0.5415 -1.0031 -0.1233
 8445SOL     OW36793   3.671   3.045   6.613  0.2456 -0.0569  0.1713
 8445SOL    HW136794   3.696   3.125   6.660 -1.3154 -0.1098  1.0912
 8445SOL    HW236795   3.656   2.990   6.690  1.7051  0.4273  0.8130
 8446SOL     OW36796   0.484   2.084   0.588  0.0161  0.4185  0.0771
 8446SOL    HW136797   0.522   2.127   0.511  1.2273  2.3254  1.7294
 8446SOL    HW236798   0.390   2.097   0.576 -0.0295 -2.8711 -3.0560
 8447SOL     OW36799   4.073   3.016   3.152 -0.5074  0.3083 -0.1006
 8447SOL    HW136800   4.053   2.944   3.091  4.7056  0.2479 -1.7562
 8447SOL    HW236801   4.047   2.971   3.232  0.5352 -1.0787 -0.5162
 8448SOL     OW36802   1.010   1.210   7.676 -0.5390 -0.5738  0.1142
 8448SOL    HW136803   0.965   1.127   7.687  0.3486 -0.8147  1.9873
 8448SOL    HW236804   1.089   1.186   7.628 -1.1290 -3.4099  0.5659
 8449SOL     OW36805   2.040   1.639  13.264 -0.0074  0.0397 -0.0296
 8449SOL    HW136806   1.973   1.668  13.202  1.3214  0.7523 -1.1185
 8449SOL    HW236807   2.060   1.552  13.230  1.9325  0.8992 -1.0893
 8450SOL     OW36808   4.382   4.101  16.141 -0.2067  0.2585  0.4258
 8450SOL    HW136809   4.450   4.119  16.207  0.1538  2.5430 -0.5642
 8450SOL    HW236810   4.444   4.097  16.068 -0.0868 -1.2822  0.6036
 8451SOL     OW36811   1.961   3.052   2.025  0.5803 -0.3154 -0.0877
 8451SOL    HW136812   2.015   3.049   1.945  0.1512 -0.4313 -0.3751
 8451SOL    HW236813   2.017   2.995   2.077  1.0760  0.6417  0.4239
 8452SOL     OW36814   0.370   1.639   4.995 -0.4105  0.2566  0.1328
 8452SOL    HW136815   0.452   1.590   5.004  0.1779  1.1541 -0.3655
 8452SOL    HW236816   0.361   1.682   5.081 -1.8149  0.0444  0.0954
 8453SOL     OW36817   4.252   2.462   2.383  0.3686 -0.0546 -0.1812
 8453SOL    HW136818   4.244   2.508   2.300 -1.1088 -0.4514 -0.2557
 8453SOL    HW236819   4.311   2.388   2.367 -0.8928 -0.6782 -1.9414
 8454SOL     OW36820   2.453   1.130   3.136 -0.2185 -0.9065 -0.2044
 8454SOL    HW136821   2.392   1.197   3.106  0.4983 -0.0153  0.2687
 8454SOL    HW236822   2.401   1.122   3.216 -0.7202  1.5637 -0.2822
 8455SOL     OW36823   3.286   3.014   8.991  0.2402 -0.2866 -0.5909
 8455SOL    HW136824   3.306   2.921   9.003 -0.5620 -0.6223 -1.8442
 8455SOL    HW236825   3.371   3.054   9.011  0.3209 -0.1352 -1.2295
 8456SOL     OW36826   0.144   2.180   7.515  0.1255 -0.1289 -0.0214
 8456SOL    HW136827   0.174   2.136   7.594 -3.2912  0.9320  1.8480
 8456SOL    HW236828   0.142   2.272   7.540 -0.1607  0.3164 -1.6611
 8457SOL     OW36829   3.905   2.877   0.579  0.2025  0.2977  0.4502
 8457SOL    HW136830   3.835   2.827   0.620 -0.2031 -0.2429 -0.8913
 8457SOL    HW236831   3.853   2.933   0.520  0.8336  0.6175  0.2002
 8458SOL     OW36832   1.958   0.183   1.860  0.2602 -0.2023  0.0814
 8458SOL    HW136833   1.895   0.202   1.790 -1.5371 -1.2708  1.4319
 8458SOL    HW236834   1.919   0.226   1.936  1.6800  0.4186  0.4728
 8459SOL     OW36835   2.263   0.195   2.688  0.2082  0.2158  0.4427
 8459SOL    HW136836   2.302   0.277   2.658  1.4134 -0.4675  0.1557
 8459SOL    HW236837   2.249   0.213   2.781  0.7682 -1.3393  0.8309
 8460SOL     OW36838   2.042   4.105   7.774 -0.3503 -0.4705 -0.6144
 8460SOL    HW136839   2.008   4.022   7.742 -1.1075 -1.2685  2.2053
 8460SOL    HW236840   2.003   4.099   7.861  0.6418  1.0060 -0.0678
 8461SOL     OW36841   2.076   0.267  11.460 -0.2048 -0.1800 -0.1212
 8461SOL    HW136842   2.004   0.204  11.457 -1.1244  0.9097 -0.7671
 8461SOL    HW236843   2.140   0.220  11.406 -0.0215 -1.4928  1.2347
 8462SOL     OW36844   4.399   2.870   7.164  0.4511  0.1542 -0.6138
 8462SOL    HW136845   4.361   2.840   7.247 -0.0886 -2.0103 -1.6360
 8462SOL    HW236846   4.493   2.853   7.163  0.6611  1.3440 -1.5296
 8463SOL     OW36847   3.424   3.742   0.879 -0.1622  0.0675 -0.4663
 8463SOL    HW136848   3.332   3.732   0.856 -0.5347  0.1212  0.9531
 8463SOL    HW236849   3.428   3.831   0.915 -0.1009 -0.5423  1.0379
 8464SOL     OW36850   1.327   3.490   3.436  0.4517  0.0659  0.2769
 8464SOL    HW136851   1.326   3.521   3.526 -0.6606 -3.6710  1.5841
 8464SOL    HW236852   1.264   3.419   3.450  0.2562 -0.1058 -1.4980
 8465SOL     OW36853   3.966   4.242   7.255  0.1582 -0.4357  0.0425
 8465SOL    HW136854   4.062   4.241   7.263  0.1663  1.4384  0.2047
 8465SOL    HW236855   3.951   4.263   7.163 -0.7898  1.9119  0.7502
 8466SOL     OW36856   0.317   4.118   8.451 -0.0860  0.4457  0.3733
 8466SOL    HW136857   0.293   4.098   8.541  1.4154 -1.2822  0.3857
 8466SOL    HW236858   0.278   4.205   8.435  0.1152  0.6536  1.0342
 8467SOL     OW36859   3.583   3.657   6.198  0.1855 -0.5241  0.1818
 8467SOL    HW136860   3.545   3.601   6.131 -0.0380  0.8649 -0.8629
 8467SOL    HW236861   3.508   3.667   6.256 -1.0605  0.0860 -1.5078
 8468SOL     OW36862   3.171   3.968   9.223 -0.2044  0.7328  0.3785
 8468SOL    HW136863   3.131   4.018   9.294  0.8231 -1.3229  2.3642
 8468SOL    HW236864   3.101   3.928   9.171  0.0947 -0.7343  1.1068
 8469SOL     OW36865   2.066   2.468   7.628  0.2465 -0.5314  0.8249
 8469SOL    HW136866   2.027   2.386   7.598 -0.0003 -0.0361 -0.2209
 8469SOL    HW236867   2.102   2.505   7.547  0.8714 -0.8638  0.9528
 8470SOL     OW36868   3.004   2.302   6.422  0.0226  0.1496  0.2921
 8470SOL    HW136869   2.933   2.362   6.401 -1.7648 -1.5524  1.5458
 8470SOL    HW236870   2.990   2.229   6.362 -0.5940  0.2882  0.2713
 8471SOL     OW36871   1.841   0.127   4.835 -0.5195 -0.3133 -0.3814
 8471SOL    HW136872   1.865   0.159   4.748 -0.7960 -1.1599 -0.7656
 8471SOL    HW236873   1.855   0.034   4.820 -0.1124  0.0390 -2.2010
 8472SOL     OW36874   1.538   4.614   5.729  0.2728 -0.0481 -0.6515
 8472SOL    HW136875   1.492   4.694   5.704 -0.5837 -0.2536  0.2945
 8472SOL    HW236876   1.528   4.603   5.823  1.1690  1.9133 -0.3407
 8473SOL     OW36877   3.456   1.567   4.261 -0.5476  0.4692  0.3321
 8473SOL    HW136878   3.450   1.644   4.316 -2.6831  0.5970 -0.0763
 8473SOL    HW236879   3.536   1.571   4.209 -0.5148  1.7671  0.4900
 8474SOL     OW36880   0.614   0.983  17.233  0.1922 -0.2338 -0.0902
 8474SOL    HW136881   0.536   0.928  17.221 -0.3410 -0.0346  2.4483
 8474SOL    HW236882   0.672   0.952  17.163  0.1603  0.2053 -0.3111
 8475SOL     OW36883   3.342   3.796   1.162  0.4323 -0.2622 -0.4588
 8475SOL    HW136884   3.370   3.705   1.169  1.0315 -0.0776 -0.4671
 8475SOL    HW236885   3.427   3.840   1.153 -0.7142  2.5838  2.4519
 8476SOL     OW36886   2.357   2.759   5.319  0.0004  0.2276 -0.3206
 8476SOL    HW136887   2.428   2.697   5.336 -0.1860  0.1547  0.1898
 8476SOL    HW236888   2.311   2.748   5.402  3.7959 -2.4174  1.4255
 8477SOL     OW36889   3.162   2.688   7.424  0.0130 -0.3601  0.0832
 8477SOL    HW136890   3.184   2.761   7.481 -2.6864 -0.7903  1.6689
 8477SOL    HW236891   3.087   2.724   7.376 -0.6697  1.9893  2.9323
 8478SOL     OW36892   1.482   1.887   1.346  0.2868 -0.3095 -0.5661
 8478SOL    HW136893   1.401   1.936   1.358  0.2760 -0.2901 -0.7174
 8478SOL    HW236894   1.469   1.826   1.418  3.1010  0.4090  0.5467
 8479SOL     OW36895   2.014   2.755   3.940  0.3811  0.2323  0.0369
 8479SOL    HW136896   2.063   2.797   3.869  1.6844 -1.7585 -0.2253
 8479SOL    HW236897   2.085   2.728   3.999 -0.7649 -2.2102  0.2890
 8480SOL     OW36898   0.863   0.930   3.692  0.5654 -0.3048 -0.2046
 8480SOL    HW136899   0.845   1.004   3.635 -0.2929 -1.2705 -1.2022
 8480SOL    HW236900   0.951   0.906   3.662  1.1089  0.0793  1.0631
 8481SOL     OW36901   1.606   1.995   2.716  0.0245 -0.7443  0.4693
 8481SOL    HW136902   1.523   2.036   2.742  2.2075  2.0177  2.9937
 8481SOL    HW236903   1.605   1.993   2.621  0.8485  0.5667  0.4307
 8482SOL     OW36904   4.501   0.210   3.048 -0.3328 -0.1698 -0.4296
 8482SOL    HW136905   4.537   0.145   2.987  0.6023 -2.3248  2.3972
 8482SOL    HW236906   4.407   0.200   3.031 -0.0838 -0.0127 -1.8882
 8483SOL     OW36907   3.916   1.656   1.415  0.3267  0.4303 -0.6651
 8483SOL    HW136908   3.892   1.671   1.324 -0.5575  0.2024 -0.4681
 8483SOL    HW236909   4.006   1.623   1.409  0.6723  0.7282  2.6757
 8484SOL     OW36910   1.126   4.638  12.300  0.0224 -0.0293 -0.2641
 8484SOL    HW136911   1.167   4.686  12.372 -2.2011  0.8385  0.4186
 8484SOL    HW236912   1.112   4.713  12.242  0.6020  0.2048 -0.1006
 8485SOL     OW36913   4.690   3.353   4.480  0.4060  0.3795 -0.2009
 8485SOL    HW136914   4.642   3.359   4.398  2.3016 -0.8600 -1.4084
 8485SOL    HW236915   4.649   3.418   4.537  0.6231  1.1383 -0.9104
 8486SOL     OW36916   1.562   3.059  10.633  0.5072  0.2126  0.0779
 8486SOL    HW136917   1.654   3.032  10.627 -0.2157 -1.7604 -2.0946
 8486SOL    HW236918   1.526   3.011  10.708 -2.0680  0.0556 -1.2561
 8487SOL     OW36919   2.765   4.029   9.585  0.5305 -0.4963 -0.1340
 8487SOL    HW136920   2.808   3.953   9.625 -1.7141 -0.7132  1.9070
 8487SOL    HW236921   2.694   4.048   9.647  0.3878  2.2785 -1.1594
 8488SOL     OW36922   1.811   4.710  16.089 -0.2802  0.1084  0.1097
 8488SOL    HW136923   1.735   0.021  16.136  1.0926  1.0613  1.6460
 8488SOL    HW236924   1.844   4.631  16.132  2.8380  1.4516  0.1989
 8489SOL     OW36925   2.534   2.363   1.713 -0.1497 -0.4025  0.6754
 8489SOL    HW136926   2.458   2.408   1.751  0.6101  2.4586 -1.2200
 8489SOL    HW236927   2.528   2.277   1.755  1.4392  0.1712  2.0676
 8490SOL     OW36928   1.627   0.678  12.102  0.6402 -0.6894 -0.3473
 8490SOL    HW136929   1.631   0.774  12.096 -0.8237 -0.4720  2.0565
 8490SOL    HW236930   1.689   0.646  12.168  1.1185  2.1245  0.5814
 8491SOL     OW36931   0.189   2.708   3.444  0.7116 -0.0540 -0.0685
 8491SOL    HW136932   0.245   2.782   3.421  1.8482 -1.1709 -0.8631
 8491SOL    HW236933   0.115   2.719   3.384  1.0292  2.7543  0.0625
 8492SOL     OW36934   2.297   2.616   4.721 -0.3763 -0.4577  0.1452
 8492SOL    HW136935   2.378   2.576   4.689 -0.3292 -1.1666  1.1349
 8492SOL    HW236936   2.276   2.555   4.792 -0.4040 -1.5941 -0.8302
 8493SOL     OW36937   0.506   2.238  12.014 -0.5775  0.4023 -0.7999
 8493SOL    HW136938   0.571   2.184  11.969  0.2981 -0.1505  1.0863
 8493SOL    HW236939   0.558   2.314  12.040  1.7501 -1.6801  0.6446
 8494SOL     OW36940   1.086   4.706   3.419  0.4970  0.2920  0.3392
 8494SOL    HW136941   1.111   4.711   3.512  0.1609 -0.7631  0.4813
 8494SOL    HW236942   1.102   0.071   3.384  0.0741 -0.0615 -0.7275
 8495SOL     OW36943   0.231   2.877  15.784 -0.4613  0.2821  0.1353
 8495SOL    HW136944   0.220   2.798  15.731  2.8246  0.6660 -1.1124
 8495SOL    HW236945   0.155   2.931  15.767 -0.3107  0.3595 -0.2892
 8496SOL     OW36946   1.387   4.279  14.616 -0.1339  0.0684  0.2961
 8496SOL    HW136947   1.472   4.250  14.650 -0.1528 -0.6142 -0.2382
 8496SOL    HW236948   1.377   4.367  14.654 -1.0095  0.6279 -1.2318
 8497SOL     OW36949   1.214   1.980  12.643 -0.5042 -0.6091  0.2567
 8497SOL    HW136950   1.142   1.947  12.697 -1.5700 -2.6820 -2.4766
 8497SOL    HW236951   1.209   1.916  12.572  3.4676  0.8164 -1.3120
 8498SOL     OW36952   4.517   0.989   8.148  0.0460 -1.2914  0.2024
 8498SOL    HW136953   4.489   1.077   8.120  1.3920 -1.2585 -0.9779
 8498SOL    HW236954   4.460   0.996   8.225 -0.6222  1.5988 -0.5264
 8499SOL     OW36955   1.175   1.417   3.469  0.4267 -0.4859 -0.0961
 8499SOL    HW136956   1.240   1.355   3.502  1.5110  0.5482 -0.2506
 8499SOL    HW236957   1.208   1.499   3.508  2.1467 -2.1368  1.8949
 8500SOL     OW36958   0.590   4.009  14.296 -0.0658  0.1639  0.7742
 8500SOL    HW136959   0.646   4.017  14.218 -0.7769  0.4666  0.2945
 8500SOL    HW236960   0.591   3.914  14.310  1.4665 -0.2807 -2.3247
 8501SOL     OW36961   3.513   3.640  16.811  0.0089 -0.1737 -0.1565
 8501SOL    HW136962   3.520   3.612  16.902  1.6851 -0.0487 -0.2482
 8501SOL    HW236963   3.423   3.672  16.815 -0.0727 -0.2969 -0.9264
 8502SOL     OW36964   2.715   3.656   7.897 -0.2363 -0.3501 -0.6263
 8502SOL    HW136965   2.790   3.611   7.937  0.9056 -0.1995 -2.6084
 8502SOL    HW236966   2.762   3.738   7.884  2.2659 -1.2108  2.8992
 8503SOL     OW36967   1.749   0.199  12.531 -0.3241 -0.1511  0.0260
 8503SOL    HW136968   1.693   0.170  12.603  0.4608 -1.8009 -0.0350
 8503SOL    HW236969   1.679   0.242  12.481 -0.5469 -0.5597 -0.0148
 8504SOL     OW36970   4.509   1.581  14.048  0.0722 -0.1469  0.1855
 8504SOL    HW136971   4.474   1.519  14.112 -1.7870 -0.3091 -0.9542
 8504SOL    HW236972   4.564   1.638  14.101  2.1841 -1.0633 -1.0404
 8505SOL     OW36973   1.495   1.762   6.838 -0.2148 -0.1793 -0.1550
 8505SOL    HW136974   1.443   1.805   6.906  0.8390  0.7032  0.0929
 8505SOL    HW236975   1.559   1.832   6.826 -0.5760  0.0159 -0.9568
 8506SOL     OW36976   1.907   3.348   4.839  0.0863  0.0989  0.4784
 8506SOL    HW136977   1.903   3.429   4.889  3.7734  1.5651 -1.6124
 8506SOL    HW236978   1.994   3.356   4.800 -1.1889 -0.3697 -2.4451
 8507SOL     OW36979   0.044   1.708   6.361  0.3700  0.3916  0.4952
 8507SOL    HW136980   0.109   1.644   6.391 -0.0028 -0.5857 -0.8014
 8507SOL    HW236981   0.072   1.777   6.422  0.9837  0.8743 -0.3377
 8508SOL     OW36982   3.670   0.276   0.951 -0.2148 -0.1635 -0.1872
 8508SOL    HW136983   3.701   0.202   1.003 -0.5595  0.7665  1.3572
 8508SOL    HW236984   3.698   0.246   0.865  3.8424 -1.4874  1.6106
 8509SOL     OW36985   2.134   2.593   6.461 -0.3089  0.5285  0.2165
 8509SOL    HW136986   2.116   2.673   6.410  0.0299  0.4425 -0.0353
 8509SOL    HW236987   2.078   2.532   6.413  1.3748 -1.6175  0.9816
 8510SOL     OW36988   2.610   1.114   5.238  0.1325 -1.0562 -0.2618
 8510SOL    HW136989   2.653   1.167   5.171 -1.0940 -0.4525 -0.5682
 8510SOL    HW236990   2.604   1.038   5.180 -0.2762 -0.3711 -1.1179
 8511SOL     OW36991   2.006   4.067  16.777 -0.0571 -0.0123  0.4118
 8511SOL    HW136992   2.067   4.092  16.708 -1.5958 -2.7494 -1.9483
 8511SOL    HW236993   2.049   4.120  16.844 -1.8101  0.8320  0.8684
 8512SOL     OW36994   0.455   4.297   4.444 -0.1408 -0.3190  0.3829
 8512SOL    HW136995   0.497   4.251   4.517 -0.4824  0.4774  1.0740
 8512SOL    HW236996   0.532   4.325   4.395  2.1203 -2.0109  2.9604
 8513SOL     OW36997   3.520   0.133   2.043 -0.2193 -0.8249  0.3124
 8513SOL    HW136998   3.516   0.048   2.087  0.0214  0.7723  3.3838
 8513SOL    HW236999   3.598   0.123   1.987 -0.7517  3.8776 -1.2595
 8514SOL     OW37000   3.343   4.215   6.677  0.9831  0.2505 -0.2726
 8514SOL    HW137001   3.320   4.239   6.587 -1.8448  2.3839  1.0079
 8514SOL    HW237002   3.359   4.304   6.707  0.7931  0.6733 -1.4472
 8515SOL     OW37003   1.597   0.223  10.152 -0.1352  0.3341  0.1669
 8515SOL    HW137004   1.644   0.210  10.069 -1.3270  0.5689 -0.5415
 8515SOL    HW237005   1.525   0.280  10.125 -1.0367 -0.3414  1.1980
 8516SOL     OW37006   2.559   4.528   0.206 -0.3703 -0.4283 -0.5126
 8516SOL    HW137007   2.618   4.601   0.222 -0.7007 -0.7557  2.2058
 8516SOL    HW237008   2.614   4.450   0.203 -1.3595 -1.2053  1.6866
 8517SOL     OW37009   0.934   2.144  11.023 -0.0116  0.1862  0.0155
 8517SOL    HW137010   0.925   2.142  10.928 -0.7383  0.9712  0.0726
 8517SOL    HW237011   1.015   2.190  11.045  0.9507 -1.0229 -0.9997
 8518SOL     OW37012   4.578   0.195   5.921  0.0430  0.5979 -0.3397
 8518SOL    HW137013   4.642   0.258   5.888 -1.1996  0.7882 -2.4271
 8518SOL    HW237014   4.505   0.218   5.864 -2.4341 -3.5379  1.2026
 8519SOL     OW37015   2.484   2.298   6.366  0.0941  0.4770  0.0839
 8519SOL    HW137016   2.572   2.333   6.380  0.9327 -0.5771 -2.5676
 8519SOL    HW237017   2.478   2.314   6.272 -0.3064 -1.6051 -0.2459
 8520SOL     OW37018   1.323   2.164  15.407  0.1610 -0.3422  0.0834
 8520SOL    HW137019   1.273   2.082  15.413 -0.4940  0.1667  1.5115
 8520SOL    HW237020   1.398   2.141  15.462  0.2957 -0.0115  0.0325
 8521SOL     OW37021   4.170   4.080   2.677  0.0619  0.1076 -0.0310
 8521SOL    HW137022   4.112   4.156   2.677 -0.7835 -0.5431 -0.3608
 8521SOL    HW237023   4.256   4.112   2.652  0.8071 -0.1050  2.2180
 8522SOL     OW37024   3.267   3.497  13.496 -0.6103 -0.3144  0.3043
 8522SOL    HW137025   3.281   3.432  13.427  0.3829 -1.0100  1.1606
 8522SOL    HW237026   3.346   3.551  13.488 -0.5912  0.0993  3.1659
 8523SOL     OW37027   4.420   4.312  15.804  0.2634 -0.4416  0.5540
 8523SOL    HW137028   4.366   4.236  15.825 -0.8614  0.5258  1.1510
 8523SOL    HW237029   4.354   4.376  15.777  1.1464 -0.1394 -0.8985
 8524SOL     OW37030   0.591   0.147   4.768  0.6806 -0.0029  0.7303
 8524SOL    HW137031   0.588   0.192   4.683  1.8241  0.2412  0.8100
 8524SOL    HW237032   0.686   0.150   4.780  0.6989  0.4025  0.4888
 8525SOL     OW37033   0.560   4.326   5.913 -0.6061  0.1374 -0.7436
 8525SOL    HW137034   0.651   4.353   5.926 -1.0459  1.5266 -0.5407
 8525SOL    HW237035   0.527   4.402   5.865  1.4381  1.3785 -0.1836
 8526SOL     OW37036   1.775   2.018   8.649  0.0275 -0.0553 -0.7470
 8526SOL    HW137037   1.804   2.044   8.562  1.3801  1.9202  0.3035
 8526SOL    HW237038   1.771   1.923   8.644 -2.6639  0.0264 -0.1080
 8527SOL     OW37039   4.468   2.766   2.670 -0.0135 -0.0623 -0.5933
 8527SOL    HW137040   4.398   2.720   2.717  2.0195 -2.7457 -0.1715
 8527SOL    HW237041   4.436   2.755   2.580  0.1126 -0.0864 -0.6342
 8528SOL     OW37042   2.567   1.819   9.999  0.0989  0.4348 -0.1009
 8528SOL    HW137043   2.533   1.905  10.024 -1.1200 -0.2286  0.5316
 8528SOL    HW237044   2.643   1.837   9.943  0.5825 -1.7905 -0.1385
 8529SOL     OW37045   2.226   2.485  12.913  0.7542  0.2796  0.6414
 8529SOL    HW137046   2.261   2.471  12.825  2.0014 -3.3471  1.6999
 8529SOL    HW237047   2.188   2.573  12.906  1.3306  0.7027  2.7158
 8530SOL     OW37048   1.059   1.742  10.172 -0.5915  0.4277  0.5450
 8530SOL    HW137049   0.992   1.686  10.133  1.2221 -1.0084 -0.4875
 8530SOL    HW237050   1.099   1.687  10.239 -1.8209  2.0674  2.6524
 8531SOL     OW37051   0.448   0.775  11.141 -0.7025  0.3108  0.5761
 8531SOL    HW137052   0.426   0.739  11.227  1.1250  1.1370  1.3818
 8531SOL    HW237053   0.377   0.839  11.130 -0.4338  0.3792 -0.8304
 8532SOL     OW37054   3.701   4.029   8.262 -0.0746  0.2138 -0.7230
 8532SOL    HW137055   3.665   3.952   8.218 -0.3597 -0.9400  1.5243
 8532SOL    HW237056   3.630   4.067   8.314  0.2122 -0.7217  0.3525
 8533SOL     OW37057   2.702   3.466   3.005  0.1759  0.6975 -0.2314
 8533SOL    HW137058   2.617   3.508   3.009 -0.1591 -0.1703  2.0174
 8533SOL    HW237059   2.683   3.406   3.077  0.5625 -1.3625 -1.8497
 8534SOL     OW37060   0.623   0.888   3.414  0.0948 -0.0189 -0.5051
 8534SOL    HW137061   0.553   0.947   3.384  1.1728  0.7300 -1.5383
 8534SOL    HW237062   0.702   0.939   3.394 -1.7557  2.1301 -2.4192
 8535SOL     OW37063   0.530   2.276   4.116  0.3214  0.3296 -0.2253
 8535SOL    HW137064   0.492   2.196   4.152  1.3477  0.7023  1.6608
 8535SOL    HW237065   0.488   2.284   4.031 -0.3021 -1.5841 -0.0889
 8536SOL     OW37066   2.470   1.391  16.677 -0.1661 -0.3311  0.6264
 8536SOL    HW137067   2.471   1.440  16.595 -3.9163  0.2341  0.9116
 8536SOL    HW237068   2.439   1.307  16.642 -1.3660  0.3647  0.0352
 8537SOL     OW37069   1.497   3.354   6.768  0.2386 -0.0917  0.2623
 8537SOL    HW137070   1.527   3.270   6.733 -1.1610 -1.6046  2.6850
 8537SOL    HW237071   1.435   3.374   6.698  0.1487  0.7389  0.5853
 8538SOL     OW37072   2.756   1.450   2.180  1.4232  0.4668  0.1246
 8538SOL    HW137073   2.700   1.525   2.159  1.3328  0.7260  1.2764
 8538SOL    HW237074   2.847   1.481   2.175  2.0859 -1.8402 -2.2602
 8539SOL     OW37075   0.014   1.244   3.679  0.7616 -0.4106 -0.4498
 8539SOL    HW137076   0.092   1.210   3.636  1.3490  0.8136 -0.3304
 8539SOL    HW237077   4.693   1.160   3.692 -1.4499  1.1056  1.8847
 8540SOL     OW37078   4.192   1.647   3.173 -0.3467 -0.2884  0.0717
 8540SOL    HW137079   4.276   1.645   3.219 -1.0686  3.4275  1.4961
 8540SOL    HW237080   4.164   1.738   3.183 -1.7096 -0.8749  1.7048
 8541SOL     OW37081   3.266   4.344   5.257 -0.8581  0.2382 -0.3455
 8541SOL    HW137082   3.183   4.363   5.212 -1.3487 -1.3128 -0.0874
 8541SOL    HW237083   3.248   4.260   5.300  0.1157  0.6206  0.8134
 8542SOL     OW37084   3.657   3.157  14.781  0.3909 -0.6425  0.0299
 8542SOL    HW137085   3.647   3.239  14.829 -0.1597  0.0338 -1.2170
 8542SOL    HW237086   3.732   3.189  14.731  0.1000  0.9329  0.6020
 8543SOL     OW37087   1.200   3.711  15.004  0.0138 -0.4185 -0.2756
 8543SOL    HW137088   1.168   3.801  14.999  1.4345  0.0919 -0.2702
 8543SOL    HW237089   1.289   3.713  14.969 -0.9186 -0.6956 -2.7124
 8544SOL     OW37090   1.058   3.590   1.969 -0.1848  0.5821  0.1108
 8544SOL    HW137091   1.103   3.553   2.044 -3.1017 -3.3018 -0.0595
 8544SOL    HW237092   1.114   3.551   1.901  0.3117  1.4807 -0.0038
 8545SOL     OW37093   0.440   0.063   3.741 -0.4748  0.3945  0.4000
 8545SOL    HW137094   0.370   0.021   3.790 -1.0402  0.5017 -0.3042
 8545SOL    HW237095   0.464   0.144   3.786  0.7733 -1.2261  2.6040
 8546SOL     OW37096   3.773   1.818   4.685 -0.1282 -0.2161  0.4460
 8546SOL    HW137097   3.840   1.872   4.725  0.0535  0.6659 -1.0613
 8546SOL    HW237098   3.757   1.870   4.606 -1.5870  0.0264  0.8988
 8547SOL     OW37099   2.758   0.819   5.836 -0.6114 -0.1715 -0.3249
 8547SOL    HW137100   2.734   0.907   5.862 -2.5571 -0.7533 -0.1958
 8547SOL    HW237101   2.698   0.796   5.766 -1.1799 -0.2912  0.2075
 8548SOL     OW37102   1.247   1.191   2.063  0.4256  0.0398  0.1084
 8548SOL    HW137103   1.224   1.253   2.133  0.5099 -2.1498  2.0804
 8548SOL    HW237104   1.336   1.168   2.088  0.4545  0.9925  0.9059
 8549SOL     OW37105   2.358   0.947   8.629 -0.2668 -0.2202 -0.0976
 8549SOL    HW137106   2.441   0.901   8.616 -0.9777 -1.4472 -0.2484
 8549SOL    HW237107   2.328   0.893   8.703 -0.5242  1.5340  1.1013
 8550SOL     OW37108   0.274   0.026   5.494  0.3235  0.1369 -0.2279
 8550SOL    HW137109   0.227   0.002   5.414  0.1300 -2.2510  0.6003
 8550SOL    HW237110   0.198   0.049   5.547  2.1485  1.6149  1.7554
 8551SOL     OW37111   2.426   3.450   8.055 -0.1253 -0.1168  0.1266
 8551SOL    HW137112   2.382   3.462   8.139 -0.2088  1.5230 -0.1485
 8551SOL    HW237113   2.514   3.426   8.081 -0.0884  1.1463  1.1534
 8552SOL     OW37114   3.046   3.954   2.751  0.4424 -0.2926 -0.2909
 8552SOL    HW137115   2.971   3.909   2.713  0.3403  0.4416 -0.9558
 8552SOL    HW237116   3.115   3.940   2.687  0.9090  1.0120 -0.0598
 8553SOL     OW37117   0.628   2.972   9.005  0.1808  0.8217  0.0170
 8553SOL    HW137118   0.560   3.009   8.948  0.9693  0.6829 -0.9988
 8553SOL    HW237119   0.587   2.886   9.015 -1.3545  1.5070 -0.3245
 8554SOL     OW37120   4.180   0.557  17.632  0.0653  0.0711 -0.4786
 8554SOL    HW137121   4.156   0.566   0.031  0.3308 -1.0412 -0.3025
 8554SOL    HW237122   4.160   0.466  17.612 -2.2460  0.7892 -1.4230
 8555SOL     OW37123   3.847   0.197   4.121  0.0121  0.2749  0.1249
 8555SOL    HW137124   3.835   0.189   4.026  2.5219  0.8321 -0.2260
 8555SOL    HW237125   3.818   0.286   4.140  0.5925  0.8361 -1.6219
 8556SOL     OW37126   1.339   3.110  13.798 -0.7867 -0.2059 -0.4792
 8556SOL    HW137127   1.288   3.069  13.869 -2.0639 -0.7975 -1.7472
 8556SOL    HW237128   1.422   3.062  13.808 -0.4777  0.8356  2.0424
 8557SOL     OW37129   3.109   2.470  10.383  0.0935 -0.5792 -0.7616
 8557SOL    HW137130   3.118   2.376  10.400 -0.0800 -0.3458  0.6072
 8557SOL    HW237131   3.019   2.474  10.350 -0.4191 -0.0114  0.7164
 8558SOL     OW37132   4.446   0.658   9.553  0.2447 -0.2086 -0.0014
 8558SOL    HW137133   4.502   0.670   9.477 -0.0616 -0.8441 -0.3272
 8558SOL    HW237134   4.385   0.585   9.543  1.7963 -1.7055  1.5014
 8559SOL     OW37135   4.232   3.019  13.069  0.7112 -0.2681 -0.2071
 8559SOL    HW137136   4.285   3.015  12.990  2.4915  0.6773  0.9432
 8559SOL    HW237137   4.176   2.944  13.050  0.4053 -0.5629  1.7692
 8560SOL     OW37138   3.769   0.299   5.020  0.1960  0.4286  0.3405
 8560SOL    HW137139   3.850   0.313   5.070  2.1094  1.4369 -3.0535
 8560SOL    HW237140   3.765   0.205   5.007 -0.0876  0.5018 -0.0879
 8561SOL     OW37141   0.647   0.358   8.501  0.1237  0.2203 -0.3232
 8561SOL    HW137142   0.612   0.399   8.422  1.3950  1.0732 -0.4535
 8561SOL    HW237143   0.598   0.415   8.560 -2.4511 -0.0749 -2.2323
 8562SOL     OW37144   0.536   2.339   0.138 -0.8325  0.1371  0.0323
 8562SOL    HW137145   0.500   2.391   0.066  0.8521  0.6937 -0.3905
 8562SOL    HW237146   0.629   2.356   0.128 -1.0088  1.2718  0.3375
 8563SOL     OW37147   0.529   4.265   6.944 -0.5512  0.0618 -0.1411
 8563SOL    HW137148   0.450   4.246   6.893  0.6202  0.0034 -1.9338
 8563SOL    HW237149   0.512   4.346   6.993 -0.5251 -0.5832  0.9273
 8564SOL     OW37150   3.759   0.655  15.892 -0.4644 -0.0074  0.1316
 8564SOL    HW137151   3.805   0.588  15.943 -0.6707 -1.3372 -1.4102
 8564SOL    HW237152   3.805   0.653  15.808  1.0110 -4.3215  1.0317
 8565SOL     OW37153   0.942   2.704  14.946 -0.1088  0.0271 -0.4609
 8565SOL    HW137154   0.852   2.676  14.959  0.0870 -0.1750  0.4164
 8565SOL    HW237155   0.938   2.765  14.871  0.7009  2.4594  1.4852
 8566SOL     OW37156   0.170   3.898  10.379  0.1964  0.0485  0.4461
 8566SOL    HW137157   0.167   3.832  10.448  2.2359 -0.5718 -0.0346
 8566SOL    HW237158   0.122   3.965  10.427 -0.6273 -0.2897  0.0865
 8567SOL     OW37159   2.939   3.446   4.170 -0.2938 -0.5712  0.0287
 8567SOL    HW137160   2.904   3.461   4.082 -0.5810 -1.0213  0.0669
 8567SOL    HW237161   2.967   3.355   4.159  1.5440  0.1826 -1.4376
 8568SOL     OW37162   1.200   2.465  17.620  0.4520  0.5232 -0.4238
 8568SOL    HW137163   1.274   2.406  17.632  1.6449  2.5242  2.0657
 8568SOL    HW237164   1.246   2.547  17.634  0.4389  0.1873  1.6915
 8569SOL     OW37165   1.381   1.810   8.803  0.5408 -0.0100 -0.3313
 8569SOL    HW137166   1.325   1.840   8.875  2.2098  1.2505  0.4415
 8569SOL    HW237167   1.331   1.737   8.768  1.2583 -0.4679 -0.4013
 8570SOL     OW37168   2.411   1.317   5.204  0.1759  0.0622  0.3510
 8570SOL    HW137169   2.463   1.266   5.266  0.0244  0.6183  0.9382
 8570SOL    HW237170   2.351   1.252   5.168 -2.5323  2.0245  1.3041
 8571SOL     OW37171   4.617   4.440  16.294 -0.0495  0.2430  0.1988
 8571SOL    HW137172   4.662   4.402  16.369 -1.1393  0.7457  1.1113
 8571SOL    HW237173   4.537   4.387  16.297  1.7454 -2.4876 -0.5457
 8572SOL     OW37174   4.478   0.749   4.737 -0.1305 -0.2375 -0.5884
 8572SOL    HW137175   4.536   0.790   4.801 -0.5066 -0.8040  0.1132
 8572SOL    HW237176   4.539   0.733   4.666 -1.4322 -2.3382 -1.2378
 8573SOL     OW37177   1.015   3.628   0.319  0.3571 -0.2508  0.0062
 8573SOL    HW137178   1.003   3.663   0.408  0.2811 -0.0918 -0.0672
 8573SOL    HW237179   0.928   3.588   0.309  1.1653 -2.7658  2.9656
 8574SOL     OW37180   1.487   2.665   7.216 -0.2661  0.7928 -0.3828
 8574SOL    HW137181   1.392   2.677   7.214 -0.3895  0.1529  1.4132
 8574SOL    HW237182   1.515   2.715   7.293  1.6683 -1.7345  0.5873
 8575SOL     OW37183   0.814   1.368  11.684  0.0888  0.0859  1.4255
 8575SOL    HW137184   0.860   1.290  11.715 -0.2326 -0.6950 -0.0675
 8575SOL    HW237185   0.731   1.369  11.731  0.7878 -0.9195  2.6566
 8576SOL     OW37186   2.936   2.167   5.190 -0.3695  0.6967 -0.2271
 8576SOL    HW137187   2.947   2.186   5.283 -2.9388 -2.3861  0.7190
 8576SOL    HW237188   2.867   2.102   5.200 -2.0711  2.6592  0.6935
 8577SOL     OW37189   1.663   0.096  15.386 -0.4458 -0.1545  0.1750
 8577SOL    HW137190   1.729   0.118  15.452  1.2043 -1.5560 -1.0138
 8577SOL    HW237191   1.726   0.077  15.316 -0.5630 -0.4018  0.1373
 8578SOL     OW37192   0.266   1.266   1.894 -0.1017  0.4264  0.2218
 8578SOL    HW137193   0.188   1.288   1.842  0.1882 -3.3971 -1.8161
 8578SOL    HW237194   0.340   1.300   1.843 -0.8754  1.0582 -0.4938
 8579SOL     OW37195   4.702   2.340   8.698  0.4722 -0.0152 -0.2372
 8579SOL    HW137196   0.038   2.270   8.729 -1.4489 -2.0234 -1.1441
 8579SOL    HW237197   4.722   2.409   8.761 -1.1617 -0.0127  0.2726
 8580SOL     OW37198   0.804   3.610   4.918  0.3331  0.5321  0.0990
 8580SOL    HW137199   0.717   3.569   4.911 -0.2388  1.6181  0.8297
 8580SOL    HW237200   0.814   3.642   4.829 -2.1848  0.9563 -0.0210
 8581SOL     OW37201   1.714   4.713   4.360 -0.1666  0.1439  0.3399
 8581SOL    HW137202   1.809   4.718   4.360 -0.1339 -0.5052  2.9969
 8581SOL    HW237203   1.705   4.618   4.361 -0.4048  0.1636  0.2401
 8582SOL     OW37204   2.659   2.567   4.030 -0.3120  0.0805  0.4224
 8582SOL    HW137205   2.629   2.652   3.997 -0.7794 -0.2948 -0.1306
 8582SOL    HW237206   2.753   2.563   4.015 -0.3180 -0.4743  0.5496
 8583SOL     OW37207   4.621   0.670   3.574 -0.4510  0.0583 -0.1108
 8583SOL    HW137208   4.624   0.693   3.482  1.5649  0.5412  0.0616
 8583SOL    HW237209   4.712   0.638   3.574 -0.2918  0.5513 -2.3498
 8584SOL     OW37210   0.282   4.534  10.146 -0.0873 -0.3864  0.1456
 8584SOL    HW137211   0.332   4.570  10.073  0.9825 -1.8428  0.1628
 8584SOL    HW237212   0.215   4.603  10.146 -1.7056 -1.9694 -0.9664
 8585SOL     OW37213   3.866   4.362   8.860  0.4683 -0.5160  0.0630
 8585SOL    HW137214   3.881   4.307   8.937  0.8690 -0.5959 -0.0683
 8585SOL    HW237215   3.955   4.393   8.843  0.3077  0.5298  1.1332
 8586SOL     OW37216   2.552   0.008   5.514 -0.0410 -0.2886 -0.1713
 8586SOL    HW137217   2.555   0.103   5.503 -1.8395 -0.2360 -0.0817
 8586SOL    HW237218   2.458   4.720   5.522 -0.0953  0.5705  0.4100
 8587SOL     OW37219   3.230   0.233   1.679 -0.4956 -0.4066 -0.0070
 8587SOL    HW137220   3.201   0.324   1.676  2.2851  0.5559  2.2615
 8587SOL    HW237221   3.161   0.195   1.624  1.1025 -0.0177 -2.2974
 8588SOL     OW37222   0.665   4.401  17.680  0.3752  0.4845  0.3023
 8588SOL    HW137223   0.572   4.384   0.006  0.2136  1.5235  0.4078
 8588SOL    HW237224   0.654   4.396  17.585 -0.4682  0.7485  0.3831
 8589SOL     OW37225   4.113   1.482   4.924  0.1912  0.1645  0.2982
 8589SOL    HW137226   4.085   1.553   4.981  0.2453 -0.1586  0.7260
 8589SOL    HW237227   4.196   1.479   4.971  0.1392 -1.7359  0.2756
 8590SOL     OW37228   1.897   0.941  17.542  0.1354  0.3130  0.3318
 8590SOL    HW137229   1.809   0.909  17.522  0.6025 -1.2384  0.7176
 8590SOL    HW237230   1.899   0.940  17.637  3.5937  0.9431  0.2443
 8591SOL     OW37231   4.627   2.067   4.083 -0.1049  0.0649  0.7642
 8591SOL    HW137232   4.588   2.119   4.014  1.8220  1.1888  0.5374
 8591SOL    HW237233   4.685   2.012   4.030  2.8284  3.7309  0.1965
 8592SOL     OW37234   0.902   0.450   8.860 -0.0031  0.0128  0.2600
 8592SOL    HW137235   0.836   0.391   8.896  0.4900 -0.7591 -0.0917
 8592SOL    HW237236   0.949   0.483   8.936  0.5248 -1.7172  0.6738
 8593SOL     OW37237   0.872   4.466  14.707  0.3582 -0.0101 -0.1118
 8593SOL    HW137238   0.962   4.437  14.698  0.6313  1.0561 -0.8409
 8593SOL    HW237239   0.871   4.555  14.671  2.2222  0.7102  1.6197
 8594SOL     OW37240   1.105   0.486   2.236  0.0466  0.1034  0.4459
 8594SOL    HW137241   1.191   0.509   2.200  0.1403 -2.7435 -1.1950
 8594SOL    HW237242   1.129   0.465   2.326 -1.1740  0.0697  0.7602
 8595SOL     OW37243   4.008   2.263   0.844 -0.9610 -0.1437 -0.7272
 8595SOL    HW137244   3.929   2.312   0.866  0.0562  1.1093  0.0983
 8595SOL    HW237245   4.039   2.237   0.931 -0.1366 -0.2565 -1.0550
 8596SOL     OW37246   2.895   1.229  16.075  0.0102 -0.2756 -0.1579
 8596SOL    HW137247   2.899   1.207  15.982 -1.3491  0.6401 -0.4363
 8596SOL    HW237248   2.966   1.174  16.107  0.0139  0.6590  1.4201
 8597SOL     OW37249   3.774   4.606   8.173 -0.4875  0.0003  0.6078
 8597SOL    HW137250   3.804   4.693   8.146  1.1025 -0.2674  1.5433
 8597SOL    HW237251   3.815   4.610   8.259  1.3793  1.2763 -0.3392
 8598SOL     OW37252   4.288   0.701   5.309 -0.4424 -0.4163  0.3445
 8598SOL    HW137253   4.230   0.774   5.287  2.3081  1.7926  0.3422
 8598SOL    HW237254   4.269   0.640   5.238 -0.2615 -0.9916  0.7944
 8599SOL     OW37255   4.720   4.171   8.975 -0.6873 -0.0180 -0.3683
 8599SOL    HW137256   4.654   4.126   9.027 -1.1947  1.4521  0.2591
 8599SOL    HW237257   0.070   4.138   9.027 -0.2122 -1.6072 -2.0556
 8600SOL     OW37258   0.674   2.299   4.985  0.0768 -0.0785  0.2521
 8600SOL    HW137259   0.769   2.310   4.972  0.1514 -0.4455  0.4891
 8600SOL    HW237260   0.672   2.300   5.081  3.9324 -0.3076  0.3502
 8601SOL     OW37261   2.094   3.073   5.642  0.5379  0.0961 -0.0076
 8601SOL    HW137262   2.102   3.157   5.686  0.2405 -0.7056  1.5861
 8601SOL    HW237263   2.143   3.081   5.561 -0.6905 -0.5076 -0.8057
 8602SOL     OW37264   0.455   1.992   7.672  0.6079 -0.1091  0.0145
 8602SOL    HW137265   0.509   2.049   7.617 -0.9880  0.4407 -0.9742
 8602SOL    HW237266   0.393   1.950   7.612 -0.4647 -0.7906  1.5946
 8603SOL     OW37267   1.350   4.306   6.176 -0.2864 -0.2523  0.2245
 8603SOL    HW137268   1.434   4.261   6.181 -0.1138 -0.1519 -1.5363
 8603SOL    HW237269   1.340   4.340   6.264 -1.4525 -1.6388  0.6375
 8604SOL     OW37270   1.289   1.361   1.574 -0.4519 -0.1410 -0.6462
 8604SOL    HW137271   1.384   1.371   1.584 -0.6636  1.3910 -0.1146
 8604SOL    HW237272   1.258   1.389   1.660 -0.4129 -2.9051  0.2583
 8605SOL     OW37273   0.445   2.305   5.784  0.1545 -0.3106 -0.6993
 8605SOL    HW137274   0.478   2.278   5.870 -0.0078 -0.4111 -0.6680
 8605SOL    HW237275   0.397   2.231   5.746  2.1684 -1.1323 -1.6850
 8606SOL     OW37276   4.193   1.899  12.007  0.1682 -0.4344 -0.3975
 8606SOL    HW137277   4.231   1.913  11.920 -2.0559 -0.2893 -1.3489
 8606SOL    HW237278   4.117   1.955  11.994 -0.9706 -2.4404 -2.4775
 8607SOL     OW37279   1.614   4.259   0.135 -0.1844  0.2405 -0.7686
 8607SOL    HW137280   1.652   4.233   0.219  0.4301  1.0535 -0.7983
 8607SOL    HW237281   1.550   4.191   0.114 -1.6577  0.7267  2.1556
 8608SOL     OW37282   3.436   4.213   2.793  0.4321  0.0329  0.3753
 8608SOL    HW137283   3.449   4.123   2.824  0.6804  0.6242  1.9879
 8608SOL    HW237284   3.345   4.220   2.823  0.6438  0.1752  0.9724
 8609SOL     OW37285   1.267   2.479   7.268 -0.0695 -0.3410  0.1172
 8609SOL    HW137286   1.331   2.479   7.339  0.5510 -0.7224 -0.4487
 8609SOL    HW237287   1.237   2.570   7.267  0.8908 -0.0241 -0.0875
 8610SOL     OW37288   1.009   1.785   9.663  0.2205  0.0467  0.1288
 8610SOL    HW137289   1.099   1.758   9.648  0.4407 -0.0592  1.6594
 8610SOL    HW237290   0.954   1.719   9.622  0.0055 -0.6206  1.4781
 8611SOL     OW37291   4.185   1.649   4.681 -0.4398  0.2160  0.0277
 8611SOL    HW137292   4.256   1.585   4.689 -2.2271 -1.8814 -0.7741
 8611SOL    HW237293   4.116   1.598   4.722  0.6746  0.4142  2.1760
 8612SOL     OW37294   2.187   0.063   7.790  0.0363 -0.6051 -0.0062
 8612SOL    HW137295   2.222   4.702   7.819  1.2244 -0.3325 -0.6572
 8612SOL    HW237296   2.227   0.073   7.704 -3.1124 -0.1259 -1.4194
 8613SOL     OW37297   0.003   1.586   7.463  0.9440 -0.3928  0.3013
 8613SOL    HW137298   4.678   1.563   7.542 -0.6988  1.1009 -0.2587
 8613SOL    HW237299   0.000   1.681   7.477  1.9396 -0.0166 -2.0199
 8614SOL     OW37300   1.616   1.196   8.682 -0.6136  0.0046  0.1618
 8614SOL    HW137301   1.695   1.180   8.630 -0.1237 -0.2643  0.9829
 8614SOL    HW237302   1.579   1.108   8.690  0.7235 -0.5039  0.7885
 8615SOL     OW37303   4.167   1.297  10.183  0.2819 -0.1221  0.8989
 8615SOL    HW137304   4.259   1.320  10.199 -0.4265  2.1268  1.6222
 8615SOL    HW237305   4.158   1.217  10.236 -3.3114  0.6771  1.4806
 8616SOL     OW37306   2.225   0.774   8.806  0.0701 -0.1397  0.2320
 8616SOL    HW137307   2.242   0.762   8.900 -0.8544  1.5311  0.6154
 8616SOL    HW237308   2.200   0.685   8.782 -1.3517  0.1225  0.6947
 8617SOL     OW37309   1.882   0.410   2.681  0.0124  0.1466  0.2452
 8617SOL    HW137310   1.824   0.404   2.757 -0.0069 -1.4318  0.1084
 8617SOL    HW237311   1.897   0.505   2.680  0.2924  0.0933 -0.5633
 8618SOL     OW37312   2.471   0.886  14.783  0.2193 -0.9115 -0.4619
 8618SOL    HW137313   2.449   0.793  14.783  2.5061 -1.4749 -1.4794
 8618SOL    HW237314   2.488   0.900  14.876  0.8233  1.6998 -0.9594
 8619SOL     OW37315   1.056   4.206  16.571 -0.2859  0.0408  0.0520
 8619SOL    HW137316   1.048   4.230  16.479  1.1438  3.5595  0.8204
 8619SOL    HW237317   1.147   4.229  16.590  0.5039 -2.1231 -1.1364
 8620SOL     OW37318   2.221   4.574   8.608  0.6653  0.1577  0.4100
 8620SOL    HW137319   2.190   4.664   8.607 -1.4547 -0.5871 -0.3012
 8620SOL    HW237320   2.205   4.557   8.701 -0.8033 -2.5596 -0.3484
 8621SOL     OW37321   2.888   0.514   7.954  0.0762 -0.0798 -0.0327
 8621SOL    HW137322   2.827   0.442   7.971 -0.6670  0.2237 -1.4197
 8621SOL    HW237323   2.960   0.460   7.920 -0.2080  0.5644 -1.6351
 8622SOL     OW37324   4.124   0.335   7.063  0.0676 -0.1644  0.5928
 8622SOL    HW137325   4.029   0.325   7.066  0.0589 -0.0967  0.5396
 8622SOL    HW237326   4.128   0.278   6.987  0.6616  0.1738  0.3711
 8623SOL     OW37327   1.106   3.698   0.057 -0.0941 -0.7642 -0.3243
 8623SOL    HW137328   1.062   3.620   0.025 -0.3212 -0.4009 -0.8875
 8623SOL    HW237329   1.076   3.694   0.148 -0.4569 -0.9488 -0.4528
 8624SOL     OW37330   4.631   1.571   2.992 -0.5964 -0.1657 -0.0876
 8624SOL    HW137331   4.643   1.660   3.025 -0.0717  0.2118 -1.3303
 8624SOL    HW237332   4.566   1.574   2.923  0.3943  1.4514 -0.9449
 8625SOL     OW37333   2.738   1.665   3.513 -0.0227 -0.2054 -0.5564
 8625SOL    HW137334   2.779   1.648   3.597 -2.6854 -0.9332  0.6002
 8625SOL    HW237335   2.696   1.751   3.520 -2.4037 -1.3679 -0.4800
 8626SOL     OW37336   1.862   2.071   7.412  0.2368 -0.3685 -0.1504
 8626SOL    HW137337   1.860   2.119   7.329 -1.0741 -0.0667  0.0497
 8626SOL    HW237338   1.955   2.061   7.434  0.5619  1.9683 -0.4980
 8627SOL     OW37339   2.553   4.651   2.232 -0.5235 -0.9169  0.3000
 8627SOL    HW137340   2.475   4.631   2.285 -2.2002  2.2482 -0.9528
 8627SOL    HW237341   2.509   4.681   2.153  1.8879 -0.0449 -0.6990
 8628SOL     OW37342   0.246   4.296   4.272 -0.2753 -0.7817  0.0265
 8628SOL    HW137343   0.302   4.264   4.343  1.0143  3.9655  1.1501
 8628SOL    HW237344   0.307   4.321   4.203  0.8799 -1.7785  0.6893
 8629SOL     OW37345   2.297   4.495   6.742  0.2104 -0.2954 -0.1451
 8629SOL    HW137346   2.236   4.548   6.792 -0.4072 -0.4264 -0.7580
 8629SOL    HW237347   2.359   4.561   6.711  1.5452 -2.1232 -1.3582
 8630SOL     OW37348   0.277   0.197   6.479  0.7343  0.0108 -0.3550
 8630SOL    HW137349   0.272   0.200   6.384  1.1377  1.6446 -0.3228
 8630SOL    HW237350   0.272   0.286   6.513 -1.2808 -0.0176 -0.5673
 8631SOL     OW37351   0.532   1.115   0.202 -0.4084  0.5363  0.2128
 8631SOL    HW137352   0.491   1.166   0.272 -1.4818  0.2477 -0.1963
 8631SOL    HW237353   0.461   1.052   0.186  0.0037  0.4521 -1.2199
 8632SOL     OW37354   0.896   1.846   5.393 -0.1356 -0.6328  0.3375
 8632SOL    HW137355   0.818   1.797   5.418 -1.4366  1.3580  0.2655
 8632SOL    HW237356   0.959   1.775   5.386  0.5536  0.0797 -0.5957
 8633SOL     OW37357   0.834   0.911   2.738 -0.0788 -0.0927 -0.2193
 8633SOL    HW137358   0.862   1.001   2.756  1.2433 -0.2998 -1.2645
 8633SOL    HW237359   0.797   0.915   2.650 -2.7484 -1.0502  0.8448
 8634SOL     OW37360   4.490   4.149   9.729 -0.1249  0.0815  0.1846
 8634SOL    HW137361   4.479   4.223   9.670 -2.0474  0.0101  0.4520
 8634SOL    HW237362   4.421   4.094   9.693  0.5271  0.7247 -2.0507
 8635SOL     OW37363   3.351   2.641   1.273  0.2824  0.3040 -0.2756
 8635SOL    HW137364   3.343   2.723   1.224  0.3034 -0.2301 -1.1775
 8635SOL    HW237365   3.262   2.606   1.273 -0.1507  1.3862 -0.8634
 8636SOL     OW37366   1.827   4.072   0.719  0.0220 -0.3162 -0.3387
 8636SOL    HW137367   1.749   4.026   0.688 -2.0862  3.1462 -0.2938
 8636SOL    HW237368   1.883   4.075   0.642  0.0687 -0.8961 -0.3248
 8637SOL     OW37369   3.797   1.111   6.177 -0.0837 -0.3924  0.0453
 8637SOL    HW137370   3.740   1.080   6.247 -1.4376 -0.6940 -1.1842
 8637SOL    HW237371   3.817   1.026   6.139 -0.6301  0.5845 -2.4439
 8638SOL     OW37372   1.083   3.021   8.579  0.1009  0.0498 -0.3337
 8638SOL    HW137373   1.114   2.983   8.661  1.4121  1.9749  0.0640
 8638SOL    HW237374   1.049   3.107   8.604  0.3870  0.0740 -0.0324
 8639SOL     OW37375   1.198   0.292  16.610  0.4038 -0.0991 -0.0793
 8639SOL    HW137376   1.141   0.359  16.572  2.2746  0.3684 -2.0673
 8639SOL    HW237377   1.135   0.220  16.602  1.0433 -0.4724 -1.8565
 8640SOL     OW37378   0.359   2.598   2.362  0.4972  0.0857 -0.7850
 8640SOL    HW137379   0.284   2.589   2.304 -0.1092  0.3282 -0.0395
 8640SOL    HW237380   0.380   2.691   2.365 -1.4826  0.5336 -1.0589
 8641SOL     OW37381   2.203   3.014  12.446 -0.2650 -0.9678 -0.7539
 8641SOL    HW137382   2.146   3.091  12.449 -0.6698 -1.3231  0.6105
 8641SOL    HW237383   2.288   3.043  12.478 -0.0557  1.0079 -3.0286
 8642SOL     OW37384   1.834   0.598   3.530  0.0903 -0.3153  0.3626
 8642SOL    HW137385   1.875   0.512   3.544 -0.5073 -0.8525 -1.2797
 8642SOL    HW237386   1.786   0.581   3.450  0.1344 -1.1192  0.5082
 8643SOL     OW37387   0.150   1.622   2.615 -0.1651 -0.5700  0.2098
 8643SOL    HW137388   0.135   1.626   2.520  2.3617  2.8184 -0.0650
 8643SOL    HW237389   0.235   1.666   2.617  0.6383 -2.0487 -1.0836
 8644SOL     OW37390   3.830   0.407   1.281  0.0377  0.5106 -0.3207
 8644SOL    HW137391   3.745   0.438   1.251  0.2265  0.9877 -0.3661
 8644SOL    HW237392   3.823   0.381   1.373 -0.0839  0.9630 -0.2001
 8645SOL     OW37393   0.651   0.821   7.944 -0.0685  0.5409  0.5850
 8645SOL    HW137394   0.634   0.870   8.025  1.4765 -1.8989  2.3567
 8645SOL    HW237395   0.699   0.890   7.898  0.4760 -1.2211 -1.4594
 8646SOL     OW37396   1.237   0.724   2.605  0.1869 -0.0887  0.0668
 8646SOL    HW137397   1.218   0.636   2.573 -0.6060  0.6498 -1.5076
 8646SOL    HW237398   1.196   0.726   2.691  2.1547 -0.0620  1.0085
 8647SOL     OW37399   3.223   3.341   6.872 -0.0978 -0.5398 -0.3067
 8647SOL    HW137400   3.304   3.325   6.823 -0.6372 -0.8071 -1.1109
 8647SOL    HW237401   3.259   3.318   6.958 -0.1881 -0.9352 -0.3728
 8648SOL     OW37402   3.607   4.407   2.922  0.4449  0.6791 -0.3203
 8648SOL    HW137403   3.522   4.449   2.935  0.8697  0.4560  2.9452
 8648SOL    HW237404   3.570   4.324   2.891  1.1299  0.2850 -0.0788
 8649SOL     OW37405   4.451   0.832  13.276  0.0671 -0.0706 -0.2445
 8649SOL    HW137406   4.369   0.783  13.283  0.4954 -0.4943  1.9049
 8649SOL    HW237407   4.463   0.878  13.193 -3.1635 -2.3702 -1.9818
 8650SOL     OW37408   1.670   2.508   3.314  0.2557  0.6129 -0.1712
 8650SOL    HW137409   1.708   2.590   3.282 -0.1823  0.6263 -0.6556
 8650SOL    HW237410   1.581   2.518   3.281 -0.1479 -3.2243 -0.1886
 8651SOL     OW37411   0.860   0.880   8.783  0.0004 -0.0458 -0.4323
 8651SOL    HW137412   0.802   0.852   8.854 -0.2811  1.6816  0.0397
 8651SOL    HW237413   0.948   0.873   8.820 -0.4248 -2.5306  0.0651
 8652SOL     OW37414   2.887   1.168   2.544  0.0905  0.6538 -0.2722
 8652SOL    HW137415   2.865   1.076   2.526 -0.3407  0.6096  0.4520
 8652SOL    HW237416   2.955   1.186   2.480  2.0586 -4.3242  0.3675
 8653SOL     OW37417   0.721   3.431  15.328  0.5090 -0.0583 -0.0056
 8653SOL    HW137418   0.646   3.464  15.279  0.7941  0.5917 -0.0204
 8653SOL    HW237419   0.683   3.363  15.383  1.1019  0.6860  1.3386
 8654SOL     OW37420   3.057   3.972  12.750  0.0367  0.5353 -0.4141
 8654SOL    HW137421   3.103   3.923  12.683  0.2759 -0.3806  0.4161
 8654SOL    HW237422   3.039   3.900  12.811 -2.9509  1.9781  0.4135
 8655SOL     OW37423   4.417   1.003   6.289 -0.0310 -0.4926 -0.1569
 8655SOL    HW137424   4.503   0.964   6.302  0.1414 -0.0360  0.0874
 8655SOL    HW237425   4.374   0.974   6.369 -1.1246 -0.0149 -0.5598
 8656SOL     OW37426   3.901   4.517   3.528  0.2476  0.0015 -0.1318
 8656SOL    HW137427   3.958   4.548   3.458  0.0486  2.2354  0.6758
 8656SOL    HW237428   3.815   4.515   3.486  1.3067 -2.5297 -2.0975
 8657SOL     OW37429   2.232   1.422   3.769 -0.3765 -0.4720 -0.2048
 8657SOL    HW137430   2.286   1.501   3.759  0.5341 -1.0986 -0.1461
 8657SOL    HW237431   2.246   1.401   3.677 -1.1430  0.4219 -0.5339
 8658SOL     OW37432   2.157   2.118   5.165 -0.3023 -0.0810  0.1903
 8658SOL    HW137433   2.185   2.163   5.244  0.3880 -0.9024  0.4131
 8658SOL    HW237434   2.109   2.042   5.198 -1.8421  0.5134 -0.6540
 8659SOL     OW37435   3.990   2.545   5.379 -0.2207 -0.1172  0.1927
 8659SOL    HW137436   4.075   2.537   5.336  0.3983  1.7246  1.1067
 8659SOL    HW237437   3.983   2.640   5.382 -0.6568 -0.1253 -0.6515
 8660SOL     OW37438   2.203   2.997   7.648 -0.0228  0.2318 -0.5890
 8660SOL    HW137439   2.245   2.919   7.685  0.8183 -0.1450 -2.3517
 8660SOL    HW237440   2.252   3.008   7.567 -0.2337 -0.6880 -0.8404
 8661SOL     OW37441   4.068   3.684   4.005  0.4047 -0.9346  0.0599
 8661SOL    HW137442   4.124   3.607   3.996  2.6019  1.0074 -2.9376
 8661SOL    HW237443   4.054   3.694   3.911 -0.8787  0.9543  0.4547
 8662SOL     OW37444   4.049   1.101  13.583  0.6874  0.2575 -0.2554
 8662SOL    HW137445   4.076   1.164  13.650  2.9627 -0.0697 -0.8418
 8662SOL    HW237446   4.123   1.125  13.526  0.5742  0.1885 -0.4310
 8663SOL     OW37447   3.713   3.848   7.586  0.4647 -0.8642  0.3309
 8663SOL    HW137448   3.696   3.801   7.504 -2.6749 -0.3745  0.6902
 8663SOL    HW237449   3.658   3.926   7.584 -0.3861 -1.4652  0.2331
 8664SOL     OW37450   2.475   4.691   1.978 -0.0368 -0.2358  0.4412
 8664SOL    HW137451   2.512   0.056   1.990 -0.8838  0.2461 -0.4946
 8664SOL    HW237452   2.391   4.715   1.941 -0.3885 -1.8955  0.1562
 8665SOL     OW37453   1.232   1.403   1.839  0.2530  0.1348 -0.0934
 8665SOL    HW137454   1.178   1.476   1.870 -1.5401 -0.9008 -0.7826
 8665SOL    HW237455   1.227   1.338   1.909 -0.2060  0.5173  0.2283
 8666SOL     OW37456   1.607   0.386   9.815 -0.4070  0.1460  0.0569
 8666SOL    HW137457   1.526   0.338   9.829  0.8598 -1.2790  2.4081
 8666SOL    HW237458   1.669   0.329   9.860 -0.1809  1.1132  0.9724
 8667SOL     OW37459   2.528   0.527   3.576 -0.4239 -0.3994 -0.1723
 8667SOL    HW137460   2.467   0.574   3.521 -1.0675 -0.5901  0.3721
 8667SOL    HW237461   2.608   0.507   3.527 -0.4197 -0.2249 -0.2349
 8668SOL     OW37462   0.348   1.867  17.472  0.3743 -0.0902 -0.0809
 8668SOL    HW137463   0.282   1.822  17.419  1.5124 -0.4260 -1.1782
 8668SOL    HW237464   0.378   1.932  17.409 -1.7184  1.6167  0.6462
 8669SOL     OW37465   4.195   0.524   2.327 -0.2164 -0.6075 -0.3071
 8669SOL    HW137466   4.153   0.549   2.245 -3.0244  0.4172  1.4243
 8669SOL    HW237467   4.241   0.606   2.348  0.6398 -0.9344 -0.8956
 8670SOL     OW37468   4.586   4.221   8.442  0.1187  0.1797 -0.5037
 8670SOL    HW137469   4.637   4.166   8.501 -2.5508 -0.1488  1.5364
 8670SOL    HW237470   4.576   4.297   8.500 -0.3336 -0.7294  0.6068
 8671SOL     OW37471   2.480   2.700   2.283 -0.8307  0.1613 -0.2607
 8671SOL    HW137472   2.504   2.674   2.194 -0.4628 -1.4578  0.3181
 8671SOL    HW237473   2.565   2.716   2.323 -0.7740 -0.2188 -0.2292
 8672SOL     OW37474   3.144   3.963   5.720  0.2666 -0.1979  0.2433
 8672SOL    HW137475   3.108   3.962   5.632  1.2494 -0.7324 -0.1464
 8672SOL    HW237476   3.065   3.961   5.774 -1.0202 -2.0968 -1.7356
 8673SOL     OW37477   1.130   2.315   8.471  0.1387  0.3306 -0.6477
 8673SOL    HW137478   1.173   2.238   8.507  0.9934  1.4082  0.6467
 8673SOL    HW237479   1.206   2.368   8.493 -0.8820  1.5839 -0.1245
 8674SOL     OW37480   1.087   1.125  15.174  0.0691  0.6623  0.2012
 8674SOL    HW137481   1.112   1.102  15.084 -0.1143  2.1964 -0.2399
 8674SOL    HW237482   1.147   1.072  15.228 -1.7175  0.5168  2.0391
 8675SOL     OW37483   1.205   3.443  12.149  0.0598 -0.6938  0.6124
 8675SOL    HW137484   1.227   3.447  12.242 -3.0641 -0.7780  1.3655
 8675SOL    HW237485   1.266   3.509  12.117 -2.8618  1.2535 -0.9200
 8676SOL     OW37486   1.040   2.967   7.915 -0.0798  0.6847  0.0138
 8676SOL    HW137487   0.984   3.017   7.974  1.1455  1.4121  0.5580
 8676SOL    HW237488   1.126   3.008   7.921  0.3511  0.0419 -1.7248
 8677SOL     OW37489   0.738   1.189   8.292  0.5019 -0.0936 -0.4012
 8677SOL    HW137490   0.771   1.187   8.381  2.4216 -1.4430 -1.1336
 8677SOL    HW237491   0.656   1.141   8.306  1.1995 -0.9622  0.6677
 8678SOL     OW37492   3.248   0.677   5.597  0.1186 -0.1382 -0.6614
 8678SOL    HW137493   3.321   0.699   5.539  0.5719  1.9827  0.6887
 8678SOL    HW237494   3.265   0.583   5.599 -0.5037 -0.2189  0.8338
 8679SOL     OW37495   0.350   2.943   5.293 -0.2799 -0.8098 -0.1519
 8679SOL    HW137496   0.353   2.936   5.389 -1.7087 -0.2430 -0.0688
 8679SOL    HW237497   0.392   3.027   5.277 -0.0533 -0.7984  0.5109
 8680SOL     OW37498   3.411   0.431   2.010 -0.6523  0.0754 -0.2164
 8680SOL    HW137499   3.321   0.439   2.042 -1.5585 -0.4967 -2.6229
 8680SOL    HW237500   3.441   0.348   2.047 -0.4576  1.7265  3.3441
 8681SOL     OW37501   2.520   2.724  13.310 -0.0817  0.2361 -0.0773
 8681SOL    HW137502   2.432   2.748  13.337 -0.1603 -0.1522  0.0122
 8681SOL    HW237503   2.503   2.649  13.253 -0.6119 -0.6225  1.2047
 8682SOL     OW37504   0.486   3.866  10.143 -0.3587  0.4660  0.3799
 8682SOL    HW137505   0.519   3.935  10.201  1.3021  0.6257 -0.7638
 8682SOL    HW237506   0.559   3.806  10.161 -0.7110 -0.0624  0.0427
 8683SOL     OW37507   4.265   3.583  14.437 -0.1249 -0.4310 -0.4023
 8683SOL    HW137508   4.196   3.605  14.500 -0.1284  1.2958 -0.9805
 8683SOL    HW237509   4.287   3.670  14.403  2.0568 -0.4527  0.9940
 8684SOL     OW37510   3.855   0.429   2.360  0.4232  0.3137  0.1361
 8684SOL    HW137511   3.889   0.404   2.274  0.7731  0.3694  0.2556
 8684SOL    HW237512   3.887   0.518   2.373  0.8474  0.4725 -1.9234
 8685SOL     OW37513   1.743   0.167   9.461  0.1936  0.2334 -0.1980
 8685SOL    HW137514   1.656   0.200   9.440 -0.1645 -0.7799 -0.3301
 8685SOL    HW237515   1.793   0.246   9.484 -0.2506  0.2801  0.6320
 8686SOL     OW37516   1.717   1.414   8.431  0.4346  0.0533  0.6602
 8686SOL    HW137517   1.799   1.425   8.479  1.6261 -4.0972 -0.3847
 8686SOL    HW237518   1.651   1.454   8.488  0.2282  0.2090  0.3122
 8687SOL     OW37519   1.555   2.937   8.919  0.1926  0.1342 -0.7879
 8687SOL    HW137520   1.579   2.994   8.846 -1.0303  2.7905  0.8648
 8687SOL    HW237521   1.630   2.935   8.978  0.1572  1.7315 -0.6869
 8688SOL     OW37522   0.861   1.816  15.959 -0.1153  0.1674 -0.0890
 8688SOL    HW137523   0.886   1.907  15.971 -2.8962  0.8692  0.2309
 8688SOL    HW237524   0.770   1.822  15.986  0.3528  0.8015  1.3490
 8689SOL     OW37525   3.481   3.660  13.580  0.2171  0.1215 -0.4194
 8689SOL    HW137526   3.493   3.660  13.485  1.1550  1.6934 -0.3100
 8689SOL    HW237527   3.568   3.688  13.611  0.1865 -1.1354  0.7832
 8690SOL     OW37528   3.516   0.433   9.042 -0.1586  0.6073  0.6248
 8690SOL    HW137529   3.564   0.354   9.068 -0.7210  0.6118  1.6932
 8690SOL    HW237530   3.453   0.425   9.114 -0.2087  0.5106  0.5709
 8691SOL     OW37531   1.007   3.303  12.615  0.2264 -0.0540  0.0161
 8691SOL    HW137532   0.973   3.391  12.599  2.4968  0.7797 -0.1932
 8691SOL    HW237533   1.100   3.325  12.610 -0.0076  0.3013 -2.5765
 8692SOL     OW37534   3.014   3.536   0.522 -0.5533  0.5544 -0.0080
 8692SOL    HW137535   3.064   3.610   0.488  2.4217 -0.6808  1.6386
 8692SOL    HW237536   3.087   3.486   0.559 -2.7455 -1.7002  1.3242
 8693SOL     OW37537   3.605   0.808  11.846 -0.6255 -0.2379  0.6132
 8693SOL    HW137538   3.585   0.890  11.890  2.3115  0.2527  0.9974
 8693SOL    HW237539   3.642   0.839  11.763 -1.1576  0.0253  0.4774
 8694SOL     OW37540   4.189   0.288   9.340 -0.6801  0.1428  0.4555
 8694SOL    HW137541   4.142   0.342   9.277 -1.1835 -0.7147  0.0933
 8694SOL    HW237542   4.139   0.207   9.338  0.4422 -0.5221 -0.6507
 8695SOL     OW37543   1.616   3.108   1.915  0.5334 -0.0239  0.3527
 8695SOL    HW137544   1.527   3.131   1.943 -0.2655  0.0037 -2.2935
 8695SOL    HW237545   1.615   3.081   1.824 -0.6434  1.4900 -0.0764
 8696SOL     OW37546   4.138   1.490   8.705 -0.0577  0.3129 -0.6109
 8696SOL    HW137547   4.067   1.526   8.652 -1.1183 -0.6249  0.1725
 8696SOL    HW237548   4.090   1.420   8.749 -1.1023  1.3295 -0.1223
 8697SOL     OW37549   2.928   3.560   8.050  0.0906 -0.1171  0.2371
 8697SOL    HW137550   2.970   3.476   8.029 -2.3313 -2.0172  2.9741
 8697SOL    HW237551   3.001   3.600   8.098 -1.0558  0.7785  1.2404
 8698SOL     OW37552   0.997   3.539  16.389 -0.6130  0.0204  0.1024
 8698SOL    HW137553   0.904   3.526  16.405 -0.4407 -0.7825  0.4577
 8698SOL    HW237554   1.001   3.589  16.307 -0.0300 -4.8696 -2.8557
 8699SOL     OW37555   2.395   0.586  13.113 -0.6182  0.5033 -0.7716
 8699SOL    HW137556   2.406   0.543  13.028  1.3495 -1.2263  0.3529
 8699SOL    HW237557   2.483   0.587  13.150 -0.9757  2.2624  0.0282
 8700SOL     OW37558   4.254   0.141   2.991 -0.5365  0.0672  0.2344
 8700SOL    HW137559   4.209   0.089   3.058  0.6097 -0.2971  0.7207
 8700SOL    HW237560   4.238   0.091   2.911 -0.1389  1.0287 -0.4540
 8701SOL     OW37561   1.401   0.245   9.924 -0.0938  0.5756 -0.1139
 8701SOL    HW137562   1.375   0.187   9.995 -0.1147  0.8035  0.0622
 8701SOL    HW237563   1.375   0.327   9.965  1.5909  0.4218  1.2317
 8702SOL     OW37564   2.404   4.396   3.687  0.2870 -0.0117  0.3873
 8702SOL    HW137565   2.422   4.490   3.682 -0.8721  0.2428  0.9008
 8702SOL    HW237566   2.353   4.377   3.608 -1.6562  1.0379  1.3868
 8703SOL     OW37567   2.730   0.714   1.001 -0.4585 -0.8420  0.1667
 8703SOL    HW137568   2.763   0.796   0.963 -2.9744  0.7074  1.3743
 8703SOL    HW237569   2.810   0.706   1.053 -1.0539 -2.0269  0.8796
 8704SOL     OW37570   2.157   4.258   4.403 -0.3458  0.3404 -0.0470
 8704SOL    HW137571   2.248   4.248   4.375 -1.1412  1.0266 -2.7868
 8704SOL    HW237572   2.157   4.205   4.483  3.0704  1.4310  0.6521
 8705SOL     OW37573   1.876   2.067  14.705 -0.9968 -0.1849 -0.0588
 8705SOL    HW137574   1.903   2.040  14.617  1.4415 -0.6317  0.8246
 8705SOL    HW237575   1.801   2.123  14.683 -1.1719  0.1971  1.5579
 8706SOL     OW37576   2.112   3.100   6.997 -0.3364  0.0065 -0.5138
 8706SOL    HW137577   2.194   3.064   6.965 -1.3851 -0.4603 -2.7040
 8706SOL    HW237578   2.064   3.018   6.984  0.2544 -0.3167 -0.6248
 8707SOL     OW37579   0.012   1.966   6.693  0.1268  0.1791  0.6261
 8707SOL    HW137580   0.084   1.918   6.733  0.8394  0.6256 -0.1145
 8707SOL    HW237581   4.666   1.965   6.759 -0.5721  0.2706 -0.1015
 8708SOL     OW37582   1.585   0.960  12.063  0.4170  0.3130 -0.1026
 8708SOL    HW137583   1.646   1.020  12.020 -1.3919 -0.2400 -3.3683
 8708SOL    HW237584   1.497   0.985  12.036  0.5466  0.3735 -0.4623
 8709SOL     OW37585   0.079   0.827   3.831  0.1458 -0.3389 -0.0807
 8709SOL    HW137586   0.136   0.813   3.756 -0.1371  1.8873 -0.7071
 8709SOL    HW237587   0.140   0.815   3.904 -0.3462 -0.0960  0.3655
 8710SOL     OW37588   2.350   0.007  15.244  0.1849 -0.0578  0.4438
 8710SOL    HW137589   2.311   0.093  15.235  2.1745  0.8404  0.4322
 8710SOL    HW237590   2.275   4.669  15.246  0.8976 -0.9103  1.3218
 8711SOL     OW37591   1.835   2.239   2.338  0.4680  0.3772  0.4416
 8711SOL    HW137592   1.870   2.324   2.368  1.0496  0.6381 -0.9740
 8711SOL    HW237593   1.840   2.257   2.244 -0.7584 -0.3952  0.2406
 8712SOL     OW37594   2.389   3.294   0.067 -0.5612  0.4472  0.7455
 8712SOL    HW137595   2.303   3.259   0.090 -0.7937  0.2874 -0.3791
 8712SOL    HW237596   2.411   3.240  17.684  0.7506  0.4564  1.1171
 8713SOL     OW37597   4.700   1.212   1.563 -0.1242  0.2612  0.1640
 8713SOL    HW137598   0.004   1.236   1.474  0.4644  1.4520  0.6661
 8713SOL    HW237599   4.628   1.154   1.537  2.2016 -2.5970  0.1967
 8714SOL     OW37600   4.163   2.169   2.301 -0.5786  0.2374 -0.0715
 8714SOL    HW137601   4.206   2.207   2.224  0.5804  0.3805  0.6455
 8714SOL    HW237602   4.211   2.196   2.379  0.6797  0.6907 -0.9972
 8715SOL     OW37603   2.606   0.817   8.611 -0.1500 -0.8520 -0.4649
 8715SOL    HW137604   2.685   0.848   8.566 -1.4327  1.5870 -1.0156
 8715SOL    HW237605   2.585   0.739   8.560 -0.0052 -1.2667  0.1070
 8716SOL     OW37606   0.298   0.628   6.808 -0.1390 -0.5270 -0.1539
 8716SOL    HW137607   0.230   0.583   6.858 -1.0124  1.6215  0.6231
 8716SOL    HW237608   0.371   0.566   6.810 -0.3462 -0.7109  2.5100
 8717SOL     OW37609   1.608   2.343   6.022 -0.4923 -0.3960  0.0150
 8717SOL    HW137610   1.638   2.321   5.933  1.8497  1.4885  0.3417
 8717SOL    HW237611   1.526   2.388   6.001 -0.7861 -2.2178 -2.8618
 8718SOL     OW37612   2.195   2.469  17.166  0.3178 -0.3210  0.1421
 8718SOL    HW137613   2.149   2.430  17.092 -0.3508  1.1780 -0.2216
 8718SOL    HW237614   2.142   2.548  17.173  0.6976 -0.2893  3.0328
 8719SOL     OW37615   3.711   3.811   8.007  0.6399 -0.1100 -0.3903
 8719SOL    HW137616   3.675   3.778   7.925  0.0215 -0.1142 -0.1239
 8719SOL    HW237617   3.804   3.792   7.997  0.9663  0.4441  1.6175
 8720SOL     OW37618   2.475   1.753   7.807 -0.6215  0.1670  0.5408
 8720SOL    HW137619   2.494   1.845   7.827 -2.0724  0.8574 -1.2286
 8720SOL    HW237620   2.413   1.757   7.735  0.9575 -0.1231 -0.8386
 8721SOL     OW37621   1.139   3.633   9.116 -0.3969  0.2241  0.7465
 8721SOL    HW137622   1.141   3.648   9.211 -1.0032 -0.9466  0.9459
 8721SOL    HW237623   1.067   3.686   9.083 -1.4714 -2.6935 -1.5994
 8722SOL     OW37624   2.175   4.218   9.503  0.2459 -0.1672  0.1641
 8722SOL    HW137625   2.168   4.312   9.518  0.7002 -0.1400  0.2068
 8722SOL    HW237626   2.229   4.189   9.577  0.4925  0.2418  0.1427
 8723SOL     OW37627   2.497   2.780   3.027 -0.2799 -0.3094 -0.3009
 8723SOL    HW137628   2.405   2.757   3.016 -0.1444 -0.6806 -0.6453
 8723SOL    HW237629   2.521   2.719   3.096  1.8924 -0.1679 -0.9395
 8724SOL     OW37630   2.802   2.910   8.364  0.3542  0.3389 -0.3119
 8724SOL    HW137631   2.805   2.828   8.313  0.2003  0.8272 -1.1047
 8724SOL    HW237632   2.895   2.909   8.389 -0.0752  0.5377  1.2995
 8725SOL     OW37633   4.292   3.300  13.040 -0.3591  0.2566  0.4280
 8725SOL    HW137634   4.310   3.285  12.947  0.2924  0.4661  0.5164
 8725SOL    HW237635   4.274   3.209  13.061 -1.5150  0.2970 -0.3912
 8726SOL     OW37636   4.402   2.223   5.609  0.4523  0.2283  0.3295
 8726SOL    HW137637   4.326   2.281   5.606  0.2673 -0.1510 -2.0963
 8726SOL    HW237638   4.363   2.136   5.611 -1.9342  1.3365  3.2323
 8727SOL     OW37639   3.404   4.696   3.858 -0.2010  0.0901 -0.4737
 8727SOL    HW137640   3.422   4.665   3.769 -2.0435 -1.9630 -0.1477
 8727SOL    HW237641   3.480   4.665   3.908 -1.3098  0.3473  1.3703
 8728SOL     OW37642   1.031   1.975  10.565 -0.1758 -0.0668 -0.2309
 8728SOL    HW137643   1.064   1.889  10.593  0.0697 -0.5886 -2.1646
 8728SOL    HW237644   1.011   1.969  10.472  0.0814 -0.7668 -0.2463
 8729SOL     OW37645   2.334   2.339   2.092 -0.2196 -0.4054  0.9214
 8729SOL    HW137646   2.325   2.385   2.176  0.6143 -0.7863  1.2131
 8729SOL    HW237647   2.429   2.333   2.086 -0.2361  1.4239 -1.0188
 8730SOL     OW37648   3.701   3.471   5.171  0.5831 -0.1734  0.0052
 8730SOL    HW137649   3.775   3.447   5.227 -0.4112  1.5319  2.0918
 8730SOL    HW237650   3.731   3.551   5.127 -0.0153 -1.3009 -2.4556
 8731SOL     OW37651   0.586   1.256  12.459 -0.0706 -0.3153  0.3484
 8731SOL    HW137652   0.562   1.304  12.380 -0.5389 -1.0342  0.0491
 8731SOL    HW237653   0.615   1.173  12.420  1.3988  0.4383 -0.1382
 8732SOL     OW37654   0.576   1.227   4.985 -0.3946 -0.6150  0.4746
 8732SOL    HW137655   0.578   1.160   4.917  2.3425  1.0062 -1.0890
 8732SOL    HW237656   0.486   1.216   5.014 -0.7957 -0.3176 -0.6727
 8733SOL     OW37657   0.473   2.571  15.237  0.2175  0.2315 -0.2086
 8733SOL    HW137658   0.504   2.591  15.149 -1.2466  1.2035 -0.4957
 8733SOL    HW237659   0.548   2.525  15.276  0.0061  0.5852  0.6219
 8734SOL     OW37660   1.319   0.335  13.351 -0.6026 -0.0460 -0.1186
 8734SOL    HW137661   1.245   0.393  13.371 -0.1498  0.3778  0.3313
 8734SOL    HW237662   1.373   0.391  13.407  0.0934 -0.7071 -0.1277
 8735SOL     OW37663   3.566   3.637   5.779  0.3289 -0.2494 -0.0446
 8735SOL    HW137664   3.661   3.635   5.792  0.2068  0.6620  0.9636
 8735SOL    HW237665   3.547   3.725   5.812  1.1048 -0.1892  0.2413
 8736SOL     OW37666   1.606   3.295   4.896  0.1002 -0.1425 -0.5563
 8736SOL    HW137667   1.641   3.257   4.977 -2.9337  0.0829  0.8733
 8736SOL    HW237668   1.513   3.285   4.918  0.7331 -3.3180  0.7425
 8737SOL     OW37669   2.532   4.037  13.482  0.2303 -0.1518 -0.2276
 8737SOL    HW137670   2.500   4.115  13.436 -2.7261 -0.7830  0.7644
 8737SOL    HW237671   2.465   3.974  13.456  0.2802  0.7845 -2.6152
 8738SOL     OW37672   4.041   3.878   9.602  0.3193 -0.3629 -0.3714
 8738SOL    HW137673   4.087   3.862   9.685 -0.4837  0.7626  0.2768
 8738SOL    HW237674   3.977   3.939   9.638  0.4263  0.2642 -1.2591
 8739SOL     OW37675   4.601   1.975   7.785 -0.6503  0.4580  0.3412
 8739SOL    HW137676   4.628   1.923   7.860 -2.1428 -0.1675  0.4273
 8739SOL    HW237677   4.632   2.064   7.804 -0.1136  0.3033  0.1987
 8740SOL     OW37678   1.330   2.196   3.446  0.2263  0.1362  0.1945
 8740SOL    HW137679   1.267   2.125   3.439 -0.6872  0.9036  0.5951
 8740SOL    HW237680   1.324   2.209   3.541 -0.3886  0.5594  0.0989
 8741SOL     OW37681   1.373   1.697   4.544 -0.3510  0.2625 -0.0051
 8741SOL    HW137682   1.438   1.676   4.477  0.2881 -0.0498  0.7144
 8741SOL    HW237683   1.429   1.758   4.592 -0.6006 -0.7578  1.5828
 8742SOL     OW37684   1.164   0.973   3.715  0.3858 -0.0201 -0.1588
 8742SOL    HW137685   1.088   1.031   3.725  2.0182  1.9494  0.6735
 8742SOL    HW237686   1.150   0.955   3.622 -2.2882 -0.0086  0.2226
 8743SOL     OW37687   1.113   0.917   4.604  0.0388 -0.2173 -0.2813
 8743SOL    HW137688   1.177   0.894   4.537  0.0133  0.4764 -0.5498
 8743SOL    HW237689   1.175   0.974   4.650 -0.3371 -0.6158  0.7156
 8744SOL     OW37690   2.730   3.963   9.153 -0.1503  0.0604 -0.0532
 8744SOL    HW137691   2.806   3.917   9.189 -1.3521 -1.8614  0.0301
 8744SOL    HW237692   2.713   4.022   9.226 -0.7654 -0.1400 -0.0416
 8745SOL     OW37693   2.088   1.700   4.166 -0.0004 -0.6319 -0.0226
 8745SOL    HW137694   2.045   1.628   4.120  0.2264 -0.3459 -0.6815
 8745SOL    HW237695   2.081   1.766   4.097  1.1995  0.7669  1.1841
 8746SOL     OW37696   2.887   3.194   6.827  0.9705  0.3086  0.0768
 8746SOL    HW137697   2.865   3.250   6.752 -1.9629  0.0558  0.7369
 8746SOL    HW237698   2.843   3.110   6.810  1.1370 -0.0312  1.3809
 8747SOL     OW37699   2.809   1.025   5.487 -0.2389  0.4753  0.3022
 8747SOL    HW137700   2.756   1.066   5.556 -1.4457 -1.2573  0.4047
 8747SOL    HW237701   2.751   1.050   5.415  0.7024 -1.0071 -0.9705
 8748SOL     OW37702   2.714   1.590  12.864 -0.6758 -0.0241  0.0545
 8748SOL    HW137703   2.698   1.498  12.843 -1.4367 -0.2575  1.6543
 8748SOL    HW237704   2.755   1.581  12.951  0.3164  2.4314 -0.1557
 8749SOL     OW37705   0.796   1.784   6.395  0.6497  0.2004 -1.1289
 8749SOL    HW137706   0.781   1.785   6.489  0.8407  1.4424 -1.1086
 8749SOL    HW237707   0.862   1.715   6.393 -1.8409 -2.2058 -0.0867
 8750SOL     OW37708   2.223   3.618   2.569  0.1264  0.0659 -0.1573
 8750SOL    HW137709   2.292   3.621   2.635 -0.6229  1.4831  0.5481
 8750SOL    HW237710   2.266   3.557   2.508 -0.9574  1.8895 -2.7295
 8751SOL     OW37711   0.636   3.814   2.296 -0.4587 -0.2816 -0.3404
 8751SOL    HW137712   0.600   3.839   2.211  2.0252  1.2653 -0.9328
 8751SOL    HW237713   0.578   3.862   2.356 -0.3131 -0.1693 -0.2889
 8752SOL     OW37714   2.247   3.673   2.047  0.1495 -0.6643 -0.0215
 8752SOL    HW137715   2.230   3.595   2.099  0.8640 -0.5931  0.3252
 8752SOL    HW237716   2.161   3.694   2.012  0.0647  2.6207  2.1422
 8753SOL     OW37717   2.035   3.175  12.579 -0.3132  0.1499  0.6391
 8753SOL    HW137718   2.076   3.244  12.632 -0.5039 -0.5454  1.6989
 8753SOL    HW237719   1.994   3.225  12.509  0.1477 -1.8112 -1.0083
 8754SOL     OW37720   1.870   1.917   8.950 -0.8226  0.1392 -0.5284
 8754SOL    HW137721   1.798   1.947   8.893  0.1531 -0.1046 -1.9000
 8754SOL    HW237722   1.939   1.979   8.925 -0.9738  1.5786  2.5878
 8755SOL     OW37723   2.233   2.377   9.772 -0.4010 -0.2576 -0.5743
 8755SOL    HW137724   2.183   2.377   9.690 -1.1783  1.9628 -0.1022
 8755SOL    HW237725   2.308   2.431   9.747 -0.1730 -1.3528 -2.2753
 8756SOL     OW37726   3.017   0.027   8.240 -0.1236 -0.0823  0.3667
 8756SOL    HW137727   3.046   0.118   8.242  1.7392 -0.6978  1.0736
 8756SOL    HW237728   3.006   0.011   8.146 -0.9425  1.2061  0.2333
 8757SOL     OW37729   3.449   0.713   5.793  0.0858  0.3253 -0.5397
 8757SOL    HW137730   3.454   0.639   5.855 -0.9487  1.6733  1.1426
 8757SOL    HW237731   3.360   0.717   5.760 -0.1055  0.9974  0.0519
 8758SOL     OW37732   1.035   1.530   8.136 -0.2201 -0.5331  0.5525
 8758SOL    HW137733   0.944   1.503   8.125 -0.2641  0.0209 -0.5253
 8758SOL    HW237734   1.078   1.448   8.156 -0.8921 -0.3268  2.8297
 8759SOL     OW37735   2.315   1.406   7.963  0.4817 -0.0195 -0.5912
 8759SOL    HW137736   2.300   1.344   7.892 -1.0564 -0.6610  0.2939
 8759SOL    HW237737   2.237   1.461   7.971  1.6436  1.3470  1.3525
 8760SOL     OW37738   4.693   2.519   8.344 -0.8030 -0.7536 -0.2612
 8760SOL    HW137739   0.054   2.555   8.316 -0.3295  0.1957  2.4027
 8760SOL    HW237740   4.716   2.429   8.367 -1.5118 -1.2444 -1.4867
 8761SOL     OW37741   3.192   4.448   7.055 -0.2006 -0.1406  0.3610
 8761SOL    HW137742   3.147   4.521   7.096 -0.8095 -0.6682  0.6228
 8761SOL    HW237743   3.231   4.497   6.982  0.5194  0.4918  1.1691
 8762SOL     OW37744   1.250   1.781  14.642  0.1919 -0.0555  0.2314
 8762SOL    HW137745   1.170   1.817  14.602  0.0559 -1.1834 -0.5042
 8762SOL    HW237746   1.312   1.825  14.584  0.6508 -0.2943  0.5417
 8763SOL     OW37747   1.345   4.516   1.725 -0.2916 -0.3045 -0.9059
 8763SOL    HW137748   1.371   4.554   1.641 -0.4066  1.3109 -0.2214
 8763SOL    HW237749   1.362   4.424   1.706  0.6066 -0.6902  1.7274
 8764SOL     OW37750   1.242   3.042  14.470  0.3668  0.4471  0.2781
 8764SOL    HW137751   1.223   3.085  14.387  0.2795  0.9875  0.5781
 8764SOL    HW237752   1.209   2.954  14.455  0.1986  0.3866  0.9860
 8765SOL     OW37753   0.223   0.786   5.073  0.3508  0.5363  0.4484
 8765SOL    HW137754   0.280   0.740   5.011 -0.2001  0.5749 -0.0865
 8765SOL    HW237755   0.265   0.872   5.081  1.1344  0.2491 -0.4529
 8766SOL     OW37756   1.667   1.729   7.448  0.5769  0.3474 -0.2113
 8766SOL    HW137757   1.633   1.817   7.466  1.7119  0.2555  2.4760
 8766SOL    HW237758   1.670   1.733   7.353  0.6555  0.5574 -0.2009
 8767SOL     OW37759   1.965   3.628   9.369  0.5336  0.0977 -0.4537
 8767SOL    HW137760   1.947   3.652   9.278  0.5942  1.8575 -0.0015
 8767SOL    HW237761   1.876   3.627   9.404  0.7129  0.5513  0.0274
 8768SOL     OW37762   4.528   3.371   0.074 -0.4028 -0.0068 -0.7381
 8768SOL    HW137763   4.571   3.350  17.684  2.4159 -3.3774  1.6056
 8768SOL    HW237764   4.449   3.317   0.067  0.6171 -1.5664 -0.0560
 8769SOL     OW37765   4.090   4.244   9.033  0.5932 -0.6061  0.1410
 8769SOL    HW137766   4.069   4.167   9.086 -0.7433  0.8263  1.6626
 8769SOL    HW237767   4.068   4.310   9.099 -0.8680 -2.5355  1.5782
 8770SOL     OW37768   0.400   2.937  10.418  0.3361  0.2140  0.0842
 8770SOL    HW137769   0.394   2.974  10.329 -2.8092 -0.3749  0.0425
 8770SOL    HW237770   0.357   2.852  10.408 -0.3067  0.5417  0.0784
 8771SOL     OW37771   4.584   1.646  11.907 -0.1254  0.1205 -0.5802
 8771SOL    HW137772   4.497   1.605  11.911  0.9912 -2.3530 -1.9347
 8771SOL    HW237773   4.636   1.576  11.947  1.2175 -0.0774 -2.6745
 8772SOL     OW37774   1.102   4.282   7.214 -0.5145  1.0040 -0.6221
 8772SOL    HW137775   1.067   4.210   7.161 -1.2560 -0.7308  2.2505
 8772SOL    HW237776   1.052   4.277   7.295  0.6945 -0.1278  0.0502
 8773SOL     OW37777   4.684   2.080   5.156 -0.4835 -0.7650  0.8121
 8773SOL    HW137778   4.713   1.995   5.190 -0.5115 -1.0884  0.0209
 8773SOL    HW237779   4.611   2.109   5.211 -1.7671  2.0790 -2.4360
 8774SOL     OW37780   2.390   1.800   0.096  0.3998 -0.2827 -0.2097
 8774SOL    HW137781   2.370   1.887   0.063 -2.9320 -2.1277 -3.0193
 8774SOL    HW237782   2.456   1.817   0.164  1.2477 -1.1860 -0.8061
 8775SOL     OW37783   0.891   4.012   8.610  0.1473  0.5010  0.4035
 8775SOL    HW137784   0.955   3.943   8.625 -0.8769 -0.5971 -0.3086
 8775SOL    HW237785   0.935   4.095   8.629  0.1538  1.0996 -2.2825
 8776SOL     OW37786   4.033   3.866   3.101 -0.3769  0.1151 -0.4137
 8776SOL    HW137787   3.998   3.824   3.180  1.6526 -1.3889 -0.3300
 8776SOL    HW237788   4.127   3.871   3.119 -0.7996  1.3758  1.4139
 8777SOL     OW37789   3.731   1.830   8.445 -0.3366 -0.3860  0.2948
 8777SOL    HW137790   3.710   1.746   8.403 -1.2973 -0.2437  0.5048
 8777SOL    HW237791   3.645   1.849   8.481 -0.3409  0.0996  0.0347
 8778SOL     OW37792   2.287   2.933   4.355 -0.4203 -0.1399 -0.1415
 8778SOL    HW137793   2.318   2.936   4.445 -1.7665  0.4404  0.3065
 8778SOL    HW237794   2.371   2.959   4.319 -0.3177  2.8371  2.3080
 8779SOL     OW37795   0.493   3.579   5.259 -0.1661  0.3696  0.7992
 8779SOL    HW137796   0.564   3.643   5.253 -1.6181  1.7823 -1.4906
 8779SOL    HW237797   0.527   3.531   5.334 -0.5752  0.2340  0.8975
 8780SOL     OW37798   2.775   1.889   6.298 -0.0286 -0.7011  0.3525
 8780SOL    HW137799   2.682   1.902   6.317  0.2198 -0.3705  1.3343
 8780SOL    HW237800   2.777   1.803   6.256  3.4860 -0.8431  0.8425
 8781SOL     OW37801   3.587   2.356  13.466  0.4387 -0.3691  0.0716
 8781SOL    HW137802   3.679   2.356  13.440  1.2439  0.2918  2.8794
 8781SOL    HW237803   3.550   2.311  13.390 -1.4336  1.9362 -0.3433
 8782SOL     OW37804   4.052   0.858   8.793 -0.0747  0.2791  0.1661
 8782SOL    HW137805   4.070   0.866   8.700 -0.3259  1.4363  0.2092
 8782SOL    HW237806   4.022   0.768   8.782  0.7933  0.1480 -1.1378
 8783SOL     OW37807   3.841   1.281  11.020  0.1315  0.1459  0.4511
 8783SOL    HW137808   3.806   1.206  10.971 -0.2659  0.2887  0.5244
 8783SOL    HW237809   3.917   1.243  11.064 -2.2885 -1.1918  3.4715
 8784SOL     OW37810   3.112   2.063   2.682  0.0927  0.2772 -0.2795
 8784SOL    HW137811   3.174   2.134   2.664 -0.5522  0.7990 -0.4698
 8784SOL    HW237812   3.104   2.056   2.777 -2.1169  1.2966 -0.3869
 8785SOL     OW37813   2.800   0.476  15.345  0.7779 -0.1503 -0.1884
 8785SOL    HW137814   2.723   0.512  15.303  0.0190 -0.7115  0.7303
 8785SOL    HW237815   2.777   0.492  15.436 -1.1282 -3.2927 -0.1105
 8786SOL     OW37816   3.100   1.253   1.787  0.2018 -0.1986 -0.2844
 8786SOL    HW137817   3.135   1.342   1.792 -0.1939 -0.1904  2.1268
 8786SOL    HW237818   3.054   1.255   1.703  1.3131  0.4632 -0.8876
 8787SOL     OW37819   4.338   0.944   6.578  0.3675  0.0803  0.2369
 8787SOL    HW137820   4.364   1.030   6.610 -1.2697 -0.1499  2.1738
 8787SOL    HW237821   4.286   0.922   6.655 -0.0465  1.8737  0.4632
 8788SOL     OW37822   1.765   0.224  16.821 -0.4287  0.2882  0.3514
 8788SOL    HW137823   1.823   0.157  16.783  0.7430  1.6409 -0.2646
 8788SOL    HW237824   1.830   0.293  16.838  0.3814 -0.2415 -0.5942
 8789SOL     OW37825   3.743   0.528   7.391  0.0095  0.5088 -0.2524
 8789SOL    HW137826   3.754   0.539   7.485 -2.0999  2.8966 -0.2846
 8789SOL    HW237827   3.768   0.615   7.359  1.6908  1.1960  2.9707
 8790SOL     OW37828   2.703   3.931   6.709 -0.2510 -0.4995  0.3538
 8790SOL    HW137829   2.767   3.873   6.749 -1.0946 -1.6233  0.0571
 8790SOL    HW237830   2.631   3.872   6.686 -1.9147  1.7012 -0.0867
 8791SOL     OW37831   3.018   4.429   7.615 -0.0041 -0.8053  0.1684
 8791SOL    HW137832   3.101   4.403   7.654  1.0022 -0.5167 -1.7974
 8791SOL    HW237833   2.969   4.446   7.696  0.5130  1.6632 -0.0173
 8792SOL     OW37834   2.465   0.367   2.583  0.3640  0.9346  0.4482
 8792SOL    HW137835   2.460   0.317   2.501 -1.5342 -0.1868  1.2559
 8792SOL    HW237836   2.534   0.320   2.629  1.3817  2.0737  0.0991
 8793SOL     OW37837   1.987   3.208  12.126  0.3748  0.3219  0.5796
 8793SOL    HW137838   1.944   3.144  12.183  1.2101 -0.2120  0.6013
 8793SOL    HW237839   2.075   3.189  12.156  0.3467  0.0843  0.5051
 8794SOL     OW37840   2.743   1.724   6.081  0.1199  0.6064 -0.1191
 8794SOL    HW137841   2.708   1.760   6.000  0.6810  1.6660  0.1157
 8794SOL    HW237842   2.815   1.670   6.047 -0.2691  0.1978 -0.2932
 8795SOL     OW37843   4.129   3.344   2.720 -0.2655 -0.0811  0.2366
 8795SOL    HW137844   4.064   3.393   2.670 -0.3391  0.7173  1.0978
 8795SOL    HW237845   4.148   3.260   2.678 -0.0785 -0.2326  0.6211
 8796SOL     OW37846   4.238   1.400  14.908  0.3723  0.0731  0.3286
 8796SOL    HW137847   4.236   1.324  14.967  1.4169  0.4733  0.8786
 8796SOL    HW237848   4.174   1.361  14.848  1.6911 -0.6874 -0.5836
 8797SOL     OW37849   4.245   0.810   7.457 -0.5177  0.3858  0.1264
 8797SOL    HW137850   4.286   0.780   7.376  1.1689  0.0877  1.0836
 8797SOL    HW237851   4.151   0.810   7.439 -0.4634  0.3369 -0.1476
 8798SOL     OW37852   3.858   0.504   4.490 -0.6004 -0.2997  0.0068
 8798SOL    HW137853   3.906   0.516   4.572  1.9739 -1.6928 -1.3295
 8798SOL    HW237854   3.930   0.468   4.440  0.5055  1.2386  0.4702
 8799SOL     OW37855   2.367   0.158   7.298 -0.3401 -0.8949 -0.0256
 8799SOL    HW137856   2.345   0.250   7.283  1.6578 -0.5189 -0.6445
 8799SOL    HW237857   2.395   0.122   7.214 -1.6504 -2.2214  0.1036
 8800SOL     OW37858   0.772   2.411   8.267  0.0039 -0.4885  0.0710
 8800SOL    HW137859   0.688   2.385   8.306 -1.2686  1.6125 -1.1927
 8800SOL    HW237860   0.749   2.412   8.174  1.0600 -1.4874 -0.1951
 8801SOL     OW37861   4.103   0.805   9.694  0.3754  0.0124  0.2071
 8801SOL    HW137862   4.157   0.736   9.655  1.5450  0.8112  0.4156
 8801SOL    HW237863   4.136   0.817   9.783  0.4002 -1.3245  0.3751
 8802SOL     OW37864   1.505   3.051   4.447 -0.3819 -0.4865 -0.7581
 8802SOL    HW137865   1.526   3.134   4.405  0.3002  0.5292  1.6123
 8802SOL    HW237866   1.411   3.039   4.433 -0.6959 -0.7351  1.6279
 8803SOL     OW37867   4.066   1.326  11.752  0.0259  0.3568  0.2065
 8803SOL    HW137868   4.039   1.414  11.723  2.4444  0.4613 -1.7354
 8803SOL    HW237869   4.019   1.276  11.685  1.3617  0.1670 -0.5747
 8804SOL     OW37870   0.053   3.168   7.079 -0.1756  0.5826  0.0618
 8804SOL    HW137871   0.016   3.099   7.023  2.4577 -1.3972  0.7145
 8804SOL    HW237872   0.089   3.121   7.154 -2.7544  0.3237  1.1138
 8805SOL     OW37873   0.994   0.515   5.041  0.2112 -0.1682 -0.0601
 8805SOL    HW137874   0.951   0.483   5.121 -0.9382  0.7890 -0.2988
 8805SOL    HW237875   0.970   0.607   5.054  1.5673  0.4054 -1.6188
 8806SOL     OW37876   1.860   0.602   8.404  0.0722 -0.5540 -0.7364
 8806SOL    HW137877   1.818   0.684   8.429  1.3833 -0.4893  1.1796
 8806SOL    HW237878   1.795   0.533   8.419  1.5530 -2.0258 -1.1491
 8807SOL     OW37879   3.749   3.131  12.894 -0.6675 -0.6713  0.5435
 8807SOL    HW137880   3.835   3.159  12.862 -0.8414  0.8174  1.3654
 8807SOL    HW237881   3.691   3.176  12.831  1.2391  2.2546  0.8556
 8808SOL     OW37882   3.026   3.775  12.926 -0.0268  0.9744  0.1706
 8808SOL    HW137883   3.008   3.808  13.014  0.4515  0.5506  0.4258
 8808SOL    HW237884   2.976   3.693  12.929 -0.7710  1.4582  1.2858
 8809SOL     OW37885   1.419   0.298   1.936  0.2070  0.0718 -0.4330
 8809SOL    HW137886   1.416   0.242   1.858  0.5717 -0.1673 -0.2760
 8809SOL    HW237887   1.392   0.231   1.999  0.1448  0.8743  0.3886
 8810SOL     OW37888   1.229   2.040   3.910  0.3694 -0.1443  0.4856
 8810SOL    HW137889   1.249   1.992   3.990 -0.8746  1.4473  1.7620
 8810SOL    HW237890   1.304   2.002   3.866  1.0087 -0.0444  1.4900
 8811SOL     OW37891   0.891   4.248   1.687 -0.2038 -0.0267  0.2359
 8811SOL    HW137892   0.907   4.313   1.619 -0.4120 -1.3437 -1.0728
 8811SOL    HW237893   0.796   4.243   1.673 -0.3871  0.8948  1.1402
 8812SOL     OW37894   1.311   4.304  16.555  0.0583  0.0072 -0.3369
 8812SOL    HW137895   1.330   4.375  16.617  1.0969  0.9649 -1.7507
 8812SOL    HW237896   1.373   4.324  16.484  0.8636  0.8260  0.5953
 8813SOL     OW37897   1.985   3.163  15.237 -0.2454 -0.1581 -0.5787
 8813SOL    HW137898   1.973   3.240  15.181  1.4600  0.0529 -0.6519
 8813SOL    HW237899   1.898   3.124  15.236 -0.4028  0.2451 -2.2517
 8814SOL     OW37900   1.232   4.017   5.031 -0.0598 -0.2121  0.1567
 8814SOL    HW137901   1.233   4.112   5.040  1.7321 -0.0431 -1.9104
 8814SOL    HW237902   1.321   4.009   5.063  0.0467 -1.0491 -0.3368
 8815SOL     OW37903   1.740   0.831   6.898  0.1528  0.5664  0.0865
 8815SOL    HW137904   1.660   0.812   6.947  0.6803 -1.1672  0.2980
 8815SOL    HW237905   1.792   0.750   6.901  0.2306  0.5563 -1.5174
 8816SOL     OW37906   1.161   2.800   6.209 -0.8498 -0.4514 -0.5797
 8816SOL    HW137907   1.110   2.785   6.129 -1.4185 -0.2676 -0.2540
 8816SOL    HW237908   1.097   2.751   6.261  0.5358  0.5571  2.0703
 8817SOL     OW37909   2.113   3.718   7.048  0.0328  0.3341 -0.3543
 8817SOL    HW137910   2.021   3.741   7.037  0.0864  0.1919 -1.0650
 8817SOL    HW237911   2.098   3.623   7.053 -0.2036  0.3172 -1.6102
 8818SOL     OW37912   2.452   0.094  13.408 -0.0521 -0.5264  0.3939
 8818SOL    HW137913   2.476   0.143  13.487  1.9813 -1.4879  0.3496
 8818SOL    HW237914   2.520   0.112  13.343 -0.9651  1.4813 -0.0016
 8819SOL     OW37915   0.083   0.861   0.653 -0.1365 -0.2193 -0.0122
 8819SOL    HW137916   4.711   0.866   0.663 -0.1197  2.2742 -1.3022
 8819SOL    HW237917   0.107   0.865   0.746 -0.0038  0.5709 -0.0869
 8820SOL     OW37918   1.769   3.452   6.068 -0.7140 -0.6137  0.3534
 8820SOL    HW137919   1.703   3.494   6.124 -0.1521  0.7943 -0.0443
 8820SOL    HW237920   1.830   3.411   6.130  0.9448  0.9342 -0.2701
 8821SOL     OW37921   2.833   4.586   4.441 -0.2535 -0.3030  0.2043
 8821SOL    HW137922   2.890   4.545   4.376 -1.9868 -1.1277 -0.7791
 8821SOL    HW237923   2.890   4.608   4.516  0.3015 -0.2894 -0.2198
 8822SOL     OW37924   2.772   1.827   9.364 -0.0468 -0.2195  0.3154
 8822SOL    HW137925   2.812   1.900   9.316 -0.5740  0.6050  1.1336
 8822SOL    HW237926   2.723   1.798   9.287 -0.3697  1.4305 -0.1140
 8823SOL     OW37927   3.797   2.438   3.283  0.2591  0.4394 -0.3239
 8823SOL    HW137928   3.760   2.394   3.359  3.0550  0.9288  1.3304
 8823SOL    HW237929   3.803   2.525   3.322 -0.6522  0.1294  0.4949
 8824SOL     OW37930   3.613   1.328   5.065 -0.3350  0.9096  0.4364
 8824SOL    HW137931   3.693   1.340   5.015 -0.2447 -0.0391  0.3558
 8824SOL    HW237932   3.639   1.358   5.152  0.3578  2.3461 -0.2645
 8825SOL     OW37933   2.819   1.493   8.040 -0.1105  0.4851  0.3408
 8825SOL    HW137934   2.853   1.538   8.118 -1.9285  1.2621  0.6988
 8825SOL    HW237935   2.732   1.530   8.029 -0.8197 -0.7963  1.6659
 8826SOL     OW37936   2.018   3.511   2.760  0.1077  0.1130  0.1974
 8826SOL    HW137937   2.033   3.569   2.686 -0.7426 -2.0296 -1.6389
 8826SOL    HW237938   2.085   3.446   2.741  0.5046  1.1188 -1.7767
 8827SOL     OW37939   0.541   4.348  17.146 -0.1621  0.1474  0.5285
 8827SOL    HW137940   0.515   4.281  17.209 -1.8410 -0.1314 -0.4619
 8827SOL    HW237941   0.585   4.287  17.086  2.1089  2.4594 -0.1849
 8828SOL     OW37942   2.844   2.638   2.752 -0.1519  0.3908 -0.0336
 8828SOL    HW137943   2.811   2.578   2.685 -1.2228  1.4936 -0.4911
 8828SOL    HW237944   2.938   2.633   2.735 -0.4023 -0.3266 -1.1278
 8829SOL     OW37945   4.240   4.637   6.270  0.9743  0.1281  0.3029
 8829SOL    HW137946   4.276   4.558   6.229  0.8040 -1.3116  2.8913
 8829SOL    HW237947   4.322   4.686   6.265  0.8629  0.4164  1.3301
 8830SOL     OW37948   3.367   4.354   7.545  0.0778  0.5425  0.3087
 8830SOL    HW137949   3.444   4.354   7.603 -0.6765 -0.3049  1.2997
 8830SOL    HW237950   3.322   4.273   7.567  1.4556 -0.2237  0.3509
 8831SOL     OW37951   0.267   3.075  10.676 -0.2929  0.0911 -0.0733
 8831SOL    HW137952   0.244   3.010  10.742 -0.1857  0.9180  0.7753
 8831SOL    HW237953   0.198   3.062  10.610  0.7757  0.3456 -1.2349
 8832SOL     OW37954   0.390   0.379   1.756 -0.8299 -0.4270  1.1359
 8832SOL    HW137955   0.472   0.336   1.779 -0.9363 -0.7821  0.8414
 8832SOL    HW237956   0.325   0.324   1.800 -0.1778 -0.5509  1.9516
 8833SOL     OW37957   3.322   3.057   3.790  0.3291 -0.2627  0.2170
 8833SOL    HW137958   3.401   3.111   3.794 -0.7750  1.2403  1.7184
 8833SOL    HW237959   3.338   3.028   3.700 -1.9850  2.7678 -1.1619
 8834SOL     OW37960   1.999   1.814   5.497  0.0189 -0.5795  0.6299
 8834SOL    HW137961   2.036   1.852   5.577  1.3155 -0.9156  0.1909
 8834SOL    HW237962   2.014   1.720   5.511  3.1362  0.1508  2.0262
 8835SOL     OW37963   1.969   1.505   6.710  0.9892  0.2805 -0.4925
 8835SOL    HW137964   1.954   1.520   6.804  0.9903 -1.4015 -0.2345
 8835SOL    HW237965   1.909   1.568   6.671  1.4617  0.0476 -1.6025
 8836SOL     OW37966   2.846   0.368   2.095  0.8399 -0.2648  0.3695
 8836SOL    HW137967   2.894   0.426   2.035  0.7280  0.1673  0.6938
 8836SOL    HW237968   2.850   0.422   2.174  0.1929  0.0881  0.1586
 8837SOL     OW37969   1.522   2.709  11.649 -0.2087 -1.0474 -0.1287
 8837SOL    HW137970   1.560   2.740  11.567  0.3730 -1.6468 -0.0834
 8837SOL    HW237971   1.435   2.735  11.618 -0.3670 -1.4022  0.0134
 8838SOL     OW37972   3.321   3.070   0.959 -0.3516  0.5489  0.0874
 8838SOL    HW137973   3.340   3.010   0.887  0.9320  0.7128  0.2954
 8838SOL    HW237974   3.263   3.134   0.917  0.4983  0.8995 -0.5656
 8839SOL     OW37975   0.669   2.067   2.015 -0.9558  0.5553 -0.4867
 8839SOL    HW137976   0.606   2.096   1.949 -0.3143  4.4709  0.6158
 8839SOL    HW237977   0.727   2.143   2.016  1.4070 -1.2520 -0.9522
 8840SOL     OW37978   0.370   1.757   2.613 -0.3880 -0.3254 -0.2369
 8840SOL    HW137979   0.451   1.805   2.628 -0.4252 -1.2109  2.6283
 8840SOL    HW237980   0.403   1.714   2.534 -0.3261 -1.3067  0.3196
 8841SOL     OW37981   1.435   4.678   4.663 -0.3015 -0.2990 -0.2853
 8841SOL    HW137982   1.413   0.018   4.594 -0.2042 -0.7440 -0.7227
 8841SOL    HW237983   1.436   4.593   4.619 -0.8508 -0.8856  0.8386
 8842SOL     OW37984   2.338   1.229   7.737 -0.2160  0.0116  0.3159
 8842SOL    HW137985   2.275   1.165   7.704 -1.5846  1.2440  0.5034
 8842SOL    HW237986   2.415   1.172   7.740 -1.9008 -2.1979  1.5632
 8843SOL     OW37987   2.143   2.611   0.273 -0.2914 -0.1051  0.0857
 8843SOL    HW137988   2.138   2.587   0.181 -1.0922 -0.2677  0.1692
 8843SOL    HW237989   2.060   2.578   0.307  0.4194 -1.9694  0.0165
 8844SOL     OW37990   2.532   1.962   8.747 -0.1602  0.4312  0.0513
 8844SOL    HW137991   2.597   1.919   8.802  0.2803  0.9461 -0.0678
 8844SOL    HW237992   2.466   1.893   8.735 -1.2974  1.7084 -1.0888
 8845SOL     OW37993   3.434   4.466   9.297 -0.8292 -0.1930 -0.3336
 8845SOL    HW137994   3.501   4.401   9.317 -0.2202  0.2734 -0.8599
 8845SOL    HW237995   3.382   4.429   9.226  0.7820 -1.9020 -0.6245
 8846SOL     OW37996   2.359   0.583   4.327  0.0130  0.1711 -0.2226
 8846SOL    HW137997   2.363   0.539   4.243  1.0662  0.8404 -0.5144
 8846SOL    HW237998   2.312   0.663   4.304  0.5218  0.3941 -0.4898
 8847SOL     OW37999   3.890   3.257  13.242 -0.1082 -0.4355  0.4601
 8847SOL    HW138000   3.804   3.226  13.211 -0.6058  0.9079  0.5187
 8847SOL    HW238001   3.945   3.260  13.164 -1.0977  0.1898 -0.2065
 8848SOL     OW38002   3.986   3.747   9.373 -0.0987 -0.3477 -0.0871
 8848SOL    HW138003   3.894   3.770   9.388  0.2565 -1.2258  3.5074
 8848SOL    HW238004   4.015   3.771   9.461 -2.3682 -0.1466  0.6015
 8849SOL     OW38005   1.753   1.213  10.207  0.5362 -0.3657  0.0603
 8849SOL    HW138006   1.815   1.263  10.154  0.9707  0.5158  1.3999
 8849SOL    HW238007   1.811   1.167  10.268  0.2077 -2.2578 -1.0725
 8850SOL     OW38008   2.978   0.920   6.284  0.3215 -0.1609 -0.3035
 8850SOL    HW138009   2.963   1.014   6.274  1.3932  0.0331 -0.0448
 8850SOL    HW238010   3.072   0.927   6.273  0.6340  0.7635  2.8186
 8851SOL     OW38011   2.527   3.600  15.939  0.0557 -0.5163  0.1609
 8851SOL    HW138012   2.491   3.679  15.979 -2.4312 -1.6146  0.0904
 8851SOL    HW238013   2.618   3.623  15.920 -1.2156  3.1074 -1.5069
 8852SOL     OW38014   0.569   1.648  14.503 -0.2385  0.4547 -0.1869
 8852SOL    HW138015   0.628   1.698  14.447  0.4778  0.8063  0.8745
 8852SOL    HW238016   0.481   1.653  14.466 -0.8694 -0.8918  1.1262
 8853SOL     OW38017   1.067   1.986   9.181 -0.8017 -0.3844 -1.0551
 8853SOL    HW138018   1.004   1.986   9.252  1.4794  1.2042  0.9619
 8853SOL    HW238019   1.117   2.067   9.189 -0.9998 -0.3637 -0.0640
 8854SOL     OW38020   2.589   1.842  12.904  0.1391  0.1469  0.5947
 8854SOL    HW138021   2.622   1.758  12.871  1.0801  1.7964 -2.5436
 8854SOL    HW238022   2.645   1.855  12.980  0.3838  1.7605  0.1314
 8855SOL     OW38023   4.250   2.266   2.063  0.3587  0.0798  0.4223
 8855SOL    HW138024   4.299   2.348   2.065 -0.1300  0.3721  0.4095
 8855SOL    HW238025   4.164   2.291   2.029  0.8997 -1.7078 -2.2619
 8856SOL     OW38026   0.303   0.914   7.264 -0.4873 -0.5134  0.1363
 8856SOL    HW138027   0.255   0.859   7.202  1.1697 -1.6560 -0.1067
 8856SOL    HW238028   0.326   0.858   7.339  0.2260 -1.8032 -1.0464
 8857SOL     OW38029   3.243   0.230   4.551 -0.2011 -0.4367  0.5687
 8857SOL    HW138030   3.217   0.174   4.624  1.6403  0.4705  1.9074
 8857SOL    HW238031   3.169   0.205   4.495 -0.6208  3.0655 -0.4238
 8858SOL     OW38032   2.969   3.563   5.184  0.2775  0.1014 -0.1309
 8858SOL    HW138033   3.045   3.622   5.184  1.3435 -1.2713  0.6416
 8858SOL    HW238034   2.941   3.578   5.094 -0.7184  1.1690  0.3481
 8859SOL     OW38035   3.979   1.258   0.670  0.2124  0.4542 -0.0396
 8859SOL    HW138036   4.068   1.249   0.636 -0.2567  0.0093 -1.1499
 8859SOL    HW238037   3.950   1.169   0.650  2.2583  0.1567 -1.6792
 8860SOL     OW38038   0.666   2.223   4.633  0.3929 -0.2793  0.1965
 8860SOL    HW138039   0.760   2.239   4.626  0.4131 -0.9950 -1.1655
 8860SOL    HW238040   0.641   2.251   4.545  1.4425 -0.9178 -0.3051
 8861SOL     OW38041   0.417   1.405   0.767  0.6083 -0.4185 -0.2254
 8861SOL    HW138042   0.400   1.387   0.674  1.2315  1.0906 -0.6438
 8861SOL    HW238043   0.403   1.316   0.800 -1.9671  0.1584  0.2160
 8862SOL     OW38044   1.212   1.732   7.015 -0.3583 -0.3901  0.3212
 8862SOL    HW138045   1.153   1.657   7.012 -0.4964 -0.2151 -1.6764
 8862SOL    HW238046   1.274   1.704   7.083 -0.6477 -0.8674  0.3894
 8863SOL     OW38047   4.171   1.359   9.850 -0.4328  0.0159 -0.4033
 8863SOL    HW138048   4.087   1.326   9.883 -0.3608 -1.3262 -1.5628
 8863SOL    HW238049   4.153   1.447   9.817  0.2597  0.2981 -0.0178
 8864SOL     OW38050   1.519   1.477   3.180  0.1759  0.0128  0.0183
 8864SOL    HW138051   1.558   1.390   3.172 -1.2584 -0.6536  0.2011
 8864SOL    HW238052   1.600   1.527   3.179 -0.2393  0.6038 -2.4674
 8865SOL     OW38053   0.325   3.339   6.294 -0.0397 -0.3005  0.1239
 8865SOL    HW138054   0.409   3.385   6.298 -0.8737  1.3651 -1.5243
 8865SOL    HW238055   0.266   3.413   6.281  2.9763  2.0134 -0.5334
 8866SOL     OW38056   0.135   4.530   3.141 -0.3390 -0.4733 -0.1732
 8866SOL    HW138057   0.097   4.595   3.201 -2.2780 -1.2350 -0.5988
 8866SOL    HW238058   0.119   4.574   3.058 -1.0234  0.9624  0.7097
 8867SOL     OW38059   3.811   2.643  15.723  0.0638 -0.2900  0.6282
 8867SOL    HW138060   3.896   2.665  15.762 -0.1817 -0.1051  1.0619
 8867SOL    HW238061   3.805   2.687  15.638  2.9839  0.3084  0.6979
 8868SOL     OW38062   0.599   1.711  11.456  0.7294  0.0425 -0.0251
 8868SOL    HW138063   0.680   1.760  11.473 -0.7464  0.8049  4.7091
 8868SOL    HW238064   0.562   1.767  11.387 -0.7944  0.4881  1.1626
 8869SOL     OW38065   2.834   0.217  12.979  0.2177  0.6438  0.1996
 8869SOL    HW138066   2.896   0.206  12.906 -1.7116  2.4209 -1.7107
 8869SOL    HW238067   2.781   0.138  12.972  0.4397  0.4950  0.1988
 8870SOL     OW38068   3.022   0.335   2.481  0.2236 -0.1372  0.0619
 8870SOL    HW138069   3.076   0.414   2.482  0.5894 -0.3943  0.6801
 8870SOL    HW238070   3.048   0.293   2.563  1.5976  1.0471  0.2301
 8871SOL     OW38071   2.807   1.239   7.648 -0.0024 -0.1910 -0.4580
 8871SOL    HW138072   2.764   1.284   7.721  0.1470 -1.7694  0.6233
 8871SOL    HW238073   2.765   1.153   7.656  2.0509 -1.1539  0.0484
 8872SOL     OW38074   2.195   1.985  15.322  0.1806  0.1341 -0.2053
 8872SOL    HW138075   2.233   2.009  15.237  0.2349  1.0554  0.0789
 8872SOL    HW238076   2.273   1.989  15.377  0.5497  1.8107 -0.8543
 8873SOL     OW38077   0.264   2.618   2.959 -0.5393 -0.7583  0.0550
 8873SOL    HW138078   0.293   2.693   3.012  1.0407 -1.2029 -0.1796
 8873SOL    HW238079   0.300   2.547   3.012  2.9748 -1.6731 -3.5790
 8874SOL     OW38080   3.107   2.016   3.193  0.1615 -0.2945 -0.1273
 8874SOL    HW138081   3.040   2.007   3.261  1.5791 -2.0595  1.0318
 8874SOL    HW238082   3.169   1.947   3.216  2.5407  1.1820 -2.1974
 8875SOL     OW38083   1.133   2.934   8.839 -0.1000 -0.0721  0.2389
 8875SOL    HW138084   1.189   2.951   8.914  0.0319  2.8867 -0.5333
 8875SOL    HW238085   1.170   2.851   8.809 -0.1804 -0.4963  1.3418
 8876SOL     OW38086   3.967   0.437   6.094  0.3231  0.1499  0.0430
 8876SOL    HW138087   3.942   0.398   6.178 -1.9816 -1.5821 -1.4506
 8876SOL    HW238088   4.026   0.508   6.120  2.4386 -1.3203 -0.7551
 8877SOL     OW38089   1.513   0.308  12.439 -0.0338 -0.3038  0.0609
 8877SOL    HW138090   1.427   0.300  12.480 -0.2627 -1.0695 -0.5755
 8877SOL    HW238091   1.504   0.394  12.399  0.9445 -0.5092 -0.6033
 8878SOL     OW38092   2.891   4.010   7.987 -0.1718 -0.1957  0.0125
 8878SOL    HW138093   2.821   4.042   8.044 -0.0883  1.9827 -1.1267
 8878SOL    HW238094   2.959   3.993   8.053  0.2468  0.8847 -0.1492
 8879SOL     OW38095   2.411   4.120   7.164  0.6017  0.1743  0.3563
 8879SOL    HW138096   2.466   4.192   7.133 -1.0589  0.8217 -1.0517
 8879SOL    HW238097   2.405   4.154   7.254 -0.4899 -0.7854  0.6528
 8880SOL     OW38098   3.254   3.005   4.366  0.2837 -0.0768 -0.2160
 8880SOL    HW138099   3.313   2.957   4.424 -0.5445 -0.5678  0.2364
 8880SOL    HW238100   3.170   2.982   4.407 -0.0669 -2.7284 -2.4531
 8881SOL     OW38101   0.886   4.471   3.903 -0.6831  0.2157 -0.4644
 8881SOL    HW138102   0.844   4.385   3.910  1.0628 -0.3801  2.5696
 8881SOL    HW238103   0.925   4.482   3.990  0.8182  0.7670 -1.2023
 8882SOL     OW38104   2.176   1.871   1.695  0.3471 -0.0242 -0.2944
 8882SOL    HW138105   2.112   1.830   1.752  0.8155  1.7897  1.5558
 8882SOL    HW238106   2.139   1.855   1.608  0.8051  2.1995 -0.9168
 8883SOL     OW38107   4.599   3.156  15.213  0.1511 -0.2292  0.0546
 8883SOL    HW138108   4.662   3.209  15.262 -2.2952  0.7944  2.0978
 8883SOL    HW238109   4.566   3.101  15.284  2.6158 -0.3543  1.1058
 8884SOL     OW38110   2.744   3.687   3.513  0.1195  0.0088  0.5315
 8884SOL    HW138111   2.662   3.664   3.558 -0.3395  2.8237  1.1432
 8884SOL    HW238112   2.716   3.698   3.422 -0.2857 -1.6932  0.4517
 8885SOL     OW38113   0.161   3.891  10.120  0.5560 -0.3714 -0.1096
 8885SOL    HW138114   0.253   3.863  10.122  0.7135  0.2691  1.6825
 8885SOL    HW238115   0.147   3.900  10.214 -0.3356  1.1303 -0.3855
 8886SOL     OW38116   2.863   3.141   6.363 -0.0836  0.4813 -0.3597
 8886SOL    HW138117   2.945   3.191   6.360 -1.3004  2.2946 -2.9860
 8886SOL    HW238118   2.840   3.158   6.272  2.1138 -0.4773 -1.1067
 8887SOL     OW38119   3.491   0.228   7.917  0.2291  0.6333 -0.0794
 8887SOL    HW138120   3.490   0.318   7.883  0.4414  0.9221  0.6634
 8887SOL    HW238121   3.508   0.249   8.009 -0.7197  0.7732  0.0671
 8888SOL     OW38122   4.358   0.740   3.272  0.2071 -0.1320  0.0869
 8888SOL    HW138123   4.313   0.655   3.268  0.0251  0.0092 -0.9031
 8888SOL    HW238124   4.286   0.802   3.282 -1.3106 -2.0745  1.4116
 8889SOL     OW38125   1.420   4.645  15.459 -0.4378 -0.0173  0.2293
 8889SOL    HW138126   1.359   4.612  15.394  0.3390 -0.1707 -0.4203
 8889SOL    HW238127   1.481   4.696  15.407 -1.3361  1.8216  0.9770
 8890SOL     OW38128   1.297   4.497   5.980 -0.2117  0.1086  0.3356
 8890SOL    HW138129   1.381   4.539   5.998 -0.2195 -0.0499  0.7499
 8890SOL    HW238130   1.289   4.448   6.062 -1.0696 -1.0666 -0.4551
 8891SOL     OW38131   3.960   2.101   7.032 -0.5452 -0.4372  0.1734
 8891SOL    HW138132   3.968   2.196   7.039 -0.2953 -0.4228 -0.3223
 8891SOL    HW238133   3.865   2.091   7.030 -0.5545  0.0587 -1.4037
 8892SOL     OW38134   2.676   2.116   1.397  0.0332  0.1757 -0.0821
 8892SOL    HW138135   2.699   2.057   1.325  0.2288  1.5982 -1.1921
 8892SOL    HW238136   2.684   2.062   1.476 -1.1724 -1.3706 -1.0091
 8893SOL     OW38137   0.256   0.362   4.040 -0.0185  0.0719  0.0222
 8893SOL    HW138138   0.169   0.380   4.003 -0.4107 -0.3960  0.7168
 8893SOL    HW238139   0.242   0.388   4.131  0.9329  1.3951 -0.2031
 8894SOL     OW38140   3.502   1.705   1.222 -0.2329  0.2326 -0.0427
 8894SOL    HW138141   3.588   1.665   1.209 -1.4931 -1.8608 -1.9300
 8894SOL    HW238142   3.496   1.757   1.142 -0.7592 -0.1565 -0.2554
 8895SOL     OW38143   2.740   3.943   5.382  0.5343 -0.3176  0.1348
 8895SOL    HW138144   2.768   3.958   5.292  1.1025  1.0253  0.5266
 8895SOL    HW238145   2.659   3.995   5.384  0.2335 -0.7464 -1.6881
 8896SOL     OW38146   4.303   0.319   6.328 -0.1296  0.3265  0.2494
 8896SOL    HW138147   4.254   0.388   6.283  1.6603  0.7940 -0.9891
 8896SOL    HW238148   4.262   0.326   6.415  0.7837  0.7864  0.6496
 8897SOL     OW38149   4.685   2.984  17.451  0.2407 -0.4072 -0.1804
 8897SOL    HW138150   4.651   3.073  17.466 -1.8083 -0.7422 -2.8232
 8897SOL    HW238151   4.660   2.969  17.360  2.6162 -2.7339 -0.4351
 8898SOL     OW38152   3.908   2.030   8.492  0.3065 -0.4397 -0.1442
 8898SOL    HW138153   3.885   2.063   8.578 -0.2044  1.0150 -0.8420
 8898SOL    HW238154   3.842   1.960   8.490 -2.4301  2.1180  1.2304
 8899SOL     OW38155   2.611   1.287   5.618  0.2781 -0.4567  0.1802
 8899SOL    HW138156   2.567   1.371   5.608  1.9962 -0.0058 -3.6412
 8899SOL    HW238157   2.569   1.244   5.693  0.1072  0.6391  0.7036
 8900SOL     OW38158   4.552   2.825   6.611 -0.5505 -0.2825 -0.9472
 8900SOL    HW138159   4.620   2.794   6.672  2.4035  1.8275 -3.1419
 8900SOL    HW238160   4.605   2.817   6.532 -0.5371 -0.7036 -0.8948
 8901SOL     OW38161   0.082   1.467   8.103  0.1802 -0.1013  0.0426
 8901SOL    HW138162   0.151   1.403   8.122 -0.2617 -0.5032  0.2869
 8901SOL    HW238163   0.003   1.414   8.102 -0.0789  0.3696 -2.1577
 8902SOL     OW38164   3.276   2.458   4.292  0.3662 -0.0231  0.1062
 8902SOL    HW138165   3.307   2.471   4.382 -2.3951 -0.6939  1.1618
 8902SOL    HW238166   3.319   2.379   4.260 -3.0654 -0.6782 -2.8593
 8903SOL     OW38167   3.246   4.563  15.037 -0.3964  0.1231  0.0659
 8903SOL    HW138168   3.293   4.646  15.049 -0.2542  0.1401 -0.5932
 8903SOL    HW238169   3.304   4.501  15.082  1.4484  1.5473 -0.3432
 8904SOL     OW38170   2.639   4.685  11.347  0.3552  0.8159  0.0646
 8904SOL    HW138171   2.652   4.717  11.258  1.1367 -1.0765 -0.5067
 8904SOL    HW238172   2.728   4.653  11.361  0.5068  1.4500  0.4932
 8905SOL     OW38173   4.337   1.246   3.772  0.1182 -0.0473 -0.5835
 8905SOL    HW138174   4.251   1.207   3.760 -0.2988  0.5934  0.4302
 8905SOL    HW238175   4.386   1.206   3.699  2.3244 -0.1806  0.9489
 8906SOL     OW38176   3.216   2.246   3.164 -0.2081  0.0946  0.0252
 8906SOL    HW138177   3.202   2.263   3.071 -2.8144  0.6853  0.5206
 8906SOL    HW238178   3.177   2.159   3.169 -1.8348  0.8632  0.8843
 8907SOL     OW38179   1.108   0.099   6.140  0.1816  0.4624  0.3597
 8907SOL    HW138180   1.158   0.054   6.208 -1.1011  1.3372  1.8821
 8907SOL    HW238181   1.081   0.184   6.175 -2.5828 -0.8056  1.2636
 8908SOL     OW38182   4.350   3.535   4.994  0.0049  0.2526 -0.0386
 8908SOL    HW138183   4.360   3.453   5.042 -1.8661  0.1256  0.1183
 8908SOL    HW238184   4.272   3.574   5.034  1.4511  0.4987  2.5859
 8909SOL     OW38185   3.319   2.510  13.782  0.2558  0.4523  0.8001
 8909SOL    HW138186   3.232   2.486  13.815  0.5236  0.1006  1.2455
 8909SOL    HW238187   3.332   2.601  13.808  1.4785  0.4629  0.1015
 8910SOL     OW38188   0.613   4.543  13.567  0.0959 -0.5345  0.8651
 8910SOL    HW138189   0.673   4.485  13.614  0.4864 -0.8774 -0.0524
 8910SOL    HW238190   0.544   4.485  13.534 -1.3628  0.0231  2.9215
 8911SOL     OW38191   1.221   4.669   4.311 -0.4666  0.1320 -0.1730
 8911SOL    HW138192   1.141   4.618   4.323 -0.2578 -0.6917 -2.1106
 8911SOL    HW238193   1.289   4.618   4.355  0.9442  1.2699 -1.0265
 8912SOL     OW38194   3.383   1.685   7.773  0.1602 -0.5311 -0.1213
 8912SOL    HW138195   3.470   1.677   7.736  0.1644 -2.4610  0.3148
 8912SOL    HW238196   3.336   1.744   7.714 -1.2191 -0.9247  0.5831
 8913SOL     OW38197   1.463   0.825   3.591  0.1229 -0.3005 -0.1657
 8913SOL    HW138198   1.412   0.748   3.616  1.1801 -0.9251  0.0573
 8913SOL    HW238199   1.462   0.817   3.495 -1.1757  2.9367 -0.4309
 8914SOL     OW38200   4.610   1.237  16.166  0.9238 -0.0563  0.5932
 8914SOL    HW138201   4.542   1.296  16.196  0.6741 -0.0676  0.0555
 8914SOL    HW238202   4.689   1.265  16.211  2.2642 -1.4200 -0.8810
 8915SOL     OW38203   4.678   1.937   9.564  0.0278  1.1107 -0.6467
 8915SOL    HW138204   4.597   1.888   9.574  0.9129 -0.5405 -1.5237
 8915SOL    HW238205   4.671   2.009   9.626 -3.3331  0.3842 -0.2126
 8916SOL     OW38206   0.168   1.973   2.684  0.1328 -0.0523 -0.3441
 8916SOL    HW138207   0.110   1.981   2.608  1.0439  2.8676 -0.7399
 8916SOL    HW238208   0.241   1.921   2.652  0.8349 -0.8337  2.5163
 8917SOL     OW38209   4.339   0.726   2.985 -0.0020 -0.1998  0.5519
 8917SOL    HW138210   4.337   0.814   3.023  0.3227 -0.4704  1.1974
 8917SOL    HW238211   4.305   0.673   3.057  0.2172 -0.6221  0.3495
 8918SOL     OW38212   2.922   0.598   5.892 -0.8232  0.2400  0.3000
 8918SOL    HW138213   2.867   0.666   5.853 -0.1764  0.4095 -0.3260
 8918SOL    HW238214   2.884   0.583   5.978  0.1916 -0.1003  0.6910
 8919SOL     OW38215   0.286   2.486  12.724 -0.4225 -0.3085 -0.3952
 8919SOL    HW138216   0.273   2.401  12.768 -1.1490 -1.7028 -3.3108
 8919SOL    HW238217   0.291   2.549  12.796 -0.4083 -1.8237  0.9317
 8920SOL     OW38218   2.646   0.767  13.758  0.3231 -0.1965 -0.0459
 8920SOL    HW138219   2.553   0.790  13.759  0.5538  0.7371 -0.0206
 8920SOL    HW238220   2.627   0.673  13.757  1.2669 -0.3852  0.0222
 8921SOL     OW38221   2.985   3.787   9.104  0.1516 -0.2536  0.1892
 8921SOL    HW138222   2.938   3.780   9.021  0.5903 -2.2064  0.1061
 8921SOL    HW238223   3.055   3.726   9.081  0.3589  0.2336 -0.4804
 8922SOL     OW38224   2.192   3.843   7.644  0.3721  0.2754 -0.4687
 8922SOL    HW138225   2.225   3.753   7.642 -0.9267 -0.2034 -0.2632
 8922SOL    HW238226   2.247   3.878   7.714  0.8718 -0.1264 -0.6619
 8923SOL     OW38227   3.776   3.486  13.359  0.2858 -0.1052 -0.2674
 8923SOL    HW138228   3.768   3.480  13.455  0.7519  0.5500 -0.1892
 8923SOL    HW238229   3.807   3.397  13.342 -2.6261 -1.4166  1.2052
 8924SOL     OW38230   3.063   0.240   3.576  0.7705  0.4719  0.0907
 8924SOL    HW138231   3.000   0.192   3.522  2.1150 -0.7353 -0.4106
 8924SOL    HW238232   3.146   0.198   3.552  0.3662 -0.8539  1.0029
 8925SOL     OW38233   4.438   0.494   5.961 -0.4156 -0.1806 -0.4593
 8925SOL    HW138234   4.396   0.557   6.019  1.7987  0.8884 -0.0321
 8925SOL    HW238235   4.476   0.560   5.903  1.1521  0.0413  0.8367
 8926SOL     OW38236   1.312   2.444  15.334 -0.5468 -0.0950 -0.2176
 8926SOL    HW138237   1.327   2.350  15.333  2.8262  0.4972 -3.8977
 8926SOL    HW238238   1.365   2.476  15.261 -0.8576 -0.5631 -0.6503
 8927SOL     OW38239   0.633   3.242   8.784  0.3871 -0.1013  0.1292
 8927SOL    HW138240   0.709   3.187   8.766  1.0169  0.7326  0.2423
 8927SOL    HW238241   0.614   3.273   8.696 -0.9886 -0.2717  0.3545
 8928SOL     OW38242   1.389   4.584   6.628 -0.1733 -0.0938 -0.0792
 8928SOL    HW138243   1.313   4.611   6.576 -0.1154 -1.7812 -1.0172
 8928SOL    HW238244   1.442   4.662   6.612 -1.1839  0.4510 -0.8381
 8929SOL     OW38245   3.612   2.136   1.385  0.1422 -0.4846  0.5484
 8929SOL    HW138246   3.681   2.113   1.322  2.7032 -0.3564  3.3452
 8929SOL    HW238247   3.538   2.149   1.326 -0.2723 -0.6065  1.0409
 8930SOL     OW38248   4.479   2.774   5.810 -0.2910  0.1511  0.2043
 8930SOL    HW138249   4.447   2.838   5.874 -0.2846 -0.6146  0.9733
 8930SOL    HW238250   4.504   2.701   5.866  0.1384  0.1928  0.0650
 8931SOL     OW38251   3.032   3.063  16.650 -0.0039  0.1107  1.0287
 8931SOL    HW138252   2.946   3.025  16.634  0.1212  0.1159  0.3440
 8931SOL    HW238253   3.020   3.073  16.744 -0.9731  0.5762  0.8562
 8932SOL     OW38254   3.751   1.800   5.981 -0.4097 -0.6308  0.4647
 8932SOL    HW138255   3.773   1.831   6.069 -0.1538  0.8004 -0.1017
 8932SOL    HW238256   3.714   1.716   6.005 -0.5918 -0.1696  1.8263
 8933SOL     OW38257   3.848   1.718   1.664 -0.3419 -0.6131 -0.2388
 8933SOL    HW138258   3.919   1.699   1.726  0.9836  3.2914 -0.5453
 8933SOL    HW238259   3.885   1.677   1.586  0.8732 -2.2776  1.2020
 8934SOL     OW38260   4.377   4.633  10.058  0.0644  0.1172  0.2137
 8934SOL    HW138261   4.336   4.683  10.129  2.1392  0.9741  0.8132
 8934SOL    HW238262   4.301   4.616  10.003  0.8997 -1.7889 -0.3479
 8935SOL     OW38263   2.925   3.791  12.432 -0.0907 -0.8968 -0.4389
 8935SOL    HW138264   2.996   3.851  12.454 -2.2415  0.0323  4.1818
 8935SOL    HW238265   2.941   3.773  12.340  0.9551  3.3208 -1.0384
 8936SOL     OW38266   0.277   3.668   7.301  0.1131 -0.8011 -0.3246
 8936SOL    HW138267   0.247   3.648   7.212  0.4408  0.5514 -0.7527
 8936SOL    HW238268   0.198   3.666   7.355 -0.9977  3.5910 -1.7530
 8937SOL     OW38269   0.938   4.579  10.413 -0.0806 -0.3812  0.6367
 8937SOL    HW138270   0.950   4.618  10.327 -1.8393 -1.8758 -0.2870
 8937SOL    HW238271   0.860   4.526  10.396 -0.8504 -0.0992  3.2535
 8938SOL     OW38272   2.981   0.887   7.331 -0.4962 -0.2732 -0.0731
 8938SOL    HW138273   2.994   0.981   7.319  1.7777 -0.1715  3.1009
 8938SOL    HW238274   3.070   0.855   7.345 -0.3742  0.5203  0.9649
 8939SOL     OW38275   1.347   4.242   3.244  0.1597 -0.1036 -0.5270
 8939SOL    HW138276   1.377   4.287   3.322  1.9018 -2.2381  0.0519
 8939SOL    HW238277   1.428   4.247   3.193  0.3479 -1.6213 -0.4016
 8940SOL     OW38278   2.111   3.823   2.438  0.2772  0.3527 -0.4061
 8940SOL    HW138279   2.200   3.856   2.423  0.1550  1.6303  1.7748
 8940SOL    HW238280   2.134   3.741   2.482 -1.3040  0.2611  0.2376
 8941SOL     OW38281   3.707   1.415  16.657 -0.1919  0.4280  0.3447
 8941SOL    HW138282   3.670   1.488  16.707 -2.3105 -0.2570 -0.2159
 8941SOL    HW238283   3.786   1.457  16.622 -0.5289  2.4540  1.9842
 8942SOL     OW38284   3.185   2.455   2.287 -0.3158  0.1981  0.0954
 8942SOL    HW138285   3.207   2.543   2.256  0.2581 -0.0895 -0.3206
 8942SOL    HW238286   3.206   2.410   2.205  1.0370 -0.8613  1.0315
 8943SOL     OW38287   2.570   2.084   4.810 -0.1448 -0.1815  0.0225
 8943SOL    HW138288   2.581   2.023   4.737 -1.7217 -0.7925  0.2977
 8943SOL    HW238289   2.511   2.031   4.864 -2.2209  1.4309 -0.6486
 8944SOL     OW38290   2.319   3.845  12.106 -0.1821 -0.0357 -0.3343
 8944SOL    HW138291   2.266   3.918  12.139  0.8578  0.4655  0.2102
 8944SOL    HW238292   2.361   3.806  12.182 -0.0460 -0.5968 -0.6991
 8945SOL     OW38293   0.113   4.605   4.299 -0.5131 -0.2747 -0.5909
 8945SOL    HW138294   0.081   4.536   4.357  1.2701 -1.2277 -0.7490
 8945SOL    HW238295   0.055   4.675   4.331  1.5237  1.4552 -0.6543
 8946SOL     OW38296   0.616   3.356   6.437  0.4271 -0.4339 -0.2556
 8946SOL    HW138297   0.700   3.314   6.454  0.1648 -1.9889 -2.7353
 8946SOL    HW238298   0.595   3.397   6.521 -0.8935 -0.8062 -0.4073
 8947SOL     OW38299   1.791   1.604   6.305 -0.1822 -0.3469 -0.8210
 8947SOL    HW138300   1.729   1.666   6.267  3.5822  2.8700 -1.7194
 8947SOL    HW238301   1.788   1.645   6.391 -0.4908 -1.6676 -0.2106
 8948SOL     OW38302   1.105   0.032   2.696  0.1554 -0.0770  0.5142
 8948SOL    HW138303   1.020   4.713   2.690  0.7038 -1.1643  0.2426
 8948SOL    HW238304   1.165   4.681   2.682 -1.3078 -0.9921 -0.8978
 8949SOL     OW38305   4.040   3.579   2.285  0.1280 -0.2025 -0.0922
 8949SOL    HW138306   4.098   3.655   2.279 -0.1722  0.1631  1.7545
 8949SOL    HW238307   4.030   3.552   2.194 -0.1855  0.6791 -0.3197
 8950SOL     OW38308   1.282   2.610   2.975 -0.5882 -0.1373  0.0008
 8950SOL    HW138309   1.216   2.671   3.008 -0.9655  0.2803 -1.5335
 8950SOL    HW238310   1.336   2.679   2.936 -0.8684 -1.1793 -2.1734
 8951SOL     OW38311   1.558   4.044   1.977 -0.2555  0.5920  0.3215
 8951SOL    HW138312   1.523   4.132   1.991  0.8977  0.6911  2.6362
 8951SOL    HW238313   1.477   3.996   1.991 -0.5193  0.7937 -0.5111
 8952SOL     OW38314   4.384   1.439   4.675  0.3274 -0.4998  0.2249
 8952SOL    HW138315   4.399   1.375   4.744  0.2887 -0.9441 -0.1819
 8952SOL    HW238316   4.405   1.382   4.601 -0.4070  1.5202 -1.5560
 8953SOL     OW38317   1.186   0.894  15.895  0.4057  0.8457  0.2779
 8953SOL    HW138318   1.171   0.983  15.863 -2.3605  1.0727  2.1862
 8953SOL    HW238319   1.108   0.899  15.951  1.4456  0.4058  1.7891
 8954SOL     OW38320   3.993   0.368   3.639 -0.1351 -0.0305 -0.2625
 8954SOL    HW138321   3.932   0.435   3.668 -1.0329 -1.3533  0.8703
 8954SOL    HW238322   4.075   0.402   3.674  0.5269  0.2304 -2.0525
 8955SOL     OW38323   2.043   0.458   6.040 -0.4159 -0.2113 -0.0609
 8955SOL    HW138324   2.135   0.474   6.019 -0.6348  0.7028 -0.3574
 8955SOL    HW238325   2.045   0.489   6.131  1.0647 -0.9155  0.1425
 8956SOL     OW38326   3.997   0.147   1.678 -0.0617 -0.0043 -0.8151
 8956SOL    HW138327   3.945   0.092   1.736  0.9516 -1.8124 -1.6099
 8956SOL    HW238328   4.068   0.178   1.733 -1.8855  3.8453 -0.6187
 8957SOL     OW38329   2.909   3.659   7.619 -0.1590 -0.3289  0.2199
 8957SOL    HW138330   2.880   3.719   7.688  0.6692  1.2854 -0.8118
 8957SOL    HW238331   2.981   3.614   7.664 -1.7779 -0.3598  2.7556
 8958SOL     OW38332   3.026   3.425   5.458 -0.3667 -0.6987 -0.2327
 8958SOL    HW138333   3.009   3.483   5.384  0.9706  0.5834  0.4822
 8958SOL    HW238334   3.076   3.356   5.414  0.1389 -0.5213  0.0789
 8959SOL     OW38335   3.061   1.663   6.328  0.3792 -0.1493  0.0607
 8959SOL    HW138336   3.099   1.745   6.296 -0.6993  0.5826  0.6465
 8959SOL    HW238337   3.049   1.683   6.420  1.2585  2.0901 -0.3060
 8960SOL     OW38338   1.680   4.292   0.768 -0.5765 -0.2671  0.4199
 8960SOL    HW138339   1.733   4.213   0.758 -0.2773 -0.0654  0.3851
 8960SOL    HW238340   1.674   4.309   0.674  1.1758  0.7505  0.4880
 8961SOL     OW38341   0.897   3.964   4.878 -0.1927 -0.3386  0.0771
 8961SOL    HW138342   0.912   4.051   4.915 -1.2780 -0.4823  0.8786
 8961SOL    HW238343   0.927   3.977   4.788 -0.5489  0.2503  0.0432
 8962SOL     OW38344   3.415   1.037   9.391  0.0912  0.1791 -0.0073
 8962SOL    HW138345   3.506   1.013   9.410  0.3821 -1.9606 -4.1098
 8962SOL    HW238346   3.378   0.951   9.371  0.2573 -0.2934  1.6894
 8963SOL     OW38347   2.488   2.856  12.341 -0.0910  0.3348 -0.2448
 8963SOL    HW138348   2.489   2.896  12.428 -1.1112 -0.3356  0.0724
 8963SOL    HW238349   2.516   2.766  12.358  1.3485  0.3782 -2.3310
 8964SOL     OW38350   3.429   2.569  12.072  0.2978  0.0585 -0.6080
 8964SOL    HW138351   3.513   2.530  12.047 -0.4693  0.4544 -3.8218
 8964SOL    HW238352   3.367   2.499  12.052 -0.0276  0.9478 -2.7309
 8965SOL     OW38353   1.751   1.346   5.774  0.4053 -0.4172  0.0194
 8965SOL    HW138354   1.812   1.317   5.841  0.2643  1.3845  0.9404
 8965SOL    HW238355   1.698   1.267   5.769 -2.0163  1.2173 -0.1549
 8966SOL     OW38356   2.524   0.756   6.696  0.0312  0.0723 -0.0457
 8966SOL    HW138357   2.573   0.813   6.754  0.0905  1.1746 -1.1828
 8966SOL    HW238358   2.526   0.801   6.612  0.7599  1.5490  0.7717
 8967SOL     OW38359   0.252   4.092  17.637 -0.0055 -0.5407 -0.3639
 8967SOL    HW138360   0.213   4.023  17.691 -1.0853  1.2626  1.1663
 8967SOL    HW238361   0.295   4.035  17.574 -1.7278 -1.4014 -0.7644
 8968SOL     OW38362   2.474   0.904   8.993 -0.0462  0.2309  0.6468
 8968SOL    HW138363   2.447   0.981   9.044  3.0953  0.3862  2.0476
 8968SOL    HW238364   2.417   0.837   9.031  0.4911  0.0200  1.0711
 8969SOL     OW38365   2.855   0.969  12.655  0.6492 -0.3506 -0.2688
 8969SOL    HW138366   2.854   0.880  12.620 -2.0335 -1.6069  3.0611
 8969SOL    HW238367   2.856   1.024  12.576  2.0678  1.0983  0.7573
 8970SOL     OW38368   3.798   0.991   2.753 -0.1211 -0.0633  0.8775
 8970SOL    HW138369   3.790   1.067   2.810 -0.5294 -0.0803  0.8368
 8970SOL    HW238370   3.732   0.935   2.794  0.0217  1.1170  2.7535
 8971SOL     OW38371   4.165   3.711  12.804  0.2144  0.1810  0.9169
 8971SOL    HW138372   4.162   3.784  12.866  1.3589  2.2846 -1.5303
 8971SOL    HW238373   4.172   3.639  12.866 -0.8209 -0.0995  0.6985
 8972SOL     OW38374   1.105   0.265   4.985 -0.7786 -0.3013  0.4949
 8972SOL    HW138375   1.115   0.235   5.075 -1.7378  0.5130  0.8682
 8972SOL    HW238376   1.077   0.356   4.988 -1.1702 -0.4442  1.2248
 8973SOL     OW38377   0.773   3.140   0.296  0.1514 -0.9272  0.0504
 8973SOL    HW138378   0.740   3.095   0.217  1.6991  0.3344 -1.3024
 8973SOL    HW238379   0.820   3.215   0.260  0.5856 -0.1303  2.2914
 8974SOL     OW38380   2.922   0.942   8.636 -0.5237 -0.2631 -0.4456
 8974SOL    HW138381   2.907   1.028   8.597  1.1278  0.4048  0.4196
 8974SOL    HW238382   2.919   0.887   8.558  0.5379  0.0129 -0.6729
 8975SOL     OW38383   2.302   0.248   4.062  0.7384 -0.0841  0.1891
 8975SOL    HW138384   2.312   0.168   4.114  0.8129 -1.0153 -1.2670
 8975SOL    HW238385   2.208   0.253   4.046  0.7348  1.3023  0.6435
 8976SOL     OW38386   1.893   3.964   6.466  0.2161  0.0124  0.1562
 8976SOL    HW138387   1.826   3.928   6.525 -0.3491  1.2846  0.2903
 8976SOL    HW238388   1.949   3.886   6.471  0.2659 -0.0079 -0.7499
 8977SOL     OW38389   2.787   4.040  12.693 -0.5739 -0.2616  0.0395
 8977SOL    HW138390   2.729   4.047  12.617 -1.5994 -0.6033  0.7960
 8977SOL    HW238391   2.875   4.012  12.668 -0.1679 -0.4192  1.6492
 8978SOL     OW38392   1.289   3.878   8.131  0.0848 -0.0017  0.2891
 8978SOL    HW138393   1.300   3.890   8.225  0.0170  1.0855  0.1592
 8978SOL    HW238394   1.286   3.970   8.104  1.1056  1.0541  3.7063
 8979SOL     OW38395   4.340   1.705   5.950 -0.5968 -0.8425  0.1534
 8979SOL    HW138396   4.347   1.644   6.024  3.9123 -1.2316 -0.5929
 8979SOL    HW238397   4.298   1.643   5.890 -0.2946  0.7401 -1.6779
 8980SOL     OW38398   0.949   0.194  12.405  0.3836 -0.3808  0.2091
 8980SOL    HW138399   0.893   0.270  12.391  1.5486  0.7385  1.5255
 8980SOL    HW238400   0.898   0.129  12.358 -1.4582 -0.1741  1.9465
 8981SOL     OW38401   0.944   1.306   7.940 -0.3553 -1.0052  0.6964
 8981SOL    HW138402   1.002   1.302   7.863 -0.1432  1.6157  0.7455
 8981SOL    HW238403   1.001   1.285   8.013  0.1576  0.4443  0.7045
 8982SOL     OW38404   3.656   1.454  10.288 -0.2255 -0.1606 -0.0978
 8982SOL    HW138405   3.721   1.495  10.232 -0.7793 -1.6338 -1.8027
 8982SOL    HW238406   3.626   1.379  10.236 -0.3235 -0.3958  0.2959
 8983SOL     OW38407   1.751   0.338   2.452 -0.0347  0.1933 -0.8701
 8983SOL    HW138408   1.748   0.433   2.441  3.1810  0.4995  0.9239
 8983SOL    HW238409   1.779   0.333   2.543 -0.9644  1.3583 -0.5267
 8984SOL     OW38410   1.651   4.218   8.672 -0.0291  0.5910  0.1290
 8984SOL    HW138411   1.741   4.185   8.681 -0.4116 -0.1881  1.0023
 8984SOL    HW238412   1.623   4.217   8.763 -0.6931  0.0263 -0.0827
 8985SOL     OW38413   0.175   2.022   3.922 -0.1859  0.2831 -0.0100
 8985SOL    HW138414   0.243   2.090   3.914  3.8157 -3.4335  2.4170
 8985SOL    HW238415   0.187   1.975   3.839 -0.4223  0.4139 -0.1176
 8986SOL     OW38416   3.416   0.848   6.747  0.2099  0.7903  0.2399
 8986SOL    HW138417   3.378   0.761   6.757  3.4983 -0.7890 -1.4061
 8986SOL    HW238418   3.373   0.878   6.828 -0.3140  0.9289 -0.0909
 8987SOL     OW38419   2.209   4.303   7.005 -0.5265 -0.2155  0.5881
 8987SOL    HW138420   2.190   4.322   6.913 -1.5442 -0.5253  0.7263
 8987SOL    HW238421   2.214   4.395   7.031 -1.4596  0.1697 -0.5969
 8988SOL     OW38422   2.719   3.700   3.968 -0.9804 -0.1073 -0.5843
 8988SOL    HW138423   2.810   3.708   3.938 -0.7220 -1.0482 -0.0439
 8988SOL    HW238424   2.674   3.782   3.947 -0.2274 -0.1462 -2.2980
 8989SOL     OW38425   2.832   2.722   8.164  0.4264 -0.1743  0.2927
 8989SOL    HW138426   2.825   2.745   8.072  0.7425  0.8856  0.5354
 8989SOL    HW238427   2.818   2.627   8.158  1.5348 -0.1895 -2.0338
 8990SOL     OW38428   2.350   3.238   1.853 -0.2029 -0.0941  0.1732
 8990SOL    HW138429   2.258   3.247   1.828  0.2079  1.0961 -0.9093
 8990SOL    HW238430   2.352   3.162   1.912 -0.6350 -1.0546 -1.0582
 8991SOL     OW38431   2.871   1.954   2.243 -0.1826 -0.0025  0.0389
 8991SOL    HW138432   2.913   1.917   2.321  2.4947  1.9461 -0.4952
 8991SOL    HW238433   2.784   1.967   2.282 -0.1832  2.1834 -0.6800
 8992SOL     OW38434   1.168   1.210   8.986 -0.4975  0.0521  0.5886
 8992SOL    HW138435   1.258   1.179   8.994  0.3032  1.6359 -2.4910
 8992SOL    HW238436   1.139   1.224   9.077  0.4411  1.1269  0.7133
 8993SOL     OW38437   0.301   0.366  13.136 -0.3565 -0.2667  0.7130
 8993SOL    HW138438   0.268   0.291  13.087 -1.9292  1.1214 -0.3562
 8993SOL    HW238439   0.363   0.323  13.194  0.2908  0.3291  0.4596
 8994SOL     OW38440   0.942   1.980  10.298 -0.2332 -1.0491  0.2405
 8994SOL    HW138441   0.990   1.899  10.280  0.3964 -0.5365 -0.3871
 8994SOL    HW238442   0.958   2.040  10.225  1.7743 -1.2434  0.5107
 8995SOL     OW38443   2.147   1.123  11.986 -0.8042 -0.4480  0.1648
 8995SOL    HW138444   2.227   1.126  11.934 -0.8459  1.7363  0.2275
 8995SOL    HW238445   2.096   1.068  11.927 -2.5917  1.0647  0.2876
 8996SOL     OW38446   0.958   3.765   7.954 -0.0851  0.7483 -0.2545
 8996SOL    HW138447   0.986   3.748   8.044 -1.3503 -1.7769 -0.3457
 8996SOL    HW238448   0.957   3.861   7.945  2.2698  0.8317  0.3137
 8997SOL     OW38449   3.673   1.472   6.950  0.9873  0.2594  0.8436
 8997SOL    HW138450   3.642   1.562   6.962  2.4532  0.7019  1.2450
 8997SOL    HW238451   3.671   1.450   7.043  2.6681  0.0215  0.8290
 8998SOL     OW38452   3.997   4.712   3.364  0.0780 -0.1401  0.4581
 8998SOL    HW138453   3.907   0.016   3.382 -0.2219 -0.9679  0.1992
 8998SOL    HW238454   4.056   0.034   3.425 -1.3955  2.3333  0.0774
 8999SOL     OW38455   3.210   2.547   9.385  0.0643  0.5508 -0.2306
 8999SOL    HW138456   3.183   2.456   9.394  0.1034  0.2781 -2.8537
 8999SOL    HW238457   3.302   2.538   9.360  0.1556  1.5260 -0.2507
 9000SOL     OW38458   1.411   0.371   6.184 -0.0539  0.2581  0.7979
 9000SOL    HW138459   1.483   0.419   6.144  1.2355 -0.1786  2.6066
 9000SOL    HW238460   1.421   0.388   6.277  1.1442  2.3436  0.2611
 9001SOL     OW38461   0.959   3.001  17.095 -0.3172 -0.5398 -0.0255
 9001SOL    HW138462   0.973   2.930  17.157 -0.1058  0.0422  0.5912
 9001SOL    HW238463   0.980   2.958  17.012 -1.3408  0.3508 -0.7493
 9002SOL     OW38464   0.516   3.362   2.897  0.7776  0.3553  0.2943
 9002SOL    HW138465   0.447   3.308   2.936  0.3357  0.1713 -0.7209
 9002SOL    HW238466   0.466   3.432   2.856 -0.8078 -0.6181  0.5680
 9003SOL     OW38467   4.488   2.215   8.084 -0.1341  0.3832  0.3659
 9003SOL    HW138468   4.404   2.217   8.130  0.2737 -0.6151  1.1595
 9003SOL    HW238469   4.547   2.179   8.150  0.0597  1.3420  0.7120
 9004SOL     OW38470   3.270   2.960   8.474 -0.2971  0.3097  0.4325
 9004SOL    HW138471   3.310   3.045   8.496 -1.2455  1.1282 -1.0020
 9004SOL    HW238472   3.221   2.942   8.553  0.4277  0.7888  0.9964
 9005SOL     OW38473   1.098   0.713  14.461 -0.1929 -0.0381  0.2635
 9005SOL    HW138474   1.144   0.795  14.445  1.0694 -1.2612 -2.3629
 9005SOL    HW238475   1.141   0.682  14.541  0.9712  0.2531 -0.2465
 9006SOL     OW38476   4.698   2.114   8.276  0.6622  0.1812  0.1164
 9006SOL    HW138477   0.050   2.101   8.219 -2.0627  0.5620 -3.5380
 9006SOL    HW238478   4.687   2.026   8.313  1.5124 -1.4583 -3.5663
 9007SOL     OW38479   0.253   1.853  14.982  0.4396 -0.3326 -0.1334
 9007SOL    HW138480   0.169   1.863  14.937  0.7065  0.5132 -0.4503
 9007SOL    HW238481   0.275   1.946  14.982  1.0421 -0.4722 -1.4540
 9008SOL     OW38482   1.572   4.636   9.939  0.6982 -0.0104  0.3763
 9008SOL    HW138483   1.533   4.601   9.859  0.7444  0.5510  0.1041
 9008SOL    HW238484   1.617   4.555   9.962  2.4770  0.3154 -2.0201
 9009SOL     OW38485   1.644   1.236  11.652 -0.1408 -0.0053  0.6228
 9009SOL    HW138486   1.595   1.157  11.675  1.6645 -1.1454  0.5288
 9009SOL    HW238487   1.731   1.225  11.690  1.4061  0.8533 -2.6126
 9010SOL     OW38488   2.540   0.693   3.090  0.3760 -0.3983 -0.7168
 9010SOL    HW138489   2.577   0.610   3.121 -1.1580 -1.1020 -0.7630
 9010SOL    HW238490   2.450   0.666   3.070 -0.0682 -0.7323  1.8346
 9011SOL     OW38491   0.872   2.329   0.695  0.3158 -0.7428 -0.7437
 9011SOL    HW138492   0.786   2.297   0.722  0.0294  0.3075 -0.4130
 9011SOL    HW238493   0.929   2.311   0.770 -2.3134 -4.1681  0.4260
 9012SOL     OW38494   4.605   2.457   5.239  0.1947 -0.1449 -0.1617
 9012SOL    HW138495   4.699   2.474   5.234  0.6744 -2.3290  1.4902
 9012SOL    HW238496   4.573   2.487   5.154 -1.7603 -2.2985 -0.1827
 9013SOL     OW38497   1.567   3.487   5.683 -0.4337 -0.1785 -0.0574
 9013SOL    HW138498   1.628   3.416   5.663 -1.2132 -0.8554 -0.0097
 9013SOL    HW238499   1.562   3.533   5.599  2.1921 -2.6776 -1.5728
 9014SOL     OW38500   0.039   0.347   7.383  0.3745 -0.0686  0.2512
 9014SOL    HW138501   4.720   0.363   7.298 -0.2234  1.0480  0.7433
 9014SOL    HW238502   0.050   0.437   7.414 -4.2494 -0.1606  2.2220
 9015SOL     OW38503   1.287   1.174   7.568 -0.1518  0.2094 -0.6677
 9015SOL    HW138504   1.279   1.130   7.652 -0.9312  1.5595 -0.0288
 9015SOL    HW238505   1.344   1.247   7.591  2.1832 -0.8028 -3.1900
 9016SOL     OW38506   1.375   0.389   8.515 -0.3712  0.4017 -0.5499
 9016SOL    HW138507   1.294   0.414   8.471 -2.4812 -0.8627  2.5944
 9016SOL    HW238508   1.380   0.463   8.576  2.1332 -1.7122  1.8093
 9017SOL     OW38509   1.217   3.096   3.343 -0.1605 -0.1252 -0.0796
 9017SOL    HW138510   1.272   3.024   3.373  1.4535  1.2131  0.2318
 9017SOL    HW238511   1.254   3.122   3.259  1.6868 -1.1706  0.4154
 9018SOL     OW38512   4.425   4.611   1.902  0.0862 -0.2883  0.2781
 9018SOL    HW138513   4.472   4.528   1.901 -2.5750 -1.7788  0.2984
 9018SOL    HW238514   4.436   4.647   1.990 -0.0143  1.3301 -0.3695
 9019SOL     OW38515   1.616   0.458  11.929  0.3454 -0.7436  0.4505
 9019SOL    HW138516   1.619   0.537  11.982  0.7817  0.2688 -1.0895
 9019SOL    HW238517   1.557   0.405  11.982  0.0718 -0.3557  0.5327
 9020SOL     OW38518   3.589   4.259   7.392 -0.2574  0.3395 -0.2108
 9020SOL    HW138519   3.507   4.294   7.426 -0.4251 -2.5011  2.2245
 9020SOL    HW238520   3.643   4.338   7.399 -0.0947  0.2111 -0.0148
 9021SOL     OW38521   2.786   3.816   2.731 -0.1122 -0.2745 -0.3350
 9021SOL    HW138522   2.797   3.833   2.824 -0.1821 -1.1996 -0.1492
 9021SOL    HW238523   2.734   3.735   2.727 -2.1714  1.0725 -0.8217
 9022SOL     OW38524   3.058   2.662   7.062 -0.5209 -0.0140  0.1405
 9022SOL    HW138525   3.027   2.600   7.129  0.9135  1.1317  1.8889
 9022SOL    HW238526   3.018   2.743   7.095  1.2347  0.6242  0.7013
 9023SOL     OW38527   3.052   3.979   7.051  0.2407  0.6429  0.1676
 9023SOL    HW138528   3.123   3.971   7.115  0.6837  1.7944 -0.1795
 9023SOL    HW238529   3.093   3.979   6.964  1.8459  2.4759  0.9159
 9024SOL     OW38530   0.883   1.427   1.883  0.6287 -0.0200  0.2870
 9024SOL    HW138531   0.794   1.409   1.851  1.9938  0.0604 -3.5831
 9024SOL    HW238532   0.926   1.475   1.812 -1.1593  1.4178  0.1794
 9025SOL     OW38533   2.748   2.851   4.324  0.2037 -0.5505 -0.3394
 9025SOL    HW138534   2.712   2.763   4.330 -0.4551 -0.1868  1.2037
 9025SOL    HW238535   2.711   2.889   4.404 -1.3814 -0.3445 -1.1724
 9026SOL     OW38536   3.208   4.191   7.832  0.2862  0.1051  0.4105
 9026SOL    HW138537   3.201   4.129   7.904 -1.3009 -0.0788  0.0947
 9026SOL    HW238538   3.212   4.275   7.878  0.2440 -0.0248  0.6510
 9027SOL     OW38539   2.902   3.659  11.179  0.3005 -0.1327 -0.1234
 9027SOL    HW138540   2.831   3.595  11.170  1.4832 -1.2351 -1.5020
 9027SOL    HW238541   2.957   3.618  11.112 -0.7689 -2.4579  0.4378
 9028SOL     OW38542   2.382   1.533   4.100 -0.8216 -0.1426  0.3860
 9028SOL    HW138543   2.345   1.559   4.016 -1.3544 -0.1228  0.6248
 9028SOL    HW238544   2.401   1.620   4.137  1.4302 -0.9591  1.1568
 9029SOL     OW38545   2.578   0.179   1.526 -0.7526  0.4354 -0.6506
 9029SOL    HW138546   2.657   0.232   1.515 -0.2114 -0.0099  1.0709
 9029SOL    HW238547   2.577   0.123   1.448  1.5787 -0.2332 -0.1998
 9030SOL     OW38548   1.533   0.147   8.032  0.1071  0.2682 -0.3019
 9030SOL    HW138549   1.599   0.080   8.051 -0.2104 -0.4400 -1.6915
 9030SOL    HW238550   1.528   0.187   8.119 -0.6245  1.4289 -0.8825
 9031SOL     OW38551   1.897   1.244   4.562 -0.0533 -0.0001 -0.8270
 9031SOL    HW138552   1.963   1.241   4.632 -0.3923 -0.5383 -0.5339
 9031SOL    HW238553   1.915   1.334   4.536  0.7363  0.0290 -0.1948
 9032SOL     OW38554   4.575   0.632   9.298 -0.2297 -0.5367 -0.1604
 9032SOL    HW138555   4.534   0.672   9.221 -1.4413 -3.0147 -0.8059
 9032SOL    HW238556   4.670   0.633   9.282 -0.0655  0.2029  0.8097
 9033SOL     OW38557   4.717   3.500   7.678 -0.2685 -0.2980  0.3048
 9033SOL    HW138558   0.007   3.411   7.712  1.2477 -1.0796 -2.2768
 9033SOL    HW238559   4.655   3.539   7.739 -0.4353  1.0922 -0.7326
 9034SOL     OW38560   3.601   0.423   5.484  0.2641  0.1646 -0.7510
 9034SOL    HW138561   3.575   0.431   5.393 -0.9113 -1.2066 -0.5428
 9034SOL    HW238562   3.685   0.378   5.475  0.4618  0.0820  1.3548
 9035SOL     OW38563   0.180   3.417   9.772 -0.7547  0.6236  0.6032
 9035SOL    HW138564   0.109   3.416   9.707  0.6110 -0.4904 -0.8876
 9035SOL    HW238565   0.146   3.365   9.844  0.5419  1.9694  2.1694
 9036SOL     OW38566   3.441   0.303   7.517  0.4474 -0.3573  0.2064
 9036SOL    HW138567   3.437   0.353   7.599  1.4926 -1.1342  0.7271
 9036SOL    HW238568   3.500   0.229   7.531  1.1323 -0.0951 -1.3373
 9037SOL     OW38569   3.806   1.184  13.432  0.6559 -0.4644 -1.1310
 9037SOL    HW138570   3.849   1.263  13.466  0.8090 -1.6963  1.5621
 9037SOL    HW238571   3.860   1.108  13.455  1.1499  0.7180  1.5861
 9038SOL     OW38572   3.175   4.713  11.505 -0.0643 -0.4611 -0.3386
 9038SOL    HW138573   3.227   4.703  11.426 -0.2535  2.4407 -0.8255
 9038SOL    HW238574   3.159   4.619  11.518  1.0604 -0.9462 -2.5442
 9039SOL     OW38575   1.894   4.041   5.139 -0.0504 -0.0330  0.2689
 9039SOL    HW138576   1.807   4.038   5.179 -0.5012  1.0523 -0.6432
 9039SOL    HW238577   1.872   4.096   5.064  2.3056 -0.5131 -0.7536
 9040SOL     OW38578   1.345   2.276   4.398  0.7958  0.1997  0.4828
 9040SOL    HW138579   1.406   2.202   4.400  0.0420 -0.4256  0.1813
 9040SOL    HW238580   1.414   2.331   4.361  0.5697  0.3179  0.2377
 9041SOL     OW38581   2.048   0.246  16.885 -0.3222  0.4134  0.4247
 9041SOL    HW138582   2.071   0.292  16.805  2.1458 -1.2108  0.2086
 9041SOL    HW238583   2.089   0.160  16.877  0.4783  0.7717  0.6565
 9042SOL     OW38584   2.130   3.763   5.914  0.5028 -0.4189  0.5663
 9042SOL    HW138585   2.063   3.696   5.903 -1.1875  1.6077 -1.2777
 9042SOL    HW238586   2.173   3.778   5.830 -1.6739 -1.2890 -0.7046
 9043SOL     OW38587   3.213   2.977  16.943 -0.2628 -0.2795  0.0066
 9043SOL    HW138588   3.193   2.998  17.034  1.8279  0.9565  0.1686
 9043SOL    HW238589   3.283   3.040  16.926 -0.8258 -0.2644 -2.2579
 9044SOL     OW38590   4.527   3.489   8.830  0.0530 -0.3482 -0.4610
 9044SOL    HW138591   4.511   3.575   8.867  2.7027  0.0036 -0.1487
 9044SOL    HW238592   4.484   3.442   8.901 -0.9157  0.0869 -0.7687
 9045SOL     OW38593   3.310   2.566   1.827 -0.1418  0.1575 -0.5772
 9045SOL    HW138594   3.239   2.509   1.858  1.0416 -0.7506  0.4850
 9045SOL    HW238595   3.335   2.511   1.753  0.4066 -0.1775 -0.1475
 9046SOL     OW38596   1.632   3.152   9.351  0.5321 -0.2861  0.7083
 9046SOL    HW138597   1.591   3.219   9.296  1.0285 -0.3388  0.2729
 9046SOL    HW238598   1.555   3.097   9.363  0.2715 -0.1550 -0.3482
 9047SOL     OW38599   1.117   1.318   1.164 -0.3202  0.1243 -0.0379
 9047SOL    HW138600   1.061   1.269   1.103  0.4087 -1.4875  0.5836
 9047SOL    HW238601   1.142   1.387   1.104 -3.1646  1.7223  0.6033
 9048SOL     OW38602   0.153   1.931   0.128 -0.4095  0.3565 -0.1054
 9048SOL    HW138603   0.062   1.920   0.157 -0.1513 -0.7069  0.2925
 9048SOL    HW238604   0.191   1.845   0.143  0.4478  0.7312 -0.1175
 9049SOL     OW38605   1.694   4.409  12.499  0.0936  0.3427 -0.1856
 9049SOL    HW138606   1.624   4.466  12.467  1.5067  2.2987  0.1363
 9049SOL    HW238607   1.687   4.411  12.595 -0.1842  1.3783 -0.2237
 9050SOL     OW38608   0.157   1.964   4.680 -0.5764 -0.0032  0.2704
 9050SOL    HW138609   0.117   1.974   4.766 -0.1230 -0.9259  0.5862
 9050SOL    HW238610   0.178   1.872   4.696  0.0386  0.4187  1.8406
 9051SOL     OW38611   4.671   0.916   7.793  0.5559  0.4220 -0.1058
 9051SOL    HW138612   4.588   0.883   7.826  0.9313  0.2400  0.6456
 9051SOL    HW238613   4.644   1.007   7.784  1.2129  0.6959  0.6671
 9052SOL     OW38614   1.545   1.444   8.780 -0.2579 -0.2274 -0.6032
 9052SOL    HW138615   1.520   1.491   8.700 -2.1992  1.1704  0.8231
 9052SOL    HW238616   1.585   1.367   8.738 -0.7812  0.6982 -2.8254
 9053SOL     OW38617   3.945   3.928   2.021  0.0829 -0.3239 -0.0149
 9053SOL    HW138618   4.000   3.871   2.075  0.0968 -1.9291 -1.7212
 9053SOL    HW238619   3.862   3.902   2.059  1.0558 -0.6433  1.8966
 9054SOL     OW38620   4.321   3.852   0.205 -0.3096 -0.2105  0.3750
 9054SOL    HW138621   4.306   3.808   0.289  1.2680  0.2340  0.8927
 9054SOL    HW238622   4.318   3.777   0.147 -2.4701  1.9036 -2.2252
 9055SOL     OW38623   2.329   4.264   9.066 -0.2541  0.2123 -0.7738
 9055SOL    HW138624   2.417   4.228   9.078 -0.9991 -1.0973  0.8703
 9055SOL    HW238625   2.288   4.215   9.138  0.8316 -3.0036 -2.3471
 9056SOL     OW38626   3.984   2.503  12.116 -0.7450  0.0942 -0.4153
 9056SOL    HW138627   3.972   2.560  12.192 -1.3631 -0.5576 -0.0368
 9056SOL    HW238628   3.893   2.486  12.095 -0.6775 -0.2989 -0.3966
 9057SOL     OW38629   3.776   0.094   8.426  0.4564 -0.0138 -0.0701
 9057SOL    HW138630   3.681   0.102   8.425  0.5584  1.3448  3.4562
 9057SOL    HW238631   3.803   0.139   8.346 -1.4402  0.2537 -0.5605
 9058SOL     OW38632   2.305   2.949   6.854  0.4037  0.2999  0.0893
 9058SOL    HW138633   2.363   3.025   6.851  2.3181 -1.1545  0.5050
 9058SOL    HW238634   2.361   2.873   6.865 -1.1663 -0.6834  1.4069
 9059SOL     OW38635   2.083   4.242   6.201  0.1630  0.5890 -0.0752
 9059SOL    HW138636   2.129   4.311   6.249 -1.4054  0.6507  1.3015
 9059SOL    HW238637   2.151   4.192   6.156  0.7401  0.2510  1.1907
 9060SOL     OW38638   0.644   0.376   6.648  0.6006  0.3692 -0.8782
 9060SOL    HW138639   0.631   0.298   6.594 -0.9141  0.2436 -0.3384
 9060SOL    HW238640   0.738   0.378   6.663  0.7387 -0.8194 -1.6058
 9061SOL     OW38641   2.590   4.403   9.380  0.2110 -0.1858  0.1845
 9061SOL    HW138642   2.547   4.415   9.465 -1.3647  1.4070 -0.8661
 9061SOL    HW238643   2.576   4.487   9.337 -2.8962 -0.8969 -0.1902
 9062SOL     OW38644   3.742   0.354   5.968  0.1923  0.3626 -0.0077
 9062SOL    HW138645   3.821   0.402   5.994  0.2149 -1.6309  3.4845
 9062SOL    HW238646   3.778   0.280   5.919  2.0035 -0.3517  2.4144
 9063SOL     OW38647   4.207   3.160   4.297 -0.1637  0.0065  0.3840
 9063SOL    HW138648   4.167   3.195   4.377  0.5291  0.4439  0.5363
 9063SOL    HW238649   4.297   3.193   4.296 -0.7051  1.4007 -3.6741
 9064SOL     OW38650   2.339   0.010   2.985 -0.3844  0.0264 -0.0879
 9064SOL    HW138651   2.306   0.093   2.950  0.6044 -0.0726 -1.2657
 9064SOL    HW238652   2.252   4.694   2.977 -1.6372  2.7148  0.5091
 9065SOL     OW38653   0.374   3.638   3.038 -0.9774  0.3626 -0.4132
 9065SOL    HW138654   0.289   3.632   3.081 -0.5926  0.4064  0.3540
 9065SOL    HW238655   0.397   3.726   3.068 -2.1403 -0.3325  2.4575
 9066SOL     OW38656   4.304   2.128   4.624 -0.6744  0.2723 -0.2880
 9066SOL    HW138657   4.333   2.098   4.538 -1.1184  0.7381 -0.5968
 9066SOL    HW238658   4.269   2.050   4.667 -1.5294  0.7406 -0.1341
 9067SOL     OW38659   3.925   1.967   8.923 -0.3364  0.1691  0.0926
 9067SOL    HW138660   4.014   1.939   8.944 -0.3865  1.8338  2.5447
 9067SOL    HW238661   3.885   1.886   8.892 -1.7031  1.4070 -1.3629
 9068SOL     OW38662   0.938   0.744   8.297 -0.8361 -0.2647 -0.3619
 9068SOL    HW138663   0.909   0.772   8.384 -1.3853  3.3374 -1.6642
 9068SOL    HW238664   0.865   0.685   8.280 -0.7212 -0.5765  0.2481
 9069SOL     OW38665   1.459   2.664   2.074  0.3091 -0.2224  0.3802
 9069SOL    HW138666   1.474   2.570   2.064  3.1993  0.6100 -2.8519
 9069SOL    HW238667   1.503   2.700   1.997  1.1828  0.0501  0.9974
 9070SOL     OW38668   1.917   3.637   7.755 -0.3315  0.1059 -0.0520
 9070SOL    HW138669   1.872   3.614   7.673  0.7228  0.7657 -0.8198
 9070SOL    HW238670   1.969   3.709   7.720  0.6909 -1.4443 -1.7204
 9071SOL     OW38671   2.474   3.225   4.538 -0.4375  0.1523  0.2190
 9071SOL    HW138672   2.514   3.284   4.603  1.5126 -2.2318  1.1525
 9071SOL    HW238673   2.434   3.154   4.588 -0.7486  1.5441  1.9739
 9072SOL     OW38674   2.135   0.303   7.900  0.5160  0.6043 -0.7118
 9072SOL    HW138675   2.158   0.219   7.859 -1.8536 -0.6160  0.4133
 9072SOL    HW238676   2.144   0.359   7.824 -2.0286  1.4344 -0.4053
 9073SOL     OW38677   0.686   3.776   5.917 -0.1639  0.0483  0.0943
 9073SOL    HW138678   0.684   3.871   5.907  0.0368 -0.2170 -2.5171
 9073SOL    HW238679   0.711   3.782   6.009  2.1945 -1.3614 -0.4509
 9074SOL     OW38680   2.015   4.018   6.952  0.1597  0.5793  0.4126
 9074SOL    HW138681   1.924   3.989   6.941  0.5978 -0.6506 -0.0014
 9074SOL    HW238682   2.041   4.021   6.860 -0.1328  0.4246  0.3227
 9075SOL     OW38683   4.116   3.661   5.066 -0.5713 -0.2922  0.0926
 9075SOL    HW138684   4.049   3.719   5.028 -0.1375 -0.6500 -1.2131
 9075SOL    HW238685   4.130   3.693   5.155 -1.3665  2.6680 -0.8546
 9076SOL     OW38686   1.355   1.423   6.796 -0.1510 -0.0019 -0.0789
 9076SOL    HW138687   1.391   1.338   6.821 -1.5018 -1.4768 -3.1081
 9076SOL    HW238688   1.400   1.471   6.865 -1.9340  1.7031 -0.0791
 9077SOL     OW38689   1.506   0.256   9.389 -0.2995  0.0736  0.0406
 9077SOL    HW138690   1.503   0.289   9.299 -0.1427 -1.3981 -0.4989
 9077SOL    HW238691   1.457   0.319   9.442 -0.2182  0.0357  0.1573
 9078SOL     OW38692   1.074   3.963   5.638  0.4389  0.3762 -0.0707
 9078SOL    HW138693   1.103   3.879   5.602  0.5986 -0.5516  2.2420
 9078SOL    HW238694   1.044   4.001   5.555 -2.0379 -1.9346 -0.2253
 9079SOL     OW38695   2.678   1.631   6.981  0.5697  0.1198 -0.1912
 9079SOL    HW138696   2.693   1.675   6.897  1.3506 -1.0016 -0.6409
 9079SOL    HW238697   2.585   1.608   6.983  0.9318 -1.2074  2.0668
 9080SOL     OW38698   3.467   3.016  14.925  0.5180 -0.1911  0.9255
 9080SOL    HW138699   3.529   2.943  14.935 -0.7698 -1.2560  1.1613
 9080SOL    HW238700   3.515   3.079  14.872  0.4427 -0.8585  0.0716
 9081SOL     OW38701   1.196   4.411  14.410  0.5170 -0.4601  0.0965
 9081SOL    HW138702   1.184   4.445  14.498  0.9082 -1.2191  0.4437
 9081SOL    HW238703   1.220   4.492  14.364  2.8367 -0.3624  1.5250
 9082SOL     OW38704   2.203   3.850   3.540  0.2046 -0.0201  0.0715
 9082SOL    HW138705   2.136   3.847   3.608  2.1596  2.0772  2.0761
 9082SOL    HW238706   2.209   3.945   3.525  0.3021  0.1712  1.3661
 9083SOL     OW38707   1.499   1.392   5.172 -0.0081 -0.2516  0.2510
 9083SOL    HW138708   1.567   1.404   5.238 -0.6977  0.0999  0.9094
 9083SOL    HW238709   1.548   1.410   5.092  0.3882 -1.5870  0.2035
 9084SOL     OW38710   1.106   2.066   9.455 -0.0133  0.5634 -0.0369
 9084SOL    HW138711   1.154   1.984   9.467  1.1249  1.5608  2.3560
 9084SOL    HW238712   1.111   2.113   9.538 -0.2714  2.3287 -1.0181
 9085SOL     OW38713   4.190   2.327   2.861 -0.4571 -0.0741  0.1387
 9085SOL    HW138714   4.274   2.282   2.855 -1.4845 -2.5375  4.2239
 9085SOL    HW238715   4.190   2.379   2.781 -1.2829 -0.0396  0.1604
 9086SOL     OW38716   2.247   4.504   4.520  0.3655 -0.4459 -0.2601
 9086SOL    HW138717   2.235   4.412   4.495 -2.4825 -0.1417  0.0317
 9086SOL    HW238718   2.290   4.543   4.444  0.6955 -1.5532 -0.6483
 9087SOL     OW38719   0.552   2.268  11.049 -0.0677 -0.3990 -0.4653
 9087SOL    HW138720   0.542   2.338  10.985  0.9192 -0.7315 -0.9891
 9087SOL    HW238721   0.632   2.288  11.098 -0.5918  1.6704 -0.4555
 9088SOL     OW38722   2.761   0.974  16.850 -0.2356  0.5430  0.3121
 9088SOL    HW138723   2.845   1.010  16.820 -0.2893  0.8516  0.5354
 9088SOL    HW238724   2.780   0.881  16.864  2.0153  0.9311 -0.1027
 9089SOL     OW38725   1.979   1.575   2.548 -0.0113 -0.2173 -0.4656
 9089SOL    HW138726   1.939   1.617   2.624 -0.3213 -0.4039 -0.5240
 9089SOL    HW238727   2.068   1.610   2.543  0.2853 -0.7949  0.6989
 9090SOL     OW38728   0.098   3.966  13.082 -0.1757 -0.2023 -0.0361
 9090SOL    HW138729   0.116   4.035  13.146  1.6236 -2.2904  1.7070
 9090SOL    HW238730   0.179   3.919  13.098  0.1448  0.1137 -0.7036
 9091SOL     OW38731   2.633   0.893   3.804 -0.0247  0.2761 -0.1184
 9091SOL    HW138732   2.625   0.985   3.779  1.8316 -0.2087 -2.4748
 9091SOL    HW238733   2.540   0.884   3.828 -0.2450 -0.2453 -1.1907
 9092SOL     OW38734   3.058   3.642  11.606  0.2747 -0.2411 -0.3306
 9092SOL    HW138735   3.130   3.648  11.543  0.8041  0.8141  0.3715
 9092SOL    HW238736   3.093   3.574  11.664  0.3751  0.1986  0.1195
 9093SOL     OW38737   0.887   4.284   8.479 -0.0084 -0.6964  0.3406
 9093SOL    HW138738   0.873   4.375   8.504 -1.1724  0.0321 -2.9164
 9093SOL    HW238739   0.974   4.272   8.517 -0.1985  1.5657  1.5396
 9094SOL     OW38740   4.451   1.468   0.462  0.3031 -0.1081 -0.4207
 9094SOL    HW138741   4.487   1.498   0.379 -1.0180 -1.2014 -1.3718
 9094SOL    HW238742   4.442   1.551   0.510 -1.8185 -1.1997  1.1005
 9095SOL     OW38743   1.518   1.212   6.851  0.1492  0.0283  0.2505
 9095SOL    HW138744   1.560   1.164   6.780 -0.4488  1.3302 -0.9885
 9095SOL    HW238745   1.591   1.207   6.912 -0.6814 -0.7515  1.1846
 9096SOL     OW38746   4.713   4.639  11.472 -0.3414 -0.4694  0.2998
 9096SOL    HW138747   4.669   4.682  11.399  1.4842 -0.9994 -1.1110
 9096SOL    HW238748   0.070   4.602  11.435 -0.6667  1.1303 -2.0357
 9097SOL     OW38749   3.928   0.147   7.138 -0.3002 -0.5009 -0.1187
 9097SOL    HW138750   3.842   0.116   7.110 -0.1958  0.9476 -2.0017
 9097SOL    HW238751   3.938   0.074   7.200 -1.4728  1.5871  2.5631
 9098SOL     OW38752   4.563   0.946   0.711  0.1304  0.1334  0.2780
 9098SOL    HW138753   4.538   1.028   0.754 -2.0486 -0.0343 -0.6744
 9098SOL    HW238754   4.482   0.897   0.724 -0.1932  0.7531  0.5819
 9099SOL     OW38755   0.461   0.809   1.717  0.2582 -0.1695  0.0603
 9099SOL    HW138756   0.514   0.738   1.683 -0.7268 -1.4399  1.1767
 9099SOL    HW238757   0.514   0.850   1.785 -1.8765  1.0184  1.0439
 9100SOL     OW38758   3.698   3.090   8.656 -0.1314 -0.1851  0.7315
 9100SOL    HW138759   3.695   3.114   8.748 -2.8334 -1.0655  0.8908
 9100SOL    HW238760   3.784   3.049   8.646 -0.3888 -0.8266  1.1683
 9101SOL     OW38761   1.573   1.823   8.985 -0.6003  0.4293 -0.4144
 9101SOL    HW138762   1.530   1.818   8.900  1.6891 -1.6260 -1.4720
 9101SOL    HW238763   1.564   1.730   9.007 -0.2268  0.4404 -0.2079
 9102SOL     OW38764   3.252   2.136   8.998 -0.5050 -0.4699 -0.3489
 9102SOL    HW138765   3.318   2.189   9.042 -3.2493 -0.0128  3.2435
 9102SOL    HW238766   3.206   2.202   8.946  0.6270  0.1924 -0.5084
 9103SOL     OW38767   3.482   3.953   2.864  0.5564 -0.3682 -0.7338
 9103SOL    HW138768   3.448   3.904   2.789  0.5115  0.1630 -1.0616
 9103SOL    HW238769   3.574   3.927   2.861  0.8422  0.6668 -0.9972
 9104SOL     OW38770   3.352   3.516  14.086 -0.0940  0.6217 -0.3341
 9104SOL    HW138771   3.309   3.586  14.038 -0.1341  1.1589  0.5074
 9104SOL    HW238772   3.429   3.514  14.028 -0.9947  2.1776 -1.5604
 9105SOL     OW38773   1.032   1.223  16.014 -0.0807  0.1988 -0.4638
 9105SOL    HW138774   1.089   1.247  15.941  2.4234  0.2361  1.4962
 9105SOL    HW238775   1.090   1.190  16.083 -0.8119 -2.2435 -1.0154
 9106SOL     OW38776   3.755   0.511   7.674  0.1469  0.4437  0.0032
 9106SOL    HW138777   3.839   0.517   7.721 -0.9235  2.0840  1.7309
 9106SOL    HW238778   3.688   0.493   7.739  0.6186  2.4164  1.0669
 9107SOL     OW38779   2.942   0.539   6.814 -0.5519  0.6324  0.1031
 9107SOL    HW138780   2.850   0.533   6.838 -0.6725 -0.4876 -0.6263
 9107SOL    HW238781   2.981   0.498   6.891 -0.5826 -1.6983 -1.1202
 9108SOL     OW38782   3.140   1.995  13.846 -0.2304  0.3643  0.2039
 9108SOL    HW138783   3.093   2.063  13.799 -2.3530 -1.3840 -0.1979
 9108SOL    HW238784   3.070   1.943  13.886 -0.6946  0.3086 -0.6922
 9109SOL     OW38785   2.166   4.017   5.126 -0.8844  0.0382 -0.2471
 9109SOL    HW138786   2.173   4.071   5.048 -0.2184  1.3753  0.7269
 9109SOL    HW238787   2.073   4.020   5.147 -1.1486  0.6986 -1.5592
 9110SOL     OW38788   2.766   0.605   4.625  0.1529 -0.1777  0.0406
 9110SOL    HW138789   2.809   0.593   4.541 -1.1352  1.0782 -0.7948
 9110SOL    HW238790   2.733   0.517   4.643 -1.4270  0.6983  1.4878
 9111SOL     OW38791   2.865   2.149  16.499  0.0915 -0.1698  0.1906
 9111SOL    HW138792   2.835   2.098  16.424  0.2620 -1.3617  0.9236
 9111SOL    HW238793   2.902   2.080  16.555  1.8719  1.6751  1.3087
 9112SOL     OW38794   1.773   3.302   5.580  0.3312  0.2956 -0.3482
 9112SOL    HW138795   1.759   3.233   5.515  0.6803 -2.6390  2.6867
 9112SOL    HW238796   1.757   3.254   5.661  2.4110 -0.0463 -0.1365
 9113SOL     OW38797   0.680   4.568   9.072  0.0516 -0.0071  0.4700
 9113SOL    HW138798   0.602   4.569   9.127 -1.1598 -0.3060 -1.2603
 9113SOL    HW238799   0.698   4.474   9.073 -0.6014 -0.1344 -0.1269
 9114SOL     OW38800   0.148   3.809  11.873 -0.1706  0.0734  0.2327
 9114SOL    HW138801   0.169   3.743  11.939  0.1328  0.9130  0.9718
 9114SOL    HW238802   0.062   3.842  11.899  0.6289  2.0681  0.3137
 9115SOL     OW38803   3.046   4.692   1.961  0.0460 -0.0705  0.1767
 9115SOL    HW138804   3.003   4.714   2.044 -0.1766  1.9730 -0.4840
 9115SOL    HW238805   3.129   0.017   1.970 -0.1482  0.3917 -0.5162
 9116SOL     OW38806   0.067   0.080   7.310  0.2186  0.1559 -0.0466
 9116SOL    HW138807   0.049   0.168   7.342  0.2517  0.2305 -0.2326
 9116SOL    HW238808   4.704   0.057   7.273 -2.2603  2.9879  3.9156
 9117SOL     OW38809   0.597   2.629  11.551  0.7614  0.2137 -0.3721
 9117SOL    HW138810   0.676   2.678  11.575 -0.2581  0.6706  2.0448
 9117SOL    HW238811   0.622   2.591  11.467  0.0490 -1.1894  0.0676
 9118SOL     OW38812   2.596   4.422   6.209 -0.3595 -0.0319  0.4079
 9118SOL    HW138813   2.637   4.501   6.244 -0.8056  1.0686 -1.5519
 9118SOL    HW238814   2.560   4.454   6.126  1.7999  2.8180  0.5711
 9119SOL     OW38815   1.976   4.132   0.501 -0.3277  0.1786  0.1776
 9119SOL    HW138816   1.994   4.223   0.477  0.2665  0.0438  0.1148
 9119SOL    HW238817   2.056   4.087   0.474  0.0988  0.4702  0.9688
 9120SOL     OW38818   0.259   1.526   7.412  0.3523  0.0355 -0.5096
 9120SOL    HW138819   0.171   1.532   7.449  0.3406 -3.2148  0.0058
 9120SOL    HW238820   0.311   1.537   7.492  2.1147 -2.3276 -1.3294
 9121SOL     OW38821   1.859   0.521   5.835  0.5001  0.8024  0.1018
 9121SOL    HW138822   1.913   0.528   5.913  0.2306  0.4082  0.3261
 9121SOL    HW238823   1.915   0.565   5.771 -1.0305  0.8703 -1.2104
 9122SOL     OW38824   2.410   4.227  11.675  0.0327  0.3933  0.0540
 9122SOL    HW138825   2.469   4.173  11.622  0.9737  1.1129  0.3570
 9122SOL    HW238826   2.386   4.164  11.744  0.8544  1.3058  1.1683
 9123SOL     OW38827   0.224   0.641  16.271 -0.3624 -0.1728  0.2914
 9123SOL    HW138828   0.167   0.564  16.278 -0.5086 -0.2413 -1.7412
 9123SOL    HW238829   0.195   0.683  16.190 -0.2837 -0.4076  0.1448
 9124SOL     OW38830   2.558   4.013  11.539 -0.7096  0.4796 -0.5531
 9124SOL    HW138831   2.640   3.999  11.491 -1.8357 -5.1004 -0.7742
 9124SOL    HW238832   2.603   4.005  11.624 -2.5852  2.6057  0.6441
 9125SOL     OW38833   0.630   0.232   9.811 -0.0723  0.6646  0.2060
 9125SOL    HW138834   0.535   0.241   9.810 -0.2208 -1.3364 -1.6383
 9125SOL    HW238835   0.648   0.217   9.904 -1.7745  0.7812  0.5537
 9126SOL     OW38836   1.676   0.826   5.677 -0.2175 -0.1195  0.9581
 9126SOL    HW138837   1.589   0.843   5.714 -1.3118 -2.4943 -0.4919
 9126SOL    HW238838   1.656   0.755   5.615  1.0897  1.7761 -1.6040
 9127SOL     OW38839   1.333   1.089  12.038  0.4202 -0.2099  0.3150
 9127SOL    HW138840   1.286   1.154  11.986  1.8742  1.1796  0.7449
 9127SOL    HW238841   1.258   1.039  12.071  0.0287  0.1972  0.0525
 9128SOL     OW38842   4.423   0.158   9.444  0.2184 -0.2514  0.0290
 9128SOL    HW138843   4.469   0.228   9.398 -0.0969 -0.6081 -0.8430
 9128SOL    HW238844   4.336   0.191   9.422  0.7580  0.4047 -1.1342
 9129SOL     OW38845   3.272   0.055   3.571  0.1731  0.4580 -0.8342
 9129SOL    HW138846   3.322   0.044   3.652 -0.8585  1.5570 -0.0561
 9129SOL    HW238847   3.341   0.087   3.513  0.1912 -1.3713 -1.8206
 9130SOL     OW38848   3.600   2.431   0.702  0.1238 -0.1338  0.1808
 9130SOL    HW138849   3.549   2.372   0.758 -0.5513  1.2793  1.0362
 9130SOL    HW238850   3.671   2.373   0.673  1.7824  1.9428  0.1639
 9131SOL     OW38851   2.246   2.391  16.849 -0.1633  0.5419  0.5513
 9131SOL    HW138852   2.165   2.341  16.837  0.3798 -0.8167  2.6890
 9131SOL    HW238853   2.283   2.386  16.761 -0.4985  0.1938  0.4309
 9132SOL     OW38854   2.522   3.817  13.100  0.0073 -0.3504 -0.6317
 9132SOL    HW138855   2.491   3.728  13.117  0.1602  0.1636  2.3810
 9132SOL    HW238856   2.596   3.802  13.040 -0.1753 -2.0198 -0.4349
 9133SOL     OW38857   0.206   3.867   5.207 -0.4429 -0.0664  0.8424
 9133SOL    HW138858   0.112   3.867   5.227 -0.1535 -1.0184  2.1957
 9133SOL    HW238859   0.211   3.779   5.171 -1.2311  0.5282 -0.7400
 9134SOL     OW38860   4.639   3.052   6.027 -0.4359  0.4610  0.1042
 9134SOL    HW138861   4.638   3.093   6.114 -0.4303  3.1196 -1.1602
 9134SOL    HW238862   4.558   3.001   6.022  1.3284 -2.1447 -2.2290
 9135SOL     OW38863   0.222   4.497  13.227 -0.1742 -0.0808  0.0901
 9135SOL    HW138864   0.127   4.487  13.224 -0.0351 -2.0990  2.1843
 9135SOL    HW238865   0.243   4.585  13.258  2.0116 -0.1853 -1.0506
 9136SOL     OW38866   3.151   0.505  15.960 -0.3629  0.5043  0.3200
 9136SOL    HW138867   3.065   0.482  15.925  0.8529 -0.8238 -1.7802
 9136SOL    HW238868   3.127   0.512  16.053  2.3946  1.5279  0.9357
 9137SOL     OW38869   4.312   2.910   6.534 -0.3225  0.2296 -0.4603
 9137SOL    HW138870   4.397   2.890   6.574 -0.0625 -1.4129 -1.8185
 9137SOL    HW238871   4.318   2.852   6.458  1.6299 -0.7891  0.4875
 9138SOL     OW38872   4.521   1.195   0.795 -0.2734 -0.1874  0.1167
 9138SOL    HW138873   4.553   1.206   0.885 -0.7789  1.7156  0.0662
 9138SOL    HW238874   4.427   1.203   0.812 -0.7957 -0.3944 -2.6811
 9139SOL     OW38875   0.562   3.485  12.851 -0.8888 -0.3444 -0.1938
 9139SOL    HW138876   0.612   3.559  12.886 -0.9217 -0.5098  0.2078
 9139SOL    HW238877   0.640   3.432  12.835  0.1422  0.1342  3.0878
 9140SOL     OW38878   0.670   3.401   5.418  0.1953  0.4904  0.3992
 9140SOL    HW138879   0.719   3.329   5.378  2.5597  1.8683  0.8757
 9140SOL    HW238880   0.635   3.371   5.502  0.1391  0.1613  0.2599
 9141SOL     OW38881   1.394   3.690   4.871 -0.6867 -0.3718  0.2792
 9141SOL    HW138882   1.349   3.659   4.950 -1.2989 -2.3574 -0.8287
 9141SOL    HW238883   1.388   3.606   4.824 -1.1686 -0.6523  0.8308
 9142SOL     OW38884   1.438   0.754   6.212 -0.3124  0.0577  0.1034
 9142SOL    HW138885   1.511   0.712   6.256 -0.3090 -0.3136 -0.2565
 9142SOL    HW238886   1.464   0.756   6.120  2.5203  0.6783  0.9082
 9143SOL     OW38887   4.535   3.814   5.431  0.6174 -0.5321 -0.0261
 9143SOL    HW138888   4.489   3.869   5.493  1.3314 -0.9675  0.9005
 9143SOL    HW238889   4.520   3.732   5.479  0.2731 -1.4286 -1.6727
 9144SOL     OW38890   4.113   2.531   3.251  0.3857 -0.8730 -0.4415
 9144SOL    HW138891   4.109   2.453   3.305 -1.4066 -0.8953 -0.6037
 9144SOL    HW238892   4.196   2.522   3.204  0.2571  0.8363 -1.0095
 9145SOL     OW38893   2.647   4.427  15.740 -1.1289 -0.0256  0.4720
 9145SOL    HW138894   2.672   4.346  15.696 -2.1359  0.6285 -1.2725
 9145SOL    HW238895   2.706   4.490  15.698  1.3333 -2.9384 -0.4005
 9146SOL     OW38896   4.404   1.032  15.811  0.4853  0.8196 -0.2877
 9146SOL    HW138897   4.468   1.098  15.838  0.2262  0.6514  0.7394
 9146SOL    HW238898   4.332   1.089  15.784  0.6682  1.8503  1.4449
 9147SOL     OW38899   3.529   3.809   6.756 -0.2817 -0.0282 -0.0135
 9147SOL    HW138900   3.597   3.756   6.714 -1.9855 -0.9505 -1.5544
 9147SOL    HW238901   3.494   3.742   6.815 -2.1702  1.2839  0.3444
 9148SOL     OW38902   2.811   4.226  17.274  0.2944 -0.2625  0.1754
 9148SOL    HW138903   2.726   4.194  17.243  0.4953 -0.3640 -0.2686
 9148SOL    HW238904   2.877   4.186  17.218 -0.4088 -2.2550  0.7727
 9149SOL     OW38905   3.413   0.649   8.585  0.5659 -0.2529 -0.0604
 9149SOL    HW138906   3.339   0.624   8.641  0.3906  1.9152  0.6894
 9149SOL    HW238907   3.386   0.740   8.571  2.2450  0.4027  0.9994
 9150SOL     OW38908   2.032   3.570  10.990  0.3647 -0.2155  0.0493
 9150SOL    HW138909   2.120   3.536  11.007 -0.1611 -1.1529  0.8732
 9150SOL    HW238910   1.982   3.493  11.016  1.1963 -0.8780 -0.3059
 9151SOL     OW38911   1.209   0.556  13.951 -0.1572 -1.1094 -0.3337
 9151SOL    HW138912   1.230   0.647  13.932 -1.9279 -0.7278 -0.4673
 9151SOL    HW238913   1.134   0.539  13.893 -1.5053 -0.4475  1.2025
 9152SOL     OW38914   0.228   0.520  11.234 -0.0349  0.4463 -0.7161
 9152SOL    HW138915   0.296   0.476  11.285 -0.0396  0.9875 -0.2533
 9152SOL    HW238916   0.228   0.611  11.262  0.0894 -0.5493  2.5065
 9153SOL     OW38917   4.523   2.514   3.516 -0.2004 -0.8615  0.3384
 9153SOL    HW138918   4.433   2.522   3.547 -0.1216 -0.3111  0.4280
 9153SOL    HW238919   4.500   2.469   3.435 -0.0757 -2.1525  1.0171
 9154SOL     OW38920   3.689   1.870   9.455 -0.0244  0.5308  0.2900
 9154SOL    HW138921   3.720   1.900   9.541  0.6848  1.7387 -0.3783
 9154SOL    HW238922   3.644   1.789   9.478  1.8014 -1.4518 -3.1666
 9155SOL     OW38923   1.014   2.166  12.515 -0.3110  0.5292 -0.0441
 9155SOL    HW138924   1.032   2.235  12.579 -0.8430 -1.2540  2.0511
 9155SOL    HW238925   1.095   2.116  12.507 -1.3681 -0.7665 -2.4657
 9156SOL     OW38926   1.601   1.548   2.322 -0.1356  0.2814 -0.1713
 9156SOL    HW138927   1.580   1.620   2.262  1.8950 -0.5759 -1.9203
 9156SOL    HW238928   1.571   1.594   2.401  1.9327  0.5330  0.4784
 9157SOL     OW38929   3.166   1.215  10.275 -0.2286 -0.2378  0.2656
 9157SOL    HW138930   3.096   1.206  10.340 -0.0032  1.0924  0.7049
 9157SOL    HW238931   3.118   1.201  10.194  0.9028 -2.8181  0.0478
 9158SOL     OW38932   2.795   0.780   6.415 -0.2545 -0.6397 -0.5645
 9158SOL    HW138933   2.872   0.823   6.377  0.3339 -1.1397  0.0745
 9158SOL    HW238934   2.828   0.698   6.451 -0.6024 -0.5534 -0.0475
 9159SOL     OW38935   0.944   1.255   3.350 -0.3331 -0.0191  0.2396
 9159SOL    HW138936   1.014   1.308   3.388  0.9752 -2.8612  1.8012
 9159SOL    HW238937   0.944   1.280   3.257  1.9012  0.1949  0.2809
 9160SOL     OW38938   4.560   2.988   5.618 -0.0196 -0.0341 -0.0161
 9160SOL    HW138939   4.558   2.912   5.677  0.1574 -1.0457 -1.3211
 9160SOL    HW238940   4.653   2.982   5.596  0.8158  1.1744  3.2089
 9161SOL     OW38941   0.962   0.919  17.306 -0.7009 -0.0364  0.2875
 9161SOL    HW138942   1.014   0.877  17.374 -0.7308 -0.4460  0.0564
 9161SOL    HW238943   0.908   0.978  17.358  1.8198  1.2511  1.4283
 9162SOL     OW38944   4.247   4.400  11.709  0.0112 -0.8736  0.3110
 9162SOL    HW138945   4.191   4.355  11.646 -2.7855 -0.8415  2.7684
 9162SOL    HW238946   4.190   4.473  11.734  0.2659 -0.5619 -0.0199
 9163SOL     OW38947   0.937   2.274   2.036  0.0901  0.7329  0.3461
 9163SOL    HW138948   0.938   2.259   2.131 -2.3985 -3.6660 -0.3394
 9163SOL    HW238949   0.959   2.188   2.000  0.6613  0.5744  1.0734
 9164SOL     OW38950   1.725   4.682  13.128  0.6455 -0.0689  0.2927
 9164SOL    HW138951   1.798   0.021  13.137  0.6007 -0.1863  1.5033
 9164SOL    HW238952   1.757   4.606  13.177  2.9227  0.9451  0.3896
 9165SOL     OW38953   2.745   4.079   5.117  0.2349 -0.0605 -0.0395
 9165SOL    HW138954   2.717   4.046   5.031 -0.9107 -2.5316  1.2684
 9165SOL    HW238955   2.712   4.169   5.111 -2.6280 -1.1504 -1.0349
 9166SOL     OW38956   0.275   1.094   3.875 -0.2799  0.0879 -0.0395
 9166SOL    HW138957   0.277   1.142   3.958 -0.8133  0.8166 -0.4421
 9166SOL    HW238958   0.184   1.115   3.855 -0.4873 -1.2244 -0.5042
 9167SOL     OW38959   3.034   2.588   5.415 -0.6526  0.2403 -0.1108
 9167SOL    HW138960   3.108   2.547   5.460 -0.7905  1.0206  0.8490
 9167SOL    HW238961   3.026   2.544   5.331  2.2767 -2.6970  1.1529
 9168SOL     OW38962   3.191   2.618   9.705  0.0590 -0.6091 -0.1869
 9168SOL    HW138963   3.256   2.645   9.770  0.2212  1.0891 -1.0697
 9168SOL    HW238964   3.192   2.689   9.642  3.0882  1.9770  2.7827
 9169SOL     OW38965   1.376   4.412   3.445  0.1206  0.0575 -0.0184
 9169SOL    HW138966   1.333   4.471   3.506  0.4076  0.2749 -0.0249
 9169SOL    HW238967   1.418   4.476   3.388  1.2192 -0.9072 -0.2918
 9170SOL     OW38968   0.372   2.855  17.631  0.3266 -0.2562  0.4165
 9170SOL    HW138969   0.444   2.893  17.681  1.4090 -0.0825 -1.2873
 9170SOL    HW238970   0.314   2.811   0.001  0.9527 -3.2075 -1.0978
 9171SOL     OW38971   1.653   3.837   9.229 -0.9709  0.3685 -0.1636
 9171SOL    HW138972   1.699   3.791   9.300 -2.2363 -1.8536 -0.8037
 9171SOL    HW238973   1.599   3.767   9.195 -2.3359  0.5113  1.6781
 9172SOL     OW38974   0.006   4.447   8.852 -0.0995 -0.3094  0.4277
 9172SOL    HW138975   0.023   4.367   8.902 -3.5471 -1.5053 -0.3510
 9172SOL    HW238976   4.654   4.483   8.899 -0.2769  0.0439 -0.1321
 9173SOL     OW38977   2.166   3.384  14.270 -0.3252  0.0201  0.3276
 9173SOL    HW138978   2.209   3.406  14.187 -0.8113  1.2467  0.4003
 9173SOL    HW238979   2.105   3.457  14.286 -0.6990  0.0421 -1.1963
 9174SOL     OW38980   1.833   3.573   8.854 -0.7984  0.3260 -0.2509
 9174SOL    HW138981   1.910   3.626   8.876  0.5099 -0.5329 -2.8094
 9174SOL    HW238982   1.836   3.593   8.761  0.7316  0.4081 -0.1874
 9175SOL     OW38983   1.043   2.138   5.831 -0.0677  0.2980 -0.2888
 9175SOL    HW138984   1.123   2.093   5.803 -0.6438 -0.2285 -1.0985
 9175SOL    HW238985   1.059   2.230   5.812 -0.7190  0.3063 -0.8086
 9176SOL     OW38986   2.557   2.107  13.189 -0.4336 -0.1466 -0.4167
 9176SOL    HW138987   2.502   2.165  13.241 -0.3408  0.7595 -1.3241
 9176SOL    HW238988   2.643   2.085  13.225 -0.8992  2.3650  2.2850
 9177SOL     OW38989   2.448   3.125  12.536 -0.3242  0.1542 -0.0037
 9177SOL    HW138990   2.440   3.116  12.631  3.4066 -1.9776  0.0818
 9177SOL    HW238991   2.543   3.137  12.530 -0.1802 -1.5417 -1.1573
 9178SOL     OW38992   0.064   4.352  16.469 -0.0679  0.1402 -0.4246
 9178SOL    HW138993   0.135   4.293  16.442 -0.0567  0.2117 -0.5530
 9178SOL    HW238994   0.107   4.394  16.544  0.8445 -1.1335 -0.2334
 9179SOL     OW38995   3.744   1.931   9.717 -0.2305 -0.1089  0.4334
 9179SOL    HW138996   3.759   1.897   9.805  0.1057  1.5593  1.0172
 9179SOL    HW238997   3.767   2.020   9.744 -1.0097  0.5462 -1.0365
 9180SOL     OW38998   0.011   3.171  14.585  0.4720  0.3578 -0.4752
 9180SOL    HW138999   4.719   3.085  14.547 -0.3285  0.4854 -0.4604
 9180SOL    HW239000   0.073   3.216  14.527  0.3131 -0.6814 -1.4385
 9181SOL     OW39001   1.327   3.861   7.162 -0.3167  0.0444 -0.2007
 9181SOL    HW139002   1.249   3.876   7.108 -1.1012 -1.9199  0.3907
 9181SOL    HW239003   1.319   3.766   7.173  1.4510  0.1536  1.9804
 9182SOL     OW39004   1.311   0.027   7.127 -0.0866  0.3661  0.5057
 9182SOL    HW139005   1.401   0.029   7.161  0.1016 -2.0206  0.1573
 9182SOL    HW239006   1.268   0.042   7.211 -1.4788 -1.2161  0.0701
 9183SOL     OW39007   1.726   3.133   6.734  0.1553  0.3187  0.9893
 9183SOL    HW139008   1.635   3.109   6.753  0.6915 -2.2014  0.3967
 9183SOL    HW239009   1.754   3.049   6.698  1.8164  0.7325  1.3292
 9184SOL     OW39010   4.056   0.732   8.530 -0.0454 -0.5132 -0.1847
 9184SOL    HW139011   4.091   0.647   8.505 -1.8956 -1.8097  1.6720
 9184SOL    HW239012   4.067   0.774   8.445  3.7041  0.3853  0.7235
 9185SOL     OW39013   4.424   3.539   4.456  0.2173 -0.4213  0.5358
 9185SOL    HW139014   4.397   3.545   4.548  0.8372 -1.3775  0.7844
 9185SOL    HW239015   4.455   3.629   4.439  0.9999 -0.3729  2.1818
 9186SOL     OW39016   1.814   2.473   5.003  0.5480  0.0323 -0.3298
 9186SOL    HW139017   1.757   2.433   4.937  2.1772  0.4445 -1.9844
 9186SOL    HW239018   1.851   2.396   5.045  0.3767  0.8855  1.3532
 9187SOL     OW39019   0.493   1.402   4.126 -0.0045  0.0761 -0.0152
 9187SOL    HW139020   0.552   1.342   4.171  0.8903  0.6577 -0.4056
 9187SOL    HW239021   0.539   1.485   4.134 -0.2822  0.3731 -1.3679
 9188SOL     OW39022   0.942   2.582   6.079 -0.6004 -0.2608 -0.4582
 9188SOL    HW139023   1.018   2.579   6.022  0.1763 -0.1656  0.5692
 9188SOL    HW239024   0.942   2.500   6.128 -3.0612  0.2721  0.4377
 9189SOL     OW39025   4.006   3.706  13.148 -0.2974  0.1635  0.7804
 9189SOL    HW139026   4.068   3.640  13.117 -0.0708  0.2108  1.1298
 9189SOL    HW239027   4.039   3.786  13.108  0.4245  0.9256  2.8923
 9190SOL     OW39028   2.311   0.614   6.816 -0.1702 -0.3376  0.0614
 9190SOL    HW139029   2.357   0.672   6.756  1.2019 -1.9036 -0.4084
 9190SOL    HW239030   2.314   0.664   6.898  0.4650 -0.5190  0.1473
 9191SOL     OW39031   1.011   1.951   6.390 -0.2793  0.0850 -0.6936
 9191SOL    HW139032   0.919   1.927   6.375 -0.1913 -0.2357 -0.7011
 9191SOL    HW239033   1.049   1.867   6.366  1.0972  0.2545  0.9412
 9192SOL     OW39034   3.320   4.507   6.757  0.1532 -0.1092 -0.4749
 9192SOL    HW139035   3.339   4.589   6.804 -2.0068  1.0269 -1.5546
 9192SOL    HW239036   3.281   4.542   6.677  0.5694  1.0928 -0.1503
 9193SOL     OW39037   2.349   3.376   7.294  0.3002 -0.4521 -0.6353
 9193SOL    HW139038   2.402   3.435   7.239 -0.1694  2.7559  2.3536
 9193SOL    HW239039   2.428   3.336   7.332  0.4967  1.0519  0.5449
 9194SOL     OW39040   0.092   1.119   0.927  0.3516 -0.1348 -1.0149
 9194SOL    HW139041   0.096   1.023   0.934 -1.1097 -0.1371 -0.3256
 9194SOL    HW239042   0.015   1.133   0.981  2.4098 -0.4244  2.0013
 9195SOL     OW39043   0.181   1.568   3.131  0.4798  0.1012  0.3348
 9195SOL    HW139044   0.226   1.612   3.059 -1.4690  1.1223 -0.2461
 9195SOL    HW239045   0.092   1.599   3.115  1.6769  1.5681 -3.3932
 9196SOL     OW39046   1.752   3.844   1.836  0.2607  0.4661  0.0469
 9196SOL    HW139047   1.716   3.891   1.761 -2.2466 -1.4279  0.0647
 9196SOL    HW239048   1.676   3.862   1.892 -0.8312  0.9624 -1.6186
 9197SOL     OW39049   4.232   0.376  14.151 -0.5012 -0.4237  0.4442
 9197SOL    HW139050   4.165   0.387  14.084 -2.7076  2.2397  3.0969
 9197SOL    HW239051   4.185   0.347  14.229 -0.3018 -0.0114  0.7179
 9198SOL     OW39052   2.639   3.449   9.470 -0.2555  0.0144 -0.4955
 9198SOL    HW139053   2.677   3.472   9.385  0.3839  1.4513  0.1866
 9198SOL    HW239054   2.704   3.501   9.517 -1.4851 -0.3895  1.6315
 9199SOL     OW39055   2.536   0.394   7.944 -0.5987  0.0554  0.4146
 9199SOL    HW139056   2.538   0.308   7.985 -1.3469  0.4765  1.3292
 9199SOL    HW239057   2.524   0.370   7.852 -1.6087 -1.6276  0.9906
 9200SOL     OW39058   3.799   2.733   8.237 -0.3104  0.1836 -0.4646
 9200SOL    HW139059   3.851   2.793   8.184  0.6748 -1.2861 -1.1749
 9200SOL    HW239060   3.859   2.714   8.309 -2.5655 -1.8179  0.9109
 9201SOL     OW39061   4.293   2.080   1.851  0.3886  0.0111 -0.3509
 9201SOL    HW139062   4.280   2.157   1.907 -0.2001 -0.2258 -0.1738
 9201SOL    HW239063   4.380   2.047   1.874  0.3607 -0.6122 -1.1517
 9202SOL     OW39064   3.412   3.794   2.674  0.1893  0.0909 -0.3854
 9202SOL    HW139065   3.327   3.834   2.657  0.8027  0.6618 -2.1537
 9202SOL    HW239066   3.423   3.736   2.598 -2.6391 -1.9495  0.7871
 9203SOL     OW39067   2.315   0.035  12.849  0.2050  0.1277 -0.0943
 9203SOL    HW139068   2.356   0.077  12.924 -1.3957  0.4385  0.6052
 9203SOL    HW239069   2.329   0.090  12.772 -0.2144 -0.2635 -0.4485
 9204SOL     OW39070   0.941   2.357  17.423 -0.0529 -0.1373  0.2197
 9204SOL    HW139071   0.908   2.382  17.337  0.9104 -0.1780 -0.1528
 9204SOL    HW239072   0.919   2.264  17.417 -1.6374  0.2262  0.1912
 9205SOL     OW39073   3.011   0.017   6.635 -0.2809  0.6314  0.2061
 9205SOL    HW139074   2.973   4.652   6.628 -0.7056  0.9326 -1.2477
 9205SOL    HW239075   3.063   0.024   6.555 -0.3226  1.2040  0.2271
 9206SOL     OW39076   2.697   2.477  13.136 -0.0811  0.5109 -0.5542
 9206SOL    HW139077   2.742   2.394  13.119  0.1613  0.4267  0.5022
 9206SOL    HW239078   2.612   2.471  13.094  0.5195 -0.4166 -1.6477
 9207SOL     OW39079   1.585   0.326   7.078  0.0152  0.5682  0.5692
 9207SOL    HW139080   1.578   0.241   7.123  1.9406  0.2071  0.1706
 9207SOL    HW239081   1.496   0.362   7.072  0.0035  0.0570 -2.3491
 9208SOL     OW39082   1.510   0.854   9.156 -0.1721  0.0344 -0.2783
 9208SOL    HW139083   1.456   0.848   9.235 -2.1600  0.5111 -1.6057
 9208SOL    HW239084   1.590   0.841   9.208 -0.7127 -0.0030  0.5465
 9209SOL     OW39085   1.386   4.285   2.051  0.3766  1.0166  0.7715
 9209SOL    HW139086   1.298   4.304   2.016 -0.2279  0.5027  2.0132
 9209SOL    HW239087   1.428   4.368   2.028 -1.5241  2.1981  1.5150
 9210SOL     OW39088   2.833   2.413  15.339 -0.4991  0.0673 -0.4321
 9210SOL    HW139089   2.795   2.487  15.385 -0.5355  0.5074 -1.1632
 9210SOL    HW239090   2.921   2.403  15.377 -1.0204  2.3624  1.3652
 9211SOL     OW39091   0.659   4.392  17.409  0.2647 -0.0333 -0.1755
 9211SOL    HW139092   0.652   4.300  17.384 -2.4620  0.0384  0.2813
 9211SOL    HW239093   0.621   4.439  17.334 -0.5809 -0.3571  0.0475
 9212SOL     OW39094   3.409   2.511   4.539  0.0040  0.0009 -0.2084
 9212SOL    HW139095   3.451   2.562   4.608  0.0791 -1.7343  1.0290
 9212SOL    HW239096   3.345   2.472   4.599  1.0546 -1.1322  0.1817
 9213SOL     OW39097   1.195   1.827   6.656  0.1606 -0.0847  0.6316
 9213SOL    HW139098   1.206   1.842   6.562  1.5622 -0.6974  0.7027
 9213SOL    HW239099   1.164   1.737   6.656 -0.3163  0.0802 -0.9344
 9214SOL     OW39100   3.213   2.153   9.600  0.1539 -0.2728 -0.1201
 9214SOL    HW139101   3.299   2.126   9.632 -0.3686 -0.0544  1.4656
 9214SOL    HW239102   3.153   2.098   9.650  0.5075 -1.0794 -0.5902
 9215SOL     OW39103   0.109   3.439   7.211 -0.3185 -0.8674 -0.2725
 9215SOL    HW139104   0.151   3.354   7.198  1.3414 -0.1611  0.4094
 9215SOL    HW239105   0.069   3.427   7.297  0.7552  2.1489  0.6769
 9216SOL     OW39106   1.807   4.685  12.317  0.0408  0.1725  0.6678
 9216SOL    HW139107   1.737   0.028  12.309 -0.9232 -0.7766  1.2988
 9216SOL    HW239108   1.826   4.668  12.225  2.3988  0.3827  1.1180
 9217SOL     OW39109   3.018   3.401   4.435  0.1806 -0.1043 -0.0712
 9217SOL    HW139110   3.042   3.322   4.388  0.8182  0.2178 -0.2899
 9217SOL    HW239111   3.008   3.464   4.363 -1.0064 -1.1839 -0.8527
 9218SOL     OW39112   3.762   3.682   4.403 -0.1748  0.0781  0.4438
 9218SOL    HW139113   3.705   3.631   4.461 -0.3170 -1.9220 -1.5004
 9218SOL    HW239114   3.785   3.610   4.345 -1.8021  0.4641 -0.6657
 9219SOL     OW39115   1.029   4.501   4.143 -0.1957 -0.3094 -0.2435
 9219SOL    HW139116   0.960   4.550   4.189 -0.3150  1.7827 -2.6238
 9219SOL    HW239117   1.046   4.422   4.193  0.1599 -1.5353 -2.3018
 9220SOL     OW39118   0.186   4.122   0.234  0.3127  0.3369 -0.7280
 9220SOL    HW139119   0.236   4.111   0.315  3.1996 -0.3871 -2.6302
 9220SOL    HW239120   0.247   4.084   0.171  0.2147  1.9334 -1.7751
 9221SOL     OW39121   0.155   0.947   2.455 -0.6641 -0.2746  0.4024
 9221SOL    HW139122   0.093   1.017   2.477 -2.0758 -1.5618  0.5166
 9221SOL    HW239123   0.103   0.866   2.449  2.1757 -2.0535 -0.1500
 9222SOL     OW39124   3.458   3.677  10.030 -0.1857  0.2961 -0.1497
 9222SOL    HW139125   3.384   3.641   9.983  0.2389 -2.2932  1.1529
 9222SOL    HW239126   3.404   3.683  10.109 -1.2809 -1.4739 -0.7644
 9223SOL     OW39127   4.042   1.708  17.659  0.2605  0.5183  0.1046
 9223SOL    HW139128   4.133   1.735  17.655  0.8771 -1.5226  0.4418
 9223SOL    HW239129   4.040   1.667   0.053 -2.1505 -0.4626 -0.3956
 9224SOL     OW39130   2.284   2.044  17.692 -0.3057  0.0277  0.8711
 9224SOL    HW139131   2.242   2.075  17.611 -2.3107 -3.1510  0.7002
 9224SOL    HW239132   2.356   2.107   0.002 -0.8416  0.6289  1.1062
 9225SOL     OW39133   1.034   2.422  10.275  0.2635  0.3473 -0.5813
 9225SOL    HW139134   1.001   2.347  10.325  3.3117  0.4080  1.5540
 9225SOL    HW239135   0.958   2.474  10.250 -0.8594 -0.2943  1.4739
 9226SOL     OW39136   3.943   0.222   9.071  0.3207 -0.2549  0.1618
 9226SOL    HW139137   3.964   0.129   9.074  1.8825  0.1691  1.9426
 9226SOL    HW239138   3.847   0.212   9.070  0.0894  1.8285 -0.5303
 9227SOL     OW39139   0.541   1.849   8.211  0.8867  0.0599 -0.3227
 9227SOL    HW139140   0.554   1.776   8.151  0.7509 -0.0438 -0.2285
 9227SOL    HW239141   0.633   1.861   8.235  0.7151  0.8187 -0.0271
 9228SOL     OW39142   4.432   3.675   3.128  0.5618 -0.0711  1.0189
 9228SOL    HW139143   4.422   3.769   3.146  1.6569  0.0661  0.8986
 9228SOL    HW239144   4.341   3.646   3.119  0.3267  0.4356  1.7594
 9229SOL     OW39145   2.082   0.077   3.451 -0.1231  0.0371 -0.1945
 9229SOL    HW139146   2.099   0.064   3.544 -2.6578 -1.2202  0.0763
 9229SOL    HW239147   1.989   0.098   3.445 -0.7297 -2.7593 -0.6431
 9230SOL     OW39148   3.406   4.473   8.360  0.1018 -0.1134  0.3569
 9230SOL    HW139149   3.398   4.567   8.349 -0.9841 -0.0358  1.8213
 9230SOL    HW239150   3.328   4.440   8.403  0.9049  0.2632  2.0851
 9231SOL     OW39151   3.218   2.811  16.704  0.6667  0.4833 -0.5173
 9231SOL    HW139152   3.256   2.875  16.764  0.0686  1.5631 -1.2783
 9231SOL    HW239153   3.127   2.841  16.695  0.5188 -0.2375 -1.4571
 9232SOL     OW39154   0.652   0.089  17.407  0.0916 -0.1209 -0.6642
 9232SOL    HW139155   0.660   0.182  17.427  1.5334 -0.1313 -1.2031
 9232SOL    HW239156   0.648   0.059  17.498  3.1057 -1.2890 -0.9168
 9233SOL     OW39157   1.271   0.248   5.986 -0.2542  0.7670  0.1494
 9233SOL    HW139158   1.314   0.284   6.063  0.9736 -1.5161  0.5097
 9233SOL    HW239159   1.202   0.197   6.029  0.8083 -1.1225 -0.4077
 9234SOL     OW39160   4.650   0.665  10.193  0.2494 -0.5580 -0.1839
 9234SOL    HW139161   4.639   0.743  10.139  3.6715  0.3519  0.4524
 9234SOL    HW239162   4.685   0.706  10.272  0.1174  3.9328 -2.4924
 9235SOL     OW39163   3.135   4.416   6.164 -0.1183 -0.0247 -0.0678
 9235SOL    HW139164   3.173   4.411   6.076 -3.8175 -0.9550 -1.6337
 9235SOL    HW239165   3.115   4.509   6.174 -0.0917 -0.0398  0.1260
 9236SOL     OW39166   3.167   2.956   6.018 -0.0105  0.6839  0.3545
 9236SOL    HW139167   3.251   3.002   6.022  0.3319  0.1110 -0.2988
 9236SOL    HW239168   3.109   3.032   6.015 -1.8989 -0.7966 -0.5149
 9237SOL     OW39169   0.154   0.903   4.662  0.0491 -0.3671  0.7947
 9237SOL    HW139170   0.166   0.811   4.688 -0.5826 -1.2198 -2.0137
 9237SOL    HW239171   0.120   0.896   4.573  0.7264 -0.6074  0.5511
 9238SOL     OW39172   3.476   0.401   5.880  0.0723 -0.3931  0.4448
 9238SOL    HW139173   3.427   0.407   5.963 -0.1132 -0.1191  0.3172
 9238SOL    HW239174   3.567   0.390   5.908 -0.3636 -3.0252  0.8059
 9239SOL     OW39175   3.394   1.241   8.144  0.0116 -0.0329  0.0006
 9239SOL    HW139176   3.338   1.181   8.194  0.8826 -2.2512 -1.6655
 9239SOL    HW239177   3.402   1.207   8.054  0.4430 -0.4033  0.1798
 9240SOL     OW39178   1.953   0.568  15.059  0.1965 -0.1313 -0.2438
 9240SOL    HW139179   1.879   0.526  15.015  0.0147  0.0419 -0.0977
 9240SOL    HW239180   1.925   0.605  15.143  1.1430  0.1579 -0.0557
 9241SOL     OW39181   3.462   3.986   3.139 -0.0343 -0.2948 -0.0044
 9241SOL    HW139182   3.402   4.056   3.168  2.3727  1.2743  1.1649
 9241SOL    HW239183   3.461   3.988   3.044  0.6380  0.1797  0.0022
 9242SOL     OW39184   1.195   1.525   9.420  0.3606  0.2585  0.1552
 9242SOL    HW139185   1.281   1.505   9.455  0.0250 -0.0544  0.8011
 9242SOL    HW239186   1.224   1.549   9.332 -0.2781 -2.1163 -0.7230
 9243SOL     OW39187   2.633   0.806  12.243 -0.3194  0.1673  0.0774
 9243SOL    HW139188   2.647   0.713  12.257 -0.9258  0.0035 -0.3999
 9243SOL    HW239189   2.538   0.808  12.227 -0.1621 -0.4077 -0.9324
 9244SOL     OW39190   2.735   2.245  15.547  0.2388 -0.1805 -0.3770
 9244SOL    HW139191   2.762   2.297  15.471 -2.0241  2.7921  0.8652
 9244SOL    HW239192   2.821   2.226  15.583  1.1726  2.4084 -1.2336
 9245SOL     OW39193   0.620   4.442   5.362  0.1488 -0.4633  0.3812
 9245SOL    HW139194   0.641   4.374   5.298  1.7870 -2.7075  3.2861
 9245SOL    HW239195   0.659   4.398   5.438 -1.2765 -0.2526  1.2399
 9246SOL     OW39196   4.126   1.277   1.845 -0.5095 -0.2994 -0.4294
 9246SOL    HW139197   4.061   1.310   1.783 -1.5057 -2.6904 -0.6561
 9246SOL    HW239198   4.081   1.211   1.899 -0.6945  1.5477  1.6840
 9247SOL     OW39199   1.587   3.422   3.332  0.2764 -0.6685  0.1534
 9247SOL    HW139200   1.632   3.485   3.388  0.4647  0.7849 -1.6641
 9247SOL    HW239201   1.498   3.448   3.356  0.2618 -0.7201  0.1560
 9248SOL     OW39202   0.599   1.444   5.312 -0.7837 -0.0619 -0.0898
 9248SOL    HW139203   0.514   1.430   5.353 -0.5649 -1.1279  0.0045
 9248SOL    HW239204   0.589   1.421   5.220 -3.1162  0.0436  0.1397
 9249SOL     OW39205   0.079   1.251   4.807  0.4504  0.0836 -0.3437
 9249SOL    HW139206   0.061   1.344   4.791 -1.1379 -0.5705 -2.2827
 9249SOL    HW239207   0.019   1.216   4.742  0.4455 -1.4548  0.4990
 9250SOL     OW39208   3.533   4.165   2.527  0.2015  0.0009  0.5468
 9250SOL    HW139209   3.522   4.155   2.622 -1.0239 -2.0369  0.1844
 9250SOL    HW239210   3.448   4.206   2.515  0.8036  0.4781 -1.9723
 9251SOL     OW39211   1.176   0.467  13.581 -0.0253  0.6688  0.0528
 9251SOL    HW139212   1.247   0.419  13.623  0.0719  0.1878 -0.6588
 9251SOL    HW239213   1.176   0.543  13.639 -2.4596  0.2244  0.6421
 9252SOL     OW39214   1.347   2.364   0.571 -0.3679 -0.0570  0.0638
 9252SOL    HW139215   1.268   2.380   0.520 -0.4343  0.2297  0.2590
 9252SOL    HW239216   1.324   2.287   0.623 -2.7130 -0.4771 -1.6210
 9253SOL     OW39217   4.073   3.195   9.166 -0.3918  0.4766 -0.0784
 9253SOL    HW139218   4.131   3.216   9.093 -1.2392 -1.3665 -1.2512
 9253SOL    HW239219   4.117   3.240   9.238 -0.2344  0.3564 -0.0993
 9254SOL     OW39220   4.364   1.009  17.167  0.3167 -0.3744 -0.0299
 9254SOL    HW139221   4.437   1.022  17.108 -0.2795 -2.0111 -1.1357
 9254SOL    HW239222   4.296   1.068  17.134 -1.6010 -2.4195  0.2383
 9255SOL     OW39223   4.642   0.988   9.087 -0.0042  0.3735  0.2468
 9255SOL    HW139224   4.622   1.053   9.019 -0.7710 -0.6227 -0.4750
 9255SOL    HW239225   4.556   0.949   9.097  0.1681  0.0822  0.6289
 9256SOL     OW39226   0.351   1.605  15.118 -0.5453  1.0002 -0.2783
 9256SOL    HW139227   0.307   1.689  15.133  0.7278  1.6274 -0.0430
 9256SOL    HW239228   0.420   1.627  15.055  2.0946  0.5641  2.4814
 9257SOL     OW39229   0.953   0.020   0.632 -0.3778 -0.0644  0.1060
 9257SOL    HW139230   0.985   4.665   0.677 -0.8595 -1.6350 -2.2474
 9257SOL    HW239231   0.996   0.004   0.548 -0.2600 -1.7340  0.4849
 9258SOL     OW39232   2.587   4.704   1.349  0.0202 -0.5449 -0.3645
 9258SOL    HW139233   2.584   4.631   1.410  1.8652  0.7345  1.2423
 9258SOL    HW239234   2.680   4.703   1.328 -0.3206  0.0121 -1.8811
 9259SOL     OW39235   0.337   3.751   8.564  0.0043 -0.1661  0.0309
 9259SOL    HW139236   0.309   3.734   8.474 -1.4160 -1.1233  0.6452
 9259SOL    HW239237   0.343   3.659   8.590  0.8760  0.2304  1.2328
 9260SOL     OW39238   0.180   4.432  16.748 -0.0381  0.2596 -0.3452
 9260SOL    HW139239   0.272   4.417  16.771 -0.6574  1.5087  2.9240
 9260SOL    HW239240   0.149   4.440  16.838 -1.6241 -1.1018 -0.7581
 9261SOL     OW39241   0.250   0.792  17.464  0.1627  0.0110  0.4526
 9261SOL    HW139242   0.324   0.850  17.483 -2.0742  2.4018  1.8921
 9261SOL    HW239243   0.232   0.770  17.556 -0.3370 -1.5770 -0.0293
 9262SOL     OW39244   1.226   4.515  15.864 -0.2115  0.1578  0.0912
 9262SOL    HW139245   1.204   4.522  15.771 -0.3194 -3.2043 -0.1474
 9262SOL    HW239246   1.253   4.423  15.863 -2.1838 -0.4771  2.9453
 9263SOL     OW39247   2.309   3.393   9.084  0.6004  0.3121 -0.5352
 9263SOL    HW139248   2.299   3.475   9.131 -1.3687 -0.7194  0.8784
 9263SOL    HW239249   2.240   3.335   9.115  0.5434  0.4012 -0.4968
 9264SOL     OW39250   0.484   2.638   2.768 -0.2171  0.1636 -0.4971
 9264SOL    HW139251   0.432   2.612   2.844  2.3448 -0.0688  1.1991
 9264SOL    HW239252   0.454   2.728   2.759  1.1010  0.5112 -1.5225
 9265SOL     OW39253   4.325   0.640   6.882 -0.5128  0.1531  0.0191
 9265SOL    HW139254   4.282   0.622   6.798  2.9891  0.1499 -1.7627
 9265SOL    HW239255   4.410   0.668   6.848 -0.1237 -1.6369 -0.5062
 9266SOL     OW39256   1.453   2.151   3.187  0.3183 -0.1215  0.3287
 9266SOL    HW139257   1.534   2.198   3.205 -0.1610  0.3182  1.3125
 9266SOL    HW239258   1.403   2.165   3.267  0.3668  0.1404  0.3143
 9267SOL     OW39259   2.928   1.843   7.444 -0.9774 -0.2562  0.5349
 9267SOL    HW139260   2.912   1.931   7.478  1.6685  0.4774 -0.1568
 9267SOL    HW239261   2.874   1.804   7.514  0.7891 -0.4732  1.7810
 9268SOL     OW39262   4.605   0.675   8.724 -0.0542  0.1750  0.3890
 9268SOL    HW139263   4.537   0.617   8.691 -0.5420  0.3796  1.0370
 9268SOL    HW239264   4.626   0.721   8.642 -0.9791 -0.0835  0.0126
 9269SOL     OW39265   1.784   2.183   8.857  0.3324 -0.0740  0.1261
 9269SOL    HW139266   1.811   2.271   8.829  0.4626  0.2704  1.3418
 9269SOL    HW239267   1.817   2.138   8.779  0.5991  0.1708  0.0935
 9270SOL     OW39268   3.199   4.296   1.694  0.5741  0.2001 -0.2706
 9270SOL    HW139269   3.144   4.343   1.632 -1.4480 -2.5635 -0.5755
 9270SOL    HW239270   3.160   4.322   1.778  1.5024  0.0013  0.2333
 9271SOL     OW39271   0.204   1.726   9.053 -0.4013 -0.4140  0.6555
 9271SOL    HW139272   0.115   1.758   9.068 -0.5157 -0.2746 -0.2965
 9271SOL    HW239273   0.221   1.671   9.130  0.5332 -0.4194  0.4499
 9272SOL     OW39274   3.081   1.666   9.265  0.1564  0.1701 -0.0144
 9272SOL    HW139275   3.113   1.706   9.346  0.3828  1.6348 -0.8393
 9272SOL    HW239276   3.159   1.615   9.242 -0.5759  0.0761 -2.2457
 9273SOL     OW39277   4.099   2.427  15.330 -0.0611  0.4395  0.0785
 9273SOL    HW139278   4.073   2.336  15.324  1.9107 -0.1390  0.1763
 9273SOL    HW239279   4.143   2.429  15.415  1.0355 -0.0209 -0.4808
 9274SOL     OW39280   3.045   0.068  13.542 -0.0322 -0.4305 -0.1514
 9274SOL    HW139281   3.074   0.140  13.598 -2.3261 -0.5276  1.1516
 9274SOL    HW239282   3.131   0.068  13.499  1.6511  2.0256  3.1445
 9275SOL     OW39283   1.176   2.984  15.627  0.2746  0.3623 -0.2164
 9275SOL    HW139284   1.201   3.037  15.551  0.0181  1.6508  0.5969
 9275SOL    HW239285   1.091   2.957  15.594 -0.1631  0.2282  1.0464
 9276SOL     OW39286   0.683   2.737   1.621  0.5636  0.3528  0.0331
 9276SOL    HW139287   0.675   2.705   1.532  0.6917 -0.4230  0.2978
 9276SOL    HW239288   0.715   2.826   1.604  0.1142  0.4314 -0.3845
 9277SOL     OW39289   0.237   2.350  15.210 -0.9914  0.5823 -0.1145
 9277SOL    HW139290   0.307   2.308  15.261 -0.0336  1.5723 -0.6108
 9277SOL    HW239291   0.281   2.392  15.136 -2.3096  0.8898 -0.7054
 9278SOL     OW39292   3.056   0.543  14.045  0.3721  0.7258 -0.3507
 9278SOL    HW139293   3.116   0.536  13.971  1.7362 -1.8137  0.9847
 9278SOL    HW239294   3.114   0.518  14.117  0.9011 -1.1595 -1.4218
 9279SOL     OW39295   3.616   1.150   2.576 -0.1205  0.2522 -0.1922
 9279SOL    HW139296   3.583   1.071   2.618 -3.2673  1.9816  0.5863
 9279SOL    HW239297   3.550   1.171   2.510 -0.7198 -1.8728 -0.2380
 9280SOL     OW39298   2.074   3.170   1.820  0.0724  0.0465  0.1983
 9280SOL    HW139299   2.108   3.081   1.818  1.6155  0.6053  1.1321
 9280SOL    HW239300   2.010   3.164   1.749 -1.9023 -1.4651  2.0979
 9281SOL     OW39301   3.981   0.931   1.246  0.0099 -0.4045 -0.3194
 9281SOL    HW139302   4.072   0.910   1.223  0.7109  0.4220  1.6600
 9281SOL    HW239303   3.938   0.846   1.252  1.0075 -0.9377 -0.8515
 9282SOL     OW39304   1.215   2.252   6.951  0.5915  0.5837  0.1287
 9282SOL    HW139305   1.158   2.267   6.875  0.0191  0.3183  0.5090
 9282SOL    HW239306   1.234   2.160   6.936  1.3363  1.0627 -1.9000
 9283SOL     OW39307   1.475   2.987   7.144  0.4358  0.1588 -0.6686
 9283SOL    HW139308   1.561   2.952   7.120  1.3328  2.0654 -0.2918
 9283SOL    HW239309   1.490   3.016   7.234  1.4771 -1.0825 -0.4336
 9284SOL     OW39310   1.231   0.361   6.687 -0.3378  0.1288  0.8822
 9284SOL    HW139311   1.256   0.375   6.779 -0.9770 -2.4753  1.4565
 9284SOL    HW239312   1.182   0.442   6.677 -2.5018 -1.4071 -0.9333
 9285SOL     OW39313   0.878   2.864   2.407 -0.8467  0.0607 -0.1324
 9285SOL    HW139314   0.803   2.807   2.392 -0.2518 -0.8803  0.4140
 9285SOL    HW239315   0.931   2.839   2.332  0.8876 -1.4562  1.5795
 9286SOL     OW39316   1.451   2.571  16.029  0.0703  0.2296  0.1577
 9286SOL    HW139317   1.467   2.664  16.039 -0.9843  0.5636 -1.0976
 9286SOL    HW239318   1.459   2.566  15.933  0.8836  1.0867  0.1842
 9287SOL     OW39319   1.978   2.262   5.502  0.4241  0.4835 -0.0515
 9287SOL    HW139320   2.012   2.347   5.472 -0.6605  0.4743 -1.2970
 9287SOL    HW239321   2.046   2.242   5.567 -0.4726 -1.2996  0.3113
 9288SOL     OW39322   0.348   2.409   7.379  0.4643  0.2930 -0.4758
 9288SOL    HW139323   0.423   2.464   7.399  0.1530 -0.2622  2.1468
 9288SOL    HW239324   0.277   2.440   7.435  0.3389  1.7381 -1.4316
 9289SOL     OW39325   1.453   4.460   8.283  0.0292 -0.4861 -0.5992
 9289SOL    HW139326   1.476   4.484   8.372 -1.6556 -0.8202 -0.0747
 9289SOL    HW239327   1.368   4.503   8.277  0.9994  1.5129  0.1320
 9290SOL     OW39328   0.989   1.957   8.894 -0.2004 -0.2184 -0.2083
 9290SOL    HW139329   1.059   1.986   8.953 -0.6265 -0.9740  0.6749
 9290SOL    HW239330   0.975   1.876   8.944  0.8963  0.1043  0.6265
 9291SOL     OW39331   2.239   3.064  14.244  0.6698 -0.1583 -0.5456
 9291SOL    HW139332   2.290   3.011  14.183 -0.0996  0.7598 -1.9838
 9291SOL    HW239333   2.150   3.062  14.208 -0.2559  2.4246  1.5975
 9292SOL     OW39334   0.257   4.069  12.025  0.7621 -0.1909  0.0290
 9292SOL    HW139335   0.262   4.085  12.119  1.8429  0.4869 -0.1431
 9292SOL    HW239336   0.279   3.976  12.030 -1.6290 -0.6960  1.2994
 9293SOL     OW39337   1.507   3.101   7.402 -0.1183 -0.6644 -0.2404
 9293SOL    HW139338   1.567   3.159   7.450 -1.0898  2.3808 -2.7046
 9293SOL    HW239339   1.428   3.121   7.451 -0.1066 -1.0045 -0.0830
 9294SOL     OW39340   4.112   0.253   0.086 -0.0471  0.8533 -0.2478
 9294SOL    HW139341   4.194   0.252   0.036 -0.7605 -3.0975 -1.3423
 9294SOL    HW239342   4.121   0.184   0.152 -0.9735  0.7171 -0.2631
 9295SOL     OW39343   2.959   3.980   1.797  0.4580  0.1318  0.2939
 9295SOL    HW139344   3.038   3.997   1.746 -0.7807  0.9419 -1.3557
 9295SOL    HW239345   2.912   4.062   1.781  1.8564  0.7867 -0.5308
 9296SOL     OW39346   0.100   1.569   5.012  0.3688 -0.2104  0.3540
 9296SOL    HW139347   0.058   1.640   5.061 -0.3715 -0.1422 -0.3787
 9296SOL    HW239348   0.186   1.610   5.022 -0.0815  1.2018 -1.4582
 9297SOL     OW39349   1.996   3.923  12.353  0.8038  0.1326  0.3006
 9297SOL    HW139350   2.047   4.003  12.338  0.4498 -0.1625 -2.4422
 9297SOL    HW239351   2.033   3.899  12.437 -0.5359 -0.2839  0.7716
 9298SOL     OW39352   3.868   2.740   6.579  0.0556  0.2431 -0.5463
 9298SOL    HW139353   3.823   2.745   6.663 -0.6120 -3.2026 -0.7019
 9298SOL    HW239354   3.800   2.690   6.535  2.0159 -2.7405 -0.1752
 9299SOL     OW39355   1.794   3.652  14.227 -0.3255  0.2367  0.2792
 9299SOL    HW139356   1.798   3.746  14.214 -1.6576  0.4287  1.2739
 9299SOL    HW239357   1.877   3.639  14.272  0.4403  0.4724 -1.0817
 9300SOL     OW39358   0.262   1.857   7.537  0.0158  0.0530 -0.0228
 9300SOL    HW139359   0.171   1.852   7.567 -0.1799 -0.2899 -0.6778
 9300SOL    HW239360   0.276   1.765   7.515 -2.7303 -0.4125  0.2040
 9301SOL     OW39361   2.943   0.312   8.768  0.2109  0.1407 -0.4675
 9301SOL    HW139362   2.909   0.286   8.854  0.1966  0.5112 -0.3612
 9301SOL    HW239363   3.033   0.322   8.796 -0.6100  0.7006  1.9588
 9302SOL     OW39364   0.852   0.036   5.208 -0.1394  0.0908  0.4778
 9302SOL    HW139365   0.786   0.038   5.139  0.1552  1.6947  0.2393
 9302SOL    HW239366   0.798   0.027   5.286 -0.8564  0.2316 -0.0029
 9303SOL     OW39367   4.416   0.943   5.778 -0.6992 -0.0209 -0.5500
 9303SOL    HW139368   4.357   0.868   5.777  0.6574 -1.0869  0.2215
 9303SOL    HW239369   4.357   1.001   5.827  0.2858 -1.4897  2.4000
 9304SOL     OW39370   4.253   2.815   8.596  0.0373  0.3303  0.4652
 9304SOL    HW139371   4.338   2.771   8.591  0.8048  1.8318  0.1621
 9304SOL    HW239372   4.260   2.865   8.678 -1.4078  1.8566 -0.3517
 9305SOL     OW39373   0.664   3.942   1.750 -0.1691  0.3039  0.1068
 9305SOL    HW139374   0.622   4.025   1.728 -1.1762 -0.2129  0.0731
 9305SOL    HW239375   0.699   3.913   1.667 -1.8586  1.5068 -1.0277
 9306SOL     OW39376   3.600   2.863   7.497  0.3940  0.1026  0.0669
 9306SOL    HW139377   3.560   2.949   7.488 -0.4787 -0.3062  0.0491
 9306SOL    HW239378   3.603   2.846   7.591 -2.0665 -0.5714  0.0341
 9307SOL     OW39379   4.719   3.691   4.417 -0.1822  0.7104 -0.1073
 9307SOL    HW139380   0.080   3.646   4.428 -0.2071  0.6733 -0.0689
 9307SOL    HW239381   0.027   3.781   4.409  0.5037  0.5062  0.2525
 9308SOL     OW39382   1.226   3.078   5.089  0.3915  0.3854 -0.0183
 9308SOL    HW139383   1.140   3.047   5.118 -0.2704  3.2642  1.0484
 9308SOL    HW239384   1.267   2.994   5.068  0.4170  0.6975 -1.1721
 9309SOL     OW39385   3.213   1.614   1.648 -0.4076  0.8693 -0.0575
 9309SOL    HW139386   3.293   1.644   1.605  0.3746  0.7787  1.3219
 9309SOL    HW239387   3.165   1.676   1.594 -0.2906 -0.9965 -2.2937
 9310SOL     OW39388   3.582   0.875   8.113 -0.0744 -0.1107 -0.0922
 9310SOL    HW139389   3.536   0.792   8.111 -3.5465  1.7344  3.6106
 9310SOL    HW239390   3.642   0.863   8.039 -2.0325 -1.8500 -1.3783
 9311SOL     OW39391   2.490   1.934  12.242 -0.0956 -0.2611  0.1243
 9311SOL    HW139392   2.396   1.930  12.255 -0.4450 -0.1656 -2.4708
 9311SOL    HW239393   2.519   1.983  12.319 -2.7332  2.4011 -0.6198
 9312SOL     OW39394   0.419   2.946   5.582  0.2670  0.4388 -0.8350
 9312SOL    HW139395   0.368   2.872   5.612  1.3236  0.7132  1.6427
 9312SOL    HW239396   0.495   2.940   5.640 -0.3610  2.0698  0.1385
 9313SOL     OW39397   2.450   0.953  11.958  0.1087  0.6547 -0.2355
 9313SOL    HW139398   2.382   0.942  11.892 -1.0924  4.3741  0.3729
 9313SOL    HW239399   2.457   1.048  11.968 -1.3981  0.8088 -0.5189
 9314SOL     OW39400   0.380   3.206   0.713 -0.2743  0.3500 -0.0730
 9314SOL    HW139401   0.314   3.258   0.759  0.2705  0.3794  0.6776
 9314SOL    HW239402   0.361   3.117   0.742 -2.3159  1.3112  1.5926
 9315SOL     OW39403   3.578   0.513   6.726 -0.1666 -0.1813  0.3076
 9315SOL    HW139404   3.580   0.421   6.702 -0.0244  0.2980 -1.5420
 9315SOL    HW239405   3.652   0.513   6.786 -0.0271 -1.6121  0.1272
 9316SOL     OW39406   0.999   4.352   5.437 -0.0489 -0.1484  0.3262
 9316SOL    HW139407   1.037   4.395   5.360  0.6848 -0.9376  0.2489
 9316SOL    HW239408   1.013   4.259   5.421 -0.3088 -0.4181  1.7372
 9317SOL     OW39409   2.787   2.846   2.091  0.2184 -0.9013 -0.3773
 9317SOL    HW139410   2.707   2.882   2.054 -0.1179 -0.9430  0.3127
 9317SOL    HW239411   2.761   2.816   2.178  0.6441 -0.6941 -0.1800
 9318SOL     OW39412   2.990   0.310   8.269  0.3598  0.7773  0.0288
 9318SOL    HW139413   3.070   0.361   8.260 -0.5087  1.9571 -1.0679
 9318SOL    HW239414   2.932   0.360   8.326 -2.0033 -3.1925  1.1689
 9319SOL     OW39415   1.452   3.263  10.169 -0.0884  0.4147  0.9137
 9319SOL    HW139416   1.424   3.229  10.084  1.0559 -1.4862  1.2949
 9319SOL    HW239417   1.454   3.178  10.212 -1.5453 -0.1804 -0.1959
 9320SOL     OW39418   2.001   1.374   7.747  0.0059 -0.4442  0.3246
 9320SOL    HW139419   2.028   1.465   7.759 -1.4918 -0.2570  2.2410
 9320SOL    HW239420   2.014   1.373   7.652  0.2179 -0.6405  0.3545
 9321SOL     OW39421   1.391   2.000   5.363 -0.4404 -0.4283  0.0942
 9321SOL    HW139422   1.470   1.948   5.381  1.0609  1.7030 -0.3088
 9321SOL    HW239423   1.373   1.967   5.275 -1.0773 -1.4299  0.6036
 9322SOL     OW39424   0.961   0.560  11.083 -0.2284 -0.1294  0.5184
 9322SOL    HW139425   0.964   0.643  11.132  0.0553  0.8299 -1.1102
 9322SOL    HW239426   0.918   0.583  11.000 -1.3219  1.4035  1.5125
 9323SOL     OW39427   1.731   4.093   0.375 -0.5469  0.0601  0.2228
 9323SOL    HW139428   1.738   4.033   0.300 -0.2837 -0.9536  1.0629
 9323SOL    HW239429   1.815   4.089   0.421  0.2237  2.2090 -0.9607
 9324SOL     OW39430   0.396   2.075   8.575  0.0583  0.1682  0.1738
 9324SOL    HW139431   0.365   2.145   8.518  0.4884 -0.2100 -0.5303
 9324SOL    HW239432   0.345   2.003   8.537  0.6487 -0.1202 -0.0855
 9325SOL     OW39433   2.040   4.291   8.157 -0.3808  0.8641 -0.1780
 9325SOL    HW139434   2.005   4.338   8.232  2.3342  1.7776  0.5014
 9325SOL    HW239435   2.043   4.203   8.195  0.3051  0.5848 -0.8724
 9326SOL     OW39436   3.583   4.709   4.207 -0.0506 -0.2721  0.2540
 9326SOL    HW139437   3.677   4.693   4.201 -0.1986 -0.1610 -2.4346
 9326SOL    HW239438   3.565   4.715   4.301 -0.4032  0.4623  0.1431
 9327SOL     OW39439   2.324   4.685   0.425 -0.4027 -0.3345  0.4954
 9327SOL    HW139440   2.409   0.002   0.407 -0.2774  0.0750  2.0745
 9327SOL    HW239441   2.273   0.027   0.474  1.6209  0.5377  1.4534
 9328SOL     OW39442   3.731   2.106  11.419 -0.1515  0.0564  0.3155
 9328SOL    HW139443   3.731   2.194  11.380  1.4862  0.9357  2.3643
 9328SOL    HW239444   3.636   2.090  11.416 -0.0753 -0.2250 -1.0067
 9329SOL     OW39445   4.083   0.009   6.073 -0.4301  0.1851 -0.0698
 9329SOL    HW139446   4.138   0.079   6.039  0.2293 -0.4962 -0.4154
 9329SOL    HW239447   4.136   4.704   6.149  0.1527  0.7580 -0.2670
 9330SOL     OW39448   0.018   0.007  13.690  0.6096 -0.4526  0.7140
 9330SOL    HW139449   4.719   0.048  13.773  1.7144  0.9545  0.3075
 9330SOL    HW239450   0.067   4.652  13.717 -0.1136 -0.5957  1.5991
 9331SOL     OW39451   3.800   2.151   8.739 -0.3838  0.1946  0.1033
 9331SOL    HW139452   3.805   2.247   8.736 -2.9149  0.2878 -1.0554
 9331SOL    HW239453   3.889   2.128   8.765 -0.0303 -0.7494 -1.8944
 9332SOL     OW39454   0.014   4.682   8.685 -0.3907  0.7385  0.3881
 9332SOL    HW139455   4.642   4.691   8.692 -0.5439 -0.9230  0.3688
 9332SOL    HW239456   0.039   4.665   8.776  0.1153  1.5304  0.3958
 9333SOL     OW39457   0.214   3.136   5.629 -0.1838 -0.5350 -0.4910
 9333SOL    HW139458   0.170   3.144   5.714 -1.6107 -0.5077 -1.2432
 9333SOL    HW239459   0.296   3.094   5.655 -0.0158 -0.0017 -0.1466
 9334SOL     OW39460   1.314   3.290   5.491 -0.5705  0.4013  0.3859
 9334SOL    HW139461   1.304   3.196   5.501 -1.1431  0.0321 -3.5287
 9334SOL    HW239462   1.273   3.317   5.573 -2.3182  0.1395 -0.3985
 9335SOL     OW39463   4.355   0.760   2.402  0.0442  0.1665  0.2714
 9335SOL    HW139464   4.310   0.764   2.486 -1.8056 -0.4406 -0.6691
 9335SOL    HW239465   4.431   0.706   2.420 -0.4512 -1.1122 -1.4302
 9336SOL     OW39466   2.185   2.964   3.465 -0.1182  0.1305 -0.0865
 9336SOL    HW139467   2.211   2.896   3.403 -0.2261  0.0910 -0.0883
 9336SOL    HW239468   2.178   3.036   3.403  2.4294  1.6067  1.3203
 9337SOL     OW39469   3.916   1.630   3.707  0.5117  0.5313  0.0631
 9337SOL    HW139470   3.861   1.553   3.723  1.4614 -0.3385 -0.8691
 9337SOL    HW239471   3.854   1.693   3.670  0.3460  0.2378 -0.1578
 9338SOL     OW39472   3.343   1.038   8.870  0.1111  0.3739 -0.2403
 9338SOL    HW139473   3.343   1.016   8.963 -0.0487  0.2648 -0.2657
 9338SOL    HW239474   3.415   0.976   8.853  1.3722  1.4136  1.3346
 9339SOL     OW39475   0.033   2.202   2.844  0.2514  0.2555 -0.3529
 9339SOL    HW139476   0.121   2.239   2.835  0.6287 -0.9486 -1.6644
 9339SOL    HW239477   0.044   2.122   2.792 -0.5676  0.1244 -0.3245
 9340SOL     OW39478   0.310   2.327  11.856 -0.5981  0.1116  0.7297
 9340SOL    HW139479   0.361   2.399  11.820 -0.5234  0.9351  2.4886
 9340SOL    HW239480   0.382   2.288  11.904 -1.9677  0.4290  3.0543
 9341SOL     OW39481   4.028   0.837  13.189 -0.7405  0.2942  0.3546
 9341SOL    HW139482   4.091   0.767  13.210 -1.1192 -0.9463 -2.6308
 9341SOL    HW239483   3.964   0.829  13.260 -1.3442 -0.4628 -0.2711
 9342SOL     OW39484   0.290   1.889  11.344 -0.0398  0.0527  0.1057
 9342SOL    HW139485   0.279   1.811  11.288 -1.2241  0.1355  0.2162
 9342SOL    HW239486   0.344   1.948  11.292  0.9051  0.3605  1.4400
 9343SOL     OW39487   2.013   1.403   6.442  0.7562  0.3127 -0.0303
 9343SOL    HW139488   2.094   1.363   6.475  0.0672 -0.4710  0.7054
 9343SOL    HW239489   1.978   1.437   6.524 -0.2241 -0.2009 -0.2403
 9344SOL     OW39490   1.229   1.849   4.890  0.0381  0.3520  0.3606
 9344SOL    HW139491   1.203   1.806   4.808  1.1873  1.4093 -0.5520
 9344SOL    HW239492   1.152   1.906   4.899 -2.7949 -3.0551 -2.0929
 9345SOL     OW39493   0.860   0.109   6.602  0.0018  0.6117 -0.6876
 9345SOL    HW139494   0.805   0.102   6.524 -1.0208  0.0890  0.0779
 9345SOL    HW239495   0.798   0.096   6.674  1.3649 -0.7223  0.2288
 9346SOL     OW39496   3.760   3.184   8.032 -0.3723  0.2766 -1.0782
 9346SOL    HW139497   3.710   3.265   8.029  0.9123  1.1131  0.1625
 9346SOL    HW239498   3.810   3.208   7.954  3.2587 -0.6611  0.9944
 9347SOL     OW39499   1.426   3.763   4.062  0.3087 -0.9906 -0.4918
 9347SOL    HW139500   1.435   3.667   4.059 -2.8674 -1.2869 -0.4087
 9347SOL    HW239501   1.498   3.790   4.006  0.0181 -0.8285 -0.7856
 9348SOL     OW39502   4.379   0.110  13.618 -0.4386 -0.7628  0.3806
 9348SOL    HW139503   4.421   0.157  13.690  1.3387 -2.1553  0.2656
 9348SOL    HW239504   4.441   0.119  13.546 -2.5885  1.0687 -1.2275
 9349SOL     OW39505   3.229   2.201   1.533  0.4586  0.2544  0.2477
 9349SOL    HW139506   3.306   2.149   1.507  0.1615  1.0654 -2.3331
 9349SOL    HW239507   3.169   2.131   1.557  2.4306 -0.5819  2.7057
 9350SOL     OW39508   2.270   3.524  11.125 -0.0049  0.4269  0.3183
 9350SOL    HW139509   2.348   3.571  11.154 -0.6159  1.0614  0.9092
 9350SOL    HW239510   2.245   3.473  11.202 -0.9468 -1.1160 -1.0231
 9351SOL     OW39511   2.156   3.384   4.719 -0.5138 -0.2694  0.7391
 9351SOL    HW139512   2.134   3.328   4.645  1.2406  2.3670 -1.7953
 9351SOL    HW239513   2.156   3.473   4.683 -0.6085  0.5429  2.7466
 9352SOL     OW39514   0.066   3.425   2.557 -0.7196  0.6244 -0.0237
 9352SOL    HW139515   0.113   3.448   2.477 -0.6091  0.7741  0.0860
 9352SOL    HW239516   0.064   3.330   2.544  0.5816  0.5380  0.4443
 9353SOL     OW39517   1.860   0.031  15.132 -0.0369 -0.5680  0.8783
 9353SOL    HW139518   1.766   0.015  15.139 -0.5454  2.2453  0.5373
 9353SOL    HW239519   1.864   0.127  15.140  0.5453 -0.6938  2.0066
 9354SOL     OW39520   3.258   4.693   1.619  0.2549 -0.6539 -0.3128
 9354SOL    HW139521   3.234   0.007   1.534 -1.5114  1.3072  1.0241
 9354SOL    HW239522   3.288   0.049   1.664 -1.3370 -0.3793  0.2557
 9355SOL     OW39523   0.508   0.414   5.654 -0.1726  0.2896 -0.1144
 9355SOL    HW139524   0.590   0.457   5.676 -0.8027  1.3042  0.2662
 9355SOL    HW239525   0.533   0.324   5.634  2.3371  0.8302  0.6196
 9356SOL     OW39526   3.550   0.115   8.738 -0.7021 -0.2941 -0.6173
 9356SOL    HW139527   3.502   0.193   8.709  1.6804  1.7396  0.9631
 9356SOL    HW239528   3.476   0.054   8.734 -0.9997 -0.0481  1.0913
 9357SOL     OW39529   3.161   0.151   3.814 -0.0754 -0.9302  0.2443
 9357SOL    HW139530   3.171   0.239   3.850  3.2673 -1.4455  0.5609
 9357SOL    HW239531   3.127   0.168   3.726 -3.0781 -0.4705  1.4688
 9358SOL     OW39532   1.500   3.938   5.053 -0.2127 -0.1004  0.1731
 9358SOL    HW139533   1.523   3.854   5.092 -0.2380 -1.3822 -2.5699
 9358SOL    HW239534   1.516   3.925   4.959 -1.7470  0.6868 -0.2002
 9359SOL     OW39535   2.000   1.940   2.561 -0.6056  0.2751  0.6538
 9359SOL    HW139536   1.946   1.906   2.489  0.6130 -0.9511  0.3271
 9359SOL    HW239537   2.031   1.853   2.584  0.7285  0.9249  1.3057
 9360SOL     OW39538   0.724   2.516  10.993 -0.0961 -0.5818 -0.1465
 9360SOL    HW139539   0.816   2.492  10.989 -0.3010 -1.0064 -2.8132
 9360SOL    HW239540   0.700   2.504  10.901 -0.7951 -3.6933  0.4227
 9361SOL     OW39541   2.800   0.412   3.320 -0.4859 -0.1804 -0.0287
 9361SOL    HW139542   2.713   0.373   3.313 -0.6728  0.5865 -2.0789
 9361SOL    HW239543   2.771   0.502   3.334 -0.4733 -0.1806 -0.0030
 9362SOL     OW39544   1.208   4.459   2.691  0.6240 -0.0746 -0.1962
 9362SOL    HW139545   1.224   4.378   2.642  0.2864 -0.4293  0.2830
 9362SOL    HW239546   1.182   4.428   2.778 -2.1128 -0.5468 -1.1891
 9363SOL     OW39547   0.396   4.610  15.893 -0.2662 -0.1288 -0.4854
 9363SOL    HW139548   0.402   4.620  15.988 -0.5010 -1.3630 -0.3416
 9363SOL    HW239549   0.302   4.626  15.897  0.2611  2.7556  0.6014
 9364SOL     OW39550   1.473   0.559  12.327  0.1677 -0.1571  0.5308
 9364SOL    HW139551   1.410   0.630  12.321  2.3838  1.4919 -3.4269
 9364SOL    HW239552   1.532   0.597  12.262 -1.7714  0.2708 -0.9547
 9365SOL     OW39553   3.786   0.819   8.368  0.7642  0.9487  0.0400
 9365SOL    HW139554   3.861   0.773   8.330  0.5911  0.0453  0.7886
 9365SOL    HW239555   3.816   0.850   8.453  1.2891  1.0772 -0.1969
 9366SOL     OW39556   2.576   3.813   6.042 -0.0585  0.1489 -0.5190
 9366SOL    HW139557   2.493   3.843   6.080  1.0985  1.3245  1.0507
 9366SOL    HW239558   2.544   3.727   6.016  0.0513 -0.4341  1.3037
 9367SOL     OW39559   3.051   1.501   6.627  0.3085 -0.1522 -0.4133
 9367SOL    HW139560   2.987   1.564   6.660  1.1345 -0.5430  1.9914
 9367SOL    HW239561   3.006   1.426   6.589  0.6423 -0.8216  0.5108
 9368SOL     OW39562   4.290   3.688   0.612 -0.1515 -0.0148 -0.1950
 9368SOL    HW139563   4.280   3.779   0.583 -1.3435  0.0190  0.2948
 9368SOL    HW239564   4.378   3.681   0.576  0.0381  0.3316  0.1991
 9369SOL     OW39565   0.348   0.613   2.284  0.3510  0.5641 -0.5638
 9369SOL    HW139566   0.295   0.611   2.363 -0.2494  1.1023 -0.9499
 9369SOL    HW239567   0.341   0.703   2.253 -0.3034  0.6629 -0.1037
 9370SOL     OW39568   3.465   0.221   2.732  0.2681 -0.2250 -0.1784
 9370SOL    HW139569   3.382   0.242   2.775  1.9148 -0.5316  3.1575
 9370SOL    HW239570   3.450   0.235   2.639  1.3579 -2.5413 -0.7161
 9371SOL     OW39571   2.768   0.963   6.105 -0.0049 -0.0641  0.1047
 9371SOL    HW139572   2.783   1.048   6.147 -0.9710 -0.3273  0.9894
 9371SOL    HW239573   2.829   0.907   6.154 -1.1911 -0.8663  0.6569
 9372SOL     OW39574   1.204   1.315   2.321 -0.1294  0.5002  0.1254
 9372SOL    HW139575   1.191   1.367   2.400  3.0245 -0.3310  1.1922
 9372SOL    HW239576   1.297   1.292   2.321  0.0265  1.1483 -2.0518
 9373SOL     OW39577   3.329   2.741   8.952 -0.2569  0.3276  0.0949
 9373SOL    HW139578   3.406   2.715   9.003  0.5787 -1.3251 -1.9995
 9373SOL    HW239579   3.276   2.667   8.982 -2.6608  2.3697  0.8231
 9374SOL     OW39580   2.401   4.011   3.955  0.1136 -0.4548  0.2553
 9374SOL    HW139581   2.328   3.978   4.007  0.0253 -1.7365 -0.6862
 9374SOL    HW239582   2.402   4.102   3.983  1.3687 -0.1030 -0.8974
 9375SOL     OW39583   4.691   3.297   1.233  0.0395  0.0093 -0.5854
 9375SOL    HW139584   0.004   3.257   1.312 -1.3170 -0.2494 -0.0999
 9375SOL    HW239585   4.597   3.298   1.249 -0.0025 -1.9029 -0.7706
 9376SOL     OW39586   2.272   2.089   6.111 -0.2906 -0.2866  0.0494
 9376SOL    HW139587   2.362   2.063   6.129  0.1128 -0.5869 -2.3770
 9376SOL    HW239588   2.223   2.011   6.138 -0.4834 -0.8526 -1.9724
 9377SOL     OW39589   0.203   2.246  12.830  0.2515  0.5851  0.0639
 9377SOL    HW139590   0.171   2.175  12.774 -0.9665  0.1572  1.2963
 9377SOL    HW239591   0.117   2.271  12.863 -0.8488 -0.6134 -1.9534
 9378SOL     OW39592   2.087   1.629   7.183 -0.1612  0.1231  0.3937
 9378SOL    HW139593   2.160   1.582   7.224 -0.7398  0.4633  1.8146
 9378SOL    HW239594   2.039   1.657   7.262  2.6986  2.1256  1.4500
 9379SOL     OW39595   0.177   2.201  15.967  0.1715  0.4990  1.1967
 9379SOL    HW139596   0.144   2.143  16.036  1.1653  0.0251  1.2798
 9379SOL    HW239597   0.186   2.133  15.900  0.1109  0.9174  0.7630
 9380SOL     OW39598   4.161   0.299   3.971 -0.0513  0.3215  0.4488
 9380SOL    HW139599   4.194   0.351   3.898 -0.8711 -2.5260 -1.9353
 9380SOL    HW239600   4.140   0.376   4.024  1.4536  1.1428 -0.1358
 9381SOL     OW39601   3.688   3.360   8.334 -0.1891  0.4397  0.5718
 9381SOL    HW139602   3.754   3.401   8.390  0.7623 -1.2184  0.6549
 9381SOL    HW239603   3.697   3.409   8.253 -0.8461 -0.2361  0.0899
 9382SOL     OW39604   3.846   1.974   2.974  1.0131 -0.0843 -0.2741
 9382SOL    HW139605   3.800   2.058   2.963 -0.4920 -0.8345  0.2724
 9382SOL    HW239606   3.924   2.000   3.022  2.4415 -0.0034 -2.6413
 9383SOL     OW39607   0.375   2.170   4.632 -0.2499 -0.0578  0.4403
 9383SOL    HW139608   0.314   2.238   4.605  0.1099  0.2133  0.3071
 9383SOL    HW239609   0.311   2.106   4.664  0.6585 -1.2945 -0.2246
 9384SOL     OW39610   2.982   0.684   5.540  0.9869  0.4708  0.0404
 9384SOL    HW139611   2.958   0.615   5.602  2.8555 -0.9254 -0.7831
 9384SOL    HW239612   3.065   0.708   5.582  0.6709  1.1740  0.2497
 9385SOL     OW39613   2.209   2.207   7.145  0.2868  0.1596 -0.1344
 9385SOL    HW139614   2.233   2.142   7.210 -0.6838  0.7314  0.7951
 9385SOL    HW239615   2.167   2.158   7.075 -0.0208  3.2898 -2.1574
 9386SOL     OW39616   2.637   3.858  11.781  0.1237  0.4180 -0.1280
 9386SOL    HW139617   2.611   3.782  11.833 -1.1365 -0.0641 -1.4658
 9386SOL    HW239618   2.720   3.825  11.746 -0.9335 -2.4845  0.1382
 9387SOL     OW39619   2.427   3.626   2.735  0.0229 -0.5540 -0.0158
 9387SOL    HW139620   2.418   3.576   2.815  0.2185  0.4328  0.6262
 9387SOL    HW239621   2.518   3.612   2.709  0.3421 -0.1367  0.8925
 9388SOL     OW39622   1.584   4.467  11.156 -0.3043 -0.3351 -0.2666
 9388SOL    HW139623   1.624   4.391  11.115  1.7590 -0.2273  1.5186
 9388SOL    HW239624   1.527   4.500  11.087 -2.4691  0.6952  1.9941
 9389SOL     OW39625   0.774   2.252   9.823 -0.4497 -0.4500  0.2578
 9389SOL    HW139626   0.862   2.214   9.825  1.0281  3.0132 -0.0424
 9389SOL    HW239627   0.750   2.263   9.731 -2.6701  0.4332  0.9470
 9390SOL     OW39628   4.371   2.954   5.984 -0.6445 -0.3460  0.6500
 9390SOL    HW139629   4.360   3.026   6.046  0.9376  0.2319  0.2750
 9390SOL    HW239630   4.284   2.932   5.953 -0.3127 -1.1400  0.2646
 9391SOL     OW39631   2.645   0.394   0.811 -0.2361 -0.1799 -0.6130
 9391SOL    HW139632   2.587   0.334   0.764 -1.7244  0.8205 -0.0602
 9391SOL    HW239633   2.573   0.429   0.864  0.7961 -0.9543  1.3042
 9392SOL     OW39634   0.934   2.350  10.628 -0.3826 -0.6839  0.0731
 9392SOL    HW139635   0.869   2.338  10.559  0.8772  3.2592 -1.7802
 9392SOL    HW239636   0.894   2.284  10.685  0.7154 -0.5501  0.9992
 9393SOL     OW39637   1.253   1.006   6.189  0.0783 -0.0462 -0.2250
 9393SOL    HW139638   1.322   0.942   6.171 -1.4649 -1.6360 -0.3936
 9393SOL    HW239639   1.168   0.966   6.170 -0.7445  1.9860 -0.8724
 9394SOL     OW39640   1.296   4.377   8.618  0.4548  0.1924  0.5160
 9394SOL    HW139641   1.289   4.469   8.644 -0.5638  0.8572 -2.1147
 9394SOL    HW239642   1.387   4.386   8.587 -0.4263  0.0799 -2.1410
 9395SOL     OW39643   1.994   3.572   6.708 -0.1423 -0.3707  0.2665
 9395SOL    HW139644   1.980   3.618   6.791 -0.8462 -1.7867  0.9243
 9395SOL    HW239645   1.931   3.501   6.720 -0.1082 -0.0815  2.1832
 9396SOL     OW39646   1.499   4.616  11.838  0.1478  0.2234 -0.2489
 9396SOL    HW139647   1.484   4.562  11.915  2.6955  1.7222  1.2889
 9396SOL    HW239648   1.488   4.705  11.873 -2.2773  0.5519 -1.8505
 9397SOL     OW39649   3.712   2.456  12.069 -0.6736 -0.2092 -0.3761
 9397SOL    HW139650   3.668   2.393  12.127  3.1730 -0.3475  2.3780
 9397SOL    HW239651   3.712   2.402  11.991 -1.5162  0.3756 -0.7863
 9398SOL     OW39652   4.582   4.057   3.744 -0.0537  0.6049  0.2002
 9398SOL    HW139653   4.490   4.080   3.757 -0.3783  1.0197 -2.9013
 9398SOL    HW239654   4.626   4.140   3.722 -0.9459  0.7050 -1.2331
 9399SOL     OW39655   4.292   2.511   6.097 -0.4271 -0.5951  0.7749
 9399SOL    HW139656   4.273   2.583   6.157  1.9108  1.5600 -1.0496
 9399SOL    HW239657   4.375   2.544   6.063 -0.8542 -0.5477 -0.2395
 9400SOL     OW39658   2.162   0.420   7.656  0.0005 -0.6612  0.1524
 9400SOL    HW139659   2.130   0.400   7.568  0.1674 -0.2444 -0.0004
 9400SOL    HW239660   2.157   0.515   7.648  2.7594 -0.6287 -1.3065
 9401SOL     OW39661   3.164   0.572   8.664  0.5347  0.0836  0.0431
 9401SOL    HW139662   3.118   0.620   8.733  0.0909 -1.5533  0.8927
 9401SOL    HW239663   3.091   0.541   8.612  0.1041  0.1582  0.6065
 9402SOL     OW39664   0.194   4.593  17.573 -0.2316 -0.1430  0.7509
 9402SOL    HW139665   0.105   4.559  17.567  0.0526 -0.3530 -2.2726
 9402SOL    HW239666   0.243   4.511  17.583 -2.3429 -1.3064  1.4474
 9403SOL     OW39667   4.371   4.121  12.902  0.5075 -0.6033  0.1233
 9403SOL    HW139668   4.426   4.055  12.860 -1.6160 -2.2191 -0.1090
 9403SOL    HW239669   4.433   4.151  12.968  0.1540 -0.3428  0.3380
 9404SOL     OW39670   3.802   0.688  14.996  0.2995 -0.3202  0.3840
 9404SOL    HW139671   3.787   0.659  15.086 -2.8110  1.0094  0.2937
 9404SOL    HW239672   3.872   0.631  14.962 -1.0574 -1.7665  0.0323
 9405SOL     OW39673   0.510   2.702  13.985  0.5178 -0.0281  0.2831
 9405SOL    HW139674   0.602   2.678  13.994  0.6074 -0.0500 -0.7452
 9405SOL    HW239675   0.482   2.717  14.076 -1.7866 -2.2745 -0.0536
 9406SOL     OW39676   3.318   1.507   4.617  0.1380 -0.1872  0.2776
 9406SOL    HW139677   3.361   1.587   4.645 -1.5644  0.6482  0.5254
 9406SOL    HW239678   3.225   1.528   4.604 -0.4074 -1.9676  1.2858
 9407SOL     OW39679   1.495   0.877   1.473  0.3737 -0.1666 -0.1553
 9407SOL    HW139680   1.438   0.829   1.413 -1.0475  0.4655  0.6851
 9407SOL    HW239681   1.499   0.955   1.417  2.3421 -1.5310 -1.9029
 9408SOL     OW39682   3.774   1.456  13.519  0.1204 -0.2264 -0.7360
 9408SOL    HW139683   3.755   1.465  13.425  1.3128 -0.4303 -1.0002
 9408SOL    HW239684   3.793   1.543  13.553  2.6543 -1.9743  2.3141
 9409SOL     OW39685   2.946   0.132  13.271 -0.3809 -0.3856  0.4740
 9409SOL    HW139686   3.000   0.195  13.224  2.1765 -2.5649  0.5265
 9409SOL    HW239687   2.978   0.139  13.361  0.4858  2.8709 -0.0842
 9410SOL     OW39688   0.767   2.791   2.667  0.5162  0.4879  0.1915
 9410SOL    HW139689   0.677   2.760   2.678 -0.1212  2.4805  0.4782
 9410SOL    HW239690   0.771   2.853   2.595  1.5650  1.4370  1.0634
 9411SOL     OW39691   0.911   0.371   7.463 -0.0056 -0.1315 -0.7091
 9411SOL    HW139692   0.848   0.300   7.448  0.7240 -0.9995  0.2213
 9411SOL    HW239693   0.857   0.444   7.435  0.0006 -0.6008 -1.9341
 9412SOL     OW39694   3.473   2.552   4.795  0.0085 -0.3610 -0.0900
 9412SOL    HW139695   3.431   2.484   4.847  2.6505 -0.0782  2.3779
 9412SOL    HW239696   3.566   2.537   4.812 -0.3509 -0.4097  1.7406
 9413SOL     OW39697   3.877   2.972   3.863 -0.1234  0.1416 -0.5299
 9413SOL    HW139698   3.931   3.001   3.936 -0.7927  0.3521 -0.1176
 9413SOL    HW239699   3.856   3.054   3.818  1.5889  1.0608  0.3617
 9414SOL     OW39700   1.055   4.360  13.240 -0.3389 -0.1256  0.1066
 9414SOL    HW139701   1.079   4.419  13.311 -1.7292  1.0032 -0.3697
 9414SOL    HW239702   1.098   4.276  13.255  3.1111  1.7215  0.6252
 9415SOL     OW39703   4.697   0.104  17.386 -0.2022  0.0597 -0.4575
 9415SOL    HW139704   4.641   0.170  17.346 -0.8799 -1.0445 -1.3190
 9415SOL    HW239705   0.051   0.115  17.330 -0.1343  0.6718 -0.2447
 9416SOL     OW39706   2.455   1.405  13.216  0.1634 -0.6035  0.2536
 9416SOL    HW139707   2.393   1.453  13.271 -1.6198 -2.1511 -0.4313
 9416SOL    HW239708   2.415   1.319  13.201 -1.3994  0.6630 -2.8210
 9417SOL     OW39709   1.796   4.584   1.741 -0.5322  0.5914 -0.1152
 9417SOL    HW139710   1.773   4.617   1.654 -2.4991 -1.6793 -0.4687
 9417SOL    HW239711   1.892   4.593   1.736 -0.5529  1.2231  0.8795
 9418SOL     OW39712   2.184   2.596  12.521 -0.1254 -0.1705  0.0730
 9418SOL    HW139713   2.089   2.583  12.522 -0.1117  0.0315  2.6254
 9418SOL    HW239714   2.185   2.661  12.451  0.1802 -0.2383  0.0178
 9419SOL     OW39715   4.002   4.445  12.643 -0.0403 -0.3438 -0.4319
 9419SOL    HW139716   3.969   4.497  12.716  3.0653  1.4157 -0.2566
 9419SOL    HW239717   3.936   4.481  12.585 -1.2884 -1.7399  0.1309
 9420SOL     OW39718   4.525   1.593   9.062 -0.0724 -0.1353 -0.0025
 9420SOL    HW139719   4.464   1.664   9.043 -2.1731 -1.4280  1.8227
 9420SOL    HW239720   4.595   1.616   9.001  1.2444 -0.3863  1.4087
 9421SOL     OW39721   4.312   2.585   4.409 -0.6356 -0.2847  0.4324
 9421SOL    HW139722   4.408   2.577   4.410 -0.7737 -1.8871  0.3848
 9421SOL    HW239723   4.303   2.660   4.349  0.2919  0.4424  1.1976
 9422SOL     OW39724   1.796   0.864   3.983 -0.5634 -0.2244 -0.0891
 9422SOL    HW139725   1.739   0.885   3.909 -0.7930 -1.4093 -0.2469
 9422SOL    HW239726   1.752   0.784   4.011 -3.0763  1.4933  0.7972
 9423SOL     OW39727   2.604   4.105  10.724 -0.4524 -0.0181 -0.4164
 9423SOL    HW139728   2.667   4.060  10.780 -0.7148 -0.5751 -0.5655
 9423SOL    HW239729   2.641   4.087  10.637  1.1429 -0.7540  0.3995
 9424SOL     OW39730   0.565   3.716   4.579  0.2653  0.2618  0.0546
 9424SOL    HW139731   0.562   3.621   4.589  2.5716  0.1142 -0.6902
 9424SOL    HW239732   0.657   3.738   4.593  0.0351  1.8050 -0.8266
 9425SOL     OW39733   0.625   3.610   0.092  0.0017 -0.1157 -0.5451
 9425SOL    HW139734   0.651   3.529   0.048  0.6417 -1.0275  1.4897
 9425SOL    HW239735   0.558   3.567   0.145  1.0505  1.8351  2.3956
 9426SOL     OW39736   2.897   0.849   4.092  0.4789  0.5704  0.2037
 9426SOL    HW139737   2.850   0.767   4.084  0.5534  0.4029  1.4597
 9426SOL    HW239738   2.863   0.881   4.176  0.6535  2.6225 -0.4884
 9427SOL     OW39739   3.936   1.470  16.936  0.0361 -0.2970 -0.2010
 9427SOL    HW139740   3.915   1.554  16.895 -2.2264  0.5373  2.7346
 9427SOL    HW239741   3.934   1.499  17.027  1.6936  1.7125 -0.7781
 9428SOL     OW39742   1.487   0.240  17.294 -0.2033  0.1113 -0.4776
 9428SOL    HW139743   1.531   0.259  17.377  0.2325  0.7024 -0.8446
 9428SOL    HW239744   1.466   0.149  17.313  0.9334 -0.1885 -0.6156
 9429SOL     OW39745   1.922   1.664   7.926 -0.3042  0.3565 -0.3401
 9429SOL    HW139746   1.858   1.600   7.895 -1.8499  2.7865 -2.1616
 9429SOL    HW239747   1.977   1.667   7.848 -2.4773 -0.2097 -1.9072
 9430SOL     OW39748   2.495   1.256   4.847  0.1548  0.1360  0.1608
 9430SOL    HW139749   2.437   1.328   4.874  1.0161 -0.1287  2.6868
 9430SOL    HW239750   2.474   1.242   4.755  0.1805 -1.4273  0.4002
 9431SOL     OW39751   3.103   2.269   1.814  0.2919  0.1070 -0.3767
 9431SOL    HW139752   3.112   2.326   1.737 -2.2545  0.2864 -0.5358
 9431SOL    HW239753   3.011   2.285   1.833  0.4961  0.0407  0.6449
 9432SOL     OW39754   3.671   2.448   4.444  0.2484 -0.4287  0.2116
 9432SOL    HW139755   3.645   2.369   4.491 -0.9249 -0.1266  0.0770
 9432SOL    HW239756   3.765   2.451   4.462  0.0916  0.0370  0.9664
 9433SOL     OW39757   2.722   3.440   2.147 -0.5304  0.1446  0.2169
 9433SOL    HW139758   2.792   3.400   2.095 -1.2900 -0.9085 -0.0129
 9433SOL    HW239759   2.661   3.366   2.139  0.8503 -0.7662 -2.0510
 9434SOL     OW39760   0.079   2.302   0.753  0.4653 -0.2512 -0.2856
 9434SOL    HW139761   0.081   2.379   0.809 -0.8713  0.3524 -1.0855
 9434SOL    HW239762   0.099   2.329   0.664  1.0083 -0.6583 -0.2916
 9435SOL     OW39763   1.765   1.317   4.253 -0.0058  0.8327  0.2955
 9435SOL    HW139764   1.830   1.261   4.211  0.1228  1.8333 -0.8637
 9435SOL    HW239765   1.706   1.252   4.290 -0.3987  1.6795  1.1576
 9436SOL     OW39766   3.617   0.812   4.753 -0.0373 -0.2152  0.4243
 9436SOL    HW139767   3.529   0.835   4.724 -0.2949 -0.4176  1.0556
 9436SOL    HW239768   3.592   0.733   4.800  2.0319 -1.2999 -0.2703
 9437SOL     OW39769   0.212   0.642   4.745 -0.4668 -0.0700 -0.0119
 9437SOL    HW139770   0.291   0.669   4.792  1.3374 -0.2921 -2.9503
 9437SOL    HW239771   0.249   0.590   4.674  1.5125 -1.8077  2.2771
 9438SOL     OW39772   2.793   0.340   1.404 -0.0284  0.5094 -0.0328
 9438SOL    HW139773   2.812   0.411   1.464  0.3025 -1.4482  2.1620
 9438SOL    HW239774   2.880   0.324   1.367 -0.4347  0.4196 -0.9726
 9439SOL     OW39775   1.706   2.303   8.439  0.2531  0.2182  0.2491
 9439SOL    HW139776   1.780   2.267   8.489 -0.0364  0.1599  0.6345
 9439SOL    HW239777   1.633   2.305   8.501  2.8242 -0.0365  3.2503
 9440SOL     OW39778   2.821   3.576  13.051 -0.0886  0.2553 -0.2120
 9440SOL    HW139779   2.748   3.609  12.999 -1.2901 -2.5854 -0.3242
 9440SOL    HW239780   2.783   3.517  13.117  1.9439  0.1372  0.8665
 9441SOL     OW39781   0.577   0.432   6.151  0.5345  0.0020  0.1487
 9441SOL    HW139782   0.655   0.450   6.202  1.3978 -1.4601 -0.6648
 9441SOL    HW239783   0.577   0.496   6.080  0.5395 -0.9910 -0.7583
 9442SOL     OW39784   4.249   4.146   6.098  0.1367 -0.3388  0.1371
 9442SOL    HW139785   4.324   4.098   6.064  0.4948 -0.2100  0.7451
 9442SOL    HW239786   4.263   4.114   6.187  0.2446 -0.4002  0.0979
 9443SOL     OW39787   2.366   4.362   8.536 -0.5366 -0.0774  0.1976
 9443SOL    HW139788   2.298   4.427   8.556 -0.1344  1.1940 -2.5204
 9443SOL    HW239789   2.411   4.330   8.614  0.9525  0.5006 -0.4228
 9444SOL     OW39790   3.674   3.776  12.637 -0.0216 -0.5958  0.0660
 9444SOL    HW139791   3.709   3.733  12.559 -0.1439  0.6593 -0.6854
 9444SOL    HW239792   3.751   3.829  12.658  0.6542 -1.4292 -0.3156
 9445SOL     OW39793   1.470   3.098  11.516 -0.0984 -0.3509  0.2136
 9445SOL    HW139794   1.453   3.094  11.422 -1.6316  0.4611  0.4640
 9445SOL    HW239795   1.564   3.079  11.519 -0.1701 -0.6147  0.7876
 9446SOL     OW39796   4.604   2.917   4.695 -0.1643  0.0560 -0.3336
 9446SOL    HW139797   4.636   2.970   4.622 -1.3896  2.0740  0.5871
 9446SOL    HW239798   4.641   2.831   4.678 -1.7082 -0.9697  1.5989
 9447SOL     OW39799   0.198   3.363   0.540  0.6593  0.3008  0.2171
 9447SOL    HW139800   0.257   3.288   0.547 -0.6175 -0.7390  0.0297
 9447SOL    HW239801   0.203   3.405   0.625 -0.9928 -1.1893  1.0506
 9448SOL     OW39802   0.943   0.281  11.952  0.0164 -0.6708  0.0578
 9448SOL    HW139803   0.883   0.355  11.959  0.2791 -0.3909 -0.6599
 9448SOL    HW239804   0.969   0.290  11.861 -1.1750  1.0612 -0.1041
 9449SOL     OW39805   2.047   3.969   3.259  0.0336 -0.1648 -0.1136
 9449SOL    HW139806   2.025   4.060   3.281 -1.7737 -0.7230  0.4547
 9449SOL    HW239807   1.991   3.961   3.182 -0.9338 -1.5485  0.7366
 9450SOL     OW39808   0.821   0.739  17.136  0.0125 -0.2059  0.0475
 9450SOL    HW139809   0.865   0.799  17.196  0.3285  0.5816 -0.9746
 9450SOL    HW239810   0.800   0.783  17.053 -2.4449 -0.9515  0.2528
 9451SOL     OW39811   4.582   4.558   1.030 -0.3861  0.1327 -0.1228
 9451SOL    HW139812   4.518   4.488   1.041  0.5449 -0.7926 -0.6359
 9451SOL    HW239813   4.663   4.523   1.066 -0.7669 -0.4921  0.1286
 9452SOL     OW39814   0.924   0.110   3.111 -0.3712  0.5322 -1.2486
 9452SOL    HW139815   0.837   0.117   3.150 -0.0436 -0.3345 -0.3490
 9452SOL    HW239816   0.972   0.146   3.186 -1.6752 -1.3373  0.5043
 9453SOL     OW39817   3.738   3.627  13.028 -0.0358 -0.3194  0.4161
 9453SOL    HW139818   3.663   3.685  13.015  1.0595  0.8975 -0.4812
 9453SOL    HW239819   3.715   3.568  12.956  1.5525  2.4190 -2.3426
 9454SOL     OW39820   4.077   2.672  15.804  0.4255  0.8220  0.2846
 9454SOL    HW139821   4.114   2.597  15.758  0.5289  1.4264 -0.6097
 9454SOL    HW239822   4.126   2.737  15.753 -1.6305  1.8889 -0.3146
 9455SOL     OW39823   4.613   3.714   8.324 -0.3797 -0.4513  0.2072
 9455SOL    HW139824   4.573   3.667   8.397  0.7747 -0.9284  0.5262
 9455SOL    HW239825   4.550   3.698   8.253  2.4763  0.1675 -2.4842
 9456SOL     OW39826   3.241   0.129   7.408  0.0622 -0.6863 -0.4007
 9456SOL    HW139827   3.183   0.053   7.413  0.9330 -1.1590  2.3558
 9456SOL    HW239828   3.325   0.089   7.431  0.0541 -0.7835 -0.5362
 9457SOL     OW39829   1.765   3.175   5.841 -0.2793  0.5877  0.0527
 9457SOL    HW139830   1.745   3.239   5.909 -1.8119 -1.9369  2.0269
 9457SOL    HW239831   1.834   3.122   5.880 -0.9146 -0.4469 -0.2118
 9458SOL     OW39832   0.650   2.094  15.462 -0.9023  0.7990  0.5968
 9458SOL    HW139833   0.713   2.038  15.508 -0.1950  0.9358 -0.2226
 9458SOL    HW239834   0.586   2.111  15.532 -1.2514 -1.5004  0.8526
 9459SOL     OW39835   1.982   4.698  10.202  0.2777 -0.1244 -0.4456
 9459SOL    HW139836   1.917   0.028  10.248 -0.4264 -1.5428  0.2061
 9459SOL    HW239837   1.985   4.641  10.279 -3.5990  0.5124  0.1926
 9460SOL     OW39838   1.416   3.480   4.049  0.2337  0.3894  0.2300
 9460SOL    HW139839   1.363   3.451   4.123  1.8310 -0.0394  1.2112
 9460SOL    HW239840   1.426   3.401   3.996  0.3055  1.2312 -1.0271
 9461SOL     OW39841   2.249   0.463   0.900 -0.6229 -0.5474  0.4670
 9461SOL    HW139842   2.337   0.499   0.904 -0.4559 -1.0752  1.6725
 9461SOL    HW239843   2.188   0.530   0.930 -0.2172  0.1317 -0.2372
 9462SOL     OW39844   1.855   0.251   3.773  0.2597 -0.3481 -0.6655
 9462SOL    HW139845   1.785   0.212   3.721  0.0469 -1.3837  0.4001
 9462SOL    HW239846   1.808   0.313   3.829 -0.6527 -1.2883 -0.3870
 9463SOL     OW39847   3.850   1.042   4.871 -0.4020 -0.1570  0.6812
 9463SOL    HW139848   3.835   1.125   4.826  0.8387 -0.4231 -0.2315
 9463SOL    HW239849   3.774   0.998   4.834 -0.0647 -0.7018  0.6330
 9464SOL     OW39850   1.270   3.926  11.979 -0.0722  0.1472 -0.3768
 9464SOL    HW139851   1.286   3.836  11.952  0.3919 -0.2188  1.1331
 9464SOL    HW239852   1.174   3.931  11.972 -0.0791  0.5336  0.0384
 9465SOL     OW39853   0.772   1.474   2.124 -0.1320 -0.7503 -0.2768
 9465SOL    HW139854   0.833   1.447   2.056 -1.5963 -3.5114 -0.5207
 9465SOL    HW239855   0.706   1.523   2.075  0.4985 -0.0396 -0.4077
 9466SOL     OW39856   3.920   4.043   6.370  0.3641 -0.7791 -0.1603
 9466SOL    HW139857   3.985   4.104   6.405  0.2419 -0.9047  0.2823
 9466SOL    HW239858   3.952   3.957   6.398  1.6893 -0.3935 -0.5090
 9467SOL     OW39859   4.354   1.670   3.662  0.1169  0.2877 -0.3661
 9467SOL    HW139860   4.396   1.616   3.729 -0.1716  0.7754  0.2043
 9467SOL    HW239861   4.298   1.603   3.622 -2.0253  1.6738  0.3217
 9468SOL     OW39862   2.889   0.075   3.091  0.4639  0.4787 -0.1060
 9468SOL    HW139863   2.855   0.084   3.180  1.0377  1.9167 -0.0314
 9468SOL    HW239864   2.817   0.033   3.045 -1.5671  1.9663  1.7231
 9469SOL     OW39865   4.099   0.517  10.861  0.2042  0.2612 -0.0990
 9469SOL    HW139866   4.054   0.444  10.818 -1.3681  1.6902 -0.8646
 9469SOL    HW239867   4.155   0.476  10.928  0.0523 -0.6974 -0.5563
 9470SOL     OW39868   2.851   0.508   2.715 -0.3848 -0.0325 -0.3326
 9470SOL    HW139869   2.813   0.420   2.711  1.7350 -0.8487 -2.6158
 9470SOL    HW239870   2.769   0.554   2.698  0.0954  1.0051  0.2082
 9471SOL     OW39871   2.729   4.647   5.040  0.1639 -0.1944 -0.2804
 9471SOL    HW139872   2.754   0.010   5.007 -0.2658  0.4501  1.0639
 9471SOL    HW239873   2.640   4.669   5.067  0.7845  0.6257  1.0948
 9472SOL     OW39874   4.553   3.491   9.305 -0.5633 -0.3955 -0.1247
 9472SOL    HW139875   4.518   3.432   9.372  0.6751  1.1660  1.9180
 9472SOL    HW239876   4.645   3.463   9.307 -1.1466 -2.3142 -1.2219
 9473SOL     OW39877   1.379   1.295  11.680 -0.7140  0.3346 -0.3769
 9473SOL    HW139878   1.350   1.327  11.595  1.2674  1.2351 -0.7248
 9473SOL    HW239879   1.474   1.285  11.671 -0.7486 -1.5472  1.2395
 9474SOL     OW39880   2.726   2.448   3.551 -0.2548  0.0396  0.5698
 9474SOL    HW139881   2.715   2.390   3.475 -0.6940 -0.3678  0.9477
 9474SOL    HW239882   2.733   2.530   3.502  2.2518 -0.0420  0.7760
 9475SOL     OW39883   1.785   0.573   5.308  0.0878 -0.3563  0.0081
 9475SOL    HW139884   1.735   0.537   5.236  0.1793 -0.6998  0.1168
 9475SOL    HW239885   1.723   0.619   5.364  0.3037 -0.3245  0.2225
 9476SOL     OW39886   0.464   3.491   0.623 -0.4824 -0.0935 -0.0131
 9476SOL    HW139887   0.380   3.482   0.577 -1.1885 -0.6218  1.3596
 9476SOL    HW239888   0.469   3.585   0.638 -1.4678  0.2362 -1.7133
 9477SOL     OW39889   1.186   4.126   6.036 -0.4642 -0.2442  0.4109
 9477SOL    HW139890   1.269   4.083   6.060  0.0311 -0.2556 -1.2585
 9477SOL    HW239891   1.214   4.212   6.066  0.6108 -0.2025 -0.6993
 9478SOL     OW39892   0.489   3.965   2.503  0.0203 -0.2668  0.6697
 9478SOL    HW139893   0.428   3.895   2.524 -0.4211 -0.0481  0.1043
 9478SOL    HW239894   0.461   4.034   2.563  1.2760  0.0724  0.8799
 9479SOL     OW39895   3.823   4.154  16.933 -0.1803 -0.1729  0.1867
 9479SOL    HW139896   3.879   4.077  16.921 -0.8264 -0.5273 -0.5793
 9479SOL    HW239897   3.818   4.193  16.846 -0.4690  0.3951  0.4547
 9480SOL     OW39898   0.215   1.882  11.765  0.1202 -0.2168  0.6286
 9480SOL    HW139899   0.241   1.824  11.693  0.9339  4.1863 -2.5879
 9480SOL    HW239900   0.290   1.897  11.823 -0.2598  1.3448  0.7041
 9481SOL     OW39901   0.195   1.056   3.557 -0.3243 -0.0193 -0.1927
 9481SOL    HW139902   0.274   1.037   3.608  0.4104  2.3487 -0.4170
 9481SOL    HW239903   0.231   1.060   3.468 -0.1162  0.1499 -0.1027
 9482SOL     OW39904   2.991   1.029  14.841  0.2013 -0.3173 -0.3674
 9482SOL    HW139905   2.967   1.066  14.756 -1.1100 -1.6315 -0.5716
 9482SOL    HW239906   2.906   1.035  14.886 -0.4619 -2.3134 -1.3322
 9483SOL     OW39907   1.917   2.847   8.155  0.1659  0.0471 -0.3599
 9483SOL    HW139908   1.930   2.756   8.180 -0.2051  0.0925  0.0152
 9483SOL    HW239909   1.827   2.842   8.121 -0.6522 -0.8798  1.9479
 9484SOL     OW39910   0.558   0.623   0.120 -0.0006  0.0282 -0.3213
 9484SOL    HW139911   0.513   0.706   0.132 -0.0125 -0.4926  3.0691
 9484SOL    HW239912   0.561   0.593   0.210 -0.2631  1.3484  0.1284
 9485SOL     OW39913   1.487   2.464   4.260 -0.4934  0.0367 -0.7531
 9485SOL    HW139914   1.455   2.546   4.297  0.7258 -0.6361  1.7823
 9485SOL    HW239915   1.570   2.497   4.226  0.8241 -2.2333  0.2344
 9486SOL     OW39916   2.159   4.228   7.280 -0.4267  0.4776  0.5047
 9486SOL    HW139917   2.102   4.246   7.355  0.4950 -1.9261  1.7556
 9486SOL    HW239918   2.240   4.269   7.310 -0.0376 -0.6144  0.9339
 9487SOL     OW39919   4.296   3.904   9.390 -0.3532 -0.3128  0.4965
 9487SOL    HW139920   4.293   3.927   9.483 -0.4013 -0.0822  0.4388
 9487SOL    HW239921   4.312   3.990   9.351  2.0253  0.2249  2.6353
 9488SOL     OW39922   2.366   1.247   7.000  0.1466 -0.0619 -0.6236
 9488SOL    HW139923   2.331   1.158   7.002  0.6506 -0.2179  0.6574
 9488SOL    HW239924   2.438   1.245   7.063 -0.5011 -1.9581  0.0461
 9489SOL     OW39925   0.984   1.493   2.838 -0.2410 -0.5775 -0.5074
 9489SOL    HW139926   0.971   1.582   2.805  1.6816 -0.2230 -0.2783
 9489SOL    HW239927   1.075   1.472   2.818  0.2062  1.7373 -0.8242
 9490SOL     OW39928   3.927   2.787  12.682 -0.0498  0.5095 -0.1296
 9490SOL    HW139929   3.885   2.860  12.635 -2.0227  0.8857  2.2599
 9490SOL    HW239930   3.864   2.776  12.752 -0.6661  0.1757 -0.7393
 9491SOL     OW39931   3.103   4.326   8.369 -1.0683 -0.2640  0.0490
 9491SOL    HW139932   3.111   4.410   8.415  2.1428  0.3134 -1.5204
 9491SOL    HW239933   3.068   4.277   8.443 -0.6762 -0.9475 -0.2137
 9492SOL     OW39934   2.426   0.266   3.620  0.2545 -0.4516  0.4764
 9492SOL    HW139935   2.467   0.348   3.591 -1.7347  1.1120  2.0397
 9492SOL    HW239936   2.410   0.224   3.536 -0.4493  0.1564  0.3081
 9493SOL     OW39937   3.350   4.619   5.203 -0.3306 -0.6119  0.2349
 9493SOL    HW139938   3.338   4.664   5.287  0.6539  0.0319  0.0325
 9493SOL    HW239939   3.336   4.528   5.228 -3.0110 -0.1324  0.4625
 9494SOL     OW39940   1.193   3.542   5.400  0.3511  0.2599  0.4413
 9494SOL    HW139941   1.265   3.482   5.419  0.8093  1.2849  1.9190
 9494SOL    HW239942   1.125   3.498   5.452 -0.0543 -0.0238 -0.3321
 9495SOL     OW39943   3.561   2.611   8.062  0.7434  0.3496  0.0437
 9495SOL    HW139944   3.607   2.558   8.127  0.4855  1.2611  0.9716
 9495SOL    HW239945   3.472   2.594   8.094  0.6191  0.2341 -0.3663
 9496SOL     OW39946   1.242   4.562   3.654 -0.2303  0.2374  0.0948
 9496SOL    HW139947   1.231   4.565   3.749 -0.5021  2.5330 -0.0203
 9496SOL    HW239948   1.183   4.490   3.629  0.3501  0.3531 -1.5972
 9497SOL     OW39949   1.637   0.721   8.595 -0.2079 -0.2397 -0.4865
 9497SOL    HW139950   1.649   0.734   8.501  1.6368 -1.2520 -0.4012
 9497SOL    HW239951   1.618   0.814   8.609  0.3877  0.1066 -1.9367
 9498SOL     OW39952   4.580   0.350  10.906 -0.1359 -0.4129 -0.0425
 9498SOL    HW139953   4.586   0.383  10.817  1.8948 -1.4286 -0.2907
 9498SOL    HW239954   4.495   0.305  10.907 -0.6461  0.5625 -0.4959
 9499SOL     OW39955   0.162   2.139   2.204 -0.2131  0.4545 -0.0256
 9499SOL    HW139956   0.142   2.056   2.161 -2.2652  0.3152  1.1673
 9499SOL    HW239957   0.182   2.197   2.130 -2.0246  1.0615 -0.0477
 9500SOL     OW39958   4.429   4.132   2.624  0.1133 -0.6136  0.5626
 9500SOL    HW139959   4.506   4.084   2.593  1.2563 -0.3248  2.9481
 9500SOL    HW239960   4.459   4.160   2.711 -1.7839 -1.6364  1.5628
 9501SOL     OW39961   4.100   0.669  14.280  0.1352  0.9409  0.0282
 9501SOL    HW139962   4.012   0.635  14.297 -0.1885  1.4351 -0.6496
 9501SOL    HW239963   4.085   0.723  14.203  0.4557  0.4554 -0.3765
 9502SOL     OW39964   3.642   1.320   1.196  0.1512  0.1285 -0.6722
 9502SOL    HW139965   3.736   1.325   1.211 -0.2382  0.0949  1.7900
 9502SOL    HW239966   3.612   1.402   1.235  0.5989  0.0415 -0.1337
 9503SOL     OW39967   1.709   3.945   3.827  0.1665 -0.2981 -0.3397
 9503SOL    HW139968   1.629   3.994   3.847  0.1834  0.1399 -1.3503
 9503SOL    HW239969   1.674   3.857   3.843  0.0480  0.4490  3.4909
 9504SOL     OW39970   1.252   0.101   3.969 -0.0482  0.4293 -0.0329
 9504SOL    HW139971   1.217   0.137   4.050  1.1188 -3.9584  2.4052
 9504SOL    HW239972   1.347   0.099   3.986 -0.0943 -3.2556 -0.2243
 9505SOL     OW39973   4.654   0.675  14.220  0.5513  0.1161 -0.5285
 9505SOL    HW139974   4.630   0.618  14.293  1.5499  0.8822  0.3956
 9505SOL    HW239975   4.584   0.651  14.158 -1.6303  1.9467  1.2433
 9506SOL     OW39976   0.720   2.163  16.085 -0.3398  0.2878 -0.2833
 9506SOL    HW139977   0.754   2.095  16.142  0.6145  2.2377  1.4596
 9506SOL    HW239978   0.763   2.138  16.003  0.6951  0.6235  0.1576
 9507SOL     OW39979   4.564   3.294   6.807 -0.6028 -0.3440 -0.0271
 9507SOL    HW139980   4.649   3.328   6.835 -0.7513 -0.6086  0.7428
 9507SOL    HW239981   4.560   3.220   6.868 -0.2752 -2.2452 -2.3126
 9508SOL     OW39982   2.734   1.164  13.731 -0.1505  0.1115 -0.3140
 9508SOL    HW139983   2.789   1.092  13.762 -0.3860  1.6282  3.7189
 9508SOL    HW239984   2.652   1.121  13.709  0.5431 -1.4019  0.0773
 9509SOL     OW39985   4.502   1.164   3.997 -0.6418 -0.1310  1.0387
 9509SOL    HW139986   4.463   1.197   3.916  0.8530  0.8072  0.6957
 9509SOL    HW239987   4.518   1.243   4.048  2.5741  0.6208 -1.1513
 9510SOL     OW39988   1.232   0.854  10.855  0.0544  0.6256  0.3121
 9510SOL    HW139989   1.224   0.876  10.762 -0.4347 -0.2427  0.1536
 9510SOL    HW239990   1.258   0.939  10.892  0.3235  0.3280  0.8008
 9511SOL     OW39991   3.397   2.934   3.536  0.3646 -0.3965 -0.0973
 9511SOL    HW139992   3.399   2.971   3.448  0.2655  0.5032  0.2802
 9511SOL    HW239993   3.490   2.923   3.557 -0.7689 -2.0813  3.9834
 9512SOL     OW39994   4.275   1.049  10.581 -0.1923 -0.2227 -0.0894
 9512SOL    HW139995   4.212   1.092  10.639  2.0570 -0.3388  2.4144
 9512SOL    HW239996   4.291   0.971  10.634  0.2227 -0.8527 -1.1425
 9513SOL     OW39997   0.806   2.510   5.241 -0.1447 -0.8981  1.0329
 9513SOL    HW139998   0.895   2.478   5.226  0.0037 -0.5207  1.0911
 9513SOL    HW239999   0.765   2.429   5.271 -0.3944 -1.2749 -0.3319
 9514SOL     OW40000   0.875   0.990   0.749 -0.4626  0.4751  0.1630
 9514SOL    HW140001   0.936   0.941   0.693 -1.0518 -0.7414  0.5877
 9514SOL    HW240002   0.886   1.078   0.714  0.2134  1.5739  3.1746
 9515SOL     OW40003   2.715   1.724   2.441 -0.0442  0.3127  0.3433
 9515SOL    HW140004   2.804   1.691   2.443 -1.1427 -2.6574  0.3349
 9515SOL    HW240005   2.679   1.710   2.353  3.6404 -0.8943 -0.9417
 9516SOL     OW40006   2.363   0.996   3.962 -0.0730  0.2973 -0.3202
 9516SOL    HW140007   2.319   0.930   3.910  2.4710 -0.2791 -1.7426
 9516SOL    HW240008   2.327   1.080   3.933 -1.7718 -0.1105  0.6244
 9517SOL     OW40009   1.145   2.588  15.071 -0.0420 -0.2145 -0.3689
 9517SOL    HW140010   1.076   2.638  15.028 -1.2046 -0.3320  1.3511
 9517SOL    HW240011   1.219   2.649  15.062 -1.0014  1.1305  0.9064
 9518SOL     OW40012   3.192   0.080  17.191  0.4215  0.0980  0.3225
 9518SOL    HW140013   3.184   0.021  17.116 -0.2482  2.3051 -1.3265
 9518SOL    HW240014   3.164   0.161  17.148  1.9822  0.1972 -0.4890
 9519SOL     OW40015   0.220   3.734   8.288 -0.2915  0.3967 -0.5803
 9519SOL    HW140016   0.136   3.780   8.287 -1.6384 -2.0583  0.0508
 9519SOL    HW240017   0.218   3.647   8.248 -1.4235  0.0718  0.1911
 9520SOL     OW40018   0.834   3.319   4.885  0.3633 -0.7095  0.1816
 9520SOL    HW140019   0.853   3.329   4.791  2.9753 -0.3039  0.7436
 9520SOL    HW240020   0.857   3.409   4.908  0.1152 -0.6518  0.1989
 9521SOL     OW40021   1.375   2.602   8.105 -0.4475 -0.3702 -0.2835
 9521SOL    HW140022   1.294   2.553   8.088 -0.3859 -0.5857  0.0495
 9521SOL    HW240023   1.429   2.537   8.151  1.1278 -0.1720 -1.8369
 9522SOL     OW40024   2.361   2.926   4.618  0.4496  0.3252  0.0215
 9522SOL    HW140025   2.322   2.860   4.675 -0.0373 -0.7524 -1.5837
 9522SOL    HW240026   2.373   2.995   4.684 -1.6665  0.7236  0.0025
 9523SOL     OW40027   0.510   1.428   6.041  0.2836  0.4293  0.0339
 9523SOL    HW140028   0.540   1.495   6.103  1.6144 -0.2690  0.1472
 9523SOL    HW240029   0.473   1.356   6.091  1.4922  0.5375  1.1015
 9524SOL     OW40030   1.495   4.392   3.879 -0.3677  0.0963 -0.2421
 9524SOL    HW140031   1.416   4.432   3.842 -0.1403  0.5151 -0.2719
 9524SOL    HW240032   1.548   4.373   3.802  0.3631  2.5607 -0.3407
 9525SOL     OW40033   1.242   1.660   8.562 -0.1880  0.5063  0.3610
 9525SOL    HW140034   1.193   1.591   8.518  0.6214  0.3577 -0.3114
 9525SOL    HW240035   1.163   1.704   8.594 -0.8264  0.6595 -1.4488
 9526SOL     OW40036   0.461   1.528   8.585  0.0974  0.2719  0.5299
 9526SOL    HW140037   0.551   1.522   8.617  0.4283  0.1211 -0.4322
 9526SOL    HW240038   0.467   1.552   8.492  1.5255 -1.6635  0.1136
 9527SOL     OW40039   2.814   3.101   9.180 -0.0920  0.5540 -0.1416
 9527SOL    HW140040   2.815   3.035   9.110 -2.1920 -2.4807  2.6401
 9527SOL    HW240041   2.731   3.145   9.161 -0.8416 -0.9235 -0.3403
 9528SOL     OW40042   3.479   0.505  10.084 -0.3281  0.2290  0.2484
 9528SOL    HW140043   3.542   0.432  10.082 -0.2672  0.3020 -0.5858
 9528SOL    HW240044   3.487   0.538  10.173  1.4610 -0.1219  0.2323
 9529SOL     OW40045   3.726   0.693   2.511 -0.7931 -0.2277  0.2693
 9529SOL    HW140046   3.746   0.786   2.497  3.1688 -1.0267  0.8706
 9529SOL    HW240047   3.746   0.689   2.605  1.3428 -0.2661 -0.1907
 9530SOL     OW40048   2.863   0.037   1.745  1.5293  0.2628  0.4247
 9530SOL    HW140049   2.825   0.122   1.770 -2.3742 -2.5050  3.9101
 9530SOL    HW240050   2.919   0.011   1.819  0.1607  1.7848  2.0178
 9531SOL     OW40051   3.976   4.090   0.228  0.1682  0.0951  0.3995
 9531SOL    HW140052   3.926   4.017   0.193  0.2910 -0.0483  0.5228
 9531SOL    HW240053   4.010   4.055   0.310  0.4597  0.2112  0.3285
 9532SOL     OW40054   2.767   2.429   2.580 -1.0281  0.1993  0.1765
 9532SOL    HW140055   2.819   2.455   2.503 -1.2936 -0.7472 -0.3224
 9532SOL    HW240056   2.803   2.341   2.591 -1.0515  0.4130  1.9976
 9533SOL     OW40057   3.148   1.114  11.332  0.0221  0.0891 -0.0122
 9533SOL    HW140058   3.140   1.126  11.237  0.6249 -1.9589 -0.3254
 9533SOL    HW240059   3.162   1.205  11.359  1.0186  0.1533 -0.7326
 9534SOL     OW40060   1.846   0.102   6.709 -0.1188 -0.7595  0.4023
 9534SOL    HW140061   1.829   0.080   6.617 -0.5878 -0.4572  0.4207
 9534SOL    HW240062   1.782   0.045   6.752  1.1356 -1.0746  1.8240
 9535SOL     OW40063   0.061   0.740   2.907  0.5185 -0.1858 -0.1722
 9535SOL    HW140064   0.111   0.815   2.875 -1.0942  0.6873 -0.6578
 9535SOL    HW240065   4.694   0.758   2.878  0.9372 -1.8860 -2.5707
 9536SOL     OW40066   4.525   4.564   0.557  0.0067 -0.2016 -0.4507
 9536SOL    HW140067   4.493   4.476   0.576  0.5778 -0.2630  0.2034
 9536SOL    HW240068   4.605   4.547   0.507  0.0619  0.2842 -0.5284
 9537SOL     OW40069   1.462   1.948   8.115  0.2288  0.3355  0.4117
 9537SOL    HW140070   1.500   2.028   8.151 -0.8568  0.4810  1.2462
 9537SOL    HW240071   1.408   1.987   8.045 -0.3210 -2.4918 -0.7463
 9538SOL     OW40072   3.955   1.887   6.464 -0.8275 -0.2549 -0.0180
 9538SOL    HW140073   3.901   1.932   6.530 -0.7979  1.3832 -1.1057
 9538SOL    HW240074   4.012   1.837   6.522 -2.7325  0.6207  2.5915
 9539SOL     OW40075   4.056   3.514   6.625  0.0594 -0.2029 -0.8620
 9539SOL    HW140076   4.020   3.588   6.576 -0.9510 -1.1660 -1.5851
 9539SOL    HW240077   4.033   3.433   6.579  1.6283  0.1067 -2.1965
 9540SOL     OW40078   3.245   1.556   4.095 -0.1813 -0.5254 -0.2229
 9540SOL    HW140079   3.182   1.525   4.161 -0.0823 -0.8332 -0.2726
 9540SOL    HW240080   3.321   1.570   4.151 -1.2233  1.4982  0.6629
 9541SOL     OW40081   3.298   0.252  11.963 -0.2132  0.0945  0.6874
 9541SOL    HW140082   3.370   0.254  11.900  0.1147 -1.5494  0.9826
 9541SOL    HW240083   3.336   0.195  12.030  0.2480  0.4178  0.6976
 9542SOL     OW40084   2.511   1.088  12.490  0.1819 -0.1987  0.1175
 9542SOL    HW140085   2.490   0.997  12.469  0.6928 -0.3709  0.3438
 9542SOL    HW240086   2.605   1.095  12.473  0.0691  2.1878  0.4913
 9543SOL     OW40087   4.046   4.239   5.698  0.0447 -0.2884  0.1377
 9543SOL    HW140088   4.026   4.264   5.789 -1.7332 -0.1648 -0.2890
 9543SOL    HW240089   4.026   4.146   5.688 -0.4813 -0.0735 -0.7728
 9544SOL     OW40090   0.353   2.585  12.487  0.5075 -0.4811  0.1140
 9544SOL    HW140091   0.343   2.548  12.575 -0.6596  0.3840  0.3465
 9544SOL    HW240092   0.329   2.674  12.515  0.4869 -0.6053  0.4916
 9545SOL     OW40093   2.293   2.287   4.657 -0.4092 -0.2392 -0.2086
 9545SOL    HW140094   2.364   2.310   4.596  0.5536 -0.6915  0.7461
 9545SOL    HW240095   2.335   2.249   4.734  1.5950  0.1712 -1.0703
 9546SOL     OW40096   3.103   3.604   8.512 -0.1221  0.4174 -0.0863
 9546SOL    HW140097   3.086   3.695   8.538  0.5475 -0.0088  1.8517
 9546SOL    HW240098   3.195   3.585   8.529 -0.6032 -1.9487 -0.1056
 9547SOL     OW40099   4.704   3.509  16.118 -0.0495 -0.2670 -0.3424
 9547SOL    HW140100   0.006   3.481  16.030 -0.3275  1.9962 -1.1365
 9547SOL    HW240101   4.722   3.603  16.120  1.2934 -0.5413  1.7618
 9548SOL     OW40102   1.050   1.653   5.982 -0.0393 -1.0891  0.2428
 9548SOL    HW140103   0.986   1.721   5.961  1.8432  0.5849 -0.0182
 9548SOL    HW240104   1.022   1.581   5.924 -2.4254 -0.5746  0.7490
 9549SOL     OW40105   3.902   1.000  11.442 -0.4618  0.5045  0.2743
 9549SOL    HW140106   3.991   1.022  11.468  0.9215 -3.0454 -1.4131
 9549SOL    HW240107   3.849   1.063  11.491  0.1482  1.9227 -0.8981
 9550SOL     OW40108   0.048   3.186   6.310  0.4445  0.3114 -0.3726
 9550SOL    HW140109   0.138   3.218   6.318 -0.0267  1.3380  0.8406
 9550SOL    HW240110   0.009   3.213   6.393 -3.5094 -2.0011 -1.4742
 9551SOL     OW40111   0.906   2.067   8.605 -0.0270 -0.7402 -0.2547
 9551SOL    HW140112   0.825   2.061   8.555  0.8314  0.0205 -1.7374
 9551SOL    HW240113   0.963   2.050   8.531  0.8773 -2.0384  0.7483
 9552SOL     OW40114   3.896   1.064   4.515  0.0424 -0.1167  0.0958
 9552SOL    HW140115   3.831   0.993   4.510 -1.2831  1.0422  0.8991
 9552SOL    HW240116   3.954   1.015   4.572  2.0991 -0.0612 -1.9494
 9553SOL     OW40117   0.166   4.298   5.247  0.7414 -0.2516  0.6420
 9553SOL    HW140118   0.235   4.293   5.181  1.3334 -0.4075  1.2637
 9553SOL    HW240119   0.198   4.379   5.286  0.4629 -1.0116  2.4719
 9554SOL     OW40120   0.744   4.322   9.122 -0.4284 -0.0630  0.8826
 9554SOL    HW140121   0.813   4.255   9.124 -0.2116  0.1128 -0.4020
 9554SOL    HW240122   0.676   4.286   9.178 -0.0192  1.1955  2.2021
 9555SOL     OW40123   1.406   4.429   6.847  0.7597 -0.8187  0.0012
 9555SOL    HW140124   1.390   4.483   6.769  2.3315  0.3006  0.4595
 9555SOL    HW240125   1.326   4.440   6.898  0.3198 -1.4599 -0.5487
 9556SOL     OW40126   0.189   4.091   7.254 -0.4919 -0.2178 -0.1988
 9556SOL    HW140127   0.156   4.050   7.334 -0.6238  0.1158 -0.0819
 9556SOL    HW240128   0.143   4.033   7.192  0.0017 -1.0380  0.2018
 9557SOL     OW40129   2.507   1.146   8.458  0.1505 -0.2216 -0.1912
 9557SOL    HW140130   2.467   1.103   8.534 -0.3764  0.3749 -0.1343
 9557SOL    HW240131   2.596   1.113   8.446  0.3854  0.1669  0.4947
 9558SOL     OW40132   4.070   2.267   1.170  0.2370  0.3027  0.2312
 9558SOL    HW140133   4.096   2.204   1.238 -1.0141  2.7322  2.9468
 9558SOL    HW240134   4.155   2.270   1.126 -0.1035 -0.7321 -0.5173
 9559SOL     OW40135   4.193   3.996   7.554  0.1238 -0.3199 -0.2291
 9559SOL    HW140136   4.247   3.919   7.567 -0.2401 -0.4428  0.5890
 9559SOL    HW240137   4.217   4.041   7.635 -2.7822 -1.6165  1.3543
 9560SOL     OW40138   3.397   2.695   1.548 -0.7167  0.5373 -0.0276
 9560SOL    HW140139   3.373   2.667   1.460 -0.7362 -0.8672  0.4148
 9560SOL    HW240140   3.353   2.632   1.606  0.0655 -0.2504 -0.2817
 9561SOL     OW40141   3.242   2.214   6.853  0.2832  0.0753  0.0446
 9561SOL    HW140142   3.177   2.253   6.795 -0.0514  0.9515  1.0159
 9561SOL    HW240143   3.257   2.282   6.919  1.7924  0.7807 -1.0063
 9562SOL     OW40144   1.704   0.749   8.091 -0.3701 -0.3649 -0.3613
 9562SOL    HW140145   1.738   0.803   8.020 -0.3874 -0.5362 -0.4976
 9562SOL    HW240146   1.610   0.764   8.099 -0.0511  1.2220  0.5747
 9563SOL     OW40147   3.300   1.083  14.409 -0.1683 -0.0883 -0.4150
 9563SOL    HW140148   3.378   1.137  14.391 -0.5551  0.2598 -1.0665
 9563SOL    HW240149   3.257   1.134  14.477  0.2507 -0.2729 -0.0164
 9564SOL     OW40150   0.742   1.201   6.999  0.1371  0.0710  0.1399
 9564SOL    HW140151   0.832   1.218   6.969 -0.0829 -1.8965 -1.6791
 9564SOL    HW240152   0.740   1.251   7.080 -0.1005  1.9288 -1.0049
 9565SOL     OW40153   2.905   2.294   3.040  0.1762  0.2127 -0.3662
 9565SOL    HW140154   2.960   2.355   2.991  1.4136  0.8691  1.7991
 9565SOL    HW240155   2.827   2.310   2.988  0.0763  1.4437  0.1508
   4.72276   4.72276  17.69301
